<event>
 8    1  0.9400004E-006  0.3659636E+03  0.7546771E-02  0.1056247E+00
         21   -1    0    0  504  503  0.00000000000E+00  0.00000000000E+00  0.22697603365E+03  0.22697603365E+03  0.00000000000E+00 0. -1.
         21   -1    0    0  503  504 -0.00000000000E+00 -0.00000000000E+00 -0.14751488675E+03  0.14751488675E+03  0.00000000000E+00 0. -1.
         25    2    1    2    0    0 -0.50814286415E+02  0.12359346454E+03  0.39641034169E+02  0.18722870006E+03  0.12500295338E+03 0.  0.
         25    2    1    2    0    0  0.50814286415E+02 -0.12359346454E+03  0.39820112732E+02  0.18726222034E+03  0.12499624637E+03 0.  0.
          5    1    3    3  501    0 -0.36186374845E+02  0.50128791015E+02 -0.43104904511E+02  0.75514715162E+02  0.47000000000E+01 0.  1.
         -5    1    3    3    0  501 -0.14627911570E+02  0.73464673528E+02  0.82745938680E+02  0.11171398490E+03  0.47000000000E+01 0.  1.
          5    1    4    4  502    0  0.75094403323E+02 -0.96481733579E+02 -0.12897483742E+02  0.12302979075E+03  0.47000000000E+01 0. -1.
         -5    1    4    4    0  502 -0.24280116908E+02 -0.27111730964E+02  0.52717596474E+02  0.64232429589E+02  0.47000000000E+01 0. -1.
<mgrwt>
<rscale>  0 0.36596363E+03</rscale>
<asrwt>0</asrwt>
<pdfrwt beam="1">  1       21 0.34919390E-01 0.36596363E+03</pdfrwt>
<pdfrwt beam="2">  1       21 0.22694598E-01 0.36596363E+03</pdfrwt>
<totfact> 0.13722507E+05</totfact>
</mgrwt>
</event>
<event>
 8    1  0.9400004E-006  0.3545960E+03  0.7546771E-02  0.1060744E+00
         21   -1    0    0  504  503  0.00000000000E+00  0.00000000000E+00  0.79360464628E+02  0.79360464628E+02  0.00000000000E+00 0.  1.
         21   -1    0    0  503  504 -0.00000000000E+00 -0.00000000000E+00 -0.39609865426E+03  0.39609865426E+03  0.00000000000E+00 0.  1.
         25    2    1    2    0    0  0.11726455095E+03  0.45135468788E+02 -0.16462600648E+03  0.24189801323E+03  0.12499896537E+03 0.  0.
         25    2    1    2    0    0 -0.11726455095E+03 -0.45135468788E+02 -0.15211218315E+03  0.23356110565E+03  0.12499795343E+03 0.  0.
          5    1    3    3  501    0  0.63866928539E+02  0.66348701411E+02 -0.32550702493E+02  0.97789431805E+02  0.47000000000E+01 0. -1.
         -5    1    3    3    0  501  0.53397622406E+02 -0.21213232624E+02 -0.13207530399E+03  0.14410858143E+03  0.47000000000E+01 0. -1.
          5    1    4    4  502    0 -0.67551126534E+02 -0.87921210794E+02 -0.10390848008E+03  0.15202748513E+03  0.47000000000E+01 0. -1.
         -5    1    4    4    0  502 -0.49713424411E+02  0.42785742007E+02 -0.48203703071E+02  0.81533620523E+02  0.47000000000E+01 0. -1.
<mgrwt>
<rscale>  0 0.35459596E+03</rscale>
<asrwt>0</asrwt>
<pdfrwt beam="1">  1       21 0.12209302E-01 0.35459596E+03</pdfrwt>
<pdfrwt beam="2">  1       21 0.60938255E-01 0.35459596E+03</pdfrwt>
<totfact> 0.13614012E+05</totfact>
</mgrwt>
</event>
<event>
 8    1  0.9400004E-006  0.2683164E+03  0.7546771E-02  0.1102247E+00
         21   -1    0    0  504  503  0.00000000000E+00  0.00000000000E+00  0.52150216012E+02  0.52150216012E+02  0.00000000000E+00 0. -1.
         21   -1    0    0  503  504 -0.00000000000E+00 -0.00000000000E+00 -0.34512659485E+03  0.34512659485E+03  0.00000000000E+00 0. -1.
         25    2    1    2    0    0  0.31725489775E+02  0.35532039891E+02 -0.16166645088E+03  0.20982995868E+03  0.12499415050E+03 0.  0.
         25    2    1    2    0    0 -0.31725489775E+02 -0.35532039891E+02 -0.13130992795E+03  0.18744685218E+03  0.12499997061E+03 0.  0.
          5    1    3    3  501    0  0.11250681600E+02 -0.42792203526E+02 -0.94806752191E+02  0.10472898730E+03  0.47000000000E+01 0.  1.
         -5    1    3    3    0  501  0.20474808174E+02  0.78324243417E+02 -0.66859698693E+02  0.10510097138E+03  0.47000000000E+01 0.  1.
          5    1    4    4  502    0 -0.50996685972E+02 -0.60370200364E+02 -0.13390249180E+03  0.15555446115E+03  0.47000000000E+01 0. -1.
         -5    1    4    4    0  502  0.19271196197E+02  0.24838160473E+02  0.25925638487E+01  0.31892391034E+02  0.47000000000E+01 0. -1.
<mgrwt>
<rscale>  0 0.26831643E+03</rscale>
<asrwt>0</asrwt>
<pdfrwt beam="1">  1       21 0.80231101E-02 0.26831643E+03</pdfrwt>
<pdfrwt beam="2">  1       21 0.53096400E-01 0.26831643E+03</pdfrwt>
<totfact> 0.39446265E+05</totfact>
</mgrwt>
</event>
<event>
 8    1  0.9400004E-006  0.2910209E+03  0.7546771E-02  0.1089817E+00
         21   -1    0    0  504  503  0.00000000000E+00  0.00000000000E+00  0.34034369264E+02  0.34034369264E+02  0.00000000000E+00 0. -1.
         21   -1    0    0  503  504 -0.00000000000E+00 -0.00000000000E+00 -0.62211505851E+03  0.62211505851E+03  0.00000000000E+00 0. -1.
         25    2    1    2    0    0 -0.11022636717E+02 -0.66170571737E+01 -0.12861671762E+03  0.17981254100E+03  0.12500002353E+03 0.  0.
         25    2    1    2    0    0  0.11022636717E+02  0.66170571737E+01 -0.45946397163E+03  0.47633688678E+03  0.12499761804E+03 0.  0.
          5    1    3    3  501    0 -0.16961074457E+02 -0.36809327854E+02  0.63597183530E+01  0.41293349118E+02  0.47000000000E+01 0. -1.
         -5    1    3    3    0  501  0.59384377401E+01  0.30192270680E+02 -0.13497643597E+03  0.13851919188E+03  0.47000000000E+01 0. -1.
          5    1    4    4  502    0 -0.67680958182E+01 -0.25908544809E+02 -0.42382875055E+03  0.42469984649E+03  0.47000000000E+01 0.  1.
         -5    1    4    4    0  502  0.17790732536E+02  0.32525601983E+02 -0.35635221079E+02  0.51637040289E+02  0.47000000000E+01 0.  1.
<mgrwt>
<rscale>  0 0.29102092E+03</rscale>
<asrwt>0</asrwt>
<pdfrwt beam="1">  1       21 0.52360573E-02 0.29102092E+03</pdfrwt>
<pdfrwt beam="2">  1       21 0.95710001E-01 0.29102092E+03</pdfrwt>
<totfact> 0.22001151E+05</totfact>
</mgrwt>
</event>
<event>
 8    1  0.9400004E-006  0.4301038E+03  0.7546771E-02  0.1033827E+00
         21   -1    0    0  504  503  0.00000000000E+00  0.00000000000E+00  0.45696525176E+02  0.45696525176E+02  0.00000000000E+00 0. -1.
         21   -1    0    0  503  504 -0.00000000000E+00 -0.00000000000E+00 -0.10120531084E+04  0.10120531084E+04  0.00000000000E+00 0. -1.
         25    2    1    2    0    0  0.91994806745E+02 -0.41169128127E+02 -0.13138575078E+03  0.20747453251E+03  0.12500209819E+03 0.  0.
         25    2    1    2    0    0 -0.91994806745E+02  0.41169128127E+02 -0.83497083245E+03  0.85027510108E+03  0.12503405492E+03 0.  0.
          5    1    3    3  501    0  0.87583895959E+02 -0.59035330779E+02 -0.38268029270E+02  0.11243950007E+03  0.47000000000E+01 0. -1.
         -5    1    3    3    0  501  0.44109107859E+01  0.17866202652E+02 -0.93117721511E+02  0.95035032438E+02  0.47000000000E+01 0. -1.
          5    1    4    4  502    0 -0.84050912033E+02 -0.10010783042E+02 -0.70813613740E+03  0.71319257615E+03  0.47000000000E+01 0.  1.
         -5    1    4    4    0  502 -0.79438947120E+01  0.51179911169E+02 -0.12683469505E+03  0.13708252492E+03  0.47000000000E+01 0.  1.
<mgrwt>
<rscale>  0 0.43010376E+03</rscale>
<asrwt>0</asrwt>
<pdfrwt beam="1">  1       21 0.70302347E-02 0.43010376E+03</pdfrwt>
<pdfrwt beam="2">  1       21 0.15570048E+00 0.43010376E+03</pdfrwt>
<totfact> 0.36887789E+04</totfact>
</mgrwt>
</event>
<event>
 8    1  0.9400004E-006  0.4592837E+03  0.7546771E-02  0.1024989E+00
         21   -1    0    0  504  503  0.00000000000E+00  0.00000000000E+00  0.14058474952E+03  0.14058474952E+03  0.00000000000E+00 0.  1.
         21   -1    0    0  503  504 -0.00000000000E+00 -0.00000000000E+00 -0.37511445354E+03  0.37511445354E+03  0.00000000000E+00 0.  1.
         25    2    1    2    0    0 -0.78969897083E+02  0.17548814976E+03 -0.12702193518E+03  0.26229024456E+03  0.12501705893E+03 0.  0.
         25    2    1    2    0    0  0.78969897083E+02 -0.17548814976E+03 -0.10750776884E+03  0.25340895850E+03  0.12500337809E+03 0.  0.
          5    1    3    3  501    0  0.21648581517E+02  0.23927007907E+01  0.44499552441E+01  0.22721756104E+02  0.47000000000E+01 0.  1.
         -5    1    3    3    0  501 -0.10061847860E+03  0.17309544897E+03 -0.13147189042E+03  0.23956848846E+03  0.47000000000E+01 0.  1.
          5    1    4    4  502    0  0.10731661573E+03 -0.14298507897E+03 -0.58975042089E+02  0.18831286310E+03  0.47000000000E+01 0. -1.
         -5    1    4    4    0  502 -0.28346718652E+02 -0.32503070791E+02 -0.48532726756E+02  0.65096095393E+02  0.47000000000E+01 0. -1.
<mgrwt>
<rscale>  0 0.45928367E+03</rscale>
<asrwt>0</asrwt>
<pdfrwt beam="1">  1       21 0.21628424E-01 0.45928367E+03</pdfrwt>
<pdfrwt beam="2">  1       21 0.57709914E-01 0.45928367E+03</pdfrwt>
<totfact> 0.51604941E+04</totfact>
</mgrwt>
</event>
<event>
 8    1  0.9400004E-006  0.3812978E+03  0.7546771E-02  0.1050455E+00
         21   -1    0    0  504  503  0.00000000000E+00  0.00000000000E+00  0.25593955232E+03  0.25593955232E+03  0.00000000000E+00 0. -1.
         21   -1    0    0  503  504 -0.00000000000E+00 -0.00000000000E+00 -0.14201402326E+03  0.14201402326E+03  0.00000000000E+00 0. -1.
         25    2    1    2    0    0 -0.52902935230E+02 -0.85920036157E+02  0.16409917790E+03  0.22965321483E+03  0.12502434053E+03 0.  0.
         25    2    1    2    0    0  0.52902935230E+02  0.85920036157E+02 -0.50173648839E+02  0.16830036075E+03  0.12500657271E+03 0.  0.
          5    1    3    3  501    0 -0.50360840933E+02 -0.11395439765E+03  0.10118509740E+03  0.16056877959E+03  0.47000000000E+01 0. -1.
         -5    1    3    3    0  501 -0.25420942966E+01  0.28034361488E+02  0.62914080502E+02  0.69084435243E+02  0.47000000000E+01 0. -1.
          5    1    4    4  502    0  0.81277562882E+02  0.54279298025E+02 -0.70848497186E+02  0.12080514880E+03  0.47000000000E+01 0.  1.
         -5    1    4    4    0  502 -0.28374627653E+02  0.31640738133E+02  0.20674848347E+02  0.47495211950E+02  0.47000000000E+01 0. -1.
<mgrwt>
<rscale>  0 0.38129781E+03</rscale>
<asrwt>0</asrwt>
<pdfrwt beam="1">  1       21 0.39375316E-01 0.38129781E+03</pdfrwt>
<pdfrwt beam="2">  1       21 0.21848311E-01 0.38129781E+03</pdfrwt>
<totfact> 0.11528368E+05</totfact>
</mgrwt>
</event>
<event>
 8    1  0.9400004E-006  0.4570382E+03  0.7546771E-02  0.1025644E+00
         21   -1    0    0  504  503  0.00000000000E+00  0.00000000000E+00  0.10026067186E+04  0.10026067186E+04  0.00000000000E+00 0.  1.
         21   -1    0    0  503  504 -0.00000000000E+00 -0.00000000000E+00 -0.52085200675E+02  0.52085200675E+02  0.00000000000E+00 0.  1.
         25    2    1    2    0    0  0.19040802411E+03  0.16390193545E+02  0.49488782720E+03  0.54503450256E+03  0.12499917352E+03 0.  0.
         25    2    1    2    0    0 -0.19040802411E+03 -0.16390193545E+02  0.45563369071E+03  0.50965741670E+03  0.12499907279E+03 0.  0.
          5    1    3    3  501    0  0.13143164035E+03 -0.24072696600E+02  0.42255780783E+03  0.44320532687E+03  0.47000000000E+01 0.  1.
         -5    1    3    3    0  501  0.58976383761E+02  0.40462890145E+02  0.72330019375E+02  0.10182917570E+03  0.47000000000E+01 0.  1.
          5    1    4    4  502    0 -0.17550942936E+03  0.18278244302E+02  0.42702503752E+03  0.46207156013E+03  0.47000000000E+01 0.  1.
         -5    1    4    4    0  502 -0.14898594745E+02 -0.34668437847E+02  0.28608653184E+02  0.47585856567E+02  0.47000000000E+01 0.  1.
<mgrwt>
<rscale>  0 0.45703817E+03</rscale>
<asrwt>0</asrwt>
<pdfrwt beam="1">  1       21 0.15424717E+00 0.45703817E+03</pdfrwt>
<pdfrwt beam="2">  1       21 0.80131086E-02 0.45703817E+03</pdfrwt>
<totfact> 0.29821670E+04</totfact>
</mgrwt>
</event>
<event>
 8    1  0.9400004E-006  0.3778095E+03  0.7546771E-02  0.1051746E+00
         21   -1    0    0  504  503  0.00000000000E+00  0.00000000000E+00  0.47679963569E+03  0.47679963569E+03  0.00000000000E+00 0.  1.
         21   -1    0    0  503  504 -0.00000000000E+00 -0.00000000000E+00 -0.74842762409E+02  0.74842762409E+02  0.00000000000E+00 0.  1.
         25    2    1    2    0    0 -0.12638175045E+03  0.61309477962E+02  0.22752189588E+03  0.29517102438E+03  0.12501408559E+03 0.  0.
         25    2    1    2    0    0  0.12638175045E+03 -0.61309477962E+02  0.17443497740E+03  0.25647137371E+03  0.12497521859E+03 0.  0.
          5    1    3    3  501    0 -0.99537941432E+02  0.11761432647E+02  0.21498719150E+03  0.23725032264E+03  0.47000000000E+01 0.  1.
         -5    1    3    3    0  501 -0.26843809014E+02  0.49548045315E+02  0.12534704386E+02  0.57920701748E+02  0.47000000000E+01 0.  1.
          5    1    4    4  502    0  0.72418134160E+02 -0.81570339436E+02  0.16503310112E+03  0.19787905623E+03  0.47000000000E+01 0. -1.
         -5    1    4    4    0  502  0.53963616287E+02  0.20260861474E+02  0.94018762796E+01  0.58592317483E+02  0.47000000000E+01 0. -1.
<mgrwt>
<rscale>  0 0.37780949E+03</rscale>
<asrwt>0</asrwt>
<pdfrwt beam="1">  1       21 0.73353788E-01 0.37780949E+03</pdfrwt>
<pdfrwt beam="2">  1       21 0.11514271E-01 0.37780949E+03</pdfrwt>
<totfact> 0.99741016E+04</totfact>
</mgrwt>
</event>
<event>
 8    1  0.9400004E-006  0.3293188E+03  0.7546771E-02  0.1071439E+00
         21   -1    0    0  504  503  0.00000000000E+00  0.00000000000E+00  0.72814538871E+03  0.72814538871E+03  0.00000000000E+00 0.  1.
         21   -1    0    0  503  504 -0.00000000000E+00 -0.00000000000E+00 -0.37235304944E+02  0.37235304944E+02  0.00000000000E+00 0.  1.
         25    2    1    2    0    0 -0.32529048434E+02  0.75469493715E+01  0.10879317029E+03  0.16906005987E+03  0.12502101626E+03 0.  0.
         25    2    1    2    0    0  0.32529048434E+02 -0.75469493715E+01  0.58211691347E+03  0.59632063378E+03  0.12499240730E+03 0.  0.
          5    1    3    3  501    0 -0.24877620589E+02 -0.34297346038E+02 -0.91426983840E+01  0.43599115646E+02  0.47000000000E+01 0.  1.
         -5    1    3    3    0  501 -0.76514278449E+01  0.41844295409E+02  0.11793586868E+03  0.12546094423E+03  0.47000000000E+01 0.  1.
          5    1    4    4  502    0  0.59304627333E+02  0.20100663868E+02  0.15200901532E+03  0.16446855703E+03  0.47000000000E+01 0.  1.
         -5    1    4    4    0  502 -0.26775578900E+02 -0.27647613240E+02  0.43010789815E+03  0.43185207676E+03  0.47000000000E+01 0.  1.
<mgrwt>
<rscale>  0 0.32931879E+03</rscale>
<asrwt>0</asrwt>
<pdfrwt beam="1">  1       21 0.11202236E+00 0.32931879E+03</pdfrwt>
<pdfrwt beam="2">  1       21 0.57285090E-02 0.32931879E+03</pdfrwt>
<totfact> 0.12744759E+05</totfact>
</mgrwt>
</event>
<event>
 8    1  0.9400004E-006  0.2837878E+03  0.7546771E-02  0.1093638E+00
         21   -1    0    0  504  503  0.00000000000E+00  0.00000000000E+00  0.53554552843E+02  0.53554552843E+02  0.00000000000E+00 0.  1.
         21   -1    0    0  503  504 -0.00000000000E+00 -0.00000000000E+00 -0.37595093824E+03  0.37595093824E+03  0.00000000000E+00 0.  1.
         25    2    1    2    0    0  0.62257201902E+01 -0.43297260782E+02 -0.23828882850E+03  0.27261590871E+03  0.12499782202E+03 0.  0.
         25    2    1    2    0    0 -0.62257201902E+01  0.43297260782E+02 -0.84107556892E+02  0.15688958237E+03  0.12500738997E+03 0.  0.
          5    1    3    3  501    0 -0.41275524742E+02 -0.57012348801E+02 -0.19267762922E+03  0.20518488165E+03  0.47000000000E+01 0.  1.
         -5    1    3    3    0  501  0.47501244932E+02  0.13715088019E+02 -0.45611199286E+02  0.67431027056E+02  0.47000000000E+01 0.  1.
          5    1    4    4  502    0  0.55879971739E+02  0.25657722965E+02 -0.17714799745E+02  0.64162248397E+02  0.47000000000E+01 0. -1.
         -5    1    4    4    0  502 -0.62105691930E+02  0.17639537817E+02 -0.66392757147E+02  0.92727333975E+02  0.47000000000E+01 0. -1.
<mgrwt>
<rscale>  0 0.28378784E+03</rscale>
<asrwt>0</asrwt>
<pdfrwt beam="1">  1       21 0.82391617E-02 0.28378784E+03</pdfrwt>
<pdfrwt beam="2">  1       21 0.57838608E-01 0.28378784E+03</pdfrwt>
<totfact> 0.31259042E+05</totfact>
</mgrwt>
</event>
<event>
 8    1  0.9400004E-006  0.3554344E+03  0.7546771E-02  0.1060406E+00
         21   -1    0    0  504  503  0.00000000000E+00  0.00000000000E+00  0.61605649018E+03  0.61605649018E+03  0.00000000000E+00 0. -1.
         21   -1    0    0  503  504 -0.00000000000E+00 -0.00000000000E+00 -0.51267051814E+02  0.51267051814E+02  0.00000000000E+00 0. -1.
         25    2    1    2    0    0  0.70978471799E+02  0.86138725405E+02  0.17132813783E+03  0.23965992824E+03  0.12500290764E+03 0.  0.
         25    2    1    2    0    0 -0.70978471799E+02 -0.86138725405E+02  0.39346130053E+03  0.42766361375E+03  0.12500619199E+03 0.  0.
          5    1    3    3  501    0  0.35853209721E+02 -0.96075087796E+01 -0.31077679536E+01  0.37543376166E+02  0.47000000000E+01 0. -1.
         -5    1    3    3    0  501  0.35125262078E+02  0.95746234184E+02  0.17443590579E+03  0.20211655208E+03  0.47000000000E+01 0. -1.
          5    1    4    4  502    0  0.33076493384E+02 -0.43517854648E+02  0.11985646449E+03  0.13181623636E+03  0.47000000000E+01 0. -1.
         -5    1    4    4    0  502 -0.10405496518E+03 -0.42620870757E+02  0.27360483604E+03  0.29584737739E+03  0.47000000000E+01 0. -1.
<mgrwt>
<rscale>  0 0.35543438E+03</rscale>
<asrwt>0</asrwt>
<pdfrwt beam="1">  1       21 0.94777916E-01 0.35543438E+03</pdfrwt>
<pdfrwt beam="2">  1       21 0.78872392E-02 0.35543438E+03</pdfrwt>
<totfact> 0.10876281E+05</totfact>
</mgrwt>
</event>
<event>
 8    1  0.9400004E-006  0.3354246E+03  0.7546771E-02  0.1068762E+00
         21   -1    0    0  504  503  0.00000000000E+00  0.00000000000E+00  0.13535600218E+03  0.13535600218E+03  0.00000000000E+00 0.  1.
         21   -1    0    0  503  504 -0.00000000000E+00 -0.00000000000E+00 -0.20780317736E+03  0.20780317736E+03  0.00000000000E+00 0.  1.
         25    2    1    2    0    0  0.10916966941E+03  0.24887795988E+01 -0.60823614932E+02  0.17677347283E+03  0.12500055128E+03 0.  0.
         25    2    1    2    0    0 -0.10916966941E+03 -0.24887795988E+01 -0.11623560250E+02  0.16638570671E+03  0.12499954201E+03 0.  0.
          5    1    3    3  501    0  0.58356046882E+02 -0.39108690152E+02 -0.81562962881E+02  0.10774750469E+03  0.47000000000E+01 0.  1.
         -5    1    3    3    0  501  0.50813622529E+02  0.41597469751E+02  0.20739347949E+02  0.69025968139E+02  0.47000000000E+01 0.  1.
          5    1    4    4  502    0 -0.76525810482E+02  0.37420379756E+02 -0.52715687270E+02  0.10028717852E+03  0.47000000000E+01 0. -1.
         -5    1    4    4    0  502 -0.32643858929E+02 -0.39909159355E+02  0.41092127020E+02  0.66098528192E+02  0.47000000000E+01 0. -1.
<mgrwt>
<rscale>  0 0.33542455E+03</rscale>
<asrwt>0</asrwt>
<pdfrwt beam="1">  1       21 0.20824001E-01 0.33542455E+03</pdfrwt>
<pdfrwt beam="2">  1       21 0.31969719E-01 0.33542455E+03</pdfrwt>
<totfact> 0.19416492E+05</totfact>
</mgrwt>
</event>
<event>
 8    1  0.9400004E-006  0.3798437E+03  0.7546771E-02  0.1050992E+00
         21   -1    0    0  504  503  0.00000000000E+00  0.00000000000E+00  0.78152518317E+02  0.78152518317E+02  0.00000000000E+00 0.  1.
         21   -1    0    0  503  504 -0.00000000000E+00 -0.00000000000E+00 -0.46153739253E+03  0.46153739253E+03  0.00000000000E+00 0.  1.
         25    2    1    2    0    0 -0.52834046102E+02 -0.10614077567E+03 -0.78136232960E+02  0.18917788600E+03  0.12500280382E+03 0.  0.
         25    2    1    2    0    0  0.52834046102E+02  0.10614077567E+03 -0.30524864125E+03  0.35051202485E+03  0.12499858355E+03 0.  0.
          5    1    3    3  501    0 -0.64376342755E+02 -0.44458553369E+02 -0.95839019348E+02  0.12380663998E+03  0.47000000000E+01 0. -1.
         -5    1    3    3    0  501  0.11542296653E+02 -0.61682222300E+02  0.17702786387E+02  0.65371246017E+02  0.47000000000E+01 0. -1.
          5    1    4    4  502    0  0.74112900179E+02  0.56139065221E+02 -0.26992859045E+03  0.28553082243E+03  0.47000000000E+01 0. -1.
         -5    1    4    4    0  502 -0.21278854078E+02  0.50001710448E+02 -0.35320050802E+02  0.64981202415E+02  0.47000000000E+01 0. -1.
<mgrwt>
<rscale>  0 0.37984370E+03</rscale>
<asrwt>0</asrwt>
<pdfrwt beam="1">  1       21 0.12023465E-01 0.37984370E+03</pdfrwt>
<pdfrwt beam="2">  1       21 0.71005751E-01 0.37984370E+03</pdfrwt>
<totfact> 0.99189448E+04</totfact>
</mgrwt>
</event>
<event>
 8    1  0.9400004E-006  0.3329515E+03  0.7546771E-02  0.1069838E+00
         21   -1    0    0  504  503  0.00000000000E+00  0.00000000000E+00  0.62906676523E+02  0.62906676523E+02  0.00000000000E+00 0.  1.
         21   -1    0    0  503  504 -0.00000000000E+00 -0.00000000000E+00 -0.44056004445E+03  0.44056004445E+03  0.00000000000E+00 0.  1.
         25    2    1    2    0    0  0.96439699884E+02 -0.46258235897E+02 -0.22723026395E+03  0.28054678829E+03  0.12502986629E+03 0.  0.
         25    2    1    2    0    0 -0.96439699884E+02  0.46258235897E+02 -0.15042310398E+03  0.22291993268E+03  0.12500298426E+03 0.  0.
          5    1    3    3  501    0  0.10376044793E+03 -0.75809494366E+02 -0.20701182163E+03  0.24369918811E+03  0.47000000000E+01 0. -1.
         -5    1    3    3    0  501 -0.73207480502E+01  0.29551258469E+02 -0.20218442313E+02  0.36847600175E+02  0.47000000000E+01 0. -1.
          5    1    4    4  502    0  0.23502839888E+02  0.33949985091E+02 -0.55822291741E+02  0.69593126282E+02  0.47000000000E+01 0. -1.
         -5    1    4    4    0  502 -0.11994253977E+03  0.12308250806E+02 -0.94600812241E+02  0.15332680640E+03  0.47000000000E+01 0. -1.
<mgrwt>
<rscale>  0 0.33295146E+03</rscale>
<asrwt>0</asrwt>
<pdfrwt beam="1">  1       21 0.96779508E-02 0.33295146E+03</pdfrwt>
<pdfrwt beam="2">  1       21 0.67778464E-01 0.33295146E+03</pdfrwt>
<totfact> 0.16436961E+05</totfact>
</mgrwt>
</event>
<event>
 8    1  0.9400004E-006  0.2535183E+03  0.7546771E-02  0.1111101E+00
         21   -1    0    0  504  503  0.00000000000E+00  0.00000000000E+00  0.32243649823E+03  0.32243649823E+03  0.00000000000E+00 0.  1.
         21   -1    0    0  503  504 -0.00000000000E+00 -0.00000000000E+00 -0.49832712678E+02  0.49832712678E+02  0.00000000000E+00 0.  1.
         25    2    1    2    0    0  0.47674782418E+01  0.15522361863E+02  0.15606995904E+03  0.20061330890E+03  0.12499678007E+03 0.  0.
         25    2    1    2    0    0 -0.47674782418E+01 -0.15522361863E+02  0.11653382651E+03  0.17165590200E+03  0.12498777302E+03 0.  0.
          5    1    3    3  501    0  0.10244705001E+02 -0.92087262459E+01 -0.18844977760E+02  0.23811295773E+02  0.47000000000E+01 0.  1.
         -5    1    3    3    0  501 -0.54772267588E+01  0.24731088109E+02  0.17491493680E+03  0.17680201313E+03  0.47000000000E+01 0.  1.
          5    1    4    4  502    0 -0.77160887399E+01 -0.53135708216E+02  0.53643650002E+01  0.54164637218E+02  0.47000000000E+01 0.  1.
         -5    1    4    4    0  502  0.29486104981E+01  0.37613346353E+02  0.11116946151E+03  0.11749126478E+03  0.47000000000E+01 0.  1.
<mgrwt>
<rscale>  0 0.25351833E+03</rscale>
<asrwt>0</asrwt>
<pdfrwt beam="1">  1       21 0.49605614E-01 0.25351833E+03</pdfrwt>
<pdfrwt beam="2">  1       21 0.76665714E-02 0.25351833E+03</pdfrwt>
<totfact> 0.49439835E+05</totfact>
</mgrwt>
</event>
<event>
 8    1  0.9400004E-006  0.2875375E+03  0.7546771E-02  0.1091642E+00
         21   -1    0    0  504  503  0.00000000000E+00  0.00000000000E+00  0.99493264909E+02  0.99493264909E+02  0.00000000000E+00 0. -1.
         21   -1    0    0  503  504 -0.00000000000E+00 -0.00000000000E+00 -0.20774719838E+03  0.20774719838E+03  0.00000000000E+00 0. -1.
         25    2    1    2    0    0 -0.51318893375E+02  0.29510418913E+02 -0.96043886381E+02  0.16838771260E+03  0.12500199999E+03 0.  0.
         25    2    1    2    0    0  0.51318893375E+02 -0.29510418913E+02 -0.12210047087E+02  0.13885275069E+03  0.12500602979E+03 0.  0.
          5    1    3    3  501    0  0.15959489075E+02  0.43487143246E+02 -0.87325164536E+02  0.98962676199E+02  0.47000000000E+01 0. -1.
         -5    1    3    3    0  501 -0.67278382450E+02 -0.13976724333E+02 -0.87187218445E+01  0.69425036397E+02  0.47000000000E+01 0. -1.
          5    1    4    4  502    0  0.22552905948E+02  0.24892217588E+02  0.43876130629E+02  0.55456838191E+02  0.47000000000E+01 0.  1.
         -5    1    4    4    0  502  0.28765987427E+02 -0.54402636501E+02 -0.56086177716E+02  0.83395912500E+02  0.47000000000E+01 0.  1.
<mgrwt>
<rscale>  0 0.28753746E+03</rscale>
<asrwt>0</asrwt>
<pdfrwt beam="1">  1       21 0.15306656E-01 0.28753746E+03</pdfrwt>
<pdfrwt beam="2">  1       21 0.31961107E-01 0.28753746E+03</pdfrwt>
<totfact> 0.34858463E+05</totfact>
</mgrwt>
</event>
<event>
 8    1  0.9400004E-006  0.4212836E+03  0.7546771E-02  0.1036649E+00
         21   -1    0    0  504  503  0.00000000000E+00  0.00000000000E+00  0.19413272437E+03  0.19413272437E+03  0.00000000000E+00 0. -1.
         21   -1    0    0  503  504 -0.00000000000E+00 -0.00000000000E+00 -0.22855476174E+03  0.22855476174E+03  0.00000000000E+00 0. -1.
         25    2    1    2    0    0  0.12078979445E+02 -0.12675328087E+03 -0.12953289825E+03  0.22049534178E+03  0.12500851195E+03 0.  0.
         25    2    1    2    0    0 -0.12078979445E+02  0.12675328087E+03  0.95110860883E+02  0.20219214433E+03  0.12499316547E+03 0.  0.
          5    1    3    3  501    0 -0.33758614105E+02 -0.28181820314E+02  0.81876857323E+01  0.44977630219E+02  0.47000000000E+01 0. -1.
         -5    1    3    3    0  501  0.45837593550E+02 -0.98571460559E+02 -0.13772058398E+03  0.17551771156E+03  0.47000000000E+01 0. -1.
          5    1    4    4  502    0 -0.41459878983E+02  0.13285789267E+03  0.50309873127E+02  0.14806523746E+03  0.47000000000E+01 0.  1.
         -5    1    4    4    0  502  0.29380899538E+02 -0.61046118015E+01  0.44800987756E+02  0.54126906865E+02  0.47000000000E+01 0.  1.
<mgrwt>
<rscale>  0 0.42128356E+03</rscale>
<asrwt>0</asrwt>
<pdfrwt beam="1">  1       21 0.29866573E-01 0.42128356E+03</pdfrwt>
<pdfrwt beam="2">  1       21 0.35162271E-01 0.42128356E+03</pdfrwt>
<totfact> 0.78315035E+04</totfact>
</mgrwt>
</event>
<event>
 8    1  0.9400004E-006  0.2845048E+03  0.7546771E-02  0.1093254E+00
         21   -1    0    0  504  503  0.00000000000E+00  0.00000000000E+00  0.10960340818E+03  0.10960340818E+03  0.00000000000E+00 0.  1.
         21   -1    0    0  503  504 -0.00000000000E+00 -0.00000000000E+00 -0.18462701841E+03  0.18462701841E+03  0.00000000000E+00 0.  1.
         25    2    1    2    0    0 -0.20814552574E+02  0.14017316007E+02 -0.10280575417E+03  0.16378135510E+03  0.12500231374E+03 0.  0.
         25    2    1    2    0    0  0.20814552574E+02 -0.14017316007E+02  0.27782143939E+02  0.13044907148E+03  0.12496152201E+03 0.  0.
          5    1    3    3  501    0 -0.55136970928E+02 -0.14524373327E+02 -0.10420093820E+03  0.11887375028E+03  0.47000000000E+01 0.  1.
         -5    1    3    3    0  501  0.34322418354E+02  0.28541689334E+02  0.13951840337E+01  0.44907604815E+02  0.47000000000E+01 0.  1.
          5    1    4    4  502    0  0.48155125806E+02 -0.92403711037E+01 -0.35813678385E+02  0.60901643320E+02  0.47000000000E+01 0. -1.
         -5    1    4    4    0  502 -0.27340573232E+02 -0.47769449035E+01  0.63595822324E+02  0.69547428165E+02  0.47000000000E+01 0. -1.
<mgrwt>
<rscale>  0 0.28450484E+03</rscale>
<asrwt>0</asrwt>
<pdfrwt beam="1">  1       21 0.16862063E-01 0.28450484E+03</pdfrwt>
<pdfrwt beam="2">  1       21 0.28404157E-01 0.28450484E+03</pdfrwt>
<totfact> 0.36791948E+05</totfact>
</mgrwt>
</event>
<event>
 8    1  0.9400004E-006  0.2984407E+03  0.7546771E-02  0.1086023E+00
         21   -1    0    0  504  503  0.00000000000E+00  0.00000000000E+00  0.19705394971E+03  0.19705394971E+03  0.00000000000E+00 0. -1.
         21   -1    0    0  503  504 -0.00000000000E+00 -0.00000000000E+00 -0.11299808967E+03  0.11299808967E+03  0.00000000000E+00 0. -1.
         25    2    1    2    0    0 -0.16811628350E+02 -0.79692456298E+02  0.38950551232E+02  0.15419157040E+03  0.12499750599E+03 0.  0.
         25    2    1    2    0    0  0.16811628350E+02  0.79692456298E+02  0.45105308804E+02  0.15586046898E+03  0.12499791386E+03 0.  0.
          5    1    3    3  501    0  0.28914330000E+02 -0.24670280721E+02 -0.34502512924E+02  0.51547789752E+02  0.47000000000E+01 0. -1.
         -5    1    3    3    0  501 -0.45725958350E+02 -0.55022175578E+02  0.73453064156E+02  0.10264378065E+03  0.47000000000E+01 0. -1.
          5    1    4    4  502    0  0.54044499755E+02  0.12695184369E+02  0.55174611212E+02  0.78411117722E+02  0.47000000000E+01 0. -1.
         -5    1    4    4    0  502 -0.37232871405E+02  0.66997271929E+02 -0.10069302408E+02  0.77449351256E+02  0.47000000000E+01 0. -1.
<mgrwt>
<rscale>  0 0.29844075E+03</rscale>
<asrwt>0</asrwt>
<pdfrwt beam="1">  1       21 0.30315992E-01 0.29844075E+03</pdfrwt>
<pdfrwt beam="2">  1       21 0.17384322E-01 0.29844075E+03</pdfrwt>
<totfact> 0.30510113E+05</totfact>
</mgrwt>
</event>
<event>
 8    1  0.9400004E-006  0.3458431E+03  0.7546771E-02  0.1064334E+00
         21   -1    0    0  504  503  0.00000000000E+00  0.00000000000E+00  0.59549475741E+03  0.59549475741E+03  0.00000000000E+00 0.  1.
         21   -1    0    0  503  504 -0.00000000000E+00 -0.00000000000E+00 -0.50213491403E+02  0.50213491403E+02  0.00000000000E+00 0.  1.
         25    2    1    2    0    0 -0.64921860255E+01  0.32018690614E+02  0.57959953830E+02  0.14154484669E+03  0.12493295141E+03 0.  0.
         25    2    1    2    0    0  0.64921860255E+01 -0.32018690614E+02  0.48732131218E+03  0.50416340212E+03  0.12502531627E+03 0.  0.
          5    1    3    3  501    0  0.57339879555E+02  0.40393676691E+01  0.37361567491E+02  0.68717938007E+02  0.47000000000E+01 0. -1.
         -5    1    3    3    0  501 -0.63832065581E+02  0.27979322945E+02  0.20598386339E+02  0.72826908684E+02  0.47000000000E+01 0. -1.
          5    1    4    4  502    0  0.32360227190E+02 -0.60449027770E+02  0.42690884070E+03  0.43240550127E+03  0.47000000000E+01 0. -1.
         -5    1    4    4    0  502 -0.25868041164E+02  0.28430337156E+02  0.60412471477E+02  0.71757900850E+02  0.47000000000E+01 0. -1.
<mgrwt>
<rscale>  0 0.34584315E+03</rscale>
<asrwt>0</asrwt>
<pdfrwt beam="1">  1       21 0.91614573E-01 0.34584315E+03</pdfrwt>
<pdfrwt beam="2">  1       21 0.77251529E-02 0.34584315E+03</pdfrwt>
<totfact> 0.12255126E+05</totfact>
</mgrwt>
</event>
<event>
 8    1  0.9400004E-006  0.4265159E+03  0.7546771E-02  0.1034966E+00
         21   -1    0    0  504  503  0.00000000000E+00  0.00000000000E+00  0.24176550866E+03  0.24176550866E+03  0.00000000000E+00 0.  1.
         21   -1    0    0  503  504 -0.00000000000E+00 -0.00000000000E+00 -0.18811186432E+03  0.18811186432E+03  0.00000000000E+00 0.  1.
         25    2    1    2    0    0  0.11548818242E+03  0.10463372519E+02 -0.10227547819E+03  0.19882407713E+03  0.12499495096E+03 0.  0.
         25    2    1    2    0    0 -0.11548818242E+03 -0.10463372519E+02  0.15592912253E+03  0.23105329585E+03  0.12499892730E+03 0.  0.
          5    1    3    3  501    0  0.10135011367E+03  0.27596677807E+02 -0.12725090231E+03  0.16507060400E+03  0.47000000000E+01 0. -1.
         -5    1    3    3    0  501  0.14138068750E+02 -0.17133305288E+02  0.24975424121E+02  0.33753473127E+02  0.47000000000E+01 0. -1.
          5    1    4    4  502    0 -0.78082288112E+02 -0.14727684352E+02  0.99418689957E+01  0.80216451943E+02  0.47000000000E+01 0. -1.
         -5    1    4    4    0  502 -0.37405894304E+02  0.42643118330E+01  0.14598725354E+03  0.15083684391E+03  0.47000000000E+01 0. -1.
<mgrwt>
<rscale>  0 0.42651593E+03</rscale>
<asrwt>0</asrwt>
<pdfrwt beam="1">  1       21 0.37194694E-01 0.42651593E+03</pdfrwt>
<pdfrwt beam="2">  1       21 0.28940287E-01 0.42651593E+03</pdfrwt>
<totfact> 0.74290877E+04</totfact>
</mgrwt>
</event>
<event>
 8    1  0.9400004E-006  0.3350942E+03  0.7546771E-02  0.1068905E+00
         21   -1    0    0  504  503  0.00000000000E+00  0.00000000000E+00  0.73228544413E+02  0.73228544413E+02  0.00000000000E+00 0. -1.
         21   -1    0    0  503  504 -0.00000000000E+00 -0.00000000000E+00 -0.38334827433E+03  0.38334827433E+03  0.00000000000E+00 0. -1.
         25    2    1    2    0    0  0.10524662672E+03  0.27511220920E+02 -0.12130778186E+03  0.20536461347E+03  0.12500130725E+03 0.  0.
         25    2    1    2    0    0 -0.10524662672E+03 -0.27511220920E+02 -0.18881194806E+03  0.25121220527E+03  0.12499560246E+03 0.  0.
          5    1    3    3  501    0  0.79239287394E+02  0.22243851756E+02 -0.13815231049E+01  0.82447875739E+02  0.47000000000E+01 0.  1.
         -5    1    3    3    0  501  0.26007339326E+02  0.52673691646E+01 -0.11992625875E+03  0.12291673774E+03  0.47000000000E+01 0.  1.
          5    1    4    4  502    0 -0.42909559746E+02 -0.75257899221E+02 -0.10633337425E+03  0.13723650459E+03  0.47000000000E+01 0. -1.
         -5    1    4    4    0  502 -0.62337066975E+02  0.47746678301E+02 -0.82478573814E+02  0.11397570068E+03  0.47000000000E+01 0. -1.
<mgrwt>
<rscale>  0 0.33509423E+03</rscale>
<asrwt>0</asrwt>
<pdfrwt beam="1">  1       21 0.11265930E-01 0.33509423E+03</pdfrwt>
<pdfrwt beam="2">  1       21 0.58976657E-01 0.33509423E+03</pdfrwt>
<totfact> 0.16981068E+05</totfact>
</mgrwt>
</event>
<event>
 8    1  0.9400004E-006  0.3418129E+03  0.7546771E-02  0.1066026E+00
         21   -1    0    0  504  503  0.00000000000E+00  0.00000000000E+00  0.49311688905E+03  0.49311688905E+03  0.00000000000E+00 0. -1.
         21   -1    0    0  503  504 -0.00000000000E+00 -0.00000000000E+00 -0.59233442947E+02  0.59233442947E+02  0.00000000000E+00 0. -1.
         25    2    1    2    0    0  0.11161628734E+03  0.33172570538E+02  0.20882789610E+03  0.26980381590E+03  0.12500557527E+03 0.  0.
         25    2    1    2    0    0 -0.11161628734E+03 -0.33172570538E+02  0.22505555000E+03  0.28254651609E+03  0.12499567247E+03 0.  0.
          5    1    3    3  501    0  0.73511770618E+02 -0.42410682260E+02  0.11957034355E+03  0.14670311328E+03  0.47000000000E+01 0.  1.
         -5    1    3    3    0  501  0.38104516724E+02  0.75583252798E+02  0.89257552548E+02  0.12310070262E+03  0.47000000000E+01 0.  1.
          5    1    4    4  502    0 -0.18724570678E+02  0.43607324550E+02  0.87122731190E+02  0.99321038010E+02  0.47000000000E+01 0. -1.
         -5    1    4    4    0  502 -0.92891716664E+02 -0.76779895088E+02  0.13793281881E+03  0.18322547808E+03  0.47000000000E+01 0. -1.
<mgrwt>
<rscale>  0 0.34181288E+03</rscale>
<asrwt>0</asrwt>
<pdfrwt beam="1">  1       21 0.75864134E-01 0.34181288E+03</pdfrwt>
<pdfrwt beam="2">  1       21 0.91128377E-02 0.34181288E+03</pdfrwt>
<totfact> 0.14175301E+05</totfact>
</mgrwt>
</event>
<event>
 8    1  0.9400004E-006  0.3362236E+03  0.7546771E-02  0.1068416E+00
         21   -1    0    0  504  503  0.00000000000E+00  0.00000000000E+00  0.29886089483E+02  0.29886089483E+02  0.00000000000E+00 0. -1.
         21   -1    0    0  503  504 -0.00000000000E+00 -0.00000000000E+00 -0.94564326993E+03  0.94564326993E+03  0.00000000000E+00 0. -1.
         25    2    1    2    0    0  0.62012753332E+02  0.84028173900E+02 -0.33721225548E+03  0.37449144241E+03  0.12500167841E+03 0.  0.
         25    2    1    2    0    0 -0.62012753332E+02 -0.84028173900E+02 -0.57854492496E+03  0.60103791700E+03  0.12500412748E+03 0.  0.
          5    1    3    3  501    0  0.99997715126E+02  0.61465679902E+02 -0.26212364250E+03  0.28724287075E+03  0.47000000000E+01 0.  1.
         -5    1    3    3    0  501 -0.37984961794E+02  0.22562493998E+02 -0.75088612980E+02  0.87248571663E+02  0.47000000000E+01 0.  1.
          5    1    4    4  502    0  0.81880852932E+01  0.10613153588E+02 -0.43470497566E+01  0.14854986080E+02  0.47000000000E+01 0. -1.
         -5    1    4    4    0  502 -0.70200838625E+02 -0.94641327488E+02 -0.57419787520E+03  0.58618293092E+03  0.47000000000E+01 0. -1.
<mgrwt>
<rscale>  0 0.33622361E+03</rscale>
<asrwt>0</asrwt>
<pdfrwt beam="1">  1       21 0.45978601E-02 0.33622361E+03</pdfrwt>
<pdfrwt beam="2">  1       21 0.14548357E+00 0.33622361E+03</pdfrwt>
<totfact> 0.95006115E+04</totfact>
</mgrwt>
</event>
<event>
 8    1  0.9400004E-006  0.3178864E+03  0.7546771E-02  0.1076626E+00
         21   -1    0    0  504  503  0.00000000000E+00  0.00000000000E+00  0.39961206075E+03  0.39961206075E+03  0.00000000000E+00 0.  1.
         21   -1    0    0  503  504 -0.00000000000E+00 -0.00000000000E+00 -0.63218675134E+02  0.63218675134E+02  0.00000000000E+00 0.  1.
         25    2    1    2    0    0  0.26583252471E+02 -0.61631139145E+02  0.27249970724E+03  0.30722416711E+03  0.12500212714E+03 0.  0.
         25    2    1    2    0    0 -0.26583252471E+02  0.61631139145E+02  0.63893678372E+02  0.15560656877E+03  0.12500374188E+03 0.  0.
          5    1    3    3  501    0 -0.37521009969E+02  0.13487519341E+02  0.10898804629E+03  0.11614742184E+03  0.47000000000E+01 0. -1.
         -5    1    3    3    0  501  0.64104262440E+02 -0.75118658487E+02  0.16351166095E+03  0.19107674527E+03  0.47000000000E+01 0. -1.
          5    1    4    4  502    0 -0.22151358277E+02  0.96577966347E+02  0.67349448054E+02  0.11990006009E+03  0.47000000000E+01 0.  1.
         -5    1    4    4    0  502 -0.44318941938E+01 -0.34946827201E+02 -0.34557696817E+01  0.35706508674E+02  0.47000000000E+01 0.  1.
<mgrwt>
<rscale>  0 0.31788643E+03</rscale>
<asrwt>0</asrwt>
<pdfrwt beam="1">  1       21 0.61478777E-01 0.31788643E+03</pdfrwt>
<pdfrwt beam="2">  1       21 0.97259503E-02 0.31788643E+03</pdfrwt>
<totfact> 0.20265220E+05</totfact>
</mgrwt>
</event>
<event>
 8    1  0.9400004E-006  0.2663365E+03  0.7546771E-02  0.1103395E+00
         21   -1    0    0  504  503  0.00000000000E+00  0.00000000000E+00  0.43054618277E+03  0.43054618277E+03  0.00000000000E+00 0.  1.
         21   -1    0    0  503  504 -0.00000000000E+00 -0.00000000000E+00 -0.41189023202E+02  0.41189023202E+02  0.00000000000E+00 0.  1.
         25    2    1    2    0    0  0.13596203906E+02  0.19989576455E+02  0.12549908715E+03  0.17876879681E+03  0.12499528755E+03 0.  0.
         25    2    1    2    0    0 -0.13596203906E+02 -0.19989576455E+02  0.26385807241E+03  0.29296640916E+03  0.12499517827E+03 0.  0.
          5    1    3    3  501    0  0.65111857350E+02  0.30842894681E+02  0.88670191613E+02  0.11434741362E+03  0.47000000000E+01 0.  1.
         -5    1    3    3    0  501 -0.51515653444E+02 -0.10853318227E+02  0.36828895540E+02  0.64421383197E+02  0.47000000000E+01 0.  1.
          5    1    4    4  502    0  0.54733995176E+02 -0.14051150755E+02  0.94800212944E+02  0.11046454381E+03  0.47000000000E+01 0. -1.
         -5    1    4    4    0  502 -0.68330199082E+02 -0.59384256991E+01  0.16905785947E+03  0.18250186534E+03  0.47000000000E+01 0. -1.
<mgrwt>
<rscale>  0 0.26633645E+03</rscale>
<asrwt>0</asrwt>
<pdfrwt beam="1">  1       21 0.66237871E-01 0.26633645E+03</pdfrwt>
<pdfrwt beam="2">  1       21 0.63367731E-02 0.26633645E+03</pdfrwt>
<totfact> 0.36908608E+05</totfact>
</mgrwt>
</event>
<event>
 8    1  0.9400004E-006  0.3415661E+03  0.7546771E-02  0.1066131E+00
         21   -1    0    0  504  503  0.00000000000E+00  0.00000000000E+00  0.42770170549E+03  0.42770170549E+03  0.00000000000E+00 0.  1.
         21   -1    0    0  503  504 -0.00000000000E+00 -0.00000000000E+00 -0.68194365962E+02  0.68194365962E+02  0.00000000000E+00 0.  1.
         25    2    1    2    0    0 -0.97631597806E+02  0.61549842939E+02  0.15815036608E+03  0.23228775830E+03  0.12500300919E+03 0.  0.
         25    2    1    2    0    0  0.97631597806E+02 -0.61549842939E+02  0.20135697344E+03  0.26360831315E+03  0.12499759979E+03 0.  0.
          5    1    3    3  501    0 -0.92470418887E+02  0.91974259641E+01  0.15319803295E+03  0.17924033674E+03  0.47000000000E+01 0. -1.
         -5    1    3    3    0  501 -0.51611789182E+01  0.52352416975E+02  0.49523331325E+01  0.53047421562E+02  0.47000000000E+01 0. -1.
          5    1    4    4  502    0  0.10548824529E+03 -0.22879173513E+02  0.19559678959E+03  0.22345339687E+03  0.47000000000E+01 0. -1.
         -5    1    4    4    0  502 -0.78566474811E+01 -0.38670669426E+02  0.57601838511E+01  0.40154916281E+02  0.47000000000E+01 0. -1.
<mgrwt>
<rscale>  0 0.34156608E+03</rscale>
<asrwt>0</asrwt>
<pdfrwt beam="1">  1       21 0.65800261E-01 0.34156608E+03</pdfrwt>
<pdfrwt beam="2">  1       21 0.10491441E-01 0.34156608E+03</pdfrwt>
<totfact> 0.15163371E+05</totfact>
</mgrwt>
</event>
<event>
 8    1  0.9400004E-006  0.3258795E+03  0.7546771E-02  0.1072975E+00
         21   -1    0    0  504  503  0.00000000000E+00  0.00000000000E+00  0.30489228573E+02  0.30489228573E+02  0.00000000000E+00 0.  1.
         21   -1    0    0  503  504 -0.00000000000E+00 -0.00000000000E+00 -0.87077863115E+03  0.87077863115E+03  0.00000000000E+00 0.  1.
         25    2    1    2    0    0  0.88807804343E+02  0.17641282267E+01 -0.57251263690E+03  0.59269346544E+03  0.12499954518E+03 0.  0.
         25    2    1    2    0    0 -0.88807804343E+02 -0.17641282267E+01 -0.26777676568E+03  0.30857439429E+03  0.12499528917E+03 0.  0.
          5    1    3    3  501    0 -0.24572818427E+02 -0.25393083042E+02 -0.16489866721E+03  0.16870771328E+03  0.47000000000E+01 0.  1.
         -5    1    3    3    0  501  0.11338062277E+03  0.27157211269E+02 -0.40761396969E+03  0.42398575216E+03  0.47000000000E+01 0.  1.
          5    1    4    4  502    0  0.30975026616E+02  0.21120828323E+01 -0.37296203557E+02  0.48754589194E+02  0.47000000000E+01 0. -1.
         -5    1    4    4    0  502 -0.11978283096E+03 -0.38762110589E+01 -0.23048056212E+03  0.25981980510E+03  0.47000000000E+01 0. -1.
<mgrwt>
<rscale>  0 0.32587954E+03</rscale>
<asrwt>0</asrwt>
<pdfrwt beam="1">  1       21 0.46906507E-02 0.32587954E+03</pdfrwt>
<pdfrwt beam="2">  1       21 0.13396594E+00 0.32587954E+03</pdfrwt>
<totfact> 0.11439743E+05</totfact>
</mgrwt>
</event>
<event>
 8    1  0.9400004E-006  0.3417854E+03  0.7546771E-02  0.1066038E+00
         21   -1    0    0  504  503  0.00000000000E+00  0.00000000000E+00  0.69848009945E+03  0.69848009945E+03  0.00000000000E+00 0.  1.
         21   -1    0    0  503  504 -0.00000000000E+00 -0.00000000000E+00 -0.41811221819E+02  0.41811221819E+02  0.00000000000E+00 0.  1.
         25    2    1    2    0    0  0.35462340610E+02 -0.93633822126E+01  0.88760853789E+02  0.15763724181E+03  0.12500304122E+03 0.  0.
         25    2    1    2    0    0 -0.35462340610E+02  0.93633822126E+01  0.56790802384E+03  0.58265407945E+03  0.12498400792E+03 0.  0.
          5    1    3    3  501    0 -0.34061406806E+02  0.33820025891E+02  0.30480341458E+02  0.57053613385E+02  0.47000000000E+01 0. -1.
         -5    1    3    3    0  501  0.69523747416E+02 -0.43183408104E+02  0.58280512331E+02  0.10058362843E+03  0.47000000000E+01 0. -1.
          5    1    4    4  502    0 -0.24173865191E+02  0.50092138447E+02  0.11580346620E+03  0.12855399985E+03  0.47000000000E+01 0. -1.
         -5    1    4    4    0  502 -0.11288475419E+02 -0.40728756234E+02  0.45210455763E+03  0.45410007960E+03  0.47000000000E+01 0. -1.
<mgrwt>
<rscale>  0 0.34178535E+03</rscale>
<asrwt>0</asrwt>
<pdfrwt beam="1">  1       21 0.10745847E+00 0.34178535E+03</pdfrwt>
<pdfrwt beam="2">  1       21 0.64324962E-02 0.34178535E+03</pdfrwt>
<totfact> 0.11510705E+05</totfact>
</mgrwt>
</event>
<event>
 8    1  0.9400004E-006  0.2598587E+03  0.7546771E-02  0.1107228E+00
         21   -1    0    0  504  503  0.00000000000E+00  0.00000000000E+00  0.63924262673E+03  0.63924262673E+03  0.00000000000E+00 0. -1.
         21   -1    0    0  503  504 -0.00000000000E+00 -0.00000000000E+00 -0.26408806963E+02  0.26408806963E+02  0.00000000000E+00 0. -1.
         25    2    1    2    0    0  0.15856914323E+02  0.30443171820E+02  0.28361413048E+03  0.31183257615E+03  0.12499740837E+03 0.  0.
         25    2    1    2    0    0 -0.15856914323E+02 -0.30443171820E+02  0.32921968930E+03  0.35381885755E+03  0.12499580671E+03 0.  0.
          5    1    3    3  501    0 -0.75465072256E+01 -0.38992219434E+02  0.18274610701E+03  0.18707103618E+03  0.47000000000E+01 0.  1.
         -5    1    3    3    0  501  0.23403421549E+02  0.69435391254E+02  0.10086802346E+03  0.12476153997E+03  0.47000000000E+01 0.  1.
          5    1    4    4  502    0  0.51320369257E+02 -0.29606733789E+02  0.19155720254E+03  0.20056567710E+03  0.47000000000E+01 0. -1.
         -5    1    4    4    0  502 -0.67177283580E+02 -0.83643803054E+00  0.13766248676E+03  0.15325318045E+03  0.47000000000E+01 0. -1.
<mgrwt>
<rscale>  0 0.25985869E+03</rscale>
<asrwt>0</asrwt>
<pdfrwt beam="1">  1       21 0.98345008E-01 0.25985869E+03</pdfrwt>
<pdfrwt beam="2">  1       21 0.40628939E-02 0.25985869E+03</pdfrwt>
<totfact> 0.32003246E+05</totfact>
</mgrwt>
</event>
<event>
 8    1  0.9400004E-006  0.3800948E+03  0.7546771E-02  0.1050899E+00
         21   -1    0    0  504  503  0.00000000000E+00  0.00000000000E+00  0.51924763702E+02  0.51924763702E+02  0.00000000000E+00 0. -1.
         21   -1    0    0  503  504 -0.00000000000E+00 -0.00000000000E+00 -0.69558365262E+03  0.69558365262E+03  0.00000000000E+00 0. -1.
         25    2    1    2    0    0  0.58731186166E+02 -0.68474357629E+01 -0.57820270495E+03  0.59450924073E+03  0.12500651863E+03 0.  0.
         25    2    1    2    0    0 -0.58731186166E+02  0.68474357629E+01 -0.65456183969E+02  0.15299917559E+03  0.12501198385E+03 0.  0.
          5    1    3    3  501    0  0.15860545307E+02  0.21462473256E+02 -0.19390617303E+02  0.33320874765E+02  0.47000000000E+01 0. -1.
         -5    1    3    3    0  501  0.42870640858E+02 -0.28309909019E+02 -0.55881208765E+03  0.56118836597E+03  0.47000000000E+01 0. -1.
          5    1    4    4  502    0 -0.14480097250E+02 -0.55768000012E+02 -0.11021277613E+02  0.58849822446E+02  0.47000000000E+01 0. -1.
         -5    1    4    4    0  502 -0.44251088916E+02  0.62615435775E+02 -0.54434906356E+02  0.94149353144E+02  0.47000000000E+01 0. -1.
<mgrwt>
<rscale>  0 0.38009481E+03</rscale>
<asrwt>0</asrwt>
<pdfrwt beam="1">  1       21 0.79884258E-02 0.38009481E+03</pdfrwt>
<pdfrwt beam="2">  1       21 0.10701286E+00 0.38009481E+03</pdfrwt>
<totfact> 0.78778264E+04</totfact>
</mgrwt>
</event>
<event>
 8    1  0.9400004E-006  0.4086648E+03  0.7546771E-02  0.1040820E+00
         21   -1    0    0  504  503  0.00000000000E+00  0.00000000000E+00  0.68648136198E+02  0.68648136198E+02  0.00000000000E+00 0. -1.
         21   -1    0    0  503  504 -0.00000000000E+00 -0.00000000000E+00 -0.60819893732E+03  0.60819893732E+03  0.00000000000E+00 0. -1.
         25    2    1    2    0    0 -0.35280505481E+02 -0.13895080116E+03 -0.39346295020E+03  0.43702407225E+03  0.12499962934E+03 0.  0.
         25    2    1    2    0    0  0.35280505481E+02  0.13895080116E+03 -0.14608785092E+03  0.23982300127E+03  0.12498548933E+03 0.  0.
          5    1    3    3  501    0 -0.45738299019E+02 -0.69514595094E+02 -0.79187772826E+02  0.11496549175E+03  0.47000000000E+01 0. -1.
         -5    1    3    3    0  501  0.10457793538E+02 -0.69436206062E+02 -0.31427517737E+03  0.32205858050E+03  0.47000000000E+01 0. -1.
          5    1    4    4  502    0 -0.16338334031E+02  0.42002004594E+02 -0.11793553727E+03  0.12634077133E+03  0.47000000000E+01 0. -1.
         -5    1    4    4    0  502  0.51618839512E+02  0.96948796563E+02 -0.28152313645E+02  0.11348222994E+03  0.47000000000E+01 0. -1.
<mgrwt>
<rscale>  0 0.40866477E+03</rscale>
<asrwt>0</asrwt>
<pdfrwt beam="1">  1       21 0.10561252E-01 0.40866477E+03</pdfrwt>
<pdfrwt beam="2">  1       21 0.93569062E-01 0.40866477E+03</pdfrwt>
<totfact> 0.65805682E+04</totfact>
</mgrwt>
</event>
<event>
 8    1  0.9400004E-006  0.2588331E+03  0.7546771E-02  0.1107846E+00
         21   -1    0    0  504  503  0.00000000000E+00  0.00000000000E+00  0.52657714502E+02  0.52657714502E+02  0.00000000000E+00 0. -1.
         21   -1    0    0  503  504 -0.00000000000E+00 -0.00000000000E+00 -0.31806616802E+03  0.31806616802E+03  0.00000000000E+00 0. -1.
         25    2    1    2    0    0 -0.15067629039E+02  0.84624061487E+01 -0.17383548097E+03  0.21480910689E+03  0.12500212877E+03 0.  0.
         25    2    1    2    0    0  0.15067629039E+02 -0.84624061487E+01 -0.91572972550E+02  0.15591477563E+03  0.12500064878E+03 0.  0.
          5    1    3    3  501    0 -0.53734052540E+02  0.60433753824E+01 -0.22899867648E+02  0.58909801618E+02  0.47000000000E+01 0. -1.
         -5    1    3    3    0  501  0.38666423501E+02  0.24190307662E+01 -0.15093561332E+03  0.15589930527E+03  0.47000000000E+01 0. -1.
          5    1    4    4  502    0 -0.33974113224E+02  0.42962138195E+02 -0.40117383862E+02  0.68054979065E+02  0.47000000000E+01 0. -1.
         -5    1    4    4    0  502  0.49041742262E+02 -0.51424544344E+02 -0.51455588688E+02  0.87859796565E+02  0.47000000000E+01 0. -1.
<mgrwt>
<rscale>  0 0.25883305E+03</rscale>
<asrwt>0</asrwt>
<pdfrwt beam="1">  1       21 0.81011870E-02 0.25883305E+03</pdfrwt>
<pdfrwt beam="2">  1       21 0.48933256E-01 0.25883305E+03</pdfrwt>
<totfact> 0.46147685E+05</totfact>
</mgrwt>
</event>
<event>
 8    1  0.9400004E-006  0.2549462E+03  0.7546771E-02  0.1110218E+00
         21   -1    0    0  504  503  0.00000000000E+00  0.00000000000E+00  0.15021461608E+02  0.15021461608E+02  0.00000000000E+00 0.  1.
         21   -1    0    0  503  504 -0.00000000000E+00 -0.00000000000E+00 -0.10817452451E+04  0.10817452451E+04  0.00000000000E+00 0.  1.
         25    2    1    2    0    0 -0.68870387589E+01  0.11611712150E+02 -0.62387591340E+03  0.63641901944E+03  0.12500299924E+03 0.  0.
         25    2    1    2    0    0  0.68870387589E+01 -0.11611712150E+02 -0.44284787009E+03  0.46034768727E+03  0.12499397573E+03 0.  0.
          5    1    3    3  501    0 -0.48809295490E+02  0.26065444192E+02 -0.52528842804E+03  0.52821565420E+03  0.47000000000E+01 0. -1.
         -5    1    3    3    0  501  0.41922256731E+02 -0.14453732042E+02 -0.98587485363E+02  0.10820336524E+03  0.47000000000E+01 0. -1.
          5    1    4    4  502    0 -0.24332039283E+02  0.49454649994E+02 -0.23515295067E+03  0.24157154375E+03  0.47000000000E+01 0. -1.
         -5    1    4    4    0  502  0.31219078042E+02 -0.61066362144E+02 -0.20769491942E+03  0.21877614351E+03  0.47000000000E+01 0. -1.
<mgrwt>
<rscale>  0 0.25494623E+03</rscale>
<asrwt>0</asrwt>
<pdfrwt beam="1">  1       21 0.23109940E-02 0.25494623E+03</pdfrwt>
<pdfrwt beam="2">  1       21 0.16642235E+00 0.25494623E+03</pdfrwt>
<totfact> 0.21453971E+05</totfact>
</mgrwt>
</event>
<event>
 8    1  0.9400004E-006  0.3050038E+03  0.7546771E-02  0.1082766E+00
         21   -1    0    0  504  503  0.00000000000E+00  0.00000000000E+00  0.41967042354E+03  0.41967042354E+03  0.00000000000E+00 0.  1.
         21   -1    0    0  503  504 -0.00000000000E+00 -0.00000000000E+00 -0.55416885129E+02  0.55416885129E+02  0.00000000000E+00 0.  1.
         25    2    1    2    0    0  0.31815409011E+02  0.76852357049E+02  0.14051139285E+03  0.20563585248E+03  0.12499658903E+03 0.  0.
         25    2    1    2    0    0 -0.31815409011E+02 -0.76852357049E+02  0.22374214556E+03  0.26945145619E+03  0.12500013803E+03 0.  0.
          5    1    3    3  501    0  0.57952266169E+01  0.10773996010E+03  0.11434545024E+03  0.15728463257E+03  0.47000000000E+01 0. -1.
         -5    1    3    3    0  501  0.26020182394E+02 -0.30887603048E+02  0.26165942610E+02  0.48351219907E+02  0.47000000000E+01 0. -1.
          5    1    4    4  502    0 -0.65117599446E+02 -0.47517289122E+02  0.20629275861E+03  0.22153326337E+03  0.47000000000E+01 0.  1.
         -5    1    4    4    0  502  0.33302190434E+02 -0.29335067927E+02  0.17449386947E+02  0.47918192817E+02  0.47000000000E+01 0.  1.
<mgrwt>
<rscale>  0 0.30500379E+03</rscale>
<asrwt>0</asrwt>
<pdfrwt beam="1">  1       21 0.64564679E-01 0.30500379E+03</pdfrwt>
<pdfrwt beam="2">  1       21 0.85256749E-02 0.30500379E+03</pdfrwt>
<totfact> 0.23059499E+05</totfact>
</mgrwt>
</event>
<event>
 8    1  0.9400004E-006  0.4817929E+03  0.7546771E-02  0.1018644E+00
         21   -1    0    0  504  503  0.00000000000E+00  0.00000000000E+00  0.18109565043E+03  0.18109565043E+03  0.00000000000E+00 0.  1.
         21   -1    0    0  503  504 -0.00000000000E+00 -0.00000000000E+00 -0.32044446610E+03  0.32044446610E+03  0.00000000000E+00 0.  1.
         25    2    1    2    0    0 -0.18073556593E+02 -0.20461621621E+03 -0.54256456622E+02  0.24649566439E+03  0.12498759975E+03 0.  0.
         25    2    1    2    0    0  0.18073556593E+02  0.20461621621E+03 -0.85092359040E+02  0.25504445214E+03  0.12495004448E+03 0.  0.
          5    1    3    3  501    0  0.35134180397E+02 -0.14173391567E+02  0.82599921600E+01  0.39059097931E+02  0.47000000000E+01 0. -1.
         -5    1    3    3    0  501 -0.53207736990E+02 -0.19044282465E+03 -0.62516448782E+02  0.20743656646E+03  0.47000000000E+01 0. -1.
          5    1    4    4  502    0  0.26903239370E+02  0.48745728985E+02 -0.81497150753E+02  0.98811972775E+02  0.47000000000E+01 0. -1.
         -5    1    4    4    0  502 -0.88296827766E+01  0.15587048723E+03 -0.35952082876E+01  0.15623247937E+03  0.47000000000E+01 0. -1.
<mgrwt>
<rscale>  0 0.48179290E+03</rscale>
<asrwt>0</asrwt>
<pdfrwt beam="1">  1       21 0.27860869E-01 0.48179290E+03</pdfrwt>
<pdfrwt beam="2">  1       21 0.49299148E-01 0.48179290E+03</pdfrwt>
<totfact> 0.44049842E+04</totfact>
</mgrwt>
</event>
<event>
 8    1  0.9400004E-006  0.2631388E+03  0.7546771E-02  0.1105272E+00
         21   -1    0    0  504  503  0.00000000000E+00  0.00000000000E+00  0.14947245301E+03  0.14947245301E+03  0.00000000000E+00 0.  1.
         21   -1    0    0  503  504 -0.00000000000E+00 -0.00000000000E+00 -0.11581069058E+03  0.11581069058E+03  0.00000000000E+00 0.  1.
         25    2    1    2    0    0 -0.22818133874E+02  0.33737854892E+02  0.22054546311E+02  0.13330303492E+03  0.12499754405E+03 0.  0.
         25    2    1    2    0    0  0.22818133874E+02 -0.33737854892E+02  0.11607216118E+02  0.13198010868E+03  0.12500044613E+03 0.  0.
          5    1    3    3  501    0  0.14614510368E+02 -0.70818891759E+01  0.62381131107E+02  0.64631513875E+02  0.47000000000E+01 0. -1.
         -5    1    3    3    0  501 -0.37432644242E+02  0.40819744068E+02 -0.40326584795E+02  0.68671521040E+02  0.47000000000E+01 0. -1.
          5    1    4    4  502    0 -0.44764840335E+02  0.15021380345E+02  0.10013236105E+02  0.48496264753E+02  0.47000000000E+01 0. -1.
         -5    1    4    4    0  502  0.67582974209E+02 -0.48759235237E+02  0.15939800135E+01  0.83483843923E+02  0.47000000000E+01 0. -1.
<mgrwt>
<rscale>  0 0.26313881E+03</rscale>
<asrwt>0</asrwt>
<pdfrwt beam="1">  1       21 0.22995762E-01 0.26313881E+03</pdfrwt>
<pdfrwt beam="2">  1       21 0.17817029E-01 0.26313881E+03</pdfrwt>
<totfact> 0.50118014E+05</totfact>
</mgrwt>
</event>
<event>
 8    1  0.9400004E-006  0.2969658E+03  0.7546771E-02  0.1086767E+00
         21   -1    0    0  504  503  0.00000000000E+00  0.00000000000E+00  0.64547750751E+02  0.64547750751E+02  0.00000000000E+00 0.  1.
         21   -1    0    0  503  504 -0.00000000000E+00 -0.00000000000E+00 -0.34156384343E+03  0.34156384343E+03  0.00000000000E+00 0.  1.
         25    2    1    2    0    0 -0.96598914417E+00 -0.79536328656E+02 -0.15185566711E+03  0.21216048856E+03  0.12499987425E+03 0.  0.
         25    2    1    2    0    0  0.96598914417E+00  0.79536328656E+02 -0.12516042558E+03  0.19395110563E+03  0.12499975413E+03 0.  0.
          5    1    3    3  501    0 -0.44727613040E+02  0.55943482164E+01 -0.20961592241E+02  0.49933300006E+02  0.47000000000E+01 0. -1.
         -5    1    3    3    0  501  0.43761623896E+02 -0.85130676872E+02 -0.13089407487E+03  0.16222718855E+03  0.47000000000E+01 0. -1.
          5    1    4    4  502    0 -0.41190769276E+02  0.60085356781E+02 -0.12783439687E+03  0.14720955334E+03  0.47000000000E+01 0. -1.
         -5    1    4    4    0  502  0.42156758420E+02  0.19450971875E+02  0.26739712924E+01  0.46741552283E+02  0.47000000000E+01 0. -1.
<mgrwt>
<rscale>  0 0.29696584E+03</rscale>
<asrwt>0</asrwt>
<pdfrwt beam="1">  1       21 0.99304234E-02 0.29696584E+03</pdfrwt>
<pdfrwt beam="2">  1       21 0.52548282E-01 0.29696584E+03</pdfrwt>
<totfact> 0.27496980E+05</totfact>
</mgrwt>
</event>
<event>
 8    1  0.9400004E-006  0.2584573E+03  0.7546771E-02  0.1108074E+00
         21   -1    0    0  504  503  0.00000000000E+00  0.00000000000E+00  0.12016026646E+04  0.12016026646E+04  0.00000000000E+00 0.  1.
         21   -1    0    0  503  504 -0.00000000000E+00 -0.00000000000E+00 -0.13898144430E+02  0.13898144430E+02  0.00000000000E+00 0.  1.
         25    2    1    2    0    0  0.13775549420E+02 -0.16859823256E+02  0.70907167294E+03  0.72033416664E+03  0.12499861947E+03 0.  0.
         25    2    1    2    0    0 -0.13775549420E+02  0.16859823256E+02  0.47863284723E+03  0.49516664239E+03  0.12500632736E+03 0.  0.
          5    1    3    3  501    0 -0.16512891230E+01 -0.15982463107E+02  0.71123127324E+01  0.18189031726E+02  0.47000000000E+01 0. -1.
         -5    1    3    3    0  501  0.15426838543E+02 -0.87736014858E+00  0.70195936020E+03  0.70214513492E+03  0.47000000000E+01 0. -1.
          5    1    4    4  502    0 -0.67573446911E+02  0.25005768112E+02  0.28058998857E+03  0.28973141158E+03  0.47000000000E+01 0.  1.
         -5    1    4    4    0  502  0.53797897491E+02 -0.81459448563E+01  0.19804285866E+03  0.20543523081E+03  0.47000000000E+01 0.  1.
<mgrwt>
<rscale>  0 0.25845733E+03</rscale>
<asrwt>0</asrwt>
<pdfrwt beam="1">  1       21 0.18486187E+00 0.25845733E+03</pdfrwt>
<pdfrwt beam="2">  1       21 0.21381770E-02 0.25845733E+03</pdfrwt>
<totfact> 0.18094770E+05</totfact>
</mgrwt>
</event>
<event>
 8    1  0.9400004E-006  0.3625333E+03  0.7546771E-02  0.1057585E+00
         21   -1    0    0  504  503  0.00000000000E+00  0.00000000000E+00  0.52548063941E+02  0.52548063941E+02  0.00000000000E+00 0.  1.
         21   -1    0    0  503  504 -0.00000000000E+00 -0.00000000000E+00 -0.62528662262E+03  0.62528662262E+03  0.00000000000E+00 0.  1.
         25    2    1    2    0    0 -0.83002010189E+02  0.27152413860E+02 -0.10313438397E+03  0.18409583939E+03  0.12501195803E+03 0.  0.
         25    2    1    2    0    0  0.83002010189E+02 -0.27152413860E+02 -0.46960417471E+03  0.49373884717E+03  0.12499352392E+03 0.  0.
          5    1    3    3  501    0 -0.36548666682E+02  0.41710834916E+02  0.13802991800E+02  0.57342927797E+02  0.47000000000E+01 0.  1.
         -5    1    3    3    0  501 -0.46453343507E+02 -0.14558421057E+02 -0.11693737577E+03  0.12675291160E+03  0.47000000000E+01 0.  1.
          5    1    4    4  502    0  0.70501722685E+02 -0.66023792058E+02 -0.41057523071E+03  0.42181008060E+03  0.47000000000E+01 0.  1.
         -5    1    4    4    0  502  0.12500287504E+02  0.38871378199E+02 -0.59028943998E+02  0.71928766570E+02  0.47000000000E+01 0.  1.
<mgrwt>
<rscale>  0 0.36253332E+03</rscale>
<asrwt>0</asrwt>
<pdfrwt beam="1">  1       21 0.80843177E-02 0.36253332E+03</pdfrwt>
<pdfrwt beam="2">  1       21 0.96197940E-01 0.36253332E+03</pdfrwt>
<totfact> 0.10032720E+05</totfact>
</mgrwt>
</event>
<event>
 8    1  0.9400004E-006  0.4215798E+03  0.7546771E-02  0.1036553E+00
         21   -1    0    0  504  503  0.00000000000E+00  0.00000000000E+00  0.95638137285E+02  0.95638137285E+02  0.00000000000E+00 0.  1.
         21   -1    0    0  503  504 -0.00000000000E+00 -0.00000000000E+00 -0.46458852575E+03  0.46458852575E+03  0.00000000000E+00 0.  1.
         25    2    1    2    0    0 -0.46698365215E+02  0.87666967666E+02 -0.36737544255E+03  0.40056778166E+03  0.12499438938E+03 0.  0.
         25    2    1    2    0    0  0.46698365215E+02 -0.87666967666E+02 -0.15749459109E+01  0.15965888138E+03  0.12498897317E+03 0.  0.
          5    1    3    3  501    0 -0.17072265769E+02  0.48975136431E+02 -0.34100696972E+03  0.34496067840E+03  0.47000000000E+01 0. -1.
         -5    1    3    3    0  501 -0.29626099446E+02  0.38691831235E+02 -0.26368472834E+02  0.55607103254E+02  0.47000000000E+01 0. -1.
          5    1    4    4  502    0  0.50224631159E+02 -0.62758064006E+02  0.55037069602E+02  0.97530801305E+02  0.47000000000E+01 0. -1.
         -5    1    4    4    0  502 -0.35262659444E+01 -0.24908903660E+02 -0.56612015513E+02  0.62128080072E+02  0.47000000000E+01 0. -1.
<mgrwt>
<rscale>  0 0.42157980E+03</rscale>
<asrwt>0</asrwt>
<pdfrwt beam="1">  1       21 0.14713560E-01 0.42157980E+03</pdfrwt>
<pdfrwt beam="2">  1       21 0.71475157E-01 0.42157980E+03</pdfrwt>
<totfact> 0.66873717E+04</totfact>
</mgrwt>
</event>
<event>
 8    1  0.9400004E-006  0.3548395E+03  0.7546771E-02  0.1060646E+00
         21   -1    0    0  504  503  0.00000000000E+00  0.00000000000E+00  0.83581145597E+03  0.83581145597E+03  0.00000000000E+00 0.  1.
         21   -1    0    0  503  504 -0.00000000000E+00 -0.00000000000E+00 -0.37661336192E+02  0.37661336192E+02  0.00000000000E+00 0.  1.
         25    2    1    2    0    0 -0.12438126719E+03  0.60479172454E+01  0.44485093445E+03  0.47856500124E+03  0.12499931843E+03 0.  0.
         25    2    1    2    0    0  0.12438126719E+03 -0.60479172454E+01  0.35329918533E+03  0.39490779092E+03  0.12499828815E+03 0.  0.
          5    1    3    3  501    0 -0.14301073310E+03 -0.15321940618E+02  0.32706221559E+03  0.35732144424E+03  0.47000000000E+01 0.  1.
         -5    1    3    3    0  501  0.18629465916E+02  0.21369857864E+02  0.11778871886E+03  0.12124355701E+03  0.47000000000E+01 0.  1.
          5    1    4    4  502    0  0.13006710000E+03 -0.22983279997E+02  0.19520912147E+03  0.23574217435E+03  0.47000000000E+01 0. -1.
         -5    1    4    4    0  502 -0.56858328103E+01  0.16935362752E+02  0.15809006386E+03  0.15916561657E+03  0.47000000000E+01 0. -1.
<mgrwt>
<rscale>  0 0.35483955E+03</rscale>
<asrwt>0</asrwt>
<pdfrwt beam="1">  1       21 0.12858636E+00 0.35483955E+03</pdfrwt>
<pdfrwt beam="2">  1       21 0.57940523E-02 0.35483955E+03</pdfrwt>
<totfact> 0.87698785E+04</totfact>
</mgrwt>
</event>
<event>
 8    1  0.9400004E-006  0.2603618E+03  0.7546771E-02  0.1106926E+00
         21   -1    0    0  504  503  0.00000000000E+00  0.00000000000E+00  0.15602279392E+02  0.15602279392E+02  0.00000000000E+00 0.  1.
         21   -1    0    0  503  504 -0.00000000000E+00 -0.00000000000E+00 -0.10861917820E+04  0.10861917820E+04  0.00000000000E+00 0.  1.
         25    2    1    2    0    0  0.18216316864E+02  0.87078584320E+01 -0.40732077767E+03  0.42654772306E+03  0.12500033250E+03 0.  0.
         25    2    1    2    0    0 -0.18216316864E+02 -0.87078584320E+01 -0.66326872491E+03  0.67524633831E+03  0.12499821980E+03 0.  0.
          5    1    3    3  501    0  0.54512963042E+02  0.46792915863E+02 -0.26952724126E+03  0.27897717450E+03  0.47000000000E+01 0. -1.
         -5    1    3    3    0  501 -0.36296646178E+02 -0.38085057431E+02 -0.13779353642E+03  0.14757054856E+03  0.47000000000E+01 0. -1.
          5    1    4    4  502    0  0.43246143670E+02 -0.16617885093E+02 -0.46836420396E+03  0.47067345432E+03  0.47000000000E+01 0.  1.
         -5    1    4    4    0  502 -0.61462460534E+02  0.79100266611E+01 -0.19490452095E+03  0.20457288399E+03  0.47000000000E+01 0.  1.
<mgrwt>
<rscale>  0 0.26036181E+03</rscale>
<asrwt>0</asrwt>
<pdfrwt beam="1">  1       21 0.24003492E-02 0.26036181E+03</pdfrwt>
<pdfrwt beam="2">  1       21 0.16710653E+00 0.26036181E+03</pdfrwt>
<totfact> 0.19888157E+05</totfact>
</mgrwt>
</event>
<event>
 8    1  0.9400004E-006  0.3597786E+03  0.7546771E-02  0.1058672E+00
         21   -1    0    0  504  503  0.00000000000E+00  0.00000000000E+00  0.37940608869E+02  0.37940608869E+02  0.00000000000E+00 0. -1.
         21   -1    0    0  503  504 -0.00000000000E+00 -0.00000000000E+00 -0.85291639146E+03  0.85291639146E+03  0.00000000000E+00 0. -1.
         25    2    1    2    0    0 -0.30586117137E+01 -0.11622367172E+03 -0.26697368381E+03  0.31688065419E+03  0.12498441575E+03 0.  0.
         25    2    1    2    0    0  0.30586117137E+01  0.11622367172E+03 -0.54800209878E+03  0.57397634614E+03  0.12500099472E+03 0.  0.
          5    1    3    3  501    0 -0.58998491549E+02 -0.31716702763E+02 -0.82728965076E+02  0.10655018959E+03  0.47000000000E+01 0.  1.
         -5    1    3    3    0  501  0.55939879835E+02 -0.84506968961E+02 -0.18424471873E+03  0.21033046460E+03  0.47000000000E+01 0.  1.
          5    1    4    4  502    0  0.43019715130E+02  0.29458820577E+02 -0.35214521418E+03  0.35601525230E+03  0.47000000000E+01 0. -1.
         -5    1    4    4    0  502 -0.39961103416E+02  0.86764851148E+02 -0.19585688460E+03  0.21796109384E+03  0.47000000000E+01 0. -1.
<mgrwt>
<rscale>  0 0.35977864E+03</rscale>
<asrwt>0</asrwt>
<pdfrwt beam="1">  1       21 0.58370172E-02 0.35977864E+03</pdfrwt>
<pdfrwt beam="2">  1       21 0.13121790E+00 0.35977864E+03</pdfrwt>
<totfact> 0.82071804E+04</totfact>
</mgrwt>
</event>
<event>
 8    1  0.9400004E-006  0.2898827E+03  0.7546771E-02  0.1090410E+00
         21   -1    0    0  504  503  0.00000000000E+00  0.00000000000E+00  0.78795147803E+02  0.78795147803E+02  0.00000000000E+00 0.  1.
         21   -1    0    0  503  504 -0.00000000000E+00 -0.00000000000E+00 -0.26661525543E+03  0.26661525543E+03  0.00000000000E+00 0.  1.
         25    2    1    2    0    0 -0.10658849654E+02  0.43336864743E+02 -0.16329216821E+03  0.21043704650E+03  0.12501089320E+03 0.  0.
         25    2    1    2    0    0  0.10658849654E+02 -0.43336864743E+02 -0.24527939409E+02  0.13497335672E+03  0.12499796915E+03 0.  0.
          5    1    3    3  501    0  0.42362539729E+02 -0.42173069329E+01 -0.11890462786E+03  0.12638342841E+03  0.47000000000E+01 0. -1.
         -5    1    3    3    0  501 -0.53021389383E+02  0.47554171675E+02 -0.44387540350E+02  0.84053618090E+02  0.47000000000E+01 0. -1.
          5    1    4    4  502    0 -0.16513063304E+02  0.24265846806E+02 -0.49559930631E+02  0.57790910229E+02  0.47000000000E+01 0.  1.
         -5    1    4    4    0  502  0.27171912958E+02 -0.67602711549E+02  0.25031991222E+02  0.77182446496E+02  0.47000000000E+01 0.  1.
<mgrwt>
<rscale>  0 0.28988266E+03</rscale>
<asrwt>0</asrwt>
<pdfrwt beam="1">  1       21 0.12122330E-01 0.28988266E+03</pdfrwt>
<pdfrwt beam="2">  1       21 0.41017731E-01 0.28988266E+03</pdfrwt>
<totfact> 0.32262970E+05</totfact>
</mgrwt>
</event>
<event>
 8    1  0.9400004E-006  0.2662036E+03  0.7546771E-02  0.1103472E+00
         21   -1    0    0  504  503  0.00000000000E+00  0.00000000000E+00  0.50510765151E+03  0.50510765151E+03  0.00000000000E+00 0.  1.
         21   -1    0    0  503  504 -0.00000000000E+00 -0.00000000000E+00 -0.35073895453E+02  0.35073895453E+02  0.00000000000E+00 0.  1.
         25    2    1    2    0    0  0.14841095820E+02 -0.63918956496E+01  0.32183370449E+03  0.34563398215E+03  0.12499920726E+03 0.  0.
         25    2    1    2    0    0 -0.14841095820E+02  0.63918956496E+01  0.14820005157E+03  0.19454756481E+03  0.12499754092E+03 0.  0.
          5    1    3    3  501    0  0.62296212644E+02 -0.33723814427E+02  0.18748746821E+03  0.20047881311E+03  0.47000000000E+01 0. -1.
         -5    1    3    3    0  501 -0.47455116824E+02  0.27331918777E+02  0.13434623627E+03  0.14515516903E+03  0.47000000000E+01 0. -1.
          5    1    4    4  502    0 -0.47848909889E+02 -0.32321675573E+02  0.28845691796E+02  0.64717639208E+02  0.47000000000E+01 0. -1.
         -5    1    4    4    0  502  0.33007814069E+02  0.38713571223E+02  0.11935435977E+03  0.12982992560E+03  0.47000000000E+01 0. -1.
<mgrwt>
<rscale>  0 0.26620363E+03</rscale>
<asrwt>0</asrwt>
<pdfrwt beam="1">  1       21 0.77708864E-01 0.26620363E+03</pdfrwt>
<pdfrwt beam="2">  1       21 0.53959843E-02 0.26620363E+03</pdfrwt>
<totfact> 0.34068697E+05</totfact>
</mgrwt>
</event>
<event>
 8    1  0.9400004E-006  0.4557428E+03  0.7546771E-02  0.1026023E+00
         21   -1    0    0  504  503  0.00000000000E+00  0.00000000000E+00  0.47613202861E+03  0.47613202861E+03  0.00000000000E+00 0. -1.
         21   -1    0    0  503  504 -0.00000000000E+00 -0.00000000000E+00 -0.10905668286E+03  0.10905668286E+03  0.00000000000E+00 0. -1.
         25    2    1    2    0    0 -0.92240049463E+02  0.95254454381E+02  0.35921533731E+03  0.40279297088E+03  0.12499952410E+03 0.  0.
         25    2    1    2    0    0  0.92240049463E+02 -0.95254454381E+02  0.78600084390E+01  0.18239574059E+03  0.12499915459E+03 0.  0.
          5    1    3    3  501    0  0.25771831209E+02 -0.52238983302E+01  0.63454997297E+02  0.68848406515E+02  0.47000000000E+01 0. -1.
         -5    1    3    3    0  501 -0.11801188067E+03  0.10047835271E+03  0.29576034001E+03  0.33394456436E+03  0.47000000000E+01 0. -1.
          5    1    4    4  502    0  0.68044784912E+01 -0.50965323242E+01  0.50164697877E+02  0.51096599518E+02  0.47000000000E+01 0. -1.
         -5    1    4    4    0  502  0.85435570972E+02 -0.90157922057E+02 -0.42304689438E+02  0.13129914107E+03  0.47000000000E+01 0. -1.
<mgrwt>
<rscale>  0 0.45574282E+03</rscale>
<asrwt>0</asrwt>
<pdfrwt beam="1">  1       21 0.73251080E-01 0.45574282E+03</pdfrwt>
<pdfrwt beam="2">  1       21 0.16777952E-01 0.45574282E+03</pdfrwt>
<totfact> 0.49173958E+04</totfact>
</mgrwt>
</event>
<event>
 8    1  0.9400004E-006  0.3852195E+03  0.7546771E-02  0.1049021E+00
         21   -1    0    0  504  503  0.00000000000E+00  0.00000000000E+00  0.22735970042E+03  0.22735970042E+03  0.00000000000E+00 0. -1.
         21   -1    0    0  503  504 -0.00000000000E+00 -0.00000000000E+00 -0.16317103156E+03  0.16317103156E+03  0.00000000000E+00 0. -1.
         25    2    1    2    0    0 -0.14633350641E+03 -0.46896206109E+01  0.38366017527E+02  0.19629570372E+03  0.12499825742E+03 0.  0.
         25    2    1    2    0    0  0.14633350641E+03  0.46896206109E+01  0.25822651339E+02  0.19423502827E+03  0.12499979697E+03 0.  0.
          5    1    3    3  501    0 -0.11784253589E+03  0.35626019325E+02 -0.14217150521E+02  0.12401731285E+03  0.47000000000E+01 0. -1.
         -5    1    3    3    0  501 -0.28490970526E+02 -0.40315639936E+02  0.52583168048E+02  0.72278390871E+02  0.47000000000E+01 0. -1.
          5    1    4    4  502    0  0.63846875209E+01  0.26065689928E+02 -0.31303900521E+02  0.41499501370E+02  0.47000000000E+01 0. -1.
         -5    1    4    4    0  502  0.13994881889E+03 -0.21376069317E+02  0.57126551861E+02  0.15273552689E+03  0.47000000000E+01 0. -1.
<mgrwt>
<rscale>  0 0.38521951E+03</rscale>
<asrwt>0</asrwt>
<pdfrwt beam="1">  1       21 0.34978415E-01 0.38521951E+03</pdfrwt>
<pdfrwt beam="2">  1       21 0.25103236E-01 0.38521951E+03</pdfrwt>
<totfact> 0.11212546E+05</totfact>
</mgrwt>
</event>
<event>
 8    1  0.9400004E-006  0.3200207E+03  0.7546771E-02  0.1075640E+00
         21   -1    0    0  504  503  0.00000000000E+00  0.00000000000E+00  0.33861892728E+03  0.33861892728E+03  0.00000000000E+00 0.  1.
         21   -1    0    0  503  504 -0.00000000000E+00 -0.00000000000E+00 -0.75610968485E+02  0.75610968485E+02  0.00000000000E+00 0.  1.
         25    2    1    2    0    0  0.58328188923E+02  0.44358529245E+02  0.43625880822E+02  0.15131569942E+03  0.12499346652E+03 0.  0.
         25    2    1    2    0    0 -0.58328188923E+02 -0.44358529245E+02  0.21938207797E+03  0.26291419634E+03  0.12500208704E+03 0.  0.
          5    1    3    3  501    0  0.40054449492E+02  0.38992248698E+02  0.87110987019E+02  0.10361065796E+03  0.47000000000E+01 0.  1.
         -5    1    3    3    0  501  0.18273739431E+02  0.53662805467E+01 -0.43485106198E+02  0.47705041460E+02  0.47000000000E+01 0.  1.
          5    1    4    4  502    0 -0.47986855810E+02 -0.43973148555E+02  0.27695262979E+02  0.70890716711E+02  0.47000000000E+01 0. -1.
         -5    1    4    4    0  502 -0.10341333113E+02 -0.38538069024E+00  0.19168681499E+03  0.19202347963E+03  0.47000000000E+01 0. -1.
<mgrwt>
<rscale>  0 0.32002066E+03</rscale>
<asrwt>0</asrwt>
<pdfrwt beam="1">  1       21 0.52095219E-01 0.32002066E+03</pdfrwt>
<pdfrwt beam="2">  1       21 0.11632457E-01 0.32002066E+03</pdfrwt>
<totfact> 0.20986097E+05</totfact>
</mgrwt>
</event>
<event>
 8    1  0.9400004E-006  0.3625981E+03  0.7546771E-02  0.1057560E+00
         21   -1    0    0  504  503  0.00000000000E+00  0.00000000000E+00  0.12003253724E+03  0.12003253724E+03  0.00000000000E+00 0.  1.
         21   -1    0    0  503  504 -0.00000000000E+00 -0.00000000000E+00 -0.27383701250E+03  0.27383701250E+03  0.00000000000E+00 0.  1.
         25    2    1    2    0    0  0.45652138162E+02  0.10265760419E+03 -0.15078345952E+03  0.22577319780E+03  0.12496072888E+03 0.  0.
         25    2    1    2    0    0 -0.45652138162E+02 -0.10265760419E+03 -0.30210157444E+01  0.16809635194E+03  0.12499822231E+03 0.  0.
          5    1    3    3  501    0 -0.22631811493E+02  0.92069359944E+02 -0.62883624665E+02  0.11386573753E+03  0.47000000000E+01 0.  1.
         -5    1    3    3    0  501  0.68283949655E+02  0.10588244244E+02 -0.87899834856E+02  0.11190746027E+03  0.47000000000E+01 0.  1.
          5    1    4    4  502    0 -0.39835710278E+02  0.58651133796E+01 -0.36220718244E+02  0.54362797927E+02  0.47000000000E+01 0.  1.
         -5    1    4    4    0  502 -0.58164278837E+01 -0.10852271757E+03  0.33199702500E+02  0.11373355401E+03  0.47000000000E+01 0.  1.
<mgrwt>
<rscale>  0 0.36259813E+03</rscale>
<asrwt>0</asrwt>
<pdfrwt beam="1">  1       21 0.18466544E-01 0.36259813E+03</pdfrwt>
<pdfrwt beam="2">  1       21 0.42128771E-01 0.36259813E+03</pdfrwt>
<totfact> 0.13854626E+05</totfact>
</mgrwt>
</event>
<event>
 8    1  0.9400004E-006  0.2932347E+03  0.7546771E-02  0.1088672E+00
         21   -1    0    0  504  503  0.00000000000E+00  0.00000000000E+00  0.85583861460E+03  0.85583861460E+03  0.00000000000E+00 0. -1.
         21   -1    0    0  503  504 -0.00000000000E+00 -0.00000000000E+00 -0.25117648029E+02  0.25117648029E+02  0.00000000000E+00 0. -1.
         25    2    1    2    0    0  0.44804197241E+02  0.23511408920E+02  0.58821860174E+03  0.60347924737E+03  0.12500350447E+03 0.  0.
         25    2    1    2    0    0 -0.44804197241E+02 -0.23511408920E+02  0.24250236484E+03  0.27747701527E+03  0.12500357839E+03 0.  0.
          5    1    3    3  501    0  0.83191663844E+02  0.10061612607E+02  0.27293906829E+03  0.28555194620E+03  0.47000000000E+01 0. -1.
         -5    1    3    3    0  501 -0.38387466604E+02  0.13449796312E+02  0.31527953345E+03  0.31792730116E+03  0.47000000000E+01 0. -1.
          5    1    4    4  502    0  0.34163341841E+02 -0.34514864568E+01  0.15074310975E+03  0.15467586050E+03  0.47000000000E+01 0. -1.
         -5    1    4    4    0  502 -0.78967539082E+02 -0.20059922463E+02  0.91759255085E+02  0.12280115477E+03  0.47000000000E+01 0. -1.
<mgrwt>
<rscale>  0 0.29323474E+03</rscale>
<asrwt>0</asrwt>
<pdfrwt beam="1">  1       21 0.13166746E+00 0.29323474E+03</pdfrwt>
<pdfrwt beam="2">  1       21 0.38642542E-02 0.29323474E+03</pdfrwt>
<totfact> 0.16781481E+05</totfact>
</mgrwt>
</event>
<event>
 8    1  0.9400004E-006  0.3309997E+03  0.7546771E-02  0.1070695E+00
         21   -1    0    0  504  503  0.00000000000E+00  0.00000000000E+00  0.21407031044E+03  0.21407031044E+03  0.00000000000E+00 0. -1.
         21   -1    0    0  503  504 -0.00000000000E+00 -0.00000000000E+00 -0.12794953095E+03  0.12794953095E+03  0.00000000000E+00 0. -1.
         25    2    1    2    0    0  0.65262532428E+02 -0.32431358766E+01  0.13252909003E+03  0.19353181761E+03  0.12498355353E+03 0.  0.
         25    2    1    2    0    0 -0.65262532428E+02  0.32431358766E+01 -0.46408310548E+02  0.14848802378E+03  0.12500098339E+03 0.  0.
          5    1    3    3  501    0  0.87784373853E+02  0.90310764200E+01  0.39286944018E+02  0.96711998244E+02  0.47000000000E+01 0.  1.
         -5    1    3    3    0  501 -0.22521841425E+02 -0.12274212297E+02  0.93242146012E+02  0.96819819364E+02  0.47000000000E+01 0.  1.
          5    1    4    4  502    0 -0.28813614166E+02  0.20455187199E+02  0.39663888536E+02  0.53328726766E+02  0.47000000000E+01 0.  1.
         -5    1    4    4    0  502 -0.36448918262E+02 -0.17212051322E+02 -0.86072199084E+02  0.95159297015E+02  0.47000000000E+01 0.  1.
<mgrwt>
<rscale>  0 0.33099967E+03</rscale>
<asrwt>0</asrwt>
<pdfrwt beam="1">  1       21 0.32933894E-01 0.33099967E+03</pdfrwt>
<pdfrwt beam="2">  1       21 0.19684543E-01 0.33099967E+03</pdfrwt>
<totfact> 0.20376459E+05</totfact>
</mgrwt>
</event>
<event>
 8    1  0.9400004E-006  0.2785694E+03  0.7546771E-02  0.1096473E+00
         21   -1    0    0  504  503  0.00000000000E+00  0.00000000000E+00  0.46759966662E+02  0.46759966662E+02  0.00000000000E+00 0.  1.
         21   -1    0    0  503  504 -0.00000000000E+00 -0.00000000000E+00 -0.41488974138E+03  0.41488974138E+03  0.00000000000E+00 0.  1.
         25    2    1    2    0    0 -0.41786650400E+01 -0.60919445581E+02 -0.17276392138E+03  0.22181591417E+03  0.12500514852E+03 0.  0.
         25    2    1    2    0    0  0.41786650400E+01  0.60919445581E+02 -0.19536585334E+03  0.23983379387E+03  0.12499516767E+03 0.  0.
          5    1    3    3  501    0 -0.26081360522E+02 -0.57810837692E+02 -0.18533388632E+03  0.19594149570E+03  0.47000000000E+01 0. -1.
         -5    1    3    3    0  501  0.21902695482E+02 -0.31086078889E+01  0.12569964938E+02  0.25874418465E+02  0.47000000000E+01 0. -1.
          5    1    4    4  502    0 -0.59965223716E+02  0.36031591747E+02 -0.95834343730E+02  0.11874516873E+03  0.47000000000E+01 0. -1.
         -5    1    4    4    0  502  0.64143888756E+02  0.24887853834E+02 -0.99531509606E+02  0.12108862514E+03  0.47000000000E+01 0. -1.
<mgrwt>
<rscale>  0 0.27856942E+03</rscale>
<asrwt>0</asrwt>
<pdfrwt beam="1">  1       21 0.71938413E-02 0.27856942E+03</pdfrwt>
<pdfrwt beam="2">  1       21 0.63829189E-01 0.27856942E+03</pdfrwt>
<totfact> 0.32037346E+05</totfact>
</mgrwt>
</event>
<event>
 8    1  0.9400004E-006  0.6085983E+03  0.7546771E-02  0.9887726E-01
         21   -1    0    0  504  503  0.00000000000E+00  0.00000000000E+00  0.97259655376E+03  0.97259655376E+03  0.00000000000E+00 0.  1.
         21   -1    0    0  503  504 -0.00000000000E+00 -0.00000000000E+00 -0.95206979209E+02  0.95206979209E+02  0.00000000000E+00 0.  1.
         25    2    1    2    0    0 -0.61166044971E+02  0.84439466273E+02 -0.12397243178E+02  0.16325064613E+03  0.12500309316E+03 0.  0.
         25    2    1    2    0    0  0.61166044971E+02 -0.84439466273E+02  0.88978681772E+03  0.90455288684E+03  0.12499614222E+03 0.  0.
          5    1    3    3  501    0  0.13257237293E+01  0.89789584466E+02  0.20560021838E+02  0.92242785734E+02  0.47000000000E+01 0. -1.
         -5    1    3    3    0  501 -0.62491768700E+02 -0.53501181933E+01 -0.32957265016E+02  0.71007860391E+02  0.47000000000E+01 0. -1.
          5    1    4    4  502    0  0.93542339188E+01 -0.43299572309E+02  0.73250590143E+03  0.73385921012E+03  0.47000000000E+01 0.  1.
         -5    1    4    4    0  502  0.51811811052E+02 -0.41139893964E+02  0.15728091630E+03  0.17069367672E+03  0.47000000000E+01 0.  1.
<mgrwt>
<rscale>  0 0.60859832E+03</rscale>
<asrwt>0</asrwt>
<pdfrwt beam="1">  1       21 0.14963023E+00 0.60859832E+03</pdfrwt>
<pdfrwt beam="2">  1       21 0.14647228E-01 0.60859832E+03</pdfrwt>
<totfact> 0.10435025E+04</totfact>
</mgrwt>
</event>
<event>
 8    1  0.9400004E-006  0.3023297E+03  0.7546771E-02  0.1084082E+00
         21   -1    0    0  504  503  0.00000000000E+00  0.00000000000E+00  0.11567090144E+03  0.11567090144E+03  0.00000000000E+00 0. -1.
         21   -1    0    0  503  504 -0.00000000000E+00 -0.00000000000E+00 -0.19755028094E+03  0.19755028094E+03  0.00000000000E+00 0. -1.
         25    2    1    2    0    0 -0.51688046206E+02 -0.48449526500E+02 -0.89636531035E+02  0.16933638028E+03  0.12498436402E+03 0.  0.
         25    2    1    2    0    0  0.51688046206E+02  0.48449526500E+02  0.77571515424E+01  0.14388480210E+03  0.12499460844E+03 0.  0.
          5    1    3    3  501    0 -0.20745124690E+02 -0.81756306275E+02 -0.90262139533E+02  0.12362765729E+03  0.47000000000E+01 0.  1.
         -5    1    3    3    0  501 -0.30942921516E+02  0.33306779775E+02  0.62560849756E+00  0.45708722985E+02  0.47000000000E+01 0.  1.
          5    1    4    4  502    0 -0.17416896407E+02 -0.25487808973E+02 -0.22109932199E+02  0.38261152472E+02  0.47000000000E+01 0.  1.
         -5    1    4    4    0  502  0.69104942613E+02  0.73937335473E+02  0.29867083741E+02  0.10562364963E+03  0.47000000000E+01 0.  1.
<mgrwt>
<rscale>  0 0.30232975E+03</rscale>
<asrwt>0</asrwt>
<pdfrwt beam="1">  1       21 0.17795523E-01 0.30232975E+03</pdfrwt>
<pdfrwt beam="2">  1       21 0.30392351E-01 0.30232975E+03</pdfrwt>
<totfact> 0.29042735E+05</totfact>
</mgrwt>
</event>
<event>
 8    1  0.9400004E-006  0.2994045E+03  0.7546771E-02  0.1085539E+00
         21   -1    0    0  504  503  0.00000000000E+00  0.00000000000E+00  0.75385604858E+02  0.75385604858E+02  0.00000000000E+00 0. -1.
         21   -1    0    0  503  504 -0.00000000000E+00 -0.00000000000E+00 -0.29728172902E+03  0.29728172902E+03  0.00000000000E+00 0. -1.
         25    2    1    2    0    0 -0.14518749488E+01  0.35264347051E+02 -0.18330123378E+02  0.13117605560E+03  0.12500192809E+03 0.  0.
         25    2    1    2    0    0  0.14518749488E+01 -0.35264347051E+02 -0.20356600078E+03  0.24149127827E+03  0.12503295043E+03 0.  0.
          5    1    3    3  501    0 -0.17324427558E+02 -0.36950485688E+02 -0.36433274420E+02  0.54908539114E+02  0.47000000000E+01 0.  1.
         -5    1    3    3    0  501  0.15872552609E+02  0.72214832739E+02  0.18103151042E+02  0.76267516489E+02  0.47000000000E+01 0.  1.
          5    1    4    4  502    0  0.14381365223E+02 -0.76938035646E+02 -0.16652793034E+03  0.18406500639E+03  0.47000000000E+01 0. -1.
         -5    1    4    4    0  502 -0.12929490274E+02  0.41673688595E+02 -0.37038070436E+02  0.57426271875E+02  0.47000000000E+01 0. -1.
<mgrwt>
<rscale>  0 0.29940450E+03</rscale>
<asrwt>0</asrwt>
<pdfrwt beam="1">  1       21 0.11597785E-01 0.29940450E+03</pdfrwt>
<pdfrwt beam="2">  1       21 0.45735650E-01 0.29940450E+03</pdfrwt>
<totfact> 0.27858939E+05</totfact>
</mgrwt>
</event>
<event>
 8    1  0.9400004E-006  0.3213805E+03  0.7546771E-02  0.1075016E+00
         21   -1    0    0  504  503  0.00000000000E+00  0.00000000000E+00  0.11886101828E+03  0.11886101828E+03  0.00000000000E+00 0.  1.
         21   -1    0    0  503  504 -0.00000000000E+00 -0.00000000000E+00 -0.21723990328E+03  0.21723990328E+03  0.00000000000E+00 0.  1.
         25    2    1    2    0    0 -0.11772320783E+02 -0.96859448457E+02 -0.76370896399E+02  0.17600741489E+03  0.12500302391E+03 0.  0.
         25    2    1    2    0    0  0.11772320783E+02  0.96859448457E+02 -0.22007988607E+02  0.16009350667E+03  0.12500095609E+03 0.  0.
          5    1    3    3  501    0 -0.32540046714E+02 -0.10601933499E+03 -0.17028707273E+02  0.11229880188E+03  0.47000000000E+01 0. -1.
         -5    1    3    3    0  501  0.20767725931E+02  0.91598865316E+01 -0.59342189126E+02  0.63708613012E+02  0.47000000000E+01 0. -1.
          5    1    4    4  502    0  0.25435688053E+01  0.56336383592E+02  0.50852752463E+02  0.76081208531E+02  0.47000000000E+01 0. -1.
         -5    1    4    4    0  502  0.92287519772E+01  0.40523064865E+02 -0.72860741071E+02  0.84012298138E+02  0.47000000000E+01 0. -1.
<mgrwt>
<rscale>  0 0.32138050E+03</rscale>
<asrwt>0</asrwt>
<pdfrwt beam="1">  1       21 0.18286311E-01 0.32138050E+03</pdfrwt>
<pdfrwt beam="2">  1       21 0.33421523E-01 0.32138050E+03</pdfrwt>
<totfact> 0.22772478E+05</totfact>
</mgrwt>
</event>
<event>
 8    1  0.9400004E-006  0.3887845E+03  0.7546771E-02  0.1047734E+00
         21   -1    0    0  504  503  0.00000000000E+00  0.00000000000E+00  0.80970895660E+02  0.80970895660E+02  0.00000000000E+00 0.  1.
         21   -1    0    0  503  504 -0.00000000000E+00 -0.00000000000E+00 -0.46669036922E+03  0.46669036922E+03  0.00000000000E+00 0.  1.
         25    2    1    2    0    0 -0.27560741567E+02 -0.11401715457E+03 -0.32201115633E+03  0.36478750056E+03  0.12497691689E+03 0.  0.
         25    2    1    2    0    0  0.27560741567E+02  0.11401715457E+03 -0.63708317230E+02  0.18287376432E+03  0.12499823191E+03 0.  0.
          5    1    3    3  501    0 -0.65379753724E+02 -0.91813536957E+02 -0.28731932468E+03  0.30867251595E+03  0.47000000000E+01 0.  1.
         -5    1    3    3    0  501  0.37819012157E+02 -0.22203617610E+02 -0.34691831650E+02  0.56114984618E+02  0.47000000000E+01 0.  1.
          5    1    4    4  502    0  0.99251752378E-01 -0.10829266962E+02  0.24701251333E+02  0.27377448589E+02  0.47000000000E+01 0.  1.
         -5    1    4    4    0  502  0.27461489814E+02  0.12484642153E+03 -0.88409568563E+02  0.15549631573E+03  0.47000000000E+01 0.  1.
<mgrwt>
<rscale>  0 0.38878445E+03</rscale>
<asrwt>0</asrwt>
<pdfrwt beam="1">  1       21 0.12457061E-01 0.38878445E+03</pdfrwt>
<pdfrwt beam="2">  1       21 0.71798517E-01 0.38878445E+03</pdfrwt>
<totfact> 0.90521086E+04</totfact>
</mgrwt>
</event>
<event>
 8    1  0.9400004E-006  0.3385728E+03  0.7546771E-02  0.1067405E+00
         21   -1    0    0  504  503  0.00000000000E+00  0.00000000000E+00  0.68978387732E+02  0.68978387732E+02  0.00000000000E+00 0. -1.
         21   -1    0    0  503  504 -0.00000000000E+00 -0.00000000000E+00 -0.41546169253E+03  0.41546169253E+03  0.00000000000E+00 0. -1.
         25    2    1    2    0    0 -0.88066175622E+01  0.11303599150E+03 -0.19241472075E+03  0.25592826580E+03  0.12498464140E+03 0.  0.
         25    2    1    2    0    0  0.88066175622E+01 -0.11303599150E+03 -0.15406858406E+03  0.22851181447E+03  0.12500331544E+03 0.  0.
          5    1    3    3  501    0  0.89458998708E+01 -0.15395557723E+02 -0.86525415212E+02  0.88463494164E+02  0.47000000000E+01 0.  1.
         -5    1    3    3    0  501 -0.17752517433E+02  0.12843154922E+03 -0.10588930553E+03  0.16746477163E+03  0.47000000000E+01 0.  1.
          5    1    4    4  502    0 -0.28560348830E+02 -0.94484951346E+02 -0.39372615666E+02  0.10637383335E+03  0.47000000000E+01 0. -1.
         -5    1    4    4    0  502  0.37366966393E+02 -0.18551040156E+02 -0.11469596839E+03  0.12213798112E+03  0.47000000000E+01 0. -1.
<mgrwt>
<rscale>  0 0.33857276E+03</rscale>
<asrwt>0</asrwt>
<pdfrwt beam="1">  1       21 0.10612060E-01 0.33857276E+03</pdfrwt>
<pdfrwt beam="2">  1       21 0.63917184E-01 0.33857276E+03</pdfrwt>
<totfact> 0.15848838E+05</totfact>
</mgrwt>
</event>
<event>
 8    1  0.9400004E-006  0.4060942E+03  0.7546771E-02  0.1041690E+00
         21   -1    0    0  504  503  0.00000000000E+00  0.00000000000E+00  0.10578546927E+03  0.10578546927E+03  0.00000000000E+00 0. -1.
         21   -1    0    0  503  504 -0.00000000000E+00 -0.00000000000E+00 -0.38973329657E+03  0.38973329657E+03  0.00000000000E+00 0. -1.
         25    2    1    2    0    0  0.15101445663E+03 -0.42338549972E+02 -0.10330747648E+03  0.22559832491E+03  0.12499700229E+03 0.  0.
         25    2    1    2    0    0 -0.15101445663E+03  0.42338549972E+02 -0.18064035083E+03  0.26992044093E+03  0.12501275599E+03 0.  0.
          5    1    3    3  501    0  0.56317285503E+02 -0.79958032222E+02 -0.41621476293E+02  0.10639248494E+03  0.47000000000E+01 0.  1.
         -5    1    3    3    0  501  0.94697171125E+02  0.37619482250E+02 -0.61686000184E+02  0.11920583997E+03  0.47000000000E+01 0.  1.
          5    1    4    4  502    0 -0.10327498690E+03  0.56014535390E+02 -0.18568692092E+03  0.21978415251E+03  0.47000000000E+01 0. -1.
         -5    1    4    4    0  502 -0.47739469724E+02 -0.13675985418E+02  0.50465700906E+01  0.50136288418E+02  0.47000000000E+01 0. -1.
<mgrwt>
<rscale>  0 0.40609417E+03</rscale>
<asrwt>0</asrwt>
<pdfrwt beam="1">  1       21 0.16274687E-01 0.40609417E+03</pdfrwt>
<pdfrwt beam="2">  1       21 0.59958969E-01 0.40609417E+03</pdfrwt>
<totfact> 0.82202258E+04</totfact>
</mgrwt>
</event>
<event>
 8    1  0.9400004E-006  0.3276368E+03  0.7546771E-02  0.1072187E+00
         21   -1    0    0  504  503  0.00000000000E+00  0.00000000000E+00  0.85795164236E+02  0.85795164236E+02  0.00000000000E+00 0. -1.
         21   -1    0    0  503  504 -0.00000000000E+00 -0.00000000000E+00 -0.31279692438E+03  0.31279692438E+03  0.00000000000E+00 0. -1.
         25    2    1    2    0    0  0.42306187073E+02  0.61215722103E+02 -0.21860848832E+02  0.14710850164E+03  0.12500334573E+03 0.  0.
         25    2    1    2    0    0 -0.42306187073E+02 -0.61215722103E+02 -0.20514091131E+03  0.25148358698E+03  0.12499609166E+03 0.  0.
          5    1    3    3  501    0  0.48173116480E+02  0.32111755526E+02 -0.69625164903E+02  0.90672860229E+02  0.47000000000E+01 0.  1.
         -5    1    3    3    0  501 -0.58669294062E+01  0.29103966577E+02  0.47764316071E+02  0.56435641406E+02  0.47000000000E+01 0.  1.
          5    1    4    4  502    0 -0.33379728291E+02 -0.12106807625E+02  0.43471206640E+01  0.36080029237E+02  0.47000000000E+01 0. -1.
         -5    1    4    4    0  502 -0.89264587824E+01 -0.49108914478E+02 -0.20948803198E+03  0.21540355775E+03  0.47000000000E+01 0. -1.
<mgrwt>
<rscale>  0 0.32763677E+03</rscale>
<asrwt>0</asrwt>
<pdfrwt beam="1">  1       21 0.13199256E-01 0.32763677E+03</pdfrwt>
<pdfrwt beam="2">  1       21 0.48122603E-01 0.32763677E+03</pdfrwt>
<totfact> 0.19698216E+05</totfact>
</mgrwt>
</event>
<event>
 8    1  0.9400004E-006  0.4932402E+03  0.7546771E-02  0.1015559E+00
         21   -1    0    0  504  503  0.00000000000E+00  0.00000000000E+00  0.34445165512E+03  0.34445165512E+03  0.00000000000E+00 0. -1.
         21   -1    0    0  503  504 -0.00000000000E+00 -0.00000000000E+00 -0.17657480190E+03  0.17657480190E+03  0.00000000000E+00 0. -1.
         25    2    1    2    0    0  0.10706012308E+03  0.13181334847E+03 -0.51173760021E+02  0.21697825913E+03  0.12499672969E+03 0.  0.
         25    2    1    2    0    0 -0.10706012308E+03 -0.13181334847E+03  0.21905061324E+03  0.30404819789E+03  0.12500202675E+03 0.  0.
          5    1    3    3  501    0  0.10743389186E+03  0.81971774342E+02  0.12712282852E+02  0.13581275730E+03  0.47000000000E+01 0. -1.
         -5    1    3    3    0  501 -0.37376877707E+00  0.49841574124E+02 -0.63886042873E+02  0.81165501836E+02  0.47000000000E+01 0. -1.
          5    1    4    4  502    0 -0.12375799125E+03 -0.12844917483E+03  0.15102326202E+03  0.23376344150E+03  0.47000000000E+01 0. -1.
         -5    1    4    4    0  502  0.16697868170E+02 -0.33641736358E+01  0.68027351224E+02  0.70284756386E+02  0.47000000000E+01 0. -1.
<mgrwt>
<rscale>  0 0.49324024E+03</rscale>
<asrwt>0</asrwt>
<pdfrwt beam="1">  1       21 0.52992562E-01 0.49324024E+03</pdfrwt>
<pdfrwt beam="2">  1       21 0.27165354E-01 0.49324024E+03</pdfrwt>
<totfact> 0.39578778E+04</totfact>
</mgrwt>
</event>
<event>
 8    1  0.9400004E-006  0.2957235E+03  0.7546771E-02  0.1087398E+00
         21   -1    0    0  504  503  0.00000000000E+00  0.00000000000E+00  0.42509566793E+02  0.42509566793E+02  0.00000000000E+00 0. -1.
         21   -1    0    0  503  504 -0.00000000000E+00 -0.00000000000E+00 -0.51430992940E+03  0.51430992940E+03  0.00000000000E+00 0. -1.
         25    2    1    2    0    0 -0.77195638757E+02  0.32012195021E+01 -0.26679753126E+03  0.30458864637E+03  0.12499562539E+03 0.  0.
         25    2    1    2    0    0  0.77195638757E+02 -0.32012195021E+01 -0.20500283135E+03  0.25223084982E+03  0.12499930516E+03 0.  0.
          5    1    3    3  501    0 -0.36452911752E+02 -0.58133167580E+02 -0.16589852723E+03  0.17959034296E+03  0.47000000000E+01 0. -1.
         -5    1    3    3    0  501 -0.40742727005E+02  0.61334387082E+02 -0.10089900403E+03  0.12499830342E+03  0.47000000000E+01 0. -1.
          5    1    4    4  502    0 -0.22414876671E+02 -0.29941868375E+02 -0.90596797378E+02  0.98126509533E+02  0.47000000000E+01 0.  1.
         -5    1    4    4    0  502  0.99610515428E+02  0.26740648873E+02 -0.11440603398E+03  0.15410434029E+03  0.47000000000E+01 0.  1.
<mgrwt>
<rscale>  0 0.29572347E+03</rscale>
<asrwt>0</asrwt>
<pdfrwt beam="1">  1       21 0.65399336E-02 0.29572347E+03</pdfrwt>
<pdfrwt beam="2">  1       21 0.79124601E-01 0.29572347E+03</pdfrwt>
<totfact> 0.23312776E+05</totfact>
</mgrwt>
</event>
<event>
 8    1  0.9400004E-006  0.3707420E+03  0.7546771E-02  0.1054410E+00
         21   -1    0    0  504  503  0.00000000000E+00  0.00000000000E+00  0.60820461894E+03  0.60820461894E+03  0.00000000000E+00 0. -1.
         21   -1    0    0  503  504 -0.00000000000E+00 -0.00000000000E+00 -0.56498116845E+02  0.56498116845E+02  0.00000000000E+00 0. -1.
         25    2    1    2    0    0 -0.11416578768E+03  0.75278233218E+02  0.28680396067E+03  0.34143826022E+03  0.12499173656E+03 0.  0.
         25    2    1    2    0    0  0.11416578768E+03 -0.75278233218E+02  0.26490254142E+03  0.32326447557E+03  0.12500370091E+03 0.  0.
          5    1    3    3  501    0 -0.12974080075E+03  0.31655132939E+02  0.17390861775E+03  0.21931944772E+03  0.47000000000E+01 0. -1.
         -5    1    3    3    0  501  0.15575013077E+02  0.43623100279E+02  0.11289534293E+03  0.12211881249E+03  0.47000000000E+01 0. -1.
          5    1    4    4  502    0  0.51372900981E+01  0.25844666431E+02  0.88703562101E+02  0.92653928475E+02  0.47000000000E+01 0.  1.
         -5    1    4    4    0  502  0.10902849758E+03 -0.10112289965E+03  0.17619897932E+03  0.23061054709E+03  0.47000000000E+01 0.  1.
<mgrwt>
<rscale>  0 0.37074204E+03</rscale>
<asrwt>0</asrwt>
<pdfrwt beam="1">  1       21 0.93569936E-01 0.37074204E+03</pdfrwt>
<pdfrwt beam="2">  1       21 0.86920184E-02 0.37074204E+03</pdfrwt>
<totfact> 0.94081898E+04</totfact>
</mgrwt>
</event>
<event>
 8    1  0.9400004E-006  0.2795817E+03  0.7546771E-02  0.1095918E+00
         21   -1    0    0  504  503  0.00000000000E+00  0.00000000000E+00  0.25025812351E+02  0.25025812351E+02  0.00000000000E+00 0.  1.
         21   -1    0    0  503  504 -0.00000000000E+00 -0.00000000000E+00 -0.78085315594E+03  0.78085315594E+03  0.00000000000E+00 0.  1.
         25    2    1    2    0    0 -0.21773781135E+02  0.57726837061E+02 -0.40827366096E+03  0.43141701279E+03  0.12500708553E+03 0.  0.
         25    2    1    2    0    0  0.21773781135E+02 -0.57726837061E+02 -0.34755368263E+03  0.37446195550E+03  0.12498683348E+03 0.  0.
          5    1    3    3  501    0  0.41216411119E+02 -0.38617836213E+01 -0.66769885723E+02  0.78702055614E+02  0.47000000000E+01 0. -1.
         -5    1    3    3    0  501 -0.62990192255E+02  0.61588620682E+02 -0.34150377523E+03  0.35271495718E+03  0.47000000000E+01 0. -1.
          5    1    4    4  502    0  0.22995216881E+02 -0.36876925200E+02 -0.23361045159E+02  0.49563252946E+02  0.47000000000E+01 0.  1.
         -5    1    4    4    0  502 -0.12214357454E+01 -0.20849911860E+02 -0.32419263747E+03  0.32489870255E+03  0.47000000000E+01 0.  1.
<mgrwt>
<rscale>  0 0.27958172E+03</rscale>
<asrwt>0</asrwt>
<pdfrwt beam="1">  1       21 0.38501244E-02 0.27958172E+03</pdfrwt>
<pdfrwt beam="2">  1       21 0.12013127E+00 0.27958172E+03</pdfrwt>
<totfact> 0.21393855E+05</totfact>
</mgrwt>
</event>
<event>
 8    1  0.9400004E-006  0.2756179E+03  0.7546771E-02  0.1098107E+00
         21   -1    0    0  504  503  0.00000000000E+00  0.00000000000E+00  0.17805479961E+02  0.17805479961E+02  0.00000000000E+00 0.  1.
         21   -1    0    0  503  504 -0.00000000000E+00 -0.00000000000E+00 -0.10665990317E+04  0.10665990317E+04  0.00000000000E+00 0.  1.
         25    2    1    2    0    0 -0.57155368013E+02 -0.83403685041E+01 -0.50270686906E+03  0.52122446126E+03  0.12499777987E+03 0.  0.
         25    2    1    2    0    0  0.57155368013E+02  0.83403685041E+01 -0.54608668272E+03  0.56318005045E+03  0.12499922534E+03 0.  0.
          5    1    3    3  501    0 -0.29807731393E+02  0.88139503083E+01 -0.19662031534E+02  0.37079267184E+02  0.47000000000E+01 0.  1.
         -5    1    3    3    0  501 -0.27347636620E+02 -0.17154318812E+02 -0.48304483753E+03  0.48414519407E+03  0.47000000000E+01 0.  1.
          5    1    4    4  502    0  0.21138401793E+02 -0.22187581878E+02 -0.24701988178E+02  0.39640875872E+02  0.47000000000E+01 0. -1.
         -5    1    4    4    0  502  0.36016966220E+02  0.30527950382E+02 -0.52138469454E+03  0.52353917457E+03  0.47000000000E+01 0. -1.
<mgrwt>
<rscale>  0 0.27561791E+03</rscale>
<asrwt>0</asrwt>
<pdfrwt beam="1">  1       21 0.27393040E-02 0.27561791E+03</pdfrwt>
<pdfrwt beam="2">  1       21 0.16409220E+00 0.27561791E+03</pdfrwt>
<totfact> 0.16717971E+05</totfact>
</mgrwt>
</event>
<event>
 8    1  0.9400004E-006  0.5109789E+03  0.7546771E-02  0.1010952E+00
         21   -1    0    0  504  503  0.00000000000E+00  0.00000000000E+00  0.22094768692E+03  0.22094768692E+03  0.00000000000E+00 0. -1.
         21   -1    0    0  503  504 -0.00000000000E+00 -0.00000000000E+00 -0.29543129591E+03  0.29543129591E+03  0.00000000000E+00 0. -1.
         25    2    1    2    0    0  0.18943330436E+03  0.87698938104E+02 -0.11598938670E+03  0.26955304586E+03  0.12501690349E+03 0.  0.
         25    2    1    2    0    0 -0.18943330436E+03 -0.87698938104E+02  0.41505777705E+02  0.24682593698E+03  0.12499693212E+03 0.  0.
          5    1    3    3  501    0  0.73408599041E+02  0.73538261045E+02 -0.11150563859E+03  0.15248703449E+03  0.47000000000E+01 0.  1.
         -5    1    3    3    0  501  0.11602470532E+03  0.14160677059E+02 -0.44837481020E+01  0.11706601136E+03  0.47000000000E+01 0.  1.
          5    1    4    4  502    0 -0.28251390844E+02  0.18846395227E+01 -0.36596487707E+02  0.46508986908E+02  0.47000000000E+01 0. -1.
         -5    1    4    4    0  502 -0.16118191352E+03 -0.89583577627E+02  0.78102265412E+02  0.20031695008E+03  0.47000000000E+01 0. -1.
<mgrwt>
<rscale>  0 0.51097891E+03</rscale>
<asrwt>0</asrwt>
<pdfrwt beam="1">  1       21 0.33991952E-01 0.51097891E+03</pdfrwt>
<pdfrwt beam="2">  1       21 0.45450968E-01 0.51097891E+03</pdfrwt>
<totfact> 0.34951130E+04</totfact>
</mgrwt>
</event>
<event>
 8    1  0.9400004E-006  0.5466357E+03  0.7546771E-02  0.1002276E+00
         21   -1    0    0  504  503  0.00000000000E+00  0.00000000000E+00  0.64871522576E+03  0.64871522576E+03  0.00000000000E+00 0.  1.
         21   -1    0    0  503  504 -0.00000000000E+00 -0.00000000000E+00 -0.11515475126E+03  0.11515475126E+03  0.00000000000E+00 0.  1.
         25    2    1    2    0    0 -0.70396843170E+02 -0.11890534156E+03 -0.12643896639E+02  0.18675780158E+03  0.12499765017E+03 0.  0.
         25    2    1    2    0    0  0.70396843170E+02  0.11890534156E+03  0.54620437115E+03  0.57711217544E+03  0.12500020883E+03 0.  0.
          5    1    3    3  501    0 -0.89277221562E+02 -0.29055452829E+02 -0.12453631961E+02  0.94825231758E+02  0.47000000000E+01 0.  1.
         -5    1    3    3    0  501  0.18880378392E+02 -0.89849888727E+02 -0.19026467808E+00  0.91932569817E+02  0.47000000000E+01 0.  1.
          5    1    4    4  502    0  0.29075901014E+02  0.71393336297E+02  0.47787568257E+03  0.48407610401E+03  0.47000000000E+01 0. -1.
         -5    1    4    4    0  502  0.41320942156E+02  0.47512005259E+02  0.68328688581E+02  0.93036071432E+02  0.47000000000E+01 0. -1.
<mgrwt>
<rscale>  0 0.54663568E+03</rscale>
<asrwt>0</asrwt>
<pdfrwt beam="1">  1       21 0.99802340E-01 0.54663568E+03</pdfrwt>
<pdfrwt beam="2">  1       21 0.17716116E-01 0.54663568E+03</pdfrwt>
<totfact> 0.21036499E+04</totfact>
</mgrwt>
</event>
<event>
 8    1  0.9400004E-006  0.2588048E+03  0.7546771E-02  0.1107863E+00
         21   -1    0    0  504  503  0.00000000000E+00  0.00000000000E+00  0.25886477395E+03  0.25886477395E+03  0.00000000000E+00 0. -1.
         21   -1    0    0  503  504 -0.00000000000E+00 -0.00000000000E+00 -0.64686218464E+02  0.64686218464E+02  0.00000000000E+00 0. -1.
         25    2    1    2    0    0 -0.13569067473E+01 -0.31625619502E+02  0.11067737402E+03  0.16993085080E+03  0.12499996772E+03 0.  0.
         25    2    1    2    0    0  0.13569067473E+01  0.31625619502E+02  0.83501181472E+02  0.15362014161E+03  0.12499871838E+03 0.  0.
          5    1    3    3  501    0 -0.44060797878E+02  0.29422506105E+02  0.57159743019E+02  0.78079216167E+02  0.47000000000E+01 0.  1.
         -5    1    3    3    0  501  0.42703891131E+02 -0.61048125607E+02  0.53517630998E+02  0.91851634637E+02  0.47000000000E+01 0.  1.
          5    1    4    4  502    0 -0.36242883069E+02  0.30928009526E+02 -0.13278901818E+02  0.49684077730E+02  0.47000000000E+01 0. -1.
         -5    1    4    4    0  502  0.37599789817E+02  0.69760997630E+00  0.96780083290E+02  0.10393606388E+03  0.47000000000E+01 0. -1.
<mgrwt>
<rscale>  0 0.25880482E+03</rscale>
<asrwt>0</asrwt>
<pdfrwt beam="1">  1       21 0.39825350E-01 0.25880482E+03</pdfrwt>
<pdfrwt beam="2">  1       21 0.99517260E-02 0.25880482E+03</pdfrwt>
<totfact> 0.49084931E+05</totfact>
</mgrwt>
</event>
<event>
 8    1  0.9400004E-006  0.2582532E+03  0.7546771E-02  0.1108197E+00
         21   -1    0    0  504  503  0.00000000000E+00  0.00000000000E+00  0.22123522521E+02  0.22123522521E+02  0.00000000000E+00 0. -1.
         21   -1    0    0  503  504 -0.00000000000E+00 -0.00000000000E+00 -0.75366309935E+03  0.75366309935E+03  0.00000000000E+00 0. -1.
         25    2    1    2    0    0  0.26202013362E+02 -0.11980795122E+02 -0.41018788921E+03  0.42977829473E+03  0.12500077283E+03 0.  0.
         25    2    1    2    0    0 -0.26202013362E+02  0.11980795122E+02 -0.32135168762E+03  0.34600832714E+03  0.12499908144E+03 0.  0.
          5    1    3    3  501    0  0.29000082960E+02 -0.13020906887E+02 -0.41852284170E+03  0.41975469962E+03  0.47000000000E+01 0. -1.
         -5    1    3    3    0  501 -0.27980695975E+01  0.10401117650E+01  0.83349524886E+01  0.10023595111E+02  0.47000000000E+01 0. -1.
          5    1    4    4  502    0 -0.22019934619E+02  0.31182347062E+02 -0.18850026039E+02  0.42832578379E+02  0.47000000000E+01 0. -1.
         -5    1    4    4    0  502 -0.41820787433E+01 -0.19201551940E+02 -0.30250166158E+03  0.30317574876E+03  0.47000000000E+01 0. -1.
<mgrwt>
<rscale>  0 0.25825323E+03</rscale>
<asrwt>0</asrwt>
<pdfrwt beam="1">  1       21 0.34036193E-02 0.25825323E+03</pdfrwt>
<pdfrwt beam="2">  1       21 0.11594815E+00 0.25825323E+03</pdfrwt>
<totfact> 0.28909714E+05</totfact>
</mgrwt>
</event>
<event>
 8    1  0.9400004E-006  0.2536871E+03  0.7546771E-02  0.1110997E+00
         21   -1    0    0  504  503  0.00000000000E+00  0.00000000000E+00  0.26548328979E+02  0.26548328979E+02  0.00000000000E+00 0. -1.
         21   -1    0    0  503  504 -0.00000000000E+00 -0.00000000000E+00 -0.60603752514E+03  0.60603752514E+03  0.00000000000E+00 0. -1.
         25    2    1    2    0    0 -0.18504317140E+00 -0.15331263797E+02 -0.25194847361E+03  0.28166941237E+03  0.12499817046E+03 0.  0.
         25    2    1    2    0    0  0.18504317140E+00  0.15331263797E+02 -0.32754072255E+03  0.35091644175E+03  0.12499736906E+03 0.  0.
          5    1    3    3  501    0 -0.19424566236E+02 -0.55950865914E+02 -0.59869822642E+02  0.84346303020E+02  0.47000000000E+01 0. -1.
         -5    1    3    3    0  501  0.19239523065E+02  0.40619602117E+02 -0.19207865097E+03  0.19732310935E+03  0.47000000000E+01 0. -1.
          5    1    4    4  502    0  0.40597088555E+02  0.51096943333E+02 -0.23240079649E+03  0.24143579152E+03  0.47000000000E+01 0. -1.
         -5    1    4    4    0  502 -0.40412045384E+02 -0.35765679536E+02 -0.95139926057E+02  0.10948065023E+03  0.47000000000E+01 0. -1.
<mgrwt>
<rscale>  0 0.25368708E+03</rscale>
<asrwt>0</asrwt>
<pdfrwt beam="1">  1       21 0.40843586E-02 0.25368708E+03</pdfrwt>
<pdfrwt beam="2">  1       21 0.93236536E-01 0.25368708E+03</pdfrwt>
<totfact> 0.36037738E+05</totfact>
</mgrwt>
</event>
<event>
 8    1  0.9400004E-006  0.2599739E+03  0.7546771E-02  0.1107159E+00
         21   -1    0    0  504  503  0.00000000000E+00  0.00000000000E+00  0.19617558009E+03  0.19617558009E+03  0.00000000000E+00 0.  1.
         21   -1    0    0  503  504 -0.00000000000E+00 -0.00000000000E+00 -0.86130039532E+02  0.86130039532E+02  0.00000000000E+00 0.  1.
         25    2    1    2    0    0 -0.68223899285E+01  0.28025173213E+02  0.77784238042E+02  0.15002628315E+03  0.12500217042E+03 0.  0.
         25    2    1    2    0    0  0.68223899285E+01 -0.28025173213E+02  0.32261302517E+02  0.13227933647E+03  0.12500030352E+03 0.  0.
          5    1    3    3  501    0 -0.39957302563E+02  0.15175590969E+01 -0.18794539253E+02  0.44432124858E+02  0.47000000000E+01 0.  1.
         -5    1    3    3    0  501  0.33134912634E+02  0.26507614116E+02  0.96578777295E+02  0.10559415829E+03  0.47000000000E+01 0.  1.
          5    1    4    4  502    0  0.17406884791E+02 -0.50616894775E+02 -0.32446964048E+02  0.62769141708E+02  0.47000000000E+01 0.  1.
         -5    1    4    4    0  502 -0.10584494862E+02  0.22591721562E+02  0.64708266564E+02  0.69510194766E+02  0.47000000000E+01 0.  1.
<mgrwt>
<rscale>  0 0.25997393E+03</rscale>
<asrwt>0</asrwt>
<pdfrwt beam="1">  1       21 0.30180858E-01 0.25997393E+03</pdfrwt>
<pdfrwt beam="2">  1       21 0.13250775E-01 0.25997393E+03</pdfrwt>
<totfact> 0.51061065E+05</totfact>
</mgrwt>
</event>
<event>
 8    1  0.9400004E-006  0.2959615E+03  0.7546771E-02  0.1087277E+00
         21   -1    0    0  504  503  0.00000000000E+00  0.00000000000E+00  0.82809968290E+02  0.82809968290E+02  0.00000000000E+00 0. -1.
         21   -1    0    0  503  504 -0.00000000000E+00 -0.00000000000E+00 -0.26444036568E+03  0.26444036568E+03  0.00000000000E+00 0. -1.
         25    2    1    2    0    0  0.60324029936E+02  0.50206051171E+02 -0.10332464604E+03  0.18016647232E+03  0.12499735641E+03 0.  0.
         25    2    1    2    0    0 -0.60324029936E+02 -0.50206051171E+02 -0.78305751356E+02  0.16708386165E+03  0.12500235984E+03 0.  0.
          5    1    3    3  501    0  0.89615780785E+02  0.10610355078E+02 -0.92908035366E+02  0.12960540435E+03  0.47000000000E+01 0. -1.
         -5    1    3    3    0  501 -0.29291750850E+02  0.39595696093E+02 -0.10416610670E+02  0.50561067975E+02  0.47000000000E+01 0. -1.
          5    1    4    4  502    0  0.15830606493E+02 -0.25535084819E+02 -0.81338898259E+02  0.86837520858E+02  0.47000000000E+01 0. -1.
         -5    1    4    4    0  502 -0.76154636429E+02 -0.24670966353E+02  0.30331469034E+01  0.80246340792E+02  0.47000000000E+01 0. -1.
<mgrwt>
<rscale>  0 0.29596147E+03</rscale>
<asrwt>0</asrwt>
<pdfrwt beam="1">  1       21 0.12739995E-01 0.29596147E+03</pdfrwt>
<pdfrwt beam="2">  1       21 0.40683133E-01 0.29596147E+03</pdfrwt>
<totfact> 0.29949353E+05</totfact>
</mgrwt>
</event>
<event>
 8    1  0.9400004E-006  0.2887209E+03  0.7546771E-02  0.1091019E+00
         21   -1    0    0  504  503  0.00000000000E+00  0.00000000000E+00  0.58379797709E+03  0.58379797709E+03  0.00000000000E+00 0.  1.
         21   -1    0    0  503  504 -0.00000000000E+00 -0.00000000000E+00 -0.35697165039E+02  0.35697165039E+02  0.00000000000E+00 0.  1.
         25    2    1    2    0    0  0.30127642630E+02 -0.38248261287E+01  0.13348341141E+03  0.18538140008E+03  0.12500455283E+03 0.  0.
         25    2    1    2    0    0 -0.30127642630E+02  0.38248261287E+01  0.41461740064E+03  0.43411374204E+03  0.12499939190E+03 0.  0.
          5    1    3    3  501    0  0.36693841903E+02  0.30686856035E+02  0.14115761335E+03  0.14911634040E+03  0.47000000000E+01 0. -1.
         -5    1    3    3    0  501 -0.65661992735E+01 -0.34511682164E+02 -0.76742019360E+01  0.36265059686E+02  0.47000000000E+01 0. -1.
          5    1    4    4  502    0 -0.66216225846E+02  0.22060016464E+02  0.35562858763E+03  0.36244311999E+03  0.47000000000E+01 0.  1.
         -5    1    4    4    0  502  0.36088583216E+02 -0.18235190335E+02  0.58988813011E+02  0.71670622054E+02  0.47000000000E+01 0.  1.
<mgrwt>
<rscale>  0 0.28872085E+03</rscale>
<asrwt>0</asrwt>
<pdfrwt beam="1">  1       21 0.89815066E-01 0.28872085E+03</pdfrwt>
<pdfrwt beam="2">  1       21 0.54918720E-02 0.28872085E+03</pdfrwt>
<totfact> 0.23560210E+05</totfact>
</mgrwt>
</event>
<event>
 8    1  0.9400004E-006  0.2702821E+03  0.7546771E-02  0.1101118E+00
         21   -1    0    0  504  503  0.00000000000E+00  0.00000000000E+00  0.10162501986E+03  0.10162501986E+03  0.00000000000E+00 0. -1.
         21   -1    0    0  503  504 -0.00000000000E+00 -0.00000000000E+00 -0.17971066406E+03  0.17971066406E+03  0.00000000000E+00 0. -1.
         25    2    1    2    0    0  0.40854521691E+02  0.27041891223E+02 -0.54996845924E+02  0.14508633929E+03  0.12500014786E+03 0.  0.
         25    2    1    2    0    0 -0.40854521691E+02 -0.27041891223E+02 -0.23088798278E+02  0.13624934463E+03  0.12502174004E+03 0.  0.
          5    1    3    3  501    0  0.40964415556E+02  0.98157537059E+01  0.33986762503E+02  0.54328835696E+02  0.47000000000E+01 0. -1.
         -5    1    3    3    0  501 -0.10989386486E+00  0.17226137517E+02 -0.88983608428E+02  0.90757503597E+02  0.47000000000E+01 0. -1.
          5    1    4    4  502    0 -0.25505686078E+02 -0.71297370470E+02 -0.40566988275E+02  0.86032700736E+02  0.47000000000E+01 0. -1.
         -5    1    4    4    0  502 -0.15348835612E+02  0.44255479247E+02  0.17478189997E+02  0.50216643891E+02  0.47000000000E+01 0. -1.
<mgrwt>
<rscale>  0 0.27028207E+03</rscale>
<asrwt>0</asrwt>
<pdfrwt beam="1">  1       21 0.15634619E-01 0.27028207E+03</pdfrwt>
<pdfrwt beam="2">  1       21 0.27647794E-01 0.27028207E+03</pdfrwt>
<totfact> 0.44709268E+05</totfact>
</mgrwt>
</event>
<event>
 8    1  0.9400004E-006  0.2849825E+03  0.7546771E-02  0.1092998E+00
         21   -1    0    0  504  503  0.00000000000E+00  0.00000000000E+00  0.87918132207E+02  0.87918132207E+02  0.00000000000E+00 0. -1.
         21   -1    0    0  503  504 -0.00000000000E+00 -0.00000000000E+00 -0.23093934697E+03  0.23093934697E+03  0.00000000000E+00 0. -1.
         25    2    1    2    0    0  0.29246968201E+02 -0.35838558628E+01 -0.14057966089E+03  0.19040293329E+03  0.12498962668E+03 0.  0.
         25    2    1    2    0    0 -0.29246968201E+02  0.35838558628E+01 -0.24415538722E+01  0.12845454588E+03  0.12500551988E+03 0.  0.
          5    1    3    3  501    0 -0.24397972009E+02 -0.21425370257E+02 -0.12820958324E+03  0.13234082803E+03  0.47000000000E+01 0. -1.
         -5    1    3    3    0  501  0.53644940210E+02  0.17841514394E+02 -0.12370077644E+02  0.58062105258E+02  0.47000000000E+01 0. -1.
          5    1    4    4  502    0 -0.53162109578E+02 -0.44839563796E+02 -0.18118762020E+02  0.72022051577E+02  0.47000000000E+01 0.  1.
         -5    1    4    4    0  502  0.23915141377E+02  0.48423419659E+02  0.15677208148E+02  0.56432494308E+02  0.47000000000E+01 0.  1.
<mgrwt>
<rscale>  0 0.28498250E+03</rscale>
<asrwt>0</asrwt>
<pdfrwt beam="1">  1       21 0.13525867E-01 0.28498250E+03</pdfrwt>
<pdfrwt beam="2">  1       21 0.35529130E-01 0.28498250E+03</pdfrwt>
<totfact> 0.35417811E+05</totfact>
</mgrwt>
</event>
<event>
 8    1  0.9400004E-006  0.3055208E+03  0.7546771E-02  0.1082513E+00
         21   -1    0    0  504  503  0.00000000000E+00  0.00000000000E+00  0.18276146717E+03  0.18276146717E+03  0.00000000000E+00 0. -1.
         21   -1    0    0  503  504 -0.00000000000E+00 -0.00000000000E+00 -0.12768417355E+03  0.12768417355E+03  0.00000000000E+00 0. -1.
         25    2    1    2    0    0 -0.67737973753E+01 -0.67483407288E+02  0.84216747493E+02  0.16528221540E+03  0.12500342227E+03 0.  0.
         25    2    1    2    0    0  0.67737973753E+01  0.67483407288E+02 -0.29139453875E+02  0.14516342531E+03  0.12499367059E+03 0.  0.
          5    1    3    3  501    0  0.39086285804E+02 -0.71231422395E+02  0.86762288495E+02  0.11895981666E+03  0.47000000000E+01 0.  1.
         -5    1    3    3    0  501 -0.45860083179E+02  0.37480151071E+01 -0.25455410017E+01  0.46322398744E+02  0.47000000000E+01 0.  1.
          5    1    4    4  502    0  0.61605877461E+02  0.32359818604E+02 -0.37757738763E+02  0.79310647673E+02  0.47000000000E+01 0. -1.
         -5    1    4    4    0  502 -0.54832080086E+02  0.35123588684E+02  0.86182848878E+01  0.65852777641E+02  0.47000000000E+01 0. -1.
<mgrwt>
<rscale>  0 0.30552085E+03</rscale>
<asrwt>0</asrwt>
<pdfrwt beam="1">  1       21 0.28117149E-01 0.30552085E+03</pdfrwt>
<pdfrwt beam="2">  1       21 0.19643719E-01 0.30552085E+03</pdfrwt>
<totfact> 0.28097729E+05</totfact>
</mgrwt>
</event>
<event>
 8    1  0.9400004E-006  0.3751767E+03  0.7546771E-02  0.1052731E+00
         21   -1    0    0  504  503  0.00000000000E+00  0.00000000000E+00  0.76626425233E+02  0.76626425233E+02  0.00000000000E+00 0.  1.
         21   -1    0    0  503  504 -0.00000000000E+00 -0.00000000000E+00 -0.45923299249E+03  0.45923299249E+03  0.00000000000E+00 0.  1.
         25    2    1    2    0    0  0.13275234281E+03 -0.34028452910E+02 -0.23129350910E+03  0.29648397974E+03  0.12499977105E+03 0.  0.
         25    2    1    2    0    0 -0.13275234281E+03  0.34028452910E+02 -0.15131305816E+03  0.23937543798E+03  0.12499535435E+03 0.  0.
          5    1    3    3  501    0  0.50328836034E+02 -0.64100468955E+02 -0.17227852547E+03  0.19064061003E+03  0.47000000000E+01 0.  1.
         -5    1    3    3    0  501  0.82423506775E+02  0.30072016046E+02 -0.59014983629E+02  0.10584336971E+03  0.47000000000E+01 0.  1.
          5    1    4    4  502    0 -0.53566615461E+01 -0.19615157558E+02 -0.82107833362E+02  0.84718560708E+02  0.47000000000E+01 0.  1.
         -5    1    4    4    0  502 -0.12739568126E+03  0.53643610468E+02 -0.69205224797E+02  0.15465687727E+03  0.47000000000E+01 0.  1.
<mgrwt>
<rscale>  0 0.37517667E+03</rscale>
<asrwt>0</asrwt>
<pdfrwt beam="1">  1       21 0.11788681E-01 0.37517667E+03</pdfrwt>
<pdfrwt beam="2">  1       21 0.70651229E-01 0.37517667E+03</pdfrwt>
<totfact> 0.10407510E+05</totfact>
</mgrwt>
</event>
<event>
 8    1  0.9400004E-006  0.3442508E+03  0.7546771E-02  0.1065000E+00
         21   -1    0    0  504  503  0.00000000000E+00  0.00000000000E+00  0.39015941027E+03  0.39015941027E+03  0.00000000000E+00 0. -1.
         21   -1    0    0  503  504 -0.00000000000E+00 -0.00000000000E+00 -0.75936012918E+02  0.75936012918E+02  0.00000000000E+00 0. -1.
         25    2    1    2    0    0  0.26219551062E+02  0.10764350416E+03  0.10085505501E+03  0.19512564199E+03  0.12501074032E+03 0.  0.
         25    2    1    2    0    0 -0.26219551062E+02 -0.10764350416E+03  0.21336834234E+03  0.27096978120E+03  0.12499593580E+03 0.  0.
          5    1    3    3  501    0  0.60185783659E+02  0.18750035849E+02  0.11005552408E+02  0.64164667714E+02  0.47000000000E+01 0.  1.
         -5    1    3    3    0  501 -0.33966232597E+02  0.88893468308E+02  0.89849502604E+02  0.13096097427E+03  0.47000000000E+01 0.  1.
          5    1    4    4  502    0  0.17851525712E+02 -0.99587029871E+02  0.19966405139E+03  0.22388407024E+03  0.47000000000E+01 0. -1.
         -5    1    4    4    0  502 -0.44071076775E+02 -0.80564742862E+01  0.13704290944E+02  0.47085710957E+02  0.47000000000E+01 0. -1.
<mgrwt>
<rscale>  0 0.34425078E+03</rscale>
<asrwt>0</asrwt>
<pdfrwt beam="1">  1       21 0.60024524E-01 0.34425078E+03</pdfrwt>
<pdfrwt beam="2">  1       21 0.11682464E-01 0.34425078E+03</pdfrwt>
<totfact> 0.15275513E+05</totfact>
</mgrwt>
</event>
<event>
 8    1  0.9400004E-006  0.2594005E+03  0.7546771E-02  0.1107504E+00
         21   -1    0    0  504  503  0.00000000000E+00  0.00000000000E+00  0.30231245253E+02  0.30231245253E+02  0.00000000000E+00 0.  1.
         21   -1    0    0  503  504 -0.00000000000E+00 -0.00000000000E+00 -0.55644911597E+03  0.55644911597E+03  0.00000000000E+00 0.  1.
         25    2    1    2    0    0 -0.14020709339E+02 -0.27631445303E+02 -0.22828721052E+03  0.26210582391E+03  0.12499734150E+03 0.  0.
         25    2    1    2    0    0  0.14020709339E+02  0.27631445303E+02 -0.29793066020E+03  0.32457453731E+03  0.12500349965E+03 0.  0.
          5    1    3    3  501    0 -0.36961379434E+02 -0.34731700342E+02 -0.23910295630E+02  0.56269235071E+02  0.47000000000E+01 0.  1.
         -5    1    3    3    0  501  0.22940670095E+02  0.71002550393E+01 -0.20437691489E+03  0.20583658884E+03  0.47000000000E+01 0.  1.
          5    1    4    4  502    0  0.36288011732E+01 -0.40713863953E+01 -0.28983388002E+03  0.28992328709E+03  0.47000000000E+01 0.  1.
         -5    1    4    4    0  502  0.10391908166E+02  0.31702831698E+02 -0.80967801737E+01  0.34651250225E+02  0.47000000000E+01 0.  1.
<mgrwt>
<rscale>  0 0.25940046E+03</rscale>
<asrwt>0</asrwt>
<pdfrwt beam="1">  1       21 0.46509614E-02 0.25940046E+03</pdfrwt>
<pdfrwt beam="2">  1       21 0.85607546E-01 0.25940046E+03</pdfrwt>
<totfact> 0.35234972E+05</totfact>
</mgrwt>
</event>
<event>
 8    1  0.9400004E-006  0.2748159E+03  0.7546771E-02  0.1098555E+00
         21   -1    0    0  504  503  0.00000000000E+00  0.00000000000E+00  0.11634556117E+03  0.11634556117E+03  0.00000000000E+00 0. -1.
         21   -1    0    0  503  504 -0.00000000000E+00 -0.00000000000E+00 -0.16228331733E+03  0.16228331733E+03  0.00000000000E+00 0. -1.
         25    2    1    2    0    0 -0.21948307895E+01 -0.42247966011E+02 -0.61685729465E+02  0.14572262904E+03  0.12506097505E+03 0.  0.
         25    2    1    2    0    0  0.21948307895E+01  0.42247966011E+02  0.15747973301E+02  0.13290624947E+03  0.12500545816E+03 0.  0.
          5    1    3    3  501    0 -0.16160311274E+02 -0.83499988440E+02 -0.25526895671E+02  0.88921966535E+02  0.47000000000E+01 0.  1.
         -5    1    3    3    0  501  0.13965480484E+02  0.41252022429E+02 -0.36158833794E+02  0.56800662505E+02  0.47000000000E+01 0.  1.
          5    1    4    4  502    0 -0.92235531828E+00 -0.43355917315E+02 -0.69378906955E+01  0.44167981988E+02  0.47000000000E+01 0.  1.
         -5    1    4    4    0  502  0.31171861077E+01  0.85603883326E+02  0.22685863997E+02  0.88738267478E+02  0.47000000000E+01 0.  1.
<mgrwt>
<rscale>  0 0.27481589E+03</rscale>
<asrwt>0</asrwt>
<pdfrwt beam="1">  1       21 0.17899317E-01 0.27481589E+03</pdfrwt>
<pdfrwt beam="2">  1       21 0.24966664E-01 0.27481589E+03</pdfrwt>
<totfact> 0.42361031E+05</totfact>
</mgrwt>
</event>
<event>
 8    1  0.9400004E-006  0.3093178E+03  0.7546771E-02  0.1080673E+00
         21   -1    0    0  504  503  0.00000000000E+00  0.00000000000E+00  0.44105009488E+03  0.44105009488E+03  0.00000000000E+00 0.  1.
         21   -1    0    0  503  504 -0.00000000000E+00 -0.00000000000E+00 -0.54232775633E+02  0.54232775633E+02  0.00000000000E+00 0.  1.
         25    2    1    2    0    0  0.73136124365E+02 -0.50342496998E+02  0.16097146329E+03  0.22231043088E+03  0.12500742375E+03 0.  0.
         25    2    1    2    0    0 -0.73136124365E+02  0.50342496998E+02  0.22584585596E+03  0.27297243964E+03  0.12499736980E+03 0.  0.
          5    1    3    3  501    0 -0.87863493279E+01 -0.61071039137E+02  0.33590846963E+02  0.70408144099E+02  0.47000000000E+01 0. -1.
         -5    1    3    3    0  501  0.81922473693E+02  0.10728542139E+02  0.12738061633E+03  0.15190228678E+03  0.47000000000E+01 0. -1.
          5    1    4    4  502    0  0.26225535347E+02 -0.10402439976E+02  0.87594582519E+02  0.92146027307E+02  0.47000000000E+01 0. -1.
         -5    1    4    4    0  502 -0.99361659713E+02  0.60744936975E+02  0.13825127344E+03  0.18082641233E+03  0.47000000000E+01 0. -1.
<mgrwt>
<rscale>  0 0.30931777E+03</rscale>
<asrwt>0</asrwt>
<pdfrwt beam="1">  1       21 0.67853858E-01 0.30931777E+03</pdfrwt>
<pdfrwt beam="2">  1       21 0.83435042E-02 0.30931777E+03</pdfrwt>
<totfact> 0.21444472E+05</totfact>
</mgrwt>
</event>
<event>
 8    1  0.9400004E-006  0.2803907E+03  0.7546771E-02  0.1095476E+00
         21   -1    0    0  504  503  0.00000000000E+00  0.00000000000E+00  0.25380969839E+02  0.25380969839E+02  0.00000000000E+00 0.  1.
         21   -1    0    0  503  504 -0.00000000000E+00 -0.00000000000E+00 -0.77438887143E+03  0.77438887143E+03  0.00000000000E+00 0.  1.
         25    2    1    2    0    0 -0.51161034250E+02 -0.96181414124E+01 -0.27089616153E+03  0.30285244274E+03  0.12499964668E+03 0.  0.
         25    2    1    2    0    0  0.51161034250E+02  0.96181414124E+01 -0.47811174006E+03  0.49691739853E+03  0.12500441956E+03 0.  0.
          5    1    3    3  501    0 -0.85511259058E+02 -0.31787971694E+02 -0.21355506809E+03  0.23227248584E+03  0.47000000000E+01 0.  1.
         -5    1    3    3    0  501  0.34350224808E+02  0.22169830281E+02 -0.57341093442E+02  0.70579956902E+02  0.47000000000E+01 0.  1.
          5    1    4    4  502    0 -0.27714202157E+02  0.40915215590E+02 -0.15127312127E+03  0.15920985864E+03  0.47000000000E+01 0.  1.
         -5    1    4    4    0  502  0.78875236406E+02 -0.31297074178E+02 -0.32683861878E+03  0.33770753989E+03  0.47000000000E+01 0.  1.
<mgrwt>
<rscale>  0 0.28039073E+03</rscale>
<asrwt>0</asrwt>
<pdfrwt beam="1">  1       21 0.39047643E-02 0.28039073E+03</pdfrwt>
<pdfrwt beam="2">  1       21 0.11913676E+00 0.28039073E+03</pdfrwt>
<totfact> 0.21326709E+05</totfact>
</mgrwt>
</event>
<event>
 8    1  0.9400004E-006  0.2928564E+03  0.7546771E-02  0.1088867E+00
         21   -1    0    0  504  503  0.00000000000E+00  0.00000000000E+00  0.46664763647E+03  0.46664763647E+03  0.00000000000E+00 0. -1.
         21   -1    0    0  503  504 -0.00000000000E+00 -0.00000000000E+00 -0.45947325408E+02  0.45947325408E+02  0.00000000000E+00 0. -1.
         25    2    1    2    0    0  0.18427407543E+02  0.71090085710E+02  0.24629748003E+03  0.28579826052E+03  0.12499930966E+03 0.  0.
         25    2    1    2    0    0 -0.18427407543E+02 -0.71090085710E+02  0.17440283104E+03  0.22679670136E+03  0.12500810629E+03 0.  0.
          5    1    3    3  501    0  0.26245521570E+02 -0.18186443574E+02  0.11213060939E+02  0.34167189934E+02  0.47000000000E+01 0.  1.
         -5    1    3    3    0  501 -0.78181140269E+01  0.89276529284E+02  0.23508441909E+03  0.25163107059E+03  0.47000000000E+01 0.  1.
          5    1    4    4  502    0 -0.44427371868E+02 -0.18230103190E+02  0.15838088451E+03  0.16556787916E+03  0.47000000000E+01 0.  1.
         -5    1    4    4    0  502  0.25999964325E+02 -0.52859982520E+02  0.16021946533E+02  0.61228822197E+02  0.47000000000E+01 0.  1.
<mgrwt>
<rscale>  0 0.29285635E+03</rscale>
<asrwt>0</asrwt>
<pdfrwt beam="1">  1       21 0.71791941E-01 0.29285635E+03</pdfrwt>
<pdfrwt beam="2">  1       21 0.70688196E-02 0.29285635E+03</pdfrwt>
<totfact> 0.25382979E+05</totfact>
</mgrwt>
</event>
<event>
 8    1  0.9400004E-006  0.2843617E+03  0.7546771E-02  0.1093330E+00
         21   -1    0    0  504  503  0.00000000000E+00  0.00000000000E+00  0.63953227972E+02  0.63953227972E+02  0.00000000000E+00 0. -1.
         21   -1    0    0  503  504 -0.00000000000E+00 -0.00000000000E+00 -0.31609656757E+03  0.31609656757E+03  0.00000000000E+00 0. -1.
         25    2    1    2    0    0 -0.49533539910E+02 -0.45405764958E+02 -0.13763024906E+03  0.19769246305E+03  0.12499987769E+03 0.  0.
         25    2    1    2    0    0  0.49533539910E+02  0.45405764958E+02 -0.11451309054E+03  0.18235733250E+03  0.12500277494E+03 0.  0.
          5    1    3    3  501    0 -0.51870317472E+02 -0.68970266094E+02 -0.36666789886E+02  0.93882750920E+02  0.47000000000E+01 0. -1.
         -5    1    3    3    0  501  0.23367775623E+01  0.23564501137E+02 -0.10096345918E+03  0.10380971213E+03  0.47000000000E+01 0. -1.
          5    1    4    4  502    0  0.41515829053E+02 -0.37150608548E+02 -0.28425064858E+02  0.62720061301E+02  0.47000000000E+01 0. -1.
         -5    1    4    4    0  502  0.80177108566E+01  0.82556373506E+02 -0.86088025680E+02  0.11963727120E+03  0.47000000000E+01 0. -1.
<mgrwt>
<rscale>  0 0.28436171E+03</rscale>
<asrwt>0</asrwt>
<pdfrwt beam="1">  1       21 0.98389581E-02 0.28436171E+03</pdfrwt>
<pdfrwt beam="2">  1       21 0.48630241E-01 0.28436171E+03</pdfrwt>
<totfact> 0.33002936E+05</totfact>
</mgrwt>
</event>
<event>
 8    1  0.9400004E-006  0.3702283E+03  0.7546771E-02  0.1054606E+00
         21   -1    0    0  504  503  0.00000000000E+00  0.00000000000E+00  0.78931269293E+03  0.78931269293E+03  0.00000000000E+00 0.  1.
         21   -1    0    0  503  504 -0.00000000000E+00 -0.00000000000E+00 -0.43414027146E+02  0.43414027146E+02  0.00000000000E+00 0.  1.
         25    2    1    2    0    0 -0.10584956503E+03 -0.77886072687E+02  0.45623678238E+03  0.49096730200E+03  0.12500607704E+03 0.  0.
         25    2    1    2    0    0  0.10584956503E+03  0.77886072687E+02  0.28966188341E+03  0.34175941808E+03  0.12500048965E+03 0.  0.
          5    1    3    3  501    0 -0.90106055501E+02 -0.11124319378E+03  0.38121895022E+03  0.40723964371E+03  0.47000000000E+01 0.  1.
         -5    1    3    3    0  501 -0.15743509529E+02  0.33357121097E+02  0.75017832155E+02  0.83727658282E+02  0.47000000000E+01 0.  1.
          5    1    4    4  502    0  0.77804920926E+02 -0.20543153218E+01  0.64674936289E+02  0.10130529757E+03  0.47000000000E+01 0. -1.
         -5    1    4    4    0  502  0.28044644105E+02  0.79940388009E+02  0.22498694712E+03  0.24045412051E+03  0.47000000000E+01 0. -1.
<mgrwt>
<rscale>  0 0.37022827E+03</rscale>
<asrwt>0</asrwt>
<pdfrwt beam="1">  1       21 0.12143271E+00 0.37022827E+03</pdfrwt>
<pdfrwt beam="2">  1       21 0.66790817E-02 0.37022827E+03</pdfrwt>
<totfact> 0.78953069E+04</totfact>
</mgrwt>
</event>
<event>
 8    1  0.9400004E-006  0.4783454E+03  0.7546771E-02  0.1019591E+00
         21   -1    0    0  504  503  0.00000000000E+00  0.00000000000E+00  0.74366979113E+02  0.74366979113E+02  0.00000000000E+00 0.  1.
         21   -1    0    0  503  504 -0.00000000000E+00 -0.00000000000E+00 -0.76920681190E+03  0.76920681190E+03  0.00000000000E+00 0.  1.
         25    2    1    2    0    0  0.54446499040E+02 -0.19440976014E+03 -0.39787043501E+03  0.46334221815E+03  0.12500220784E+03 0.  0.
         25    2    1    2    0    0 -0.54446499040E+02  0.19440976014E+03 -0.29696939778E+03  0.38023157287E+03  0.12500259874E+03 0.  0.
          5    1    3    3  501    0 -0.25661090304E+02  0.94640948411E+00 -0.38723301537E+02  0.46700870745E+02  0.47000000000E+01 0.  1.
         -5    1    3    3    0  501  0.80107589344E+02 -0.19535616963E+03 -0.35914713347E+03  0.41664134740E+03  0.47000000000E+01 0.  1.
          5    1    4    4  502    0  0.22031194272E+02 -0.55490360187E+01 -0.25573047424E+02  0.34528771718E+02  0.47000000000E+01 0.  1.
         -5    1    4    4    0  502 -0.76477693312E+02  0.19995879616E+03 -0.27139635036E+03  0.34570280115E+03  0.47000000000E+01 0.  1.
<mgrwt>
<rscale>  0 0.47834543E+03</rscale>
<asrwt>0</asrwt>
<pdfrwt beam="1">  1       21 0.11441074E-01 0.47834543E+03</pdfrwt>
<pdfrwt beam="2">  1       21 0.11833951E+00 0.47834543E+03</pdfrwt>
<totfact> 0.31454643E+04</totfact>
</mgrwt>
</event>
<event>
 8    1  0.9400004E-006  0.3020934E+03  0.7546771E-02  0.1084199E+00
         21   -1    0    0  504  503  0.00000000000E+00  0.00000000000E+00  0.42289022951E+03  0.42289022951E+03  0.00000000000E+00 0. -1.
         21   -1    0    0  503  504 -0.00000000000E+00 -0.00000000000E+00 -0.53950421391E+02  0.53950421391E+02  0.00000000000E+00 0. -1.
         25    2    1    2    0    0  0.53466260648E+02 -0.25889556424E+02  0.88956242705E+02  0.16451967168E+03  0.12499839637E+03 0.  0.
         25    2    1    2    0    0 -0.53466260648E+02  0.25889556424E+02  0.27998356541E+03  0.31232097922E+03  0.12499874799E+03 0.  0.
          5    1    3    3  501    0  0.38818795768E+02  0.32748106546E+02 -0.65244706802E+01  0.51419802653E+02  0.47000000000E+01 0.  1.
         -5    1    3    3    0  501  0.14647464880E+02 -0.58637662970E+02  0.95480713385E+02  0.11309986903E+03  0.47000000000E+01 0.  1.
          5    1    4    4  502    0 -0.21471560181E+02 -0.20511274463E+02  0.24275644854E+03  0.24461096374E+03  0.47000000000E+01 0. -1.
         -5    1    4    4    0  502 -0.31994700467E+02  0.46400830887E+02  0.37227116879E+02  0.67710015479E+02  0.47000000000E+01 0. -1.
<mgrwt>
<rscale>  0 0.30209340E+03</rscale>
<asrwt>0</asrwt>
<pdfrwt beam="1">  1       21 0.65060033E-01 0.30209340E+03</pdfrwt>
<pdfrwt beam="2">  1       21 0.83000651E-02 0.30209340E+03</pdfrwt>
<totfact> 0.23788210E+05</totfact>
</mgrwt>
</event>
<event>
 8    1  0.9400004E-006  0.4880134E+03  0.7546771E-02  0.1016956E+00
         21   -1    0    0  504  503  0.00000000000E+00  0.00000000000E+00  0.33632286739E+02  0.33632286739E+02  0.00000000000E+00 0.  1.
         21   -1    0    0  503  504 -0.00000000000E+00 -0.00000000000E+00 -0.17703007592E+04  0.17703007592E+04  0.00000000000E+00 0.  1.
         25    2    1    2    0    0  0.13511154384E+03  0.88394413752E+02 -0.13621524638E+04  0.13773691225E+04  0.12497065056E+03 0.  0.
         25    2    1    2    0    0 -0.13511154384E+03 -0.88394413752E+02 -0.37451600872E+03  0.42656392343E+03  0.12500335325E+03 0.  0.
          5    1    3    3  501    0  0.62623773705E+02 -0.71137425318E+01 -0.80315862910E+03  0.80564149338E+03  0.47000000000E+01 0. -1.
         -5    1    3    3    0  501  0.72487770139E+02  0.95508156284E+02 -0.55899383469E+03  0.57172762917E+03  0.47000000000E+01 0. -1.
          5    1    4    4  502    0 -0.46084636890E+02 -0.17748489289E+02 -0.26168921645E+03  0.26634965485E+03  0.47000000000E+01 0. -1.
         -5    1    4    4    0  502 -0.89026906954E+02 -0.70645924464E+02 -0.11282679227E+03  0.16021426859E+03  0.47000000000E+01 0. -1.
<mgrwt>
<rscale>  0 0.48801337E+03</rscale>
<asrwt>0</asrwt>
<pdfrwt beam="1">  1       21 0.51741971E-02 0.48801337E+03</pdfrwt>
<pdfrwt beam="2">  1       21 0.27235401E+00 0.48801337E+03</pdfrwt>
<totfact> 0.10476478E+04</totfact>
</mgrwt>
</event>
<event>
 8    1  0.9400004E-006  0.2848817E+03  0.7546771E-02  0.1093052E+00
         21   -1    0    0  504  503  0.00000000000E+00  0.00000000000E+00  0.42389426153E+02  0.42389426153E+02  0.00000000000E+00 0. -1.
         21   -1    0    0  503  504 -0.00000000000E+00 -0.00000000000E+00 -0.47864276898E+03  0.47864276898E+03  0.00000000000E+00 0. -1.
         25    2    1    2    0    0 -0.21570977682E+02 -0.31116175445E+02 -0.11418011479E+03  0.17348262080E+03  0.12500239060E+03 0.  0.
         25    2    1    2    0    0  0.21570977682E+02  0.31116175445E+02 -0.32207322804E+03  0.34754957433E+03  0.12500407572E+03 0.  0.
          5    1    3    3  501    0  0.81966077998E+01 -0.11819204194E+02 -0.13244444535E+03  0.13330603539E+03  0.47000000000E+01 0.  1.
         -5    1    3    3    0  501 -0.29767585482E+02 -0.19296971251E+02  0.18264330559E+02  0.40176585416E+02  0.47000000000E+01 0.  1.
          5    1    4    4  502    0 -0.31047216639E+02  0.38511638793E+02 -0.26424211101E+03  0.26887368636E+03  0.47000000000E+01 0. -1.
         -5    1    4    4    0  502  0.52618194321E+02 -0.73954633477E+01 -0.57831117026E+02  0.78675887972E+02  0.47000000000E+01 0. -1.
<mgrwt>
<rscale>  0 0.28488168E+03</rscale>
<asrwt>0</asrwt>
<pdfrwt beam="1">  1       21 0.65214502E-02 0.28488168E+03</pdfrwt>
<pdfrwt beam="2">  1       21 0.73637349E-01 0.28488168E+03</pdfrwt>
<totfact> 0.27635527E+05</totfact>
</mgrwt>
</event>
<event>
 8    1  0.9400004E-006  0.2744948E+03  0.7546771E-02  0.1098734E+00
         21   -1    0    0  504  503  0.00000000000E+00  0.00000000000E+00  0.75675869624E+01  0.75675869624E+01  0.00000000000E+00 0.  1.
         21   -1    0    0  503  504 -0.00000000000E+00 -0.00000000000E+00 -0.24891482325E+04  0.24891482325E+04  0.00000000000E+00 0.  1.
         25    2    1    2    0    0 -0.25007556256E+02 -0.35938168215E+02 -0.91182766977E+03  0.92138615838E+03  0.12492327116E+03 0.  0.
         25    2    1    2    0    0  0.25007556256E+02  0.35938168215E+02 -0.15697529758E+04  0.15753296611E+04  0.12498882500E+03 0.  0.
          5    1    3    3  501    0  0.28182460102E+02 -0.50792244783E+02 -0.22850038219E+03  0.23581479565E+03  0.47000000000E+01 0.  1.
         -5    1    3    3    0  501 -0.53190016358E+02  0.14854076568E+02 -0.68332728759E+03  0.68557136273E+03  0.47000000000E+01 0.  1.
          5    1    4    4  502    0 -0.50463409920E+02  0.71327827559E+01 -0.66374954713E+03  0.66571989879E+03  0.47000000000E+01 0. -1.
         -5    1    4    4    0  502  0.75470966177E+02  0.28805385459E+02 -0.90600342868E+03  0.90960976234E+03  0.47000000000E+01 0. -1.
<mgrwt>
<rscale>  0 0.27449478E+03</rscale>
<asrwt>0</asrwt>
<pdfrwt beam="1">  1       21 0.11642423E-02 0.27449478E+03</pdfrwt>
<pdfrwt beam="2">  1       21 0.38294648E+00 0.27449478E+03</pdfrwt>
<totfact> 0.30226705E+04</totfact>
</mgrwt>
</event>
<event>
 8    1  0.9400004E-006  0.2561624E+03  0.7546771E-02  0.1109471E+00
         21   -1    0    0  504  503  0.00000000000E+00  0.00000000000E+00  0.77393143215E+03  0.77393143215E+03  0.00000000000E+00 0.  1.
         21   -1    0    0  503  504 -0.00000000000E+00 -0.00000000000E+00 -0.21196698957E+02  0.21196698957E+02  0.00000000000E+00 0.  1.
         25    2    1    2    0    0  0.13119897550E+02 -0.11540341340E+02  0.30872318611E+03  0.33352779335E+03  0.12500188840E+03 0.  0.
         25    2    1    2    0    0 -0.13119897550E+02  0.11540341340E+02  0.44401154708E+03  0.46160033776E+03  0.12499322656E+03 0.  0.
          5    1    3    3  501    0 -0.16578262859E+02  0.29776207396E+02  0.18936071676E+02  0.39269913889E+02  0.47000000000E+01 0.  1.
         -5    1    3    3    0  501  0.29698160409E+02 -0.41316548737E+02  0.28978711443E+03  0.29425787946E+03  0.47000000000E+01 0.  1.
          5    1    4    4  502    0 -0.42225568061E+02  0.94097685639E+01  0.49197375805E+02  0.65681155049E+02  0.47000000000E+01 0. -1.
         -5    1    4    4    0  502  0.29105670510E+02  0.21305727765E+01  0.39481417128E+03  0.39591918271E+03  0.47000000000E+01 0. -1.
<mgrwt>
<rscale>  0 0.25616238E+03</rscale>
<asrwt>0</asrwt>
<pdfrwt beam="1">  1       21 0.11906635E+00 0.25616238E+03</pdfrwt>
<pdfrwt beam="2">  1       21 0.32610312E-02 0.25616238E+03</pdfrwt>
<totfact> 0.29097456E+05</totfact>
</mgrwt>
</event>
<event>
 8    1  0.9400004E-006  0.3769101E+03  0.7546771E-02  0.1052082E+00
         21   -1    0    0  504  503  0.00000000000E+00  0.00000000000E+00  0.20545416439E+03  0.20545416439E+03  0.00000000000E+00 0.  1.
         21   -1    0    0  503  504 -0.00000000000E+00 -0.00000000000E+00 -0.17286243367E+03  0.17286243367E+03  0.00000000000E+00 0.  1.
         25    2    1    2    0    0 -0.78566017453E+02  0.37786832729E+02  0.12757000599E+03  0.19874357196E+03  0.12499774855E+03 0.  0.
         25    2    1    2    0    0  0.78566017453E+02 -0.37786832729E+02 -0.94978275265E+02  0.17957302610E+03  0.12500054041E+03 0.  0.
          5    1    3    3  501    0 -0.33397731278E+02 -0.21148802483E+01 -0.20002533880E+02  0.39269231398E+02  0.47000000000E+01 0. -1.
         -5    1    3    3    0  501 -0.45168286175E+02  0.39901712977E+02  0.14757253987E+03  0.15947434056E+03  0.47000000000E+01 0. -1.
          5    1    4    4  502    0  0.49630409562E+02  0.23011740595E+02 -0.97644572084E+02  0.11202352528E+03  0.47000000000E+01 0.  1.
         -5    1    4    4    0  502  0.28935607892E+02 -0.60798573324E+02  0.26662968188E+01  0.67549500820E+02  0.47000000000E+01 0.  1.
<mgrwt>
<rscale>  0 0.37691011E+03</rscale>
<asrwt>0</asrwt>
<pdfrwt beam="1">  1       21 0.31608333E-01 0.37691011E+03</pdfrwt>
<pdfrwt beam="2">  1       21 0.26594220E-01 0.37691011E+03</pdfrwt>
<totfact> 0.12299071E+05</totfact>
</mgrwt>
</event>
<event>
 8    1  0.9400004E-006  0.3454208E+03  0.7546771E-02  0.1064510E+00
         21   -1    0    0  504  503  0.00000000000E+00  0.00000000000E+00  0.97387190951E+03  0.97387190951E+03  0.00000000000E+00 0. -1.
         21   -1    0    0  503  504 -0.00000000000E+00 -0.00000000000E+00 -0.30629161281E+02  0.30629161281E+02  0.00000000000E+00 0. -1.
         25    2    1    2    0    0 -0.97754509728E+02  0.42495003397E+01  0.27371282318E+03  0.31641235900E+03  0.12499627567E+03 0.  0.
         25    2    1    2    0    0  0.97754509728E+02 -0.42495003397E+01  0.66952992505E+03  0.68808871179E+03  0.12498700865E+03 0.  0.
          5    1    3    3  501    0  0.28286347761E+02  0.66517341992E+01  0.30252940414E+02  0.42210110651E+02  0.47000000000E+01 0.  1.
         -5    1    3    3    0  501 -0.12604085749E+03 -0.24022338594E+01  0.24345988277E+03  0.27420224835E+03  0.47000000000E+01 0.  1.
          5    1    4    4  502    0  0.33621424289E+02 -0.17492366332E+02  0.55315062232E+03  0.55446738770E+03  0.47000000000E+01 0. -1.
         -5    1    4    4    0  502  0.64133085439E+02  0.13242865992E+02  0.11637930273E+03  0.13362132409E+03  0.47000000000E+01 0. -1.
<mgrwt>
<rscale>  0 0.34542079E+03</rscale>
<asrwt>0</asrwt>
<pdfrwt beam="1">  1       21 0.14982642E+00 0.34542079E+03</pdfrwt>
<pdfrwt beam="2">  1       21 0.47121794E-02 0.34542079E+03</pdfrwt>
<totfact> 0.83971227E+04</totfact>
</mgrwt>
</event>
<event>
 8    1  0.9400004E-006  0.2734174E+03  0.7546771E-02  0.1099339E+00
         21   -1    0    0  504  503  0.00000000000E+00  0.00000000000E+00  0.17488163576E+03  0.17488163576E+03  0.00000000000E+00 0.  1.
         21   -1    0    0  503  504 -0.00000000000E+00 -0.00000000000E+00 -0.10686813930E+03  0.10686813930E+03  0.00000000000E+00 0.  1.
         25    2    1    2    0    0  0.28055160884E-02  0.52840017884E+02  0.16995418658E+02  0.13676865638E+03  0.12499901445E+03 0.  0.
         25    2    1    2    0    0 -0.28055160884E-02 -0.52840017884E+02  0.51018077807E+02  0.14498111869E+03  0.12499845205E+03 0.  0.
          5    1    3    3  501    0 -0.53646155621E+02  0.66643470134E+01 -0.18648252567E+02  0.57377442064E+02  0.47000000000E+01 0. -1.
         -5    1    3    3    0  501  0.53648961137E+02  0.46175670871E+02  0.35643671224E+02  0.79391214312E+02  0.47000000000E+01 0. -1.
          5    1    4    4  502    0  0.24596784189E+02 -0.88351969557E+02  0.29244130994E+02  0.96376249743E+02  0.47000000000E+01 0.  1.
         -5    1    4    4    0  502 -0.24599589705E+02  0.35511951672E+02  0.21773946813E+02  0.48604868944E+02  0.47000000000E+01 0.  1.
<mgrwt>
<rscale>  0 0.27341745E+03</rscale>
<asrwt>0</asrwt>
<pdfrwt beam="1">  1       21 0.26904867E-01 0.27341745E+03</pdfrwt>
<pdfrwt beam="2">  1       21 0.16441252E-01 0.27341745E+03</pdfrwt>
<totfact> 0.42936942E+05</totfact>
</mgrwt>
</event>
<event>
 8    1  0.9400004E-006  0.9473186E+03  0.7546771E-02  0.9368290E-01
         21   -1    0    0  504  503  0.00000000000E+00  0.00000000000E+00  0.34767448169E+03  0.34767448169E+03  0.00000000000E+00 0. -1.
         21   -1    0    0  503  504 -0.00000000000E+00 -0.00000000000E+00 -0.64529646657E+03  0.64529646657E+03  0.00000000000E+00 0. -1.
         25    2    1    2    0    0  0.19772451466E+03 -0.18055849517E+03 -0.53682842391E+03  0.61278575021E+03  0.12500106022E+03 0.  0.
         25    2    1    2    0    0 -0.19772451466E+03  0.18055849517E+03  0.23920643903E+03  0.38018519806E+03  0.12499884188E+03 0.  0.
          5    1    3    3  501    0  0.12888158367E+03 -0.18479168349E+03 -0.38818138161E+03  0.44884886535E+03  0.47000000000E+01 0. -1.
         -5    1    3    3    0  501  0.68842930992E+02  0.42331883198E+01 -0.14864704230E+03  0.16393688486E+03  0.47000000000E+01 0. -1.
          5    1    4    4  502    0 -0.19750516168E+03  0.18645521813E+03  0.19267428518E+03  0.33304550354E+03  0.47000000000E+01 0.  1.
         -5    1    4    4    0  502 -0.21935298213E+00 -0.58967229586E+01  0.46532153848E+02  0.47139694517E+02  0.47000000000E+01 0.  1.
<mgrwt>
<rscale>  0 0.94731856E+03</rscale>
<asrwt>0</asrwt>
<pdfrwt beam="1">  1       21 0.53488382E-01 0.94731856E+03</pdfrwt>
<pdfrwt beam="2">  1       21 0.99276380E-01 0.94731856E+03</pdfrwt>
<totfact> 0.21197603E+03</totfact>
</mgrwt>
</event>
<event>
 8    1  0.9400004E-006  0.3878582E+03  0.7546771E-02  0.1048067E+00
         21   -1    0    0  504  503  0.00000000000E+00  0.00000000000E+00  0.58202551880E+02  0.58202551880E+02  0.00000000000E+00 0. -1.
         21   -1    0    0  503  504 -0.00000000000E+00 -0.00000000000E+00 -0.64616567981E+03  0.64616567981E+03  0.00000000000E+00 0. -1.
         25    2    1    2    0    0 -0.39020433469E+01 -0.13582924237E+03 -0.40170145644E+03  0.44210201724E+03  0.12500129804E+03 0.  0.
         25    2    1    2    0    0  0.39020433469E+01  0.13582924237E+03 -0.18626167149E+03  0.26226621445E+03  0.12500139181E+03 0.  0.
          5    1    3    3  501    0  0.25476325146E+02 -0.14723141128E+03 -0.35851207769E+03  0.38843163035E+03  0.47000000000E+01 0.  1.
         -5    1    3    3    0  501 -0.29378368493E+02  0.11402168910E+02 -0.43189378755E+02  0.53670386885E+02  0.47000000000E+01 0.  1.
          5    1    4    4  502    0 -0.16149133834E+01  0.88254894566E+02 -0.21987349983E+02  0.91088242487E+02  0.47000000000E+01 0.  1.
         -5    1    4    4    0  502  0.55169567303E+01  0.47574347802E+02 -0.16427432151E+03  0.17117797197E+03  0.47000000000E+01 0.  1.
<mgrwt>
<rscale>  0 0.38785818E+03</rscale>
<asrwt>0</asrwt>
<pdfrwt beam="1">  1       21 0.89542385E-02 0.38785818E+03</pdfrwt>
<pdfrwt beam="2">  1       21 0.99410107E-01 0.38785818E+03</pdfrwt>
<totfact> 0.76879378E+04</totfact>
</mgrwt>
</event>
<event>
 8    1  0.9400004E-006  0.2905461E+03  0.7546771E-02  0.1090064E+00
         21   -1    0    0  504  503  0.00000000000E+00  0.00000000000E+00  0.10489998418E+02  0.10489998418E+02  0.00000000000E+00 0.  1.
         21   -1    0    0  503  504 -0.00000000000E+00 -0.00000000000E+00 -0.20118464118E+04  0.20118464118E+04  0.00000000000E+00 0.  1.
         25    2    1    2    0    0  0.63821053505E+02  0.37481784483E+02 -0.99408134220E+03  0.10046396035E+04  0.12500002779E+03 0.  0.
         25    2    1    2    0    0 -0.63821053505E+02 -0.37481784483E+02 -0.10072750712E+04  0.10176968067E+04  0.12500284143E+03 0.  0.
          5    1    3    3  501    0 -0.28508011557E+02 -0.14776867554E+02 -0.12706343641E+03  0.13114217251E+03  0.47000000000E+01 0. -1.
         -5    1    3    3    0  501  0.92329065062E+02  0.52258652036E+02 -0.86701790579E+03  0.87349743098E+03  0.47000000000E+01 0. -1.
          5    1    4    4  502    0 -0.42637522210E+02  0.41726437283E+01 -0.96212439390E+02  0.10542434609E+03  0.47000000000E+01 0.  1.
         -5    1    4    4    0  502 -0.21183531294E+02 -0.41654428211E+02 -0.91106263176E+03  0.91227246061E+03  0.47000000000E+01 0.  1.
<mgrwt>
<rscale>  0 0.29054615E+03</rscale>
<asrwt>0</asrwt>
<pdfrwt beam="1">  1       21 0.16138468E-02 0.29054615E+03</pdfrwt>
<pdfrwt beam="2">  1       21 0.30951467E+00 0.29054615E+03</pdfrwt>
<totfact> 0.48698634E+04</totfact>
</mgrwt>
</event>
<event>
 8    1  0.9400004E-006  0.3792480E+03  0.7546771E-02  0.1051212E+00
         21   -1    0    0  504  503  0.00000000000E+00  0.00000000000E+00  0.19733321732E+04  0.19733321732E+04  0.00000000000E+00 0. -1.
         21   -1    0    0  503  504 -0.00000000000E+00 -0.00000000000E+00 -0.18221597477E+02  0.18221597477E+02  0.00000000000E+00 0. -1.
         25    2    1    2    0    0  0.31073345167E+02  0.83134620601E+02  0.15635888244E+04  0.15710866272E+04  0.12500504174E+03 0.  0.
         25    2    1    2    0    0 -0.31073345167E+02 -0.83134620601E+02  0.39152175136E+03  0.42046714351E+03  0.12500567612E+03 0.  0.
          5    1    3    3  501    0  0.74529296494E+02  0.21616895062E+02  0.76511200243E+03  0.76905160584E+03  0.47000000000E+01 0. -1.
         -5    1    3    3    0  501 -0.43455951327E+02  0.61517725540E+02  0.79847682196E+03  0.80203502135E+03  0.47000000000E+01 0. -1.
          5    1    4    4  502    0  0.75802238293E+01 -0.84094143621E+02  0.12379494325E+03  0.14992185551E+03  0.47000000000E+01 0.  1.
         -5    1    4    4    0  502 -0.38653568996E+02  0.95952301952E+00  0.26772680811E+03  0.27054528801E+03  0.47000000000E+01 0.  1.
<mgrwt>
<rscale>  0 0.37924802E+03</rscale>
<asrwt>0</asrwt>
<pdfrwt beam="1">  1       21 0.30358940E+00 0.37924802E+03</pdfrwt>
<pdfrwt beam="2">  1       21 0.28033243E-02 0.37924802E+03</pdfrwt>
<totfact> 0.20220720E+04</totfact>
</mgrwt>
</event>
<event>
 8    1  0.9400004E-006  0.3248144E+03  0.7546771E-02  0.1073455E+00
         21   -1    0    0  504  503  0.00000000000E+00  0.00000000000E+00  0.96134526563E+02  0.96134526563E+02  0.00000000000E+00 0.  1.
         21   -1    0    0  503  504 -0.00000000000E+00 -0.00000000000E+00 -0.27436649564E+03  0.27436649564E+03  0.00000000000E+00 0.  1.
         25    2    1    2    0    0 -0.63190518886E+01 -0.96498598361E+02 -0.13177645201E+03  0.20577232639E+03  0.12500122840E+03 0.  0.
         25    2    1    2    0    0  0.63190518886E+01  0.96498598361E+02 -0.46455517064E+02  0.16472869581E+03  0.12500207300E+03 0.  0.
          5    1    3    3  501    0 -0.24188405519E+02  0.21828697393E+02 -0.53112216044E+02  0.62486546428E+02  0.47000000000E+01 0.  1.
         -5    1    3    3    0  501  0.17869353630E+02 -0.11832729575E+03 -0.78664235965E+02  0.14328577996E+03  0.47000000000E+01 0.  1.
          5    1    4    4  502    0  0.54925443609E+02  0.52437492330E+02  0.11645579774E+02  0.76968853998E+02  0.47000000000E+01 0.  1.
         -5    1    4    4    0  502 -0.48606391720E+02  0.44061106031E+02 -0.58101096838E+02  0.87759841810E+02  0.47000000000E+01 0.  1.
<mgrwt>
<rscale>  0 0.32481437E+03</rscale>
<asrwt>0</asrwt>
<pdfrwt beam="1">  1       21 0.14789927E-01 0.32481437E+03</pdfrwt>
<pdfrwt beam="2">  1       21 0.42210229E-01 0.32481437E+03</pdfrwt>
<totfact> 0.21016981E+05</totfact>
</mgrwt>
</event>
<event>
 8    1  0.9400004E-006  0.4283563E+03  0.7546771E-02  0.1034380E+00
         21   -1    0    0  504  503  0.00000000000E+00  0.00000000000E+00  0.15541493888E+03  0.15541493888E+03  0.00000000000E+00 0.  1.
         21   -1    0    0  503  504 -0.00000000000E+00 -0.00000000000E+00 -0.29516010368E+03  0.29516010368E+03  0.00000000000E+00 0.  1.
         25    2    1    2    0    0  0.77157328671E+02  0.98653258653E+02 -0.19679674672E+03  0.26465354451E+03  0.12500728095E+03 0.  0.
         25    2    1    2    0    0 -0.77157328671E+02 -0.98653258653E+02  0.57051581927E+02  0.18592149805E+03  0.12500480642E+03 0.  0.
          5    1    3    3  501    0  0.11022527483E+03  0.78465699813E+02 -0.13245898191E+03  0.18940419516E+03  0.47000000000E+01 0. -1.
         -5    1    3    3    0  501 -0.33067946158E+02  0.20187558840E+02 -0.64337764819E+02  0.75249349345E+02  0.47000000000E+01 0. -1.
          5    1    4    4  502    0 -0.52235217618E+02 -0.44321398199E+02 -0.34217320188E+02  0.76719093443E+02  0.47000000000E+01 0.  1.
         -5    1    4    4    0  502 -0.24922111053E+02 -0.54331860454E+02  0.91268902115E+02  0.10920240461E+03  0.47000000000E+01 0.  1.
<mgrwt>
<rscale>  0 0.42835634E+03</rscale>
<asrwt>0</asrwt>
<pdfrwt beam="1">  1       21 0.23909991E-01 0.42835634E+03</pdfrwt>
<pdfrwt beam="2">  1       21 0.45409246E-01 0.42835634E+03</pdfrwt>
<totfact> 0.71424703E+04</totfact>
</mgrwt>
</event>
<event>
 8    1  0.9400004E-006  0.3512068E+03  0.7546771E-02  0.1062121E+00
         21   -1    0    0  504  503  0.00000000000E+00  0.00000000000E+00  0.21340966199E+03  0.21340966199E+03  0.00000000000E+00 0. -1.
         21   -1    0    0  503  504 -0.00000000000E+00 -0.00000000000E+00 -0.14449465181E+03  0.14449465181E+03  0.00000000000E+00 0. -1.
         25    2    1    2    0    0 -0.96689375284E+02  0.53123519418E+02 -0.21734273819E+02  0.16813032340E+03  0.12499793350E+03 0.  0.
         25    2    1    2    0    0  0.96689375284E+02 -0.53123519418E+02  0.90649284004E+02  0.18977399041E+03  0.12500372449E+03 0.  0.
          5    1    3    3  501    0 -0.21684106132E+02  0.35470149627E+01  0.48822698666E+02  0.53745024690E+02  0.47000000000E+01 0.  1.
         -5    1    3    3    0  501 -0.75005269152E+02  0.49576504456E+02 -0.70556972485E+02  0.11438529871E+03  0.47000000000E+01 0.  1.
          5    1    4    4  502    0  0.91705780468E+02 -0.68322916689E+01  0.50496085451E+01  0.92218322079E+02  0.47000000000E+01 0. -1.
         -5    1    4    4    0  502  0.49835948161E+01 -0.46291227749E+02  0.85599675459E+02  0.97555668326E+02  0.47000000000E+01 0. -1.
<mgrwt>
<rscale>  0 0.35120680E+03</rscale>
<asrwt>0</asrwt>
<pdfrwt beam="1">  1       21 0.32832256E-01 0.35120680E+03</pdfrwt>
<pdfrwt beam="2">  1       21 0.22229946E-01 0.35120680E+03</pdfrwt>
<totfact> 0.16205010E+05</totfact>
</mgrwt>
</event>
<event>
 8    1  0.9400004E-006  0.3095214E+03  0.7546771E-02  0.1080576E+00
         21   -1    0    0  504  503  0.00000000000E+00  0.00000000000E+00  0.34367701260E+03  0.34367701260E+03  0.00000000000E+00 0.  1.
         21   -1    0    0  503  504 -0.00000000000E+00 -0.00000000000E+00 -0.69690059232E+02  0.69690059232E+02  0.00000000000E+00 0.  1.
         25    2    1    2    0    0 -0.19365870954E+02  0.72678170161E+02  0.20599108576E+03  0.25241674018E+03  0.12499891973E+03 0.  0.
         25    2    1    2    0    0  0.19365870954E+02 -0.72678170161E+02  0.67995867607E+02  0.16095033165E+03  0.12499767147E+03 0.  0.
          5    1    3    3  501    0 -0.41018359287E+02  0.97387368628E+02  0.18512521014E+03  0.21321406801E+03  0.47000000000E+01 0. -1.
         -5    1    3    3    0  501  0.21652488333E+02 -0.24709198467E+02  0.20865875619E+02  0.39202672170E+02  0.47000000000E+01 0. -1.
          5    1    4    4  502    0  0.60347014160E+02 -0.69611360059E+02  0.75136165816E+02  0.11897494266E+03  0.47000000000E+01 0. -1.
         -5    1    4    4    0  502 -0.40981143206E+02 -0.30668101025E+01 -0.71402982090E+01  0.41975388994E+02  0.47000000000E+01 0. -1.
<mgrwt>
<rscale>  0 0.30952138E+03</rscale>
<asrwt>0</asrwt>
<pdfrwt beam="1">  1       21 0.52873386E-01 0.30952138E+03</pdfrwt>
<pdfrwt beam="2">  1       21 0.10721548E-01 0.30952138E+03</pdfrwt>
<totfact> 0.23600867E+05</totfact>
</mgrwt>
</event>
<event>
 8    1  0.9400004E-006  0.2542694E+03  0.7546771E-02  0.1110636E+00
         21   -1    0    0  504  503  0.00000000000E+00  0.00000000000E+00  0.11132102535E+03  0.11132102535E+03  0.00000000000E+00 0.  1.
         21   -1    0    0  503  504 -0.00000000000E+00 -0.00000000000E+00 -0.14519473537E+03  0.14519473537E+03  0.00000000000E+00 0.  1.
         25    2    1    2    0    0 -0.12394850220E+02 -0.47322832655E+01  0.22730164040E+01  0.12571737297E+03  0.12499465767E+03 0.  0.
         25    2    1    2    0    0  0.12394850220E+02  0.47322832655E+01 -0.36146726425E+02  0.13079838775E+03  0.12500242234E+03 0.  0.
          5    1    3    3  501    0  0.21143933357E+02 -0.44677694043E+02  0.37827133650E+02  0.62419102068E+02  0.47000000000E+01 0. -1.
         -5    1    3    3    0  501 -0.33538783577E+02  0.39945410777E+02 -0.35554117246E+02  0.63298270902E+02  0.47000000000E+01 0. -1.
          5    1    4    4  502    0  0.26917032047E+02  0.17552241512E+02 -0.77972575157E+02  0.84465497530E+02  0.47000000000E+01 0. -1.
         -5    1    4    4    0  502 -0.14522181827E+02 -0.12819958247E+02  0.41825848732E+02  0.46332890225E+02  0.47000000000E+01 0. -1.
<mgrwt>
<rscale>  0 0.25426936E+03</rscale>
<asrwt>0</asrwt>
<pdfrwt beam="1">  1       21 0.17126312E-01 0.25426936E+03</pdfrwt>
<pdfrwt beam="2">  1       21 0.22337652E-01 0.25426936E+03</pdfrwt>
<totfact> 0.57085401E+05</totfact>
</mgrwt>
</event>
<event>
 8    1  0.9400004E-006  0.3285698E+03  0.7546771E-02  0.1071771E+00
         21   -1    0    0  504  503  0.00000000000E+00  0.00000000000E+00  0.49443346132E+02  0.49443346132E+02  0.00000000000E+00 0.  1.
         21   -1    0    0  503  504 -0.00000000000E+00 -0.00000000000E+00 -0.54586766910E+03  0.54586766910E+03  0.00000000000E+00 0.  1.
         25    2    1    2    0    0  0.98389486329E+01  0.92791026434E+02 -0.34159542026E+03  0.37552125054E+03  0.12498719519E+03 0.  0.
         25    2    1    2    0    0 -0.98389486329E+01 -0.92791026434E+02 -0.15482890270E+03  0.21978976469E+03  0.12501428741E+03 0.  0.
          5    1    3    3  501    0  0.66699282922E+02  0.53829969076E+02 -0.21062784551E+03  0.22744810225E+03  0.47000000000E+01 0.  1.
         -5    1    3    3    0  501 -0.56860334290E+02  0.38961057358E+02 -0.13096757475E+03  0.14807314828E+03  0.47000000000E+01 0.  1.
          5    1    4    4  502    0 -0.57285954773E+02 -0.56593789832E+02 -0.13400291071E+03  0.15640782506E+03  0.47000000000E+01 0. -1.
         -5    1    4    4    0  502  0.47447006140E+02 -0.36197236601E+02 -0.20825991993E+02  0.63381939633E+02  0.47000000000E+01 0. -1.
<mgrwt>
<rscale>  0 0.32856977E+03</rscale>
<asrwt>0</asrwt>
<pdfrwt beam="1">  1       21 0.76066682E-02 0.32856977E+03</pdfrwt>
<pdfrwt beam="2">  1       21 0.83979646E-01 0.32856977E+03</pdfrwt>
<totfact> 0.15497580E+05</totfact>
</mgrwt>
</event>
<event>
 8    1  0.9400004E-006  0.3744459E+03  0.7546771E-02  0.1053006E+00
         21   -1    0    0  504  503  0.00000000000E+00  0.00000000000E+00  0.15771565389E+03  0.15771565389E+03  0.00000000000E+00 0.  1.
         21   -1    0    0  503  504 -0.00000000000E+00 -0.00000000000E+00 -0.22225081474E+03  0.22225081474E+03  0.00000000000E+00 0.  1.
         25    2    1    2    0    0  0.13351705441E+03  0.30046686919E+02 -0.55051460866E+01  0.18543981906E+03  0.12501205000E+03 0.  0.
         25    2    1    2    0    0 -0.13351705441E+03 -0.30046686919E+02 -0.59030014767E+02  0.19452664957E+03  0.12500587001E+03 0.  0.
          5    1    3    3  501    0  0.12606078094E+03 -0.11857429809E+02  0.29544542069E+02  0.13010337851E+03  0.47000000000E+01 0. -1.
         -5    1    3    3    0  501  0.74562734708E+01  0.41904116728E+02 -0.35049688156E+02  0.55336440549E+02  0.47000000000E+01 0. -1.
          5    1    4    4  502    0 -0.96957194655E+02 -0.56243944988E+02 -0.86457732575E+02  0.14163724251E+03  0.47000000000E+01 0.  1.
         -5    1    4    4    0  502 -0.36559859755E+02  0.26197258069E+02  0.27427717808E+02  0.52889407067E+02  0.47000000000E+01 0.  1.
<mgrwt>
<rscale>  0 0.37444590E+03</rscale>
<asrwt>0</asrwt>
<pdfrwt beam="1">  1       21 0.24263947E-01 0.37444590E+03</pdfrwt>
<pdfrwt beam="2">  1       21 0.34192433E-01 0.37444590E+03</pdfrwt>
<totfact> 0.12564461E+05</totfact>
</mgrwt>
</event>
<event>
 8    1  0.9400004E-006  0.2963881E+03  0.7546771E-02  0.1087060E+00
         21   -1    0    0  504  503  0.00000000000E+00  0.00000000000E+00  0.28385465127E+03  0.28385465127E+03  0.00000000000E+00 0.  1.
         21   -1    0    0  503  504 -0.00000000000E+00 -0.00000000000E+00 -0.77368739781E+02  0.77368739781E+02  0.00000000000E+00 0.  1.
         25    2    1    2    0    0 -0.62393592367E+02 -0.15036212238E+02  0.16062847751E+03  0.21341188831E+03  0.12499631290E+03 0.  0.
         25    2    1    2    0    0  0.62393592367E+02  0.15036212238E+02  0.45857433976E+02  0.14781150274E+03  0.12500515207E+03 0.  0.
          5    1    3    3  501    0 -0.71897102829E+02  0.11269053856E+02  0.28538938042E+02  0.78311850665E+02  0.47000000000E+01 0.  1.
         -5    1    3    3    0  501  0.95035104623E+01 -0.26305266094E+02  0.13208953947E+03  0.13510003765E+03  0.47000000000E+01 0.  1.
          5    1    4    4  502    0  0.57162735102E+02  0.53356897356E+02  0.67356521169E+02  0.10331276651E+03  0.47000000000E+01 0. -1.
         -5    1    4    4    0  502  0.52308572650E+01 -0.38320685118E+02 -0.21499087193E+02  0.44498736227E+02  0.47000000000E+01 0. -1.
<mgrwt>
<rscale>  0 0.29638810E+03</rscale>
<asrwt>0</asrwt>
<pdfrwt beam="1">  1       21 0.43669946E-01 0.29638810E+03</pdfrwt>
<pdfrwt beam="2">  1       21 0.11902883E-01 0.29638810E+03</pdfrwt>
<totfact> 0.29275393E+05</totfact>
</mgrwt>
</event>
<event>
 8    1  0.9400004E-006  0.2739467E+03  0.7546771E-02  0.1099042E+00
         21   -1    0    0  504  503  0.00000000000E+00  0.00000000000E+00  0.39586668654E+02  0.39586668654E+02  0.00000000000E+00 0.  1.
         21   -1    0    0  503  504 -0.00000000000E+00 -0.00000000000E+00 -0.47393971974E+03  0.47393971974E+03  0.00000000000E+00 0.  1.
         25    2    1    2    0    0 -0.48230248524E+02 -0.21982760109E+02 -0.25102989288E+03  0.28539497195E+03  0.12499953712E+03 0.  0.
         25    2    1    2    0    0  0.48230248524E+02  0.21982760109E+02 -0.18332315821E+03  0.22813141644E+03  0.12500865658E+03 0.  0.
          5    1    3    3  501    0  0.42610194990E+02 -0.89526734648E+01 -0.85910567043E+02  0.96428702205E+02  0.47000000000E+01 0.  1.
         -5    1    3    3    0  501 -0.90840443515E+02 -0.13030086644E+02 -0.16511932584E+03  0.18896626975E+03  0.47000000000E+01 0.  1.
          5    1    4    4  502    0 -0.16168084444E+02 -0.13167067433E+02  0.82692893068E+01  0.22918328146E+02  0.47000000000E+01 0. -1.
         -5    1    4    4    0  502  0.64398332969E+02  0.35149827542E+02 -0.19159244751E+03  0.20521308830E+03  0.47000000000E+01 0. -1.
<mgrwt>
<rscale>  0 0.27394667E+03</rscale>
<asrwt>0</asrwt>
<pdfrwt beam="1">  1       21 0.60902565E-02 0.27394667E+03</pdfrwt>
<pdfrwt beam="2">  1       21 0.72913805E-01 0.27394667E+03</pdfrwt>
<totfact> 0.31883102E+05</totfact>
</mgrwt>
</event>
<event>
 8    1  0.9400004E-006  0.5100867E+03  0.7546771E-02  0.1011179E+00
         21   -1    0    0  504  503  0.00000000000E+00  0.00000000000E+00  0.75725289520E+02  0.75725289520E+02  0.00000000000E+00 0. -1.
         21   -1    0    0  503  504 -0.00000000000E+00 -0.00000000000E+00 -0.85898787116E+03  0.85898787116E+03  0.00000000000E+00 0. -1.
         25    2    1    2    0    0 -0.19529983200E+03 -0.20112949297E+02 -0.20052836812E+03  0.30721758562E+03  0.12499785351E+03 0.  0.
         25    2    1    2    0    0  0.19529983200E+03  0.20112949297E+02 -0.58273421352E+03  0.62749557506E+03  0.12499991204E+03 0.  0.
          5    1    3    3  501    0 -0.23746381946E+02  0.23617002544E+02  0.68515700510E+01  0.34506339662E+02  0.47000000000E+01 0.  1.
         -5    1    3    3    0  501 -0.17155345005E+03 -0.43729951841E+02 -0.20737993817E+03  0.27271124595E+03  0.47000000000E+01 0.  1.
          5    1    4    4  502    0  0.31399345913E+02 -0.14429533334E+02 -0.19697044634E+02  0.40052389733E+02  0.47000000000E+01 0. -1.
         -5    1    4    4    0  502  0.16390048609E+03  0.34542482631E+02 -0.56303716888E+03  0.58744318533E+03  0.47000000000E+01 0. -1.
<mgrwt>
<rscale>  0 0.51008668E+03</rscale>
<asrwt>0</asrwt>
<pdfrwt beam="1">  1       21 0.11650044E-01 0.51008668E+03</pdfrwt>
<pdfrwt beam="2">  1       21 0.13215199E+00 0.51008668E+03</pdfrwt>
<totfact> 0.22719511E+04</totfact>
</mgrwt>
</event>
<event>
 8    1  0.9400004E-006  0.3419470E+03  0.7546771E-02  0.1065970E+00
         21   -1    0    0  504  503  0.00000000000E+00  0.00000000000E+00  0.49392141757E+02  0.49392141757E+02  0.00000000000E+00 0.  1.
         21   -1    0    0  503  504 -0.00000000000E+00 -0.00000000000E+00 -0.59183364132E+03  0.59183364132E+03  0.00000000000E+00 0.  1.
         25    2    1    2    0    0  0.80241880245E+02  0.77597823713E+02 -0.33473279940E+03  0.37434089996E+03  0.12499952318E+03 0.  0.
         25    2    1    2    0    0 -0.80241880245E+02 -0.77597823713E+02 -0.20770870016E+03  0.26688488312E+03  0.12499782048E+03 0.  0.
          5    1    3    3  501    0 -0.20823739537E+02  0.60585038838E+02 -0.14650239894E+03  0.15996630256E+03  0.47000000000E+01 0. -1.
         -5    1    3    3    0  501  0.10106561978E+03  0.17012784875E+02 -0.18823040046E+03  0.21437459740E+03  0.47000000000E+01 0. -1.
          5    1    4    4  502    0 -0.81235961396E+02 -0.35718439854E+01 -0.15748368938E+03  0.17729986440E+03  0.47000000000E+01 0. -1.
         -5    1    4    4    0  502  0.99408115064E+00 -0.74025979728E+02 -0.50225010778E+02  0.89585018723E+02  0.47000000000E+01 0. -1.
<mgrwt>
<rscale>  0 0.34194696E+03</rscale>
<asrwt>0</asrwt>
<pdfrwt beam="1">  1       21 0.75987912E-02 0.34194696E+03</pdfrwt>
<pdfrwt beam="2">  1       21 0.91051327E-01 0.34194696E+03</pdfrwt>
<totfact> 0.12812553E+05</totfact>
</mgrwt>
</event>
<event>
 8    1  0.9400004E-006  0.3830794E+03  0.7546771E-02  0.1049801E+00
         21   -1    0    0  504  503  0.00000000000E+00  0.00000000000E+00  0.16956075772E+03  0.16956075772E+03  0.00000000000E+00 0. -1.
         21   -1    0    0  503  504 -0.00000000000E+00 -0.00000000000E+00 -0.21636761022E+03  0.21636761022E+03  0.00000000000E+00 0. -1.
         25    2    1    2    0    0  0.12127655522E+03  0.58637686552E+02 -0.77829078172E+02  0.19957519324E+03  0.12500604473E+03 0.  0.
         25    2    1    2    0    0 -0.12127655522E+03 -0.58637686552E+02  0.31022225674E+02  0.18635317470E+03  0.12497498191E+03 0.  0.
          5    1    3    3  501    0  0.10109944222E+02 -0.75774602138E+01  0.28828291059E+02  0.31824349810E+02  0.47000000000E+01 0.  1.
         -5    1    3    3    0  501  0.11116661099E+03  0.66215146765E+02 -0.10665736923E+03  0.16775084343E+03  0.47000000000E+01 0.  1.
          5    1    4    4  502    0 -0.22389775487E+02 -0.58290029889E+02 -0.30648187214E+02  0.69716791451E+02  0.47000000000E+01 0. -1.
         -5    1    4    4    0  502 -0.98886779730E+02 -0.34765666293E+00  0.61670412888E+02  0.11663638324E+03  0.47000000000E+01 0. -1.
<mgrwt>
<rscale>  0 0.38307940E+03</rscale>
<asrwt>0</asrwt>
<pdfrwt beam="1">  1       21 0.26086270E-01 0.38307940E+03</pdfrwt>
<pdfrwt beam="2">  1       21 0.33287325E-01 0.38307940E+03</pdfrwt>
<totfact> 0.11501033E+05</totfact>
</mgrwt>
</event>
<event>
 8    1  0.9400004E-006  0.3220287E+03  0.7546771E-02  0.1074719E+00
         21   -1    0    0  504  503  0.00000000000E+00  0.00000000000E+00  0.73076491815E+03  0.73076491815E+03  0.00000000000E+00 0.  1.
         21   -1    0    0  503  504 -0.00000000000E+00 -0.00000000000E+00 -0.35477367766E+02  0.35477367766E+02  0.00000000000E+00 0.  1.
         25    2    1    2    0    0  0.79962856185E+02  0.62298327778E+02  0.33581412779E+03  0.37238657672E+03  0.12500197630E+03 0.  0.
         25    2    1    2    0    0 -0.79962856185E+02 -0.62298327778E+02  0.35947342259E+03  0.39385570920E+03  0.12500415236E+03 0.  0.
          5    1    3    3  501    0  0.69434666715E+02  0.97654084340E+02  0.21750892106E+03  0.24837414091E+03  0.47000000000E+01 0.  1.
         -5    1    3    3    0  501  0.10528189470E+02 -0.35355756562E+02  0.11830520673E+03  0.12401243581E+03  0.47000000000E+01 0.  1.
          5    1    4    4  502    0 -0.63131028752E+02  0.11584235444E+02  0.26475844590E+03  0.27246806414E+03  0.47000000000E+01 0. -1.
         -5    1    4    4    0  502 -0.16831827433E+02 -0.73882563222E+02  0.94714976693E+02  0.12138764506E+03  0.47000000000E+01 0. -1.
<mgrwt>
<rscale>  0 0.32202867E+03</rscale>
<asrwt>0</asrwt>
<pdfrwt beam="1">  1       21 0.11242536E+00 0.32202867E+03</pdfrwt>
<pdfrwt beam="2">  1       21 0.54580571E-02 0.32202867E+03</pdfrwt>
<totfact> 0.13757403E+05</totfact>
</mgrwt>
</event>
<event>
 8    1  0.9400004E-006  0.3195150E+03  0.7546771E-02  0.1075873E+00
         21   -1    0    0  504  503  0.00000000000E+00  0.00000000000E+00  0.33371501877E+03  0.33371501877E+03  0.00000000000E+00 0. -1.
         21   -1    0    0  503  504 -0.00000000000E+00 -0.00000000000E+00 -0.76479822677E+02  0.76479822677E+02  0.00000000000E+00 0. -1.
         25    2    1    2    0    0  0.62550061652E+02 -0.55122706264E+02  0.19831382202E+03  0.24880591314E+03  0.12499994980E+03 0.  0.
         25    2    1    2    0    0 -0.62550061652E+02  0.55122706264E+02  0.58921374070E+02  0.16138892831E+03  0.12499453948E+03 0.  0.
          5    1    3    3  501    0  0.79365398988E+02 -0.40776663620E+01  0.58053384723E+02  0.98528064008E+02  0.47000000000E+01 0.  1.
         -5    1    3    3    0  501 -0.16815337336E+02 -0.51045039902E+02  0.14026043730E+03  0.15027784913E+03  0.47000000000E+01 0.  1.
          5    1    4    4  502    0 -0.15240238938E+02 -0.16898225772E+02  0.70580630069E+02  0.74307000061E+02  0.47000000000E+01 0. -1.
         -5    1    4    4    0  502 -0.47309822714E+02  0.72020932036E+02 -0.11659255999E+02  0.87081928246E+02  0.47000000000E+01 0. -1.
<mgrwt>
<rscale>  0 0.31951504E+03</rscale>
<asrwt>0</asrwt>
<pdfrwt beam="1">  1       21 0.51340771E-01 0.31951504E+03</pdfrwt>
<pdfrwt beam="2">  1       21 0.11766127E-01 0.31951504E+03</pdfrwt>
<totfact> 0.21205941E+05</totfact>
</mgrwt>
</event>
<event>
 8    1  0.9400004E-006  0.2608367E+03  0.7546771E-02  0.1106642E+00
         21   -1    0    0  504  503  0.00000000000E+00  0.00000000000E+00  0.44619744008E+03  0.44619744008E+03  0.00000000000E+00 0.  1.
         21   -1    0    0  503  504 -0.00000000000E+00 -0.00000000000E+00 -0.38119760727E+02  0.38119760727E+02  0.00000000000E+00 0.  1.
         25    2    1    2    0    0 -0.35488634419E+01 -0.37010406342E+02  0.20710118889E+03  0.24474383638E+03  0.12500511347E+03 0.  0.
         25    2    1    2    0    0  0.35488634419E+01  0.37010406342E+02  0.20097649046E+03  0.23957336443E+03  0.12498592968E+03 0.  0.
          5    1    3    3  501    0  0.87445434923E+01 -0.28750085666E+01 -0.15789062579E+02  0.18871068128E+02  0.47000000000E+01 0. -1.
         -5    1    3    3    0  501 -0.12293406934E+02 -0.34135397775E+02  0.22289025147E+03  0.22587276825E+03  0.47000000000E+01 0. -1.
          5    1    4    4  502    0  0.33152462754E+01  0.64549805873E+02  0.39925598135E+02  0.76117091921E+02  0.47000000000E+01 0. -1.
         -5    1    4    4    0  502  0.23361716645E+00 -0.27539399532E+02  0.16105089233E+03  0.16345627251E+03  0.47000000000E+01 0. -1.
<mgrwt>
<rscale>  0 0.26083665E+03</rscale>
<asrwt>0</asrwt>
<pdfrwt beam="1">  1       21 0.68645756E-01 0.26083665E+03</pdfrwt>
<pdfrwt beam="2">  1       21 0.58645789E-02 0.26083665E+03</pdfrwt>
<totfact> 0.39030472E+05</totfact>
</mgrwt>
</event>
<event>
 8    1  0.9400004E-006  0.3367646E+03  0.7546771E-02  0.1068182E+00
         21   -1    0    0  504  503  0.00000000000E+00  0.00000000000E+00  0.17356777534E+03  0.17356777534E+03  0.00000000000E+00 0. -1.
         21   -1    0    0  503  504 -0.00000000000E+00 -0.00000000000E+00 -0.16335170936E+03  0.16335170936E+03  0.00000000000E+00 0. -1.
         25    2    1    2    0    0  0.77561750578E+02  0.48348670863E+02 -0.61060272251E+02  0.16645467723E+03  0.12500153438E+03 0.  0.
         25    2    1    2    0    0 -0.77561750578E+02 -0.48348670863E+02  0.71276338232E+02  0.17046480747E+03  0.12499806026E+03 0.  0.
          5    1    3    3  501    0 -0.73100796499E+01  0.92922147988E+01 -0.71230779103E+02  0.72358112275E+02  0.47000000000E+01 0. -1.
         -5    1    3    3    0  501  0.84871830228E+02  0.39056456064E+02  0.10170506852E+02  0.94096564954E+02  0.47000000000E+01 0. -1.
          5    1    4    4  502    0 -0.52749309611E+02 -0.11098513644E+02 -0.28393310701E+02  0.61105947027E+02  0.47000000000E+01 0. -1.
         -5    1    4    4    0  502 -0.24812440967E+02 -0.37250157219E+02  0.99669648933E+02  0.10935886045E+03  0.47000000000E+01 0. -1.
<mgrwt>
<rscale>  0 0.33676456E+03</rscale>
<asrwt>0</asrwt>
<pdfrwt beam="1">  1       21 0.26702735E-01 0.33676456E+03</pdfrwt>
<pdfrwt beam="2">  1       21 0.25131032E-01 0.33676456E+03</pdfrwt>
<totfact> 0.19296300E+05</totfact>
</mgrwt>
</event>
<event>
 8    1  0.9400004E-006  0.3299044E+03  0.7546771E-02  0.1071179E+00
         21   -1    0    0  504  503  0.00000000000E+00  0.00000000000E+00  0.11172362016E+04  0.11172362016E+04  0.00000000000E+00 0.  1.
         21   -1    0    0  503  504 -0.00000000000E+00 -0.00000000000E+00 -0.24354052810E+02  0.24354052810E+02  0.00000000000E+00 0.  1.
         25    2    1    2    0    0 -0.10517923421E+03 -0.17389625060E+01  0.62527332285E+03  0.64626440544E+03  0.12500103271E+03 0.  0.
         25    2    1    2    0    0  0.10517923421E+03  0.17389625060E+01  0.46760882596E+03  0.49532584899E+03  0.12499594896E+03 0.  0.
          5    1    3    3  501    0 -0.59565137753E+02 -0.51366618913E+02  0.18865878583E+03  0.20445234810E+03  0.47000000000E+01 0.  1.
         -5    1    3    3    0  501 -0.45614096456E+02  0.49627656407E+02  0.43661453702E+03  0.44181205734E+03  0.47000000000E+01 0.  1.
          5    1    4    4  502    0  0.55602155993E+02  0.62581656809E+02  0.26717274561E+03  0.28002040911E+03  0.47000000000E+01 0.  1.
         -5    1    4    4    0  502  0.49577078215E+02 -0.60842694303E+02  0.20043608035E+03  0.21530543988E+03  0.47000000000E+01 0.  1.
<mgrwt>
<rscale>  0 0.32990441E+03</rscale>
<asrwt>0</asrwt>
<pdfrwt beam="1">  1       21 0.17188245E+00 0.32990441E+03</pdfrwt>
<pdfrwt beam="2">  1       21 0.37467782E-02 0.32990441E+03</pdfrwt>
<totfact> 0.85330439E+04</totfact>
</mgrwt>
</event>
<event>
 8    1  0.9400004E-006  0.3109112E+03  0.7546771E-02  0.1079910E+00
         21   -1    0    0  504  503  0.00000000000E+00  0.00000000000E+00  0.41863508711E+03  0.41863508711E+03  0.00000000000E+00 0.  1.
         21   -1    0    0  503  504 -0.00000000000E+00 -0.00000000000E+00 -0.57726744335E+02  0.57726744335E+02  0.00000000000E+00 0.  1.
         25    2    1    2    0    0  0.58295893079E+02 -0.71474947337E+02  0.18937791628E+03  0.24494086909E+03  0.12499981972E+03 0.  0.
         25    2    1    2    0    0 -0.58295893079E+02  0.71474947337E+02  0.17153042650E+03  0.23142096236E+03  0.12500358137E+03 0.  0.
          5    1    3    3  501    0 -0.24041283578E+02 -0.57231250424E+02  0.40859239667E+02  0.74464533889E+02  0.47000000000E+01 0. -1.
         -5    1    3    3    0  501  0.82337176657E+02 -0.14243696913E+02  0.14851867661E+03  0.17047633520E+03  0.47000000000E+01 0. -1.
          5    1    4    4  502    0  0.27347327702E+02 -0.11725744973E+02  0.12779890508E+02  0.32722851786E+02  0.47000000000E+01 0. -1.
         -5    1    4    4    0  502 -0.85643220781E+02  0.83200692310E+02  0.15875053600E+03  0.19869811057E+03  0.47000000000E+01 0. -1.
<mgrwt>
<rscale>  0 0.31091118E+03</rscale>
<asrwt>0</asrwt>
<pdfrwt beam="1">  1       21 0.64405396E-01 0.31091118E+03</pdfrwt>
<pdfrwt beam="2">  1       21 0.88810379E-02 0.31091118E+03</pdfrwt>
<totfact> 0.21542549E+05</totfact>
</mgrwt>
</event>
<event>
 8    1  0.9400004E-006  0.2845449E+03  0.7546771E-02  0.1093232E+00
         21   -1    0    0  504  503  0.00000000000E+00  0.00000000000E+00  0.12355226355E+04  0.12355226355E+04  0.00000000000E+00 0.  1.
         21   -1    0    0  503  504 -0.00000000000E+00 -0.00000000000E+00 -0.16382901129E+02  0.16382901129E+02  0.00000000000E+00 0.  1.
         25    2    1    2    0    0  0.34000255922E+02 -0.39479554706E+02  0.80142210072E+03  0.81278399838E+03  0.12500316740E+03 0.  0.
         25    2    1    2    0    0 -0.34000255922E+02  0.39479554706E+02  0.41771763367E+03  0.43912153827E+03  0.12500020499E+03 0.  0.
          5    1    3    3  501    0  0.31884972485E+02 -0.73976857524E+02  0.71573951440E+03  0.72027381557E+03  0.47000000000E+01 0.  1.
         -5    1    3    3    0  501  0.21152834365E+01  0.34497302819E+02  0.85682586318E+02  0.92510182812E+02  0.47000000000E+01 0.  1.
          5    1    4    4  502    0 -0.29044206828E+01  0.23546632726E+02  0.47454805680E+01  0.24647295147E+02  0.47000000000E+01 0.  1.
         -5    1    4    4    0  502 -0.31095835239E+02  0.15932921980E+02  0.41297215311E+03  0.41447424312E+03  0.47000000000E+01 0.  1.
<mgrwt>
<rscale>  0 0.28454487E+03</rscale>
<asrwt>0</asrwt>
<pdfrwt beam="1">  1       21 0.19008033E+00 0.28454487E+03</pdfrwt>
<pdfrwt beam="2">  1       21 0.25204473E-02 0.28454487E+03</pdfrwt>
<totfact> 0.12594349E+05</totfact>
</mgrwt>
</event>
<event>
 8    1  0.9400004E-006  0.2877307E+03  0.7546771E-02  0.1091540E+00
         21   -1    0    0  504  503  0.00000000000E+00  0.00000000000E+00  0.30896837592E+02  0.30896837592E+02  0.00000000000E+00 0.  1.
         21   -1    0    0  503  504 -0.00000000000E+00 -0.00000000000E+00 -0.66988233236E+03  0.66988233236E+03  0.00000000000E+00 0.  1.
         25    2    1    2    0    0 -0.28128189900E+02  0.61301045693E+02 -0.26384120335E+03  0.29964586716E+03  0.12500580728E+03 0.  0.
         25    2    1    2    0    0  0.28128189900E+02 -0.61301045693E+02 -0.37514429142E+03  0.40113330279E+03  0.12500269578E+03 0.  0.
          5    1    3    3  501    0 -0.32942930717E+02  0.64052659892E+02 -0.55175957400E+02  0.90854037876E+02  0.47000000000E+01 0. -1.
         -5    1    3    3    0  501  0.48147408169E+01 -0.27516141994E+01 -0.20866524595E+03  0.20879182929E+03  0.47000000000E+01 0. -1.
          5    1    4    4  502    0 -0.35801625075E+02 -0.14603581732E+02 -0.36683839463E+02  0.53505280442E+02  0.47000000000E+01 0.  1.
         -5    1    4    4    0  502  0.63929814975E+02 -0.46697463960E+02 -0.33846045196E+03  0.34762802235E+03  0.47000000000E+01 0.  1.
<mgrwt>
<rscale>  0 0.28773075E+03</rscale>
<asrwt>0</asrwt>
<pdfrwt beam="1">  1       21 0.47533599E-02 0.28773075E+03</pdfrwt>
<pdfrwt beam="2">  1       21 0.10305881E+00 0.28773075E+03</pdfrwt>
<totfact> 0.21758672E+05</totfact>
</mgrwt>
</event>
<event>
 8    1  0.9400004E-006  0.2715637E+03  0.7546771E-02  0.1100388E+00
         21   -1    0    0  504  503  0.00000000000E+00  0.00000000000E+00  0.61482097589E+02  0.61482097589E+02  0.00000000000E+00 0.  1.
         21   -1    0    0  503  504 -0.00000000000E+00 -0.00000000000E+00 -0.29987116425E+03  0.29987116425E+03  0.00000000000E+00 0.  1.
         25    2    1    2    0    0  0.28322252471E+02 -0.21214407039E+02 -0.17175501155E+03  0.21534910908E+03  0.12499301475E+03 0.  0.
         25    2    1    2    0    0 -0.28322252471E+02  0.21214407039E+02 -0.66634055111E+02  0.14600415276E+03  0.12499965709E+03 0.  0.
          5    1    3    3  501    0  0.40485668001E+02  0.63659210396E+01 -0.35296219391E+00  0.41253228316E+02  0.47000000000E+01 0. -1.
         -5    1    3    3    0  501 -0.12163415530E+02 -0.27580328079E+02 -0.17140204936E+03  0.17409588076E+03  0.47000000000E+01 0. -1.
          5    1    4    4  502    0 -0.41270339932E+02  0.31084341393E+02  0.21570985186E+02  0.56186071582E+02  0.47000000000E+01 0.  1.
         -5    1    4    4    0  502  0.12948087461E+02 -0.98699343535E+01 -0.88205040297E+02  0.89818081180E+02  0.47000000000E+01 0.  1.
<mgrwt>
<rscale>  0 0.27156368E+03</rscale>
<asrwt>0</asrwt>
<pdfrwt beam="1">  1       21 0.94587846E-02 0.27156368E+03</pdfrwt>
<pdfrwt beam="2">  1       21 0.46134023E-01 0.27156368E+03</pdfrwt>
<totfact> 0.39610851E+05</totfact>
</mgrwt>
</event>
<event>
 8    1  0.9400004E-006  0.4028258E+03  0.7546771E-02  0.1042806E+00
         21   -1    0    0  504  503  0.00000000000E+00  0.00000000000E+00  0.16922369243E+04  0.16922369243E+04  0.00000000000E+00 0. -1.
         21   -1    0    0  503  504 -0.00000000000E+00 -0.00000000000E+00 -0.23972507329E+02  0.23972507329E+02  0.00000000000E+00 0. -1.
         25    2    1    2    0    0 -0.86831029509E+02  0.13095755731E+03  0.76599180688E+03  0.79186851135E+03  0.12499112588E+03 0.  0.
         25    2    1    2    0    0  0.86831029509E+02 -0.13095755731E+03  0.90227261007E+03  0.92434092026E+03  0.12498305680E+03 0.  0.
          5    1    3    3  501    0 -0.40920795637E+02  0.14597341565E+03  0.60485280727E+03  0.62357979285E+03  0.47000000000E+01 0. -1.
         -5    1    3    3    0  501 -0.45910233872E+02 -0.15015858340E+02  0.16113899962E+03  0.16828871850E+03  0.47000000000E+01 0. -1.
          5    1    4    4  502    0  0.82496994516E+02 -0.13828174780E+03  0.58092280451E+03  0.60284408488E+03  0.47000000000E+01 0. -1.
         -5    1    4    4    0  502  0.43340349935E+01  0.73241904895E+01  0.32134980556E+03  0.32149683538E+03  0.47000000000E+01 0. -1.
<mgrwt>
<rscale>  0 0.40282583E+03</rscale>
<asrwt>0</asrwt>
<pdfrwt beam="1">  1       21 0.26034405E+00 0.40282583E+03</pdfrwt>
<pdfrwt beam="2">  1       21 0.36880794E-02 0.40282583E+03</pdfrwt>
<totfact> 0.22887834E+04</totfact>
</mgrwt>
</event>
<event>
 8    1  0.9400004E-006  0.2904720E+03  0.7546771E-02  0.1090103E+00
         21   -1    0    0  504  503  0.00000000000E+00  0.00000000000E+00  0.77167382598E+03  0.77167382598E+03  0.00000000000E+00 0.  1.
         21   -1    0    0  503  504 -0.00000000000E+00 -0.00000000000E+00 -0.27334727106E+02  0.27334727106E+02  0.00000000000E+00 0.  1.
         25    2    1    2    0    0  0.72170029641E+02 -0.15309413662E+02  0.38619506423E+03  0.41257095352E+03  0.12500109091E+03 0.  0.
         25    2    1    2    0    0 -0.72170029641E+02  0.15309413662E+02  0.35814403464E+03  0.38643759956E+03  0.12499590986E+03 0.  0.
          5    1    3    3  501    0  0.70410606591E+02 -0.30554335194E+00  0.38997200407E+03  0.39630543882E+03  0.47000000000E+01 0.  1.
         -5    1    3    3    0  501  0.17594230491E+01 -0.15003870311E+02 -0.37769398476E+01  0.16265514697E+02  0.47000000000E+01 0.  1.
          5    1    4    4  502    0 -0.72284754834E+02  0.56333733893E+02  0.16377723200E+03  0.18773291420E+03  0.47000000000E+01 0.  1.
         -5    1    4    4    0  502  0.11472519335E+00 -0.41024320230E+02  0.19436680265E+03  0.19870468536E+03  0.47000000000E+01 0.  1.
<mgrwt>
<rscale>  0 0.29047198E+03</rscale>
<asrwt>0</asrwt>
<pdfrwt beam="1">  1       21 0.11871903E+00 0.29047198E+03</pdfrwt>
<pdfrwt beam="2">  1       21 0.42053432E-02 0.29047198E+03</pdfrwt>
<totfact> 0.18927205E+05</totfact>
</mgrwt>
</event>
<event>
 8    1  0.9400004E-006  0.4102338E+03  0.7546771E-02  0.1040293E+00
         21   -1    0    0  504  503  0.00000000000E+00  0.00000000000E+00  0.47412375602E+03  0.47412375602E+03  0.00000000000E+00 0. -1.
         21   -1    0    0  503  504 -0.00000000000E+00 -0.00000000000E+00 -0.88738330460E+02  0.88738330460E+02  0.00000000000E+00 0. -1.
         25    2    1    2    0    0  0.11899819611E+03  0.95675968636E+02  0.26950804130E+03  0.33402310753E+03  0.12498956113E+03 0.  0.
         25    2    1    2    0    0 -0.11899819611E+03 -0.95675968636E+02  0.11587738426E+03  0.22883897895E+03  0.12500099380E+03 0.  0.
          5    1    3    3  501    0  0.56056766918E+02  0.11191687006E+03  0.21603166979E+03  0.24971888049E+03  0.47000000000E+01 0.  1.
         -5    1    3    3    0  501  0.62941429188E+02 -0.16240901426E+02  0.53476371510E+02  0.84304227042E+02  0.47000000000E+01 0.  1.
          5    1    4    4  502    0 -0.82025040615E+02 -0.12495854282E+03  0.81763197396E+02  0.17044076730E+03  0.47000000000E+01 0.  1.
         -5    1    4    4    0  502 -0.36973155491E+02  0.29282574182E+02  0.34114186866E+02  0.58398211644E+02  0.47000000000E+01 0.  1.
<mgrwt>
<rscale>  0 0.41023384E+03</rscale>
<asrwt>0</asrwt>
<pdfrwt beam="1">  1       21 0.72942115E-01 0.41023384E+03</pdfrwt>
<pdfrwt beam="2">  1       21 0.13652051E-01 0.41023384E+03</pdfrwt>
<totfact> 0.73511823E+04</totfact>
</mgrwt>
</event>
<event>
 8    1  0.9400004E-006  0.3033310E+03  0.7546771E-02  0.1083587E+00
         21   -1    0    0  504  503  0.00000000000E+00  0.00000000000E+00  0.10489459235E+04  0.10489459235E+04  0.00000000000E+00 0.  1.
         21   -1    0    0  503  504 -0.00000000000E+00 -0.00000000000E+00 -0.21929090158E+02  0.21929090158E+02  0.00000000000E+00 0.  1.
         25    2    1    2    0    0  0.10146405607E+02  0.16429043476E+02  0.21804584736E+03  0.25207612385E+03  0.12500207057E+03 0.  0.
         25    2    1    2    0    0 -0.10146405607E+02 -0.16429043476E+02  0.80897098598E+03  0.81879888981E+03  0.12499881111E+03 0.  0.
          5    1    3    3  501    0  0.60695783200E+02  0.27430231262E+02  0.16420439297E+03  0.17726129966E+03  0.47000000000E+01 0. -1.
         -5    1    3    3    0  501 -0.50549377592E+02 -0.11001187786E+02  0.53841454387E+02  0.74814824188E+02  0.47000000000E+01 0. -1.
          5    1    4    4  502    0 -0.20159332001E+01  0.54586792357E+02  0.35823340976E+03  0.36240453605E+03  0.47000000000E+01 0.  1.
         -5    1    4    4    0  502 -0.81304724071E+01 -0.71015835833E+02  0.45073757622E+03  0.45639435375E+03  0.47000000000E+01 0.  1.
<mgrwt>
<rscale>  0 0.30333104E+03</rscale>
<asrwt>0</asrwt>
<pdfrwt beam="1">  1       21 0.16137626E+00 0.30333104E+03</pdfrwt>
<pdfrwt beam="2">  1       21 0.33737070E-02 0.30333104E+03</pdfrwt>
<totfact> 0.12248282E+05</totfact>
</mgrwt>
</event>
<event>
 8    1  0.9400004E-006  0.3587313E+03  0.7546771E-02  0.1059087E+00
         21   -1    0    0  504  503  0.00000000000E+00  0.00000000000E+00  0.60930998368E+02  0.60930998368E+02  0.00000000000E+00 0.  1.
         21   -1    0    0  503  504 -0.00000000000E+00 -0.00000000000E+00 -0.52800760567E+03  0.52800760567E+03  0.00000000000E+00 0.  1.
         25    2    1    2    0    0  0.13386412414E+02  0.70865818743E+02 -0.40839792429E+03  0.43314633861E+03  0.12500290311E+03 0.  0.
         25    2    1    2    0    0 -0.13386412414E+02 -0.70865818743E+02 -0.58678683014E+02  0.15579226543E+03  0.12500752706E+03 0.  0.
          5    1    3    3  501    0  0.31866230708E+02 -0.28383246267E+02 -0.10895277205E+03  0.11710619909E+03  0.47000000000E+01 0.  1.
         -5    1    3    3    0  501 -0.18479818294E+02  0.99249065010E+02 -0.29944515224E+03  0.31604013952E+03  0.47000000000E+01 0.  1.
          5    1    4    4  502    0  0.18769352862E+02 -0.19170230401E+02 -0.85031024063E+02  0.89286904940E+02  0.47000000000E+01 0. -1.
         -5    1    4    4    0  502 -0.32155765276E+02 -0.51695588342E+02  0.26352341050E+02  0.66505360485E+02  0.47000000000E+01 0. -1.
<mgrwt>
<rscale>  0 0.35873127E+03</rscale>
<asrwt>0</asrwt>
<pdfrwt beam="1">  1       21 0.93739995E-02 0.35873127E+03</pdfrwt>
<pdfrwt beam="2">  1       21 0.81231942E-01 0.35873127E+03</pdfrwt>
<totfact> 0.11483579E+05</totfact>
</mgrwt>
</event>
<event>
 8    1  0.9400004E-006  0.2805165E+03  0.7546771E-02  0.1095407E+00
         21   -1    0    0  504  503  0.00000000000E+00  0.00000000000E+00  0.26801020374E+04  0.26801020374E+04  0.00000000000E+00 0.  1.
         21   -1    0    0  503  504 -0.00000000000E+00 -0.00000000000E+00 -0.73401603368E+01  0.73401603368E+01  0.00000000000E+00 0.  1.
         25    2    1    2    0    0 -0.26314646063E+02  0.37856628719E+02  0.91661026343E+03  0.92624404671E+03  0.12501229584E+03 0.  0.
         25    2    1    2    0    0  0.26314646063E+02 -0.37856628719E+02  0.17561516136E+04  0.17611981510E+04  0.12499940866E+03 0.  0.
          5    1    3    3  501    0 -0.66491944463E+02  0.57713681448E+02  0.60133416430E+03  0.60776386439E+03  0.47000000000E+01 0. -1.
         -5    1    3    3    0  501  0.40177298400E+02 -0.19857052728E+02  0.31527609913E+03  0.31848018232E+03  0.47000000000E+01 0. -1.
          5    1    4    4  502    0  0.50612154505E+01 -0.25873568711E+02  0.71298434734E+02  0.76161763735E+02  0.47000000000E+01 0.  1.
         -5    1    4    4    0  502  0.21253430612E+02 -0.11983060009E+02  0.16848531789E+04  0.16850363873E+04  0.47000000000E+01 0.  1.
<mgrwt>
<rscale>  0 0.28051651E+03</rscale>
<asrwt>0</asrwt>
<pdfrwt beam="1">  1       21 0.41232261E+00 0.28051651E+03</pdfrwt>
<pdfrwt beam="2">  1       21 0.11292576E-02 0.28051651E+03</pdfrwt>
<totfact> 0.20633127E+04</totfact>
</mgrwt>
</event>
<event>
 8    1  0.9400004E-006  0.2917602E+03  0.7546771E-02  0.1089434E+00
         21   -1    0    0  504  503  0.00000000000E+00  0.00000000000E+00  0.13902888703E+03  0.13902888703E+03  0.00000000000E+00 0.  1.
         21   -1    0    0  503  504 -0.00000000000E+00 -0.00000000000E+00 -0.15306891646E+03  0.15306891646E+03  0.00000000000E+00 0.  1.
         25    2    1    2    0    0 -0.60527979314E+00  0.40698976561E+02 -0.70332033500E+02  0.14908916975E+03  0.12499685014E+03 0.  0.
         25    2    1    2    0    0  0.60527979314E+00 -0.40698976561E+02  0.56292004075E+02  0.14300863374E+03  0.12500362612E+03 0.  0.
          5    1    3    3  501    0  0.20574596374E+02  0.79071693356E+02 -0.65345120916E+02  0.10472689021E+03  0.47000000000E+01 0.  1.
         -5    1    3    3    0  501 -0.21179876168E+02 -0.38372716795E+02 -0.49869125843E+01  0.44362279538E+02  0.47000000000E+01 0.  1.
          5    1    4    4  502    0 -0.51745797171E+00 -0.80346464427E+02  0.88167894614E+01  0.80966955513E+02  0.47000000000E+01 0. -1.
         -5    1    4    4    0  502  0.11227377648E+01  0.39647487866E+02  0.47475214614E+02  0.62041678223E+02  0.47000000000E+01 0. -1.
<mgrwt>
<rscale>  0 0.29176018E+03</rscale>
<asrwt>0</asrwt>
<pdfrwt beam="1">  1       21 0.21389059E-01 0.29176018E+03</pdfrwt>
<pdfrwt beam="2">  1       21 0.23549064E-01 0.29176018E+03</pdfrwt>
<totfact> 0.33797775E+05</totfact>
</mgrwt>
</event>
<event>
 8    1  0.9400004E-006  0.2735668E+03  0.7546771E-02  0.1099255E+00
         21   -1    0    0  504  503  0.00000000000E+00  0.00000000000E+00  0.39503873361E+03  0.39503873361E+03  0.00000000000E+00 0.  1.
         21   -1    0    0  503  504 -0.00000000000E+00 -0.00000000000E+00 -0.47361676837E+02  0.47361676837E+02  0.00000000000E+00 0.  1.
         25    2    1    2    0    0 -0.70138501441E+01 -0.53891847386E+02  0.15546645343E+03  0.20676336385E+03  0.12501098023E+03 0.  0.
         25    2    1    2    0    0  0.70138501441E+01  0.53891847386E+02  0.19221060334E+03  0.23563704660E+03  0.12500550542E+03 0.  0.
          5    1    3    3  501    0 -0.37593278650E+02 -0.52410405752E+02  0.19839736429E+02  0.67644736472E+02  0.47000000000E+01 0. -1.
         -5    1    3    3    0  501  0.30579428506E+02 -0.14814416338E+01  0.13562671700E+03  0.13911862737E+03  0.47000000000E+01 0. -1.
          5    1    4    4  502    0  0.31809386487E+02  0.50825248387E+02  0.20016009692E+03  0.20900047211E+03  0.47000000000E+01 0.  1.
         -5    1    4    4    0  502 -0.24795536343E+02  0.30665989996E+01 -0.79494935887E+01  0.26636574484E+02  0.47000000000E+01 0.  1.
<mgrwt>
<rscale>  0 0.27356679E+03</rscale>
<asrwt>0</asrwt>
<pdfrwt beam="1">  1       21 0.60775188E-01 0.27356679E+03</pdfrwt>
<pdfrwt beam="2">  1       21 0.72864121E-02 0.27356679E+03</pdfrwt>
<totfact> 0.34902096E+05</totfact>
</mgrwt>
</event>
<event>
 8    1  0.9400004E-006  0.3955351E+03  0.7546771E-02  0.1045337E+00
         21   -1    0    0  504  503  0.00000000000E+00  0.00000000000E+00  0.96430124893E+02  0.96430124893E+02  0.00000000000E+00 0. -1.
         21   -1    0    0  503  504 -0.00000000000E+00 -0.00000000000E+00 -0.40559947220E+03  0.40559947220E+03  0.00000000000E+00 0. -1.
         25    2    1    2    0    0  0.42646692474E+00  0.49602284740E+01 -0.34901203653E+03  0.37075526282E+03  0.12500111010E+03 0.  0.
         25    2    1    2    0    0 -0.42646692474E+00 -0.49602284740E+01  0.39842689230E+02  0.13127433427E+03  0.12498289967E+03 0.  0.
          5    1    3    3  501    0  0.30628975493E+02  0.22745304257E+02 -0.27400985443E+02  0.47205794228E+02  0.47000000000E+01 0.  1.
         -5    1    3    3    0  501 -0.30202508569E+02 -0.17785075783E+02 -0.32161105109E+03  0.32354946859E+03  0.47000000000E+01 0.  1.
          5    1    4    4  502    0 -0.56258083283E+01  0.28201886626E+02 -0.37112733214E+02  0.47185178767E+02  0.47000000000E+01 0.  1.
         -5    1    4    4    0  502  0.51993414036E+01 -0.33162115100E+02  0.76955422444E+02  0.84089155499E+02  0.47000000000E+01 0.  1.
<mgrwt>
<rscale>  0 0.39553512E+03</rscale>
<asrwt>0</asrwt>
<pdfrwt beam="1">  1       21 0.14835404E-01 0.39553512E+03</pdfrwt>
<pdfrwt beam="2">  1       21 0.62399920E-01 0.39553512E+03</pdfrwt>
<totfact> 0.89642594E+04</totfact>
</mgrwt>
</event>
<event>
 8    1  0.9400004E-006  0.3194905E+03  0.7546771E-02  0.1075884E+00
         21   -1    0    0  504  503  0.00000000000E+00  0.00000000000E+00  0.39383281741E+03  0.39383281741E+03  0.00000000000E+00 0.  1.
         21   -1    0    0  503  504 -0.00000000000E+00 -0.00000000000E+00 -0.64795357275E+02  0.64795357275E+02  0.00000000000E+00 0.  1.
         25    2    1    2    0    0  0.46989881351E+02 -0.61229284844E+02  0.25462993904E+03  0.29397017752E+03  0.12499994059E+03 0.  0.
         25    2    1    2    0    0 -0.46989881351E+02  0.61229284844E+02  0.74407521101E+02  0.16465799717E+03  0.12497480771E+03 0.  0.
          5    1    3    3  501    0 -0.33579140636E+02 -0.53404500707E+02  0.84991949823E+02  0.10594961499E+03  0.47000000000E+01 0. -1.
         -5    1    3    3    0  501  0.80569021987E+02 -0.78247841371E+01  0.16963798922E+03  0.18802056253E+03  0.47000000000E+01 0. -1.
          5    1    4    4  502    0 -0.46583167669E+02 -0.26915509344E+02  0.88953872410E+01  0.54732568618E+02  0.47000000000E+01 0. -1.
         -5    1    4    4    0  502 -0.40671368207E+00  0.88144794188E+02  0.65512133860E+02  0.10992542855E+03  0.47000000000E+01 0. -1.
<mgrwt>
<rscale>  0 0.31949046E+03</rscale>
<asrwt>0</asrwt>
<pdfrwt beam="1">  1       21 0.60589663E-01 0.31949046E+03</pdfrwt>
<pdfrwt beam="2">  1       21 0.99685167E-02 0.31949046E+03</pdfrwt>
<totfact> 0.20012637E+05</totfact>
</mgrwt>
</event>
<event>
 8    1  0.9400004E-006  0.2769790E+03  0.7546771E-02  0.1097350E+00
         21   -1    0    0  504  503  0.00000000000E+00  0.00000000000E+00  0.38650459102E+03  0.38650459102E+03  0.00000000000E+00 0.  1.
         21   -1    0    0  503  504 -0.00000000000E+00 -0.00000000000E+00 -0.49622543159E+02  0.49622543159E+02  0.00000000000E+00 0.  1.
         25    2    1    2    0    0 -0.14232973072E+01 -0.58751698421E+02  0.18420875662E+03  0.23024363730E+03  0.12500191461E+03 0.  0.
         25    2    1    2    0    0  0.14232973072E+01  0.58751698421E+02  0.15267329124E+03  0.20588349688E+03  0.12500037035E+03 0.  0.
          5    1    3    3  501    0  0.57161833228E+02 -0.48801690607E+02  0.77810318999E+02  0.10828488319E+03  0.47000000000E+01 0. -1.
         -5    1    3    3    0  501 -0.58585130535E+02 -0.99500078139E+01  0.10639843762E+03  0.12195875411E+03  0.47000000000E+01 0. -1.
          5    1    4    4  502    0  0.39911064151E+02  0.83093934494E+02  0.10446390627E+03  0.13939975862E+03  0.47000000000E+01 0. -1.
         -5    1    4    4    0  502 -0.38487766843E+02 -0.24342236074E+02  0.48209384973E+02  0.66483738261E+02  0.47000000000E+01 0. -1.
<mgrwt>
<rscale>  0 0.27697899E+03</rscale>
<asrwt>0</asrwt>
<pdfrwt beam="1">  1       21 0.59462243E-01 0.27697899E+03</pdfrwt>
<pdfrwt beam="2">  1       21 0.76342376E-02 0.27697899E+03</pdfrwt>
<totfact> 0.33707000E+05</totfact>
</mgrwt>
</event>
<event>
 8    1  0.9400004E-006  0.2852314E+03  0.7546771E-02  0.1092865E+00
         21   -1    0    0  504  503  0.00000000000E+00  0.00000000000E+00  0.22939657742E+03  0.22939657742E+03  0.00000000000E+00 0. -1.
         21   -1    0    0  503  504 -0.00000000000E+00 -0.00000000000E+00 -0.88664067199E+02  0.88664067199E+02  0.00000000000E+00 0. -1.
         25    2    1    2    0    0  0.13707059629E+02  0.56673213635E+02  0.29880255735E+02  0.14110626959E+03  0.12497364925E+03 0.  0.
         25    2    1    2    0    0 -0.13707059629E+02 -0.56673213635E+02  0.11085225448E+03  0.17695437503E+03  0.12499956756E+03 0.  0.
          5    1    3    3  501    0 -0.13777422755E+02 -0.18147215786E+02  0.53082103102E+02  0.57956349853E+02  0.47000000000E+01 0.  1.
         -5    1    3    3    0  501  0.27484482384E+02  0.74820429421E+02 -0.23201847366E+02  0.83149919735E+02  0.47000000000E+01 0.  1.
          5    1    4    4  502    0 -0.24356490499E+02 -0.89192808564E+02  0.10807071281E+03  0.14230237067E+03  0.47000000000E+01 0.  1.
         -5    1    4    4    0  502  0.10649430870E+02  0.32519594929E+02  0.27815416668E+01  0.34652004361E+02  0.47000000000E+01 0.  1.
<mgrwt>
<rscale>  0 0.28523137E+03</rscale>
<asrwt>0</asrwt>
<pdfrwt beam="1">  1       21 0.35291781E-01 0.28523137E+03</pdfrwt>
<pdfrwt beam="2">  1       21 0.13640626E-01 0.28523137E+03</pdfrwt>
<totfact> 0.35347024E+05</totfact>
</mgrwt>
</event>
<event>
 8    1  0.9400004E-006  0.3491016E+03  0.7546771E-02  0.1062984E+00
         21   -1    0    0  504  503  0.00000000000E+00  0.00000000000E+00  0.49894771827E+02  0.49894771827E+02  0.00000000000E+00 0.  1.
         21   -1    0    0  503  504 -0.00000000000E+00 -0.00000000000E+00 -0.61064461773E+03  0.61064461773E+03  0.00000000000E+00 0.  1.
         25    2    1    2    0    0 -0.38175157342E+02 -0.10501326550E+03 -0.37228315465E+03  0.40829243001E+03  0.12499133010E+03 0.  0.
         25    2    1    2    0    0  0.38175157342E+02  0.10501326550E+03 -0.18846669126E+03  0.25224695955E+03  0.12499482517E+03 0.  0.
          5    1    3    3  501    0 -0.58771737941E+02 -0.89113168147E+02 -0.36577460935E+03  0.38106223739E+03  0.47000000000E+01 0. -1.
         -5    1    3    3    0  501  0.20596580599E+02 -0.15900097352E+02 -0.65085452931E+01  0.27230192618E+02  0.47000000000E+01 0. -1.
          5    1    4    4  502    0 -0.60460450974E+00  0.30293757107E+02 -0.16051867977E+03  0.16342097118E+03  0.47000000000E+01 0.  1.
         -5    1    4    4    0  502  0.38779761852E+02  0.74719508392E+02 -0.27948011485E+02  0.88825988368E+02  0.47000000000E+01 0.  1.
<mgrwt>
<rscale>  0 0.34910155E+03</rscale>
<asrwt>0</asrwt>
<pdfrwt beam="1">  1       21 0.76761188E-02 0.34910155E+03</pdfrwt>
<pdfrwt beam="2">  1       21 0.93945325E-01 0.34910155E+03</pdfrwt>
<totfact> 0.11668205E+05</totfact>
</mgrwt>
</event>
<event>
 8    1  0.9400004E-006  0.2872756E+03  0.7546771E-02  0.1091780E+00
         21   -1    0    0  504  503  0.00000000000E+00  0.00000000000E+00  0.11047283178E+03  0.11047283178E+03  0.00000000000E+00 0.  1.
         21   -1    0    0  503  504 -0.00000000000E+00 -0.00000000000E+00 -0.18675921227E+03  0.18675921227E+03  0.00000000000E+00 0.  1.
         25    2    1    2    0    0 -0.12089735053E+02 -0.39707328065E+02 -0.97432993111E+02  0.16383209530E+03  0.12499973484E+03 0.  0.
         25    2    1    2    0    0  0.12089735053E+02  0.39707328065E+02  0.21146612619E+02  0.13339994874E+03  0.12500213400E+03 0.  0.
          5    1    3    3  501    0 -0.59788131385E+02  0.10464924333E+02 -0.33525946082E+02  0.69499743572E+02  0.47000000000E+01 0.  1.
         -5    1    3    3    0  501  0.47698396332E+02 -0.50172252398E+02 -0.63907047029E+02  0.94332351732E+02  0.47000000000E+01 0.  1.
          5    1    4    4  502    0 -0.51409051577E+01 -0.64190015911E+01 -0.47697462182E+02  0.48628904839E+02  0.47000000000E+01 0. -1.
         -5    1    4    4    0  502  0.17230640211E+02  0.46126329656E+02  0.68844074801E+02  0.84771043905E+02  0.47000000000E+01 0. -1.
<mgrwt>
<rscale>  0 0.28727561E+03</rscale>
<asrwt>0</asrwt>
<pdfrwt beam="1">  1       21 0.16995820E-01 0.28727561E+03</pdfrwt>
<pdfrwt beam="2">  1       21 0.28732186E-01 0.28727561E+03</pdfrwt>
<totfact> 0.35432521E+05</totfact>
</mgrwt>
</event>
<event>
 8    1  0.9400004E-006  0.3507242E+03  0.7546771E-02  0.1062318E+00
         21   -1    0    0  504  503  0.00000000000E+00  0.00000000000E+00  0.21392142343E+03  0.21392142343E+03  0.00000000000E+00 0. -1.
         21   -1    0    0  503  504 -0.00000000000E+00 -0.00000000000E+00 -0.14375305427E+03  0.14375305427E+03  0.00000000000E+00 0. -1.
         25    2    1    2    0    0 -0.11644755805E+02  0.10010917620E+03 -0.36809701719E+02  0.16473471221E+03  0.12500049508E+03 0.  0.
         25    2    1    2    0    0  0.11644755805E+02 -0.10010917620E+03  0.10697807088E+03  0.19293976548E+03  0.12499599177E+03 0.  0.
          5    1    3    3  501    0 -0.39289333309E+02  0.10984753629E+03 -0.55892666651E+02  0.12944579223E+03  0.47000000000E+01 0. -1.
         -5    1    3    3    0  501  0.27644577504E+02 -0.97383600951E+01  0.19082964933E+02  0.35288919980E+02  0.47000000000E+01 0. -1.
          5    1    4    4  502    0 -0.30041659233E+02 -0.10032361810E+03  0.36654560920E+02  0.11105393498E+03  0.47000000000E+01 0. -1.
         -5    1    4    4    0  502  0.41686415039E+02  0.21444190229E+00  0.70323509961E+02  0.81885830504E+02  0.47000000000E+01 0. -1.
<mgrwt>
<rscale>  0 0.35072415E+03</rscale>
<asrwt>0</asrwt>
<pdfrwt beam="1">  1       21 0.32910988E-01 0.35072415E+03</pdfrwt>
<pdfrwt beam="2">  1       21 0.22115854E-01 0.35072415E+03</pdfrwt>
<totfact> 0.16288758E+05</totfact>
</mgrwt>
</event>
<event>
 8    1  0.9400004E-006  0.3777983E+03  0.7546771E-02  0.1051751E+00
         21   -1    0    0  504  503  0.00000000000E+00  0.00000000000E+00  0.90303887763E+02  0.90303887763E+02  0.00000000000E+00 0.  1.
         21   -1    0    0  503  504 -0.00000000000E+00 -0.00000000000E+00 -0.39514232569E+03  0.39514232569E+03  0.00000000000E+00 0.  1.
         25    2    1    2    0    0 -0.60879862202E+01 -0.12568456237E+03 -0.68908360138E+02  0.19028184393E+03  0.12500058095E+03 0.  0.
         25    2    1    2    0    0  0.60879862202E+01  0.12568456237E+03 -0.23593007779E+03  0.29516436952E+03  0.12500132253E+03 0.  0.
          5    1    3    3  501    0 -0.70146532286E+01 -0.10528207501E+03  0.12372801632E+02  0.10634235703E+03  0.47000000000E+01 0. -1.
         -5    1    3    3    0  501  0.92666700835E+00 -0.20402487360E+02 -0.81281161770E+02  0.83939486899E+02  0.47000000000E+01 0. -1.
          5    1    4    4  502    0  0.25159835861E+02  0.14585689289E+03 -0.20945266546E+03  0.25651463820E+03  0.47000000000E+01 0.  1.
         -5    1    4    4    0  502 -0.19071849641E+02 -0.20172330518E+02 -0.26477412337E+02  0.38649731323E+02  0.47000000000E+01 0.  1.
<mgrwt>
<rscale>  0 0.37779830E+03</rscale>
<asrwt>0</asrwt>
<pdfrwt beam="1">  1       21 0.13892906E-01 0.37779830E+03</pdfrwt>
<pdfrwt beam="2">  1       21 0.60791127E-01 0.37779830E+03</pdfrwt>
<totfact> 0.10755231E+05</totfact>
</mgrwt>
</event>
<event>
 8    1  0.9400004E-006  0.6687784E+03  0.7546771E-02  0.9772167E-01
         21   -1    0    0  504  503  0.00000000000E+00  0.00000000000E+00  0.15400458004E+04  0.15400458004E+04  0.00000000000E+00 0.  1.
         21   -1    0    0  503  504 -0.00000000000E+00 -0.00000000000E+00 -0.72605714067E+02  0.72605714067E+02  0.00000000000E+00 0.  1.
         25    2    1    2    0    0 -0.30005318890E+03 -0.68983016462E+02  0.82387245546E+03  0.88836185344E+03  0.12502154635E+03 0.  0.
         25    2    1    2    0    0  0.30005318890E+03  0.68983016462E+02  0.64356763088E+03  0.72428966103E+03  0.12500257931E+03 0.  0.
          5    1    3    3  501    0 -0.27623963043E+03 -0.27020729997E+02  0.62868813017E+03  0.68724763243E+03  0.47000000000E+01 0. -1.
         -5    1    3    3    0  501 -0.23813558474E+02 -0.41962286465E+02  0.19518432529E+03  0.20111422101E+03  0.47000000000E+01 0. -1.
          5    1    4    4  502    0  0.21340613278E+03 -0.11459493657E+02  0.40214427559E+03  0.45542903497E+03  0.47000000000E+01 0. -1.
         -5    1    4    4    0  502  0.86647056122E+02  0.80442510119E+02  0.24142335529E+03  0.26886062607E+03  0.47000000000E+01 0. -1.
<mgrwt>
<rscale>  0 0.66877836E+03</rscale>
<asrwt>0</asrwt>
<pdfrwt beam="1">  1       21 0.23693010E+00 0.66877836E+03</pdfrwt>
<pdfrwt beam="2">  1       21 0.11170111E-01 0.66877836E+03</pdfrwt>
<totfact> 0.41754793E+03</totfact>
</mgrwt>
</event>
<event>
 8    1  0.9400004E-006  0.2787016E+03  0.7546771E-02  0.1096400E+00
         21   -1    0    0  504  503  0.00000000000E+00  0.00000000000E+00  0.11134561539E+03  0.11134561539E+03  0.00000000000E+00 0.  1.
         21   -1    0    0  503  504 -0.00000000000E+00 -0.00000000000E+00 -0.17439973482E+03  0.17439973482E+03  0.00000000000E+00 0.  1.
         25    2    1    2    0    0  0.46358169510E+02 -0.35716977690E+02 -0.51200392761E+02  0.14722064777E+03  0.12501062569E+03 0.  0.
         25    2    1    2    0    0 -0.46358169510E+02  0.35716977690E+02 -0.11853726673E+02  0.13852470245E+03  0.12499519981E+03 0.  0.
          5    1    3    3  501    0  0.33687205343E+02  0.44478675732E+02 -0.13592641843E+02  0.57619704191E+02  0.47000000000E+01 0.  1.
         -5    1    3    3    0  501  0.12670964167E+02 -0.80195653422E+02 -0.37607750918E+02  0.89600943576E+02  0.47000000000E+01 0.  1.
          5    1    4    4  502    0 -0.83904286402E+02 -0.64668947782E+00 -0.17176777619E+02  0.85775749331E+02  0.47000000000E+01 0.  1.
         -5    1    4    4    0  502  0.37546116892E+02  0.36363667168E+02  0.53230509460E+01  0.52748953117E+02  0.47000000000E+01 0.  1.
<mgrwt>
<rscale>  0 0.27870160E+03</rscale>
<asrwt>0</asrwt>
<pdfrwt beam="1">  1       21 0.17130095E-01 0.27870160E+03</pdfrwt>
<pdfrwt beam="2">  1       21 0.26830728E-01 0.27870160E+03</pdfrwt>
<totfact> 0.39968302E+05</totfact>
</mgrwt>
</event>
<event>
 8    1  0.9400004E-006  0.3728280E+03  0.7546771E-02  0.1053617E+00
         21   -1    0    0  504  503  0.00000000000E+00  0.00000000000E+00  0.18327939009E+03  0.18327939009E+03  0.00000000000E+00 0.  1.
         21   -1    0    0  503  504 -0.00000000000E+00 -0.00000000000E+00 -0.18960219698E+03  0.18960219698E+03  0.00000000000E+00 0.  1.
         25    2    1    2    0    0 -0.12082388095E+03  0.67200318480E+02 -0.46867003357E+01  0.18644215914E+03  0.12499768211E+03 0.  0.
         25    2    1    2    0    0  0.12082388095E+03 -0.67200318480E+02 -0.16361065536E+01  0.18643942793E+03  0.12507074171E+03 0.  0.
          5    1    3    3  501    0 -0.10460332387E+03 -0.11782211582E+02 -0.73962603468E+01  0.10562892853E+03  0.47000000000E+01 0. -1.
         -5    1    3    3    0  501 -0.16220557079E+02  0.78982530062E+02  0.27095600111E+01  0.80813230615E+02  0.47000000000E+01 0. -1.
          5    1    4    4  502    0 -0.21667809000E+02  0.16528322284E+01 -0.16107291233E+02  0.27454701457E+02  0.47000000000E+01 0. -1.
         -5    1    4    4    0  502  0.14249168995E+03 -0.68853150709E+02  0.14471184679E+02  0.15898472648E+03  0.47000000000E+01 0. -1.
<mgrwt>
<rscale>  0 0.37282798E+03</rscale>
<asrwt>0</asrwt>
<pdfrwt beam="1">  1       21 0.28196829E-01 0.37282798E+03</pdfrwt>
<pdfrwt beam="2">  1       21 0.29169569E-01 0.37282798E+03</pdfrwt>
<totfact> 0.12870250E+05</totfact>
</mgrwt>
</event>
<event>
 8    1  0.9400004E-006  0.3371327E+03  0.7546771E-02  0.1068024E+00
         21   -1    0    0  504  503  0.00000000000E+00  0.00000000000E+00  0.12157689524E+04  0.12157689524E+04  0.00000000000E+00 0.  1.
         21   -1    0    0  503  504 -0.00000000000E+00 -0.00000000000E+00 -0.23371715450E+02  0.23371715450E+02  0.00000000000E+00 0.  1.
         25    2    1    2    0    0 -0.57163240501E+01 -0.86947122134E+01  0.10099898093E+04  0.10177487050E+04  0.12499894845E+03 0.  0.
         25    2    1    2    0    0  0.57163240501E+01  0.86947122134E+01  0.18240742758E+03  0.22139196285E+03  0.12503462399E+03 0.  0.
          5    1    3    3  501    0  0.43640288043E+02 -0.44836864593E+02  0.43658230961E+03  0.44106804717E+03  0.47000000000E+01 0. -1.
         -5    1    3    3    0  501 -0.49356612093E+02  0.36142152379E+02  0.57340749971E+03  0.57668065779E+03  0.47000000000E+01 0. -1.
          5    1    4    4  502    0  0.21636408661E+02 -0.15829648097E+02  0.18908555188E+03  0.19103441540E+03  0.47000000000E+01 0.  1.
         -5    1    4    4    0  502 -0.15920084611E+02  0.24524360310E+02 -0.66781243028E+01  0.30357547445E+02  0.47000000000E+01 0.  1.
<mgrwt>
<rscale>  0 0.33713265E+03</rscale>
<asrwt>0</asrwt>
<pdfrwt beam="1">  1       21 0.18704133E+00 0.33713265E+03</pdfrwt>
<pdfrwt beam="2">  1       21 0.35956495E-02 0.33713265E+03</pdfrwt>
<totfact> 0.71514634E+04</totfact>
</mgrwt>
</event>
<event>
 8    1  0.9400004E-006  0.3155269E+03  0.7546771E-02  0.1077727E+00
         21   -1    0    0  504  503  0.00000000000E+00  0.00000000000E+00  0.18603141177E+02  0.18603141177E+02  0.00000000000E+00 0. -1.
         21   -1    0    0  503  504 -0.00000000000E+00 -0.00000000000E+00 -0.13379089508E+04  0.13379089508E+04  0.00000000000E+00 0. -1.
         25    2    1    2    0    0 -0.51814874987E+02  0.37329575365E+02 -0.96924297962E+03  0.97935514811E+03  0.12500509635E+03 0.  0.
         25    2    1    2    0    0  0.51814874987E+02 -0.37329575365E+02 -0.35006283003E+03  0.37715694390E+03  0.12500038758E+03 0.  0.
          5    1    3    3  501    0  0.39739009866E+02  0.18464406496E+02 -0.40648756876E+03  0.40886960851E+03  0.47000000000E+01 0.  1.
         -5    1    3    3    0  501 -0.91553884853E+02  0.18865168869E+02 -0.56275541086E+03  0.57048553959E+03  0.47000000000E+01 0.  1.
          5    1    4    4  502    0 -0.20906643313E+02 -0.54771845440E+02 -0.99020087381E+02  0.11516992009E+03  0.47000000000E+01 0. -1.
         -5    1    4    4    0  502  0.72721518300E+02  0.17442270074E+02 -0.25104274265E+03  0.26198702382E+03  0.47000000000E+01 0. -1.
<mgrwt>
<rscale>  0 0.31552692E+03</rscale>
<asrwt>0</asrwt>
<pdfrwt beam="1">  1       21 0.28620215E-02 0.31552692E+03</pdfrwt>
<pdfrwt beam="2">  1       21 0.20583216E+00 0.31552692E+03</pdfrwt>
<totfact> 0.79332894E+04</totfact>
</mgrwt>
</event>
<event>
 8    1  0.9400004E-006  0.2576400E+03  0.7546771E-02  0.1108570E+00
         21   -1    0    0  504  503  0.00000000000E+00  0.00000000000E+00  0.85226479026E+03  0.85226479026E+03  0.00000000000E+00 0. -1.
         21   -1    0    0  503  504 -0.00000000000E+00 -0.00000000000E+00 -0.19471166528E+02  0.19471166528E+02  0.00000000000E+00 0. -1.
         25    2    1    2    0    0  0.20641467999E+02  0.23276124226E+02  0.41994536743E+03  0.43925781127E+03  0.12500185990E+03 0.  0.
         25    2    1    2    0    0 -0.20641467999E+02 -0.23276124226E+02  0.41284825630E+03  0.43247814552E+03  0.12500326178E+03 0.  0.
          5    1    3    3  501    0  0.19639134462E+02 -0.48806234816E+02  0.12720195518E+03  0.13773224590E+03  0.47000000000E+01 0.  1.
         -5    1    3    3    0  501  0.10023335366E+01  0.72082359042E+02  0.29274341225E+03  0.30152556537E+03  0.47000000000E+01 0.  1.
          5    1    4    4  502    0  0.37902683040E+02  0.13500994721E+02  0.27730246483E+03  0.28024567301E+03  0.47000000000E+01 0. -1.
         -5    1    4    4    0  502 -0.58544151039E+02 -0.36777118947E+02  0.13554579147E+03  0.15223247251E+03  0.47000000000E+01 0. -1.
<mgrwt>
<rscale>  0 0.25763998E+03</rscale>
<asrwt>0</asrwt>
<pdfrwt beam="1">  1       21 0.13111763E+00 0.25763998E+03</pdfrwt>
<pdfrwt beam="2">  1       21 0.29955647E-02 0.25763998E+03</pdfrwt>
<totfact> 0.26266665E+05</totfact>
</mgrwt>
</event>
<event>
 8    1  0.9400004E-006  0.2992912E+03  0.7546771E-02  0.1085595E+00
         21   -1    0    0  504  503  0.00000000000E+00  0.00000000000E+00  0.26791043088E+03  0.26791043088E+03  0.00000000000E+00 0.  1.
         21   -1    0    0  503  504 -0.00000000000E+00 -0.00000000000E+00 -0.83586918073E+02  0.83586918073E+02  0.00000000000E+00 0.  1.
         25    2    1    2    0    0  0.40024580557E+02  0.51200635436E+02  0.15141160272E+03  0.20681918023E+03  0.12500091102E+03 0.  0.
         25    2    1    2    0    0 -0.40024580557E+02 -0.51200635436E+02  0.32911910088E+02  0.14467816872E+03  0.12500042625E+03 0.  0.
          5    1    3    3  501    0  0.63074705453E+02  0.49366823218E+02  0.16213461964E+03  0.18090115143E+03  0.47000000000E+01 0.  1.
         -5    1    3    3    0  501 -0.23050124896E+02  0.18338122176E+01 -0.10723016921E+02  0.25918028799E+02  0.47000000000E+01 0.  1.
          5    1    4    4  502    0  0.18466905205E+02  0.20199552404E+02  0.43548356231E+02  0.51648793167E+02  0.47000000000E+01 0. -1.
         -5    1    4    4    0  502 -0.58491485762E+02 -0.71400187840E+02 -0.10636446143E+02  0.93029375558E+02  0.47000000000E+01 0. -1.
<mgrwt>
<rscale>  0 0.29929121E+03</rscale>
<asrwt>0</asrwt>
<pdfrwt beam="1">  1       21 0.41216989E-01 0.29929121E+03</pdfrwt>
<pdfrwt beam="2">  1       21 0.12859526E-01 0.29929121E+03</pdfrwt>
<totfact> 0.28651095E+05</totfact>
</mgrwt>
</event>
<event>
 8    1  0.9400004E-006  0.2762386E+03  0.7546771E-02  0.1097761E+00
         21   -1    0    0  504  503  0.00000000000E+00  0.00000000000E+00  0.18025439561E+04  0.18025439561E+04  0.00000000000E+00 0. -1.
         21   -1    0    0  503  504 -0.00000000000E+00 -0.00000000000E+00 -0.10583342390E+02  0.10583342390E+02  0.00000000000E+00 0. -1.
         25    2    1    2    0    0  0.37098571911E+02  0.33721891289E+02  0.69490880438E+03  0.70783846455E+03  0.12499430191E+03 0.  0.
         25    2    1    2    0    0 -0.37098571911E+02 -0.33721891289E+02  0.10970518093E+04  0.11052888339E+04  0.12500905597E+03 0.  0.
          5    1    3    3  501    0  0.18722144731E+02  0.79329365063E+02  0.50771010946E+03  0.51423274119E+03  0.47000000000E+01 0.  1.
         -5    1    3    3    0  501  0.18376427180E+02 -0.45607473774E+02  0.18719869492E+03  0.19360572336E+03  0.47000000000E+01 0.  1.
          5    1    4    4  502    0 -0.74118753637E+02 -0.29153425510E+02  0.95563772733E+03  0.95896249549E+03  0.47000000000E+01 0.  1.
         -5    1    4    4    0  502  0.37020181726E+02 -0.45684657790E+01  0.14141408200E+03  0.14632633844E+03  0.47000000000E+01 0.  1.
<mgrwt>
<rscale>  0 0.27623859E+03</rscale>
<asrwt>0</asrwt>
<pdfrwt beam="1">  1       21 0.27731421E+00 0.27623859E+03</pdfrwt>
<pdfrwt beam="2">  1       21 0.16282080E-02 0.27623859E+03</pdfrwt>
<totfact> 0.74872563E+04</totfact>
</mgrwt>
</event>
<event>
 8    1  0.9400004E-006  0.2534639E+03  0.7546771E-02  0.1111135E+00
         21   -1    0    0  504  503  0.00000000000E+00  0.00000000000E+00  0.60153264321E+03  0.60153264321E+03  0.00000000000E+00 0.  1.
         21   -1    0    0  503  504 -0.00000000000E+00 -0.00000000000E+00 -0.26700116244E+02  0.26700116244E+02  0.00000000000E+00 0.  1.
         25    2    1    2    0    0 -0.44848658924E+01 -0.19674986187E+02  0.30075649749E+03  0.32632741028E+03  0.12501155471E+03 0.  0.
         25    2    1    2    0    0  0.44848658924E+01  0.19674986187E+02  0.27407602947E+03  0.30190534918E+03  0.12498780271E+03 0.  0.
          5    1    3    3  501    0 -0.63923602957E+02 -0.10663324986E+01  0.15752094870E+03  0.17006558546E+03  0.47000000000E+01 0.  1.
         -5    1    3    3    0  501  0.59438737065E+02 -0.18608653688E+02  0.14323554880E+03  0.15626182482E+03  0.47000000000E+01 0.  1.
          5    1    4    4  502    0  0.17729283675E+02 -0.48542710934E+02  0.76738669004E+02  0.92637117857E+02  0.47000000000E+01 0.  1.
         -5    1    4    4    0  502 -0.13244417782E+02  0.68217697121E+02  0.19733736047E+03  0.20926823132E+03  0.47000000000E+01 0.  1.
<mgrwt>
<rscale>  0 0.25346393E+03</rscale>
<asrwt>0</asrwt>
<pdfrwt beam="1">  1       21 0.92543474E-01 0.25346393E+03</pdfrwt>
<pdfrwt beam="2">  1       21 0.41077106E-02 0.25346393E+03</pdfrwt>
<totfact> 0.36325339E+05</totfact>
</mgrwt>
</event>
<event>
 8    1  0.9400004E-006  0.3781858E+03  0.7546771E-02  0.1051606E+00
         21   -1    0    0  504  503  0.00000000000E+00  0.00000000000E+00  0.39157586568E+03  0.39157586568E+03  0.00000000000E+00 0. -1.
         21   -1    0    0  503  504 -0.00000000000E+00 -0.00000000000E+00 -0.91313394815E+02  0.91313394815E+02  0.00000000000E+00 0. -1.
         25    2    1    2    0    0  0.52525493903E+01 -0.92290707191E+02  0.28756950967E+03  0.32690423797E+03  0.12499997600E+03 0.  0.
         25    2    1    2    0    0 -0.52525493903E+01  0.92290707191E+02  0.12692961192E+02  0.15598502253E+03  0.12500020832E+03 0.  0.
          5    1    3    3  501    0 -0.27241395205E+02 -0.10461475066E+03  0.26211430830E+03  0.28357069715E+03  0.47000000000E+01 0.  1.
         -5    1    3    3    0  501  0.32493944596E+02  0.12324043466E+02  0.25455201370E+02  0.43333540815E+02  0.47000000000E+01 0.  1.
          5    1    4    4  502    0  0.29725969938E+02  0.63606853427E+01  0.47661784799E+02  0.56725896529E+02  0.47000000000E+01 0.  1.
         -5    1    4    4    0  502 -0.34978519328E+02  0.85930021848E+02 -0.34968823607E+02  0.99259125997E+02  0.47000000000E+01 0.  1.
<mgrwt>
<rscale>  0 0.37818578E+03</rscale>
<asrwt>0</asrwt>
<pdfrwt beam="1">  1       21 0.60242440E-01 0.37818578E+03</pdfrwt>
<pdfrwt beam="2">  1       21 0.14048215E-01 0.37818578E+03</pdfrwt>
<totfact> 0.10747753E+05</totfact>
</mgrwt>
</event>
<event>
 8    1  0.9400004E-006  0.2843105E+03  0.7546771E-02  0.1093358E+00
         21   -1    0    0  504  503  0.00000000000E+00  0.00000000000E+00  0.10851232410E+04  0.10851232410E+04  0.00000000000E+00 0. -1.
         21   -1    0    0  503  504 -0.00000000000E+00 -0.00000000000E+00 -0.18622873157E+02  0.18622873157E+02  0.00000000000E+00 0. -1.
         25    2    1    2    0    0  0.19934103439E+02  0.43367816196E+02  0.71958176408E+03  0.73191574477E+03  0.12499842512E+03 0.  0.
         25    2    1    2    0    0 -0.19934103439E+02 -0.43367816196E+02  0.34691860379E+03  0.37183036941E+03  0.12500867971E+03 0.  0.
          5    1    3    3  501    0  0.27603529275E+02  0.85167843027E+02  0.43527951341E+03  0.44441631507E+03  0.47000000000E+01 0.  1.
         -5    1    3    3    0  501 -0.76694258361E+01 -0.41800026831E+02  0.28430225067E+03  0.28749942969E+03  0.47000000000E+01 0.  1.
          5    1    4    4  502    0 -0.73601230358E+01 -0.31151871824E+02  0.35160077539E+03  0.35308611667E+03  0.47000000000E+01 0. -1.
         -5    1    4    4    0  502 -0.12573980403E+02 -0.12215944372E+02 -0.46821716014E+01  0.18744252745E+02  0.47000000000E+01 0. -1.
<mgrwt>
<rscale>  0 0.28431048E+03</rscale>
<asrwt>0</asrwt>
<pdfrwt beam="1">  1       21 0.16694199E+00 0.28431048E+03</pdfrwt>
<pdfrwt beam="2">  1       21 0.28650583E-02 0.28431048E+03</pdfrwt>
<totfact> 0.14749184E+05</totfact>
</mgrwt>
</event>
<event>
 8    1  0.9400004E-006  0.3448357E+03  0.7546771E-02  0.1064755E+00
         21   -1    0    0  504  503  0.00000000000E+00  0.00000000000E+00  0.34331177519E+03  0.34331177519E+03  0.00000000000E+00 0.  1.
         21   -1    0    0  503  504 -0.00000000000E+00 -0.00000000000E+00 -0.86591575724E+02  0.86591575724E+02  0.00000000000E+00 0.  1.
         25    2    1    2    0    0  0.72243681033E+02  0.92757560324E+02  0.10750500916E+03  0.20249837168E+03  0.12500059636E+03 0.  0.
         25    2    1    2    0    0 -0.72243681033E+02 -0.92757560324E+02  0.14921519031E+03  0.22740497924E+03  0.12499894847E+03 0.  0.
          5    1    3    3  501    0  0.19313613169E+02 -0.21162880204E+00 -0.25123421448E+02  0.32036490845E+02  0.47000000000E+01 0.  1.
         -5    1    3    3    0  501  0.52930067864E+02  0.92969189126E+02  0.13262843061E+03  0.17046188083E+03  0.47000000000E+01 0.  1.
          5    1    4    4  502    0 -0.75037124671E+02 -0.20859780307E+02  0.21817423591E+02  0.81017223388E+02  0.47000000000E+01 0. -1.
         -5    1    4    4    0  502  0.27934436378E+01 -0.71897780016E+02  0.12739776672E+03  0.14638775585E+03  0.47000000000E+01 0. -1.
<mgrwt>
<rscale>  0 0.34483566E+03</rscale>
<asrwt>0</asrwt>
<pdfrwt beam="1">  1       21 0.52817195E-01 0.34483566E+03</pdfrwt>
<pdfrwt beam="2">  1       21 0.13321781E-01 0.34483566E+03</pdfrwt>
<totfact> 0.15848193E+05</totfact>
</mgrwt>
</event>
<event>
 8    1  0.9400004E-006  0.2641996E+03  0.7546771E-02  0.1104646E+00
         21   -1    0    0  504  503  0.00000000000E+00  0.00000000000E+00  0.91074643584E+03  0.91074643584E+03  0.00000000000E+00 0.  1.
         21   -1    0    0  503  504 -0.00000000000E+00 -0.00000000000E+00 -0.19160493009E+02  0.19160493009E+02  0.00000000000E+00 0.  1.
         25    2    1    2    0    0  0.38341787212E+02 -0.82721151162E+01  0.38647408228E+03  0.40807573927E+03  0.12500028867E+03 0.  0.
         25    2    1    2    0    0 -0.38341787212E+02  0.82721151162E+01  0.50511186056E+03  0.52183118959E+03  0.12502511035E+03 0.  0.
          5    1    3    3  501    0  0.39584683531E+02  0.53241792403E+01  0.39090774873E+03  0.39297105755E+03  0.47000000000E+01 0.  1.
         -5    1    3    3    0  501 -0.12428963188E+01 -0.13596294356E+02 -0.44336664520E+01  0.15104681714E+02  0.47000000000E+01 0.  1.
          5    1    4    4  502    0 -0.41510125835E+02  0.62255136844E+02  0.33423436484E+03  0.34253976886E+03  0.47000000000E+01 0. -1.
         -5    1    4    4    0  502  0.31683386236E+01 -0.53983021728E+02  0.17087749571E+03  0.17929142072E+03  0.47000000000E+01 0. -1.
<mgrwt>
<rscale>  0 0.26419955E+03</rscale>
<asrwt>0</asrwt>
<pdfrwt beam="1">  1       21 0.14011480E+00 0.26419955E+03</pdfrwt>
<pdfrwt beam="2">  1       21 0.29477689E-02 0.26419955E+03</pdfrwt>
<totfact> 0.22688409E+05</totfact>
</mgrwt>
</event>
<event>
 8    1  0.9400004E-006  0.2649631E+03  0.7546771E-02  0.1104197E+00
         21   -1    0    0  504  503  0.00000000000E+00  0.00000000000E+00  0.33557585962E+03  0.33557585962E+03  0.00000000000E+00 0.  1.
         21   -1    0    0  503  504 -0.00000000000E+00 -0.00000000000E+00 -0.52302207813E+02  0.52302207813E+02  0.00000000000E+00 0.  1.
         25    2    1    2    0    0  0.22796389070E+02  0.13094169849E+02  0.19304820589E+03  0.23148908182E+03  0.12501380950E+03 0.  0.
         25    2    1    2    0    0 -0.22796389070E+02 -0.13094169849E+02  0.90225445926E+02  0.15638898562E+03  0.12500300433E+03 0.  0.
          5    1    3    3  501    0 -0.50338921084E+02 -0.15148013963E+01  0.10073285185E+03  0.11271867210E+03  0.47000000000E+01 0.  1.
         -5    1    3    3    0  501  0.73135310154E+02  0.14608971245E+02  0.92315354038E+02  0.11877040971E+03  0.47000000000E+01 0.  1.
          5    1    4    4  502    0 -0.65550814423E+02  0.22262410431E+02  0.34036617733E+02  0.77285868931E+02  0.47000000000E+01 0. -1.
         -5    1    4    4    0  502  0.42754425353E+02 -0.35356580280E+02  0.56188828193E+02  0.79103116690E+02  0.47000000000E+01 0. -1.
<mgrwt>
<rscale>  0 0.26496308E+03</rscale>
<asrwt>0</asrwt>
<pdfrwt beam="1">  1       21 0.51627054E-01 0.26496308E+03</pdfrwt>
<pdfrwt beam="2">  1       21 0.80464937E-02 0.26496308E+03</pdfrwt>
<totfact> 0.41674255E+05</totfact>
</mgrwt>
</event>
<event>
 8    1  0.9400004E-006  0.2769956E+03  0.7546771E-02  0.1097341E+00
         21   -1    0    0  504  503  0.00000000000E+00  0.00000000000E+00  0.41429199601E+02  0.41429199601E+02  0.00000000000E+00 0.  1.
         21   -1    0    0  503  504 -0.00000000000E+00 -0.00000000000E+00 -0.46299822350E+03  0.46299822350E+03  0.00000000000E+00 0.  1.
         25    2    1    2    0    0  0.53046069756E+01  0.51686121253E+02 -0.15748845582E+03  0.20767490355E+03  0.12500663127E+03 0.  0.
         25    2    1    2    0    0 -0.53046069756E+01 -0.51686121253E+02 -0.26408056809E+03  0.29675251956E+03  0.12499566968E+03 0.  0.
          5    1    3    3  501    0  0.51557913997E+02 -0.10569045247E+02 -0.37762628158E+02  0.64946357084E+02  0.47000000000E+01 0. -1.
         -5    1    3    3    0  501 -0.46253307021E+02  0.62255166501E+02 -0.11972582766E+03  0.14272854646E+03  0.47000000000E+01 0. -1.
          5    1    4    4  502    0  0.23187614027E+02 -0.76429358559E+02 -0.98692561719E+02  0.12704890410E+03  0.47000000000E+01 0. -1.
         -5    1    4    4    0  502 -0.28492221002E+02  0.24743237306E+02 -0.16538800637E+03  0.16970361546E+03  0.47000000000E+01 0. -1.
<mgrwt>
<rscale>  0 0.27699564E+03</rscale>
<asrwt>0</asrwt>
<pdfrwt beam="1">  1       21 0.63737231E-02 0.27699564E+03</pdfrwt>
<pdfrwt beam="2">  1       21 0.71230495E-01 0.27699564E+03</pdfrwt>
<totfact> 0.31031399E+05</totfact>
</mgrwt>
</event>
<event>
 8    1  0.9400004E-006  0.3668168E+03  0.7546771E-02  0.1055917E+00
         21   -1    0    0  504  503  0.00000000000E+00  0.00000000000E+00  0.53539063454E+03  0.53539063454E+03  0.00000000000E+00 0.  1.
         21   -1    0    0  503  504 -0.00000000000E+00 -0.00000000000E+00 -0.62830091807E+02  0.62830091807E+02  0.00000000000E+00 0.  1.
         25    2    1    2    0    0 -0.11534149387E+03  0.66476761164E+02  0.20849081550E+03  0.27715765163E+03  0.12500049489E+03 0.  0.
         25    2    1    2    0    0  0.11534149387E+03 -0.66476761164E+02  0.26406972723E+03  0.32106307472E+03  0.12500342845E+03 0.  0.
          5    1    3    3  501    0 -0.12381408758E+03  0.77529915230E+02  0.12481960320E+03  0.19220520123E+03  0.47000000000E+01 0.  1.
         -5    1    3    3    0  501  0.84725937101E+01 -0.11053154066E+02  0.83671212306E+02  0.84952450393E+02  0.47000000000E+01 0.  1.
          5    1    4    4  502    0 -0.10369972829E+02 -0.53438990675E+02  0.99432468772E+02  0.11345557680E+03  0.47000000000E+01 0. -1.
         -5    1    4    4    0  502  0.12571146670E+03 -0.13037770489E+02  0.16463725846E+03  0.20760749792E+03  0.47000000000E+01 0. -1.
<mgrwt>
<rscale>  0 0.36681681E+03</rscale>
<asrwt>0</asrwt>
<pdfrwt beam="1">  1       21 0.82367787E-01 0.36681681E+03</pdfrwt>
<pdfrwt beam="2">  1       21 0.96661683E-02 0.36681681E+03</pdfrwt>
<totfact> 0.10508611E+05</totfact>
</mgrwt>
</event>
<event>
 8    1  0.9400004E-006  0.3591627E+03  0.7546771E-02  0.1058916E+00
         21   -1    0    0  504  503  0.00000000000E+00  0.00000000000E+00  0.53810490173E+03  0.53810490173E+03  0.00000000000E+00 0. -1.
         21   -1    0    0  503  504 -0.00000000000E+00 -0.00000000000E+00 -0.59931540668E+02  0.59931540668E+02  0.00000000000E+00 0. -1.
         25    2    1    2    0    0  0.46183790738E+02  0.12011633177E+03  0.25222523713E+03  0.30952059683E+03  0.12499821570E+03 0.  0.
         25    2    1    2    0    0 -0.46183790738E+02 -0.12011633177E+03  0.22594812393E+03  0.28851584557E+03  0.12501185046E+03 0.  0.
          5    1    3    3  501    0  0.36292577041E+02  0.13463214816E+03  0.25543754558E+03  0.29105565818E+03  0.47000000000E+01 0. -1.
         -5    1    3    3    0  501  0.98912136968E+01 -0.14515816388E+02 -0.32123084439E+01  0.18464938650E+02  0.47000000000E+01 0. -1.
          5    1    4    4  502    0 -0.41012921417E+02  0.76977255775E+01  0.10212681380E+03  0.11042323487E+03  0.47000000000E+01 0.  1.
         -5    1    4    4    0  502 -0.51708693213E+01 -0.12781405735E+03  0.12382131013E+03  0.17809261071E+03  0.47000000000E+01 0.  1.
<mgrwt>
<rscale>  0 0.35916267E+03</rscale>
<asrwt>0</asrwt>
<pdfrwt beam="1">  1       21 0.82785366E-01 0.35916267E+03</pdfrwt>
<pdfrwt beam="2">  1       21 0.92202374E-02 0.35916267E+03</pdfrwt>
<totfact> 0.11319866E+05</totfact>
</mgrwt>
</event>
<event>
 8    1  0.9400004E-006  0.3187160E+03  0.7546771E-02  0.1076242E+00
         21   -1    0    0  504  503  0.00000000000E+00  0.00000000000E+00  0.22073697637E+02  0.22073697637E+02  0.00000000000E+00 0. -1.
         21   -1    0    0  503  504 -0.00000000000E+00 -0.00000000000E+00 -0.11504633357E+04  0.11504633357E+04  0.00000000000E+00 0. -1.
         25    2    1    2    0    0 -0.14732167836E+02  0.75784652953E+02 -0.33689898018E+03  0.36752584513E+03  0.12495588659E+03 0.  0.
         25    2    1    2    0    0  0.14732167836E+02 -0.75784652953E+02 -0.79149065785E+03  0.80501118818E+03  0.12500080497E+03 0.  0.
          5    1    3    3  501    0 -0.34140795787E+02  0.29377446415E+02 -0.25330528940E+02  0.51887898312E+02  0.47000000000E+01 0.  1.
         -5    1    3    3    0  501  0.19408627952E+02  0.46407206538E+02 -0.31156845124E+03  0.31563794681E+03  0.47000000000E+01 0.  1.
          5    1    4    4  502    0  0.23485171206E+02 -0.10561905775E+03 -0.69854275764E+03  0.70688826053E+03  0.47000000000E+01 0.  1.
         -5    1    4    4    0  502 -0.87530033705E+01  0.29834404795E+02 -0.92947900212E+02  0.98122927653E+02  0.47000000000E+01 0.  1.
<mgrwt>
<rscale>  0 0.31871605E+03</rscale>
<asrwt>0</asrwt>
<pdfrwt beam="1">  1       21 0.33959527E-02 0.31871605E+03</pdfrwt>
<pdfrwt beam="2">  1       21 0.17699440E+00 0.31871605E+03</pdfrwt>
<totfact> 0.93010938E+04</totfact>
</mgrwt>
</event>
<event>
 8    1  0.9400004E-006  0.3550447E+03  0.7546771E-02  0.1060563E+00
         21   -1    0    0  504  503  0.00000000000E+00  0.00000000000E+00  0.22041940822E+02  0.22041940822E+02  0.00000000000E+00 0. -1.
         21   -1    0    0  503  504 -0.00000000000E+00 -0.00000000000E+00 -0.14297375535E+04  0.14297375535E+04  0.00000000000E+00 0. -1.
         25    2    1    2    0    0  0.11367714651E+03 -0.31042855304E+02 -0.52084814547E+03  0.54844893587E+03  0.12500916814E+03 0.  0.
         25    2    1    2    0    0 -0.11367714651E+03  0.31042855304E+02 -0.88684746720E+03  0.90333055844E+03  0.12498606012E+03 0.  0.
          5    1    3    3  501    0  0.66729304800E+02 -0.77746693874E+02 -0.36291483946E+03  0.37712944625E+03  0.47000000000E+01 0. -1.
         -5    1    3    3    0  501  0.46947841713E+02  0.46703838570E+02 -0.15793330600E+03  0.17131948962E+03  0.47000000000E+01 0. -1.
          5    1    4    4  502    0 -0.19961167872E+02  0.55317923766E+02 -0.16969159450E+03  0.17965480277E+03  0.47000000000E+01 0. -1.
         -5    1    4    4    0  502 -0.93715978641E+02 -0.24275068462E+02 -0.71715587269E+03  0.72367575567E+03  0.47000000000E+01 0. -1.
<mgrwt>
<rscale>  0 0.35504473E+03</rscale>
<asrwt>0</asrwt>
<pdfrwt beam="1">  1       21 0.33910671E-02 0.35504473E+03</pdfrwt>
<pdfrwt beam="2">  1       21 0.21995967E+00 0.35504473E+03</pdfrwt>
<totfact> 0.47730353E+04</totfact>
</mgrwt>
</event>
<event>
 8    1  0.9400004E-006  0.3146708E+03  0.7546771E-02  0.1078128E+00
         21   -1    0    0  504  503  0.00000000000E+00  0.00000000000E+00  0.13644611797E+04  0.13644611797E+04  0.00000000000E+00 0.  1.
         21   -1    0    0  503  504 -0.00000000000E+00 -0.00000000000E+00 -0.18142270807E+02  0.18142270807E+02  0.00000000000E+00 0.  1.
         25    2    1    2    0    0 -0.75946890234E+02  0.30994041615E+02  0.88862020279E+03  0.90110497813E+03  0.12496301879E+03 0.  0.
         25    2    1    2    0    0  0.75946890234E+02 -0.30994041615E+02  0.45769870613E+03  0.48149847239E+03  0.12499645025E+03 0.  0.
          5    1    3    3  501    0 -0.55159701842E+02  0.31319058749E+02  0.87136019116E+03  0.87367851575E+03  0.47000000000E+01 0.  1.
         -5    1    3    3    0  501 -0.20787188392E+02 -0.32501713399E+00  0.17260011625E+02  0.27426462380E+02  0.47000000000E+01 0.  1.
          5    1    4    4  502    0  0.65016467783E+02 -0.51699343335E+02  0.44810463668E+03  0.45576289735E+03  0.47000000000E+01 0.  1.
         -5    1    4    4    0  502  0.10930422451E+02  0.20705301720E+02  0.95940694444E+01  0.25735575043E+02  0.47000000000E+01 0.  1.
<mgrwt>
<rscale>  0 0.31467078E+03</rscale>
<asrwt>0</asrwt>
<pdfrwt beam="1">  1       21 0.20991702E+00 0.31467078E+03</pdfrwt>
<pdfrwt beam="2">  1       21 0.27911197E-02 0.31467078E+03</pdfrwt>
<totfact> 0.77884912E+04</totfact>
</mgrwt>
</event>
<event>
 8    1  0.9400004E-006  0.2940725E+03  0.7546771E-02  0.1088242E+00
         21   -1    0    0  504  503  0.00000000000E+00  0.00000000000E+00  0.92165131880E+03  0.92165131880E+03  0.00000000000E+00 0.  1.
         21   -1    0    0  503  504 -0.00000000000E+00 -0.00000000000E+00 -0.23457528681E+02  0.23457528681E+02  0.00000000000E+00 0.  1.
         25    2    1    2    0    0  0.14386455453E+02  0.67607698906E+02  0.33697234974E+03  0.36599627587E+03  0.12500055363E+03 0.  0.
         25    2    1    2    0    0 -0.14386455453E+02 -0.67607698906E+02  0.56122144038E+03  0.57911257161E+03  0.12499637757E+03 0.  0.
          5    1    3    3  501    0 -0.23827493572E+02  0.30569055587E+02  0.18733565800E+02  0.43304192603E+02  0.47000000000E+01 0.  1.
         -5    1    3    3    0  501  0.38213949024E+02  0.37038643319E+02  0.31823878394E+03  0.32269208327E+03  0.47000000000E+01 0.  1.
          5    1    4    4  502    0 -0.18609513308E+02  0.33899857101E+02  0.20443234645E+03  0.20811100060E+03  0.47000000000E+01 0. -1.
         -5    1    4    4    0  502  0.42230578554E+01 -0.10150755601E+03  0.35678909393E+03  0.37100157101E+03  0.47000000000E+01 0. -1.
<mgrwt>
<rscale>  0 0.29407252E+03</rscale>
<asrwt>0</asrwt>
<pdfrwt beam="1">  1       21 0.14179248E+00 0.29407252E+03</pdfrwt>
<pdfrwt beam="2">  1       21 0.36088513E-02 0.29407252E+03</pdfrwt>
<totfact> 0.15530332E+05</totfact>
</mgrwt>
</event>
<event>
 8    1  0.9400004E-006  0.2837871E+03  0.7546771E-02  0.1093638E+00
         21   -1    0    0  504  503  0.00000000000E+00  0.00000000000E+00  0.98887311322E+02  0.98887311322E+02  0.00000000000E+00 0.  1.
         21   -1    0    0  503  504 -0.00000000000E+00 -0.00000000000E+00 -0.20360324111E+03  0.20360324111E+03  0.00000000000E+00 0.  1.
         25    2    1    2    0    0  0.34020940720E+02  0.57793196543E+02 -0.55903904832E+02  0.15247195618E+03  0.12499989149E+03 0.  0.
         25    2    1    2    0    0 -0.34020940720E+02 -0.57793196543E+02 -0.48812024953E+02  0.15001859625E+03  0.12500194985E+03 0.  0.
          5    1    3    3  501    0 -0.38615713471E+02  0.25940923463E+02 -0.56085453580E+02  0.73018990271E+02  0.47000000000E+01 0.  1.
         -5    1    3    3    0  501  0.72636654191E+02  0.31852273081E+02  0.18154874798E+00  0.79452965913E+02  0.47000000000E+01 0.  1.
          5    1    4    4  502    0 -0.75447650396E+01 -0.94248157744E+02 -0.21346973130E+02  0.97043402555E+02  0.47000000000E+01 0. -1.
         -5    1    4    4    0  502 -0.26476175680E+02  0.36454961201E+02 -0.27465051823E+02  0.52975193690E+02  0.47000000000E+01 0. -1.
<mgrwt>
<rscale>  0 0.28378708E+03</rscale>
<asrwt>0</asrwt>
<pdfrwt beam="1">  1       21 0.15213433E-01 0.28378708E+03</pdfrwt>
<pdfrwt beam="2">  1       21 0.31323575E-01 0.28378708E+03</pdfrwt>
<totfact> 0.36712952E+05</totfact>
</mgrwt>
</event>
<event>
 8    1  0.9400004E-006  0.2833656E+03  0.7546771E-02  0.1093865E+00
         21   -1    0    0  504  503  0.00000000000E+00  0.00000000000E+00  0.37587539735E+03  0.37587539735E+03  0.00000000000E+00 0.  1.
         21   -1    0    0  503  504 -0.00000000000E+00 -0.00000000000E+00 -0.53406044751E+02  0.53406044751E+02  0.00000000000E+00 0.  1.
         25    2    1    2    0    0 -0.36566125657E+02  0.26138628769E+02  0.86615584878E+02  0.15859617948E+03  0.12502071485E+03 0.  0.
         25    2    1    2    0    0  0.36566125657E+02 -0.26138628769E+02  0.23585376772E+03  0.27068526263E+03  0.12499280857E+03 0.  0.
          5    1    3    3  501    0  0.33322831552E+02  0.97143131976E+01  0.78790412323E+02  0.86225275051E+02  0.47000000000E+01 0.  1.
         -5    1    3    3    0  501 -0.69888957209E+02  0.16424315572E+02  0.78251725551E+01  0.72370904425E+02  0.47000000000E+01 0.  1.
          5    1    4    4  502    0 -0.35147987306E+02 -0.34357271993E+02  0.15263482444E+03  0.16042220165E+03  0.47000000000E+01 0. -1.
         -5    1    4    4    0  502  0.71714112964E+02  0.82186432235E+01  0.83218943281E+02  0.11026306097E+03  0.47000000000E+01 0. -1.
<mgrwt>
<rscale>  0 0.28336562E+03</rscale>
<asrwt>0</asrwt>
<pdfrwt beam="1">  1       21 0.57826983E-01 0.28336562E+03</pdfrwt>
<pdfrwt beam="2">  1       21 0.82163148E-02 0.28336562E+03</pdfrwt>
<totfact> 0.31428432E+05</totfact>
</mgrwt>
</event>
<event>
 8    1  0.9400004E-006  0.2737795E+03  0.7546771E-02  0.1099136E+00
         21   -1    0    0  504  503  0.00000000000E+00  0.00000000000E+00  0.42814818624E+03  0.42814818624E+03  0.00000000000E+00 0.  1.
         21   -1    0    0  503  504 -0.00000000000E+00 -0.00000000000E+00 -0.43767110915E+02  0.43767110915E+02  0.00000000000E+00 0.  1.
         25    2    1    2    0    0 -0.49197987499E+01 -0.35802082125E+02  0.26556361305E+03  0.29572496293E+03  0.12499291029E+03 0.  0.
         25    2    1    2    0    0  0.49197987499E+01  0.35802082125E+02  0.11881746228E+03  0.17619033422E+03  0.12497780214E+03 0.  0.
          5    1    3    3  501    0  0.71926417798E+01  0.41346622523E+02  0.15245507958E+03  0.15819582352E+03  0.47000000000E+01 0. -1.
         -5    1    3    3    0  501 -0.12112440530E+02 -0.77148704648E+02  0.11310853347E+03  0.13752913941E+03  0.47000000000E+01 0. -1.
          5    1    4    4  502    0 -0.59549607819E+02  0.23851249100E+02  0.60983511850E+02  0.88634736941E+02  0.47000000000E+01 0.  1.
         -5    1    4    4    0  502  0.64469406569E+02  0.11950833025E+02  0.57833950427E+02  0.87555597282E+02  0.47000000000E+01 0.  1.
<mgrwt>
<rscale>  0 0.27377954E+03</rscale>
<asrwt>0</asrwt>
<pdfrwt beam="1">  1       21 0.65868949E-01 0.27377954E+03</pdfrwt>
<pdfrwt beam="2">  1       21 0.67334019E-02 0.27377954E+03</pdfrwt>
<totfact> 0.33580872E+05</totfact>
</mgrwt>
</event>
<event>
 8    1  0.9400004E-006  0.3087266E+03  0.7546771E-02  0.1080958E+00
         21   -1    0    0  504  503  0.00000000000E+00  0.00000000000E+00  0.81732773918E+02  0.81732773918E+02  0.00000000000E+00 0. -1.
         21   -1    0    0  503  504 -0.00000000000E+00 -0.00000000000E+00 -0.29153583317E+03  0.29153583317E+03  0.00000000000E+00 0. -1.
         25    2    1    2    0    0  0.12590083365E+01  0.21675098734E+02  0.14023641781E+01  0.12688831091E+03  0.12500912692E+03 0.  0.
         25    2    1    2    0    0 -0.12590083365E+01 -0.21675098734E+02 -0.21120542343E+03  0.24638029618E+03  0.12499649775E+03 0.  0.
          5    1    3    3  501    0  0.30910969856E+01  0.72553738047E+02  0.14289289667E+02  0.74161132572E+02  0.47000000000E+01 0. -1.
         -5    1    3    3    0  501 -0.18320886491E+01 -0.50878639313E+02 -0.12886925489E+02  0.52727178341E+02  0.47000000000E+01 0. -1.
          5    1    4    4  502    0 -0.60136118430E+02  0.94814047202E+00 -0.75358700991E+02  0.96531215290E+02  0.47000000000E+01 0. -1.
         -5    1    4    4    0  502  0.58877110094E+02 -0.22623239206E+02 -0.13584672244E+03  0.14984908089E+03  0.47000000000E+01 0. -1.
<mgrwt>
<rscale>  0 0.30872663E+03</rscale>
<asrwt>0</asrwt>
<pdfrwt beam="1">  1       21 0.12574273E-01 0.30872663E+03</pdfrwt>
<pdfrwt beam="2">  1       21 0.44851667E-01 0.30872663E+03</pdfrwt>
<totfact> 0.25019367E+05</totfact>
</mgrwt>
</event>
<event>
 8    1  0.9400004E-006  0.4061832E+03  0.7546771E-02  0.1041659E+00
         21   -1    0    0  504  503  0.00000000000E+00  0.00000000000E+00  0.17295954324E+03  0.17295954324E+03  0.00000000000E+00 0. -1.
         21   -1    0    0  503  504 -0.00000000000E+00 -0.00000000000E+00 -0.23847304834E+03  0.23847304834E+03  0.00000000000E+00 0. -1.
         25    2    1    2    0    0  0.40640944915E+01  0.13065554792E+03  0.60806251269E+02  0.19082187390E+03  0.12501279255E+03 0.  0.
         25    2    1    2    0    0 -0.40640944915E+01 -0.13065554792E+03 -0.12631975637E+03  0.22061071767E+03  0.12500007534E+03 0.  0.
          5    1    3    3  501    0 -0.31969525355E+02  0.12444160225E+03  0.77748697445E+02  0.15024883652E+03  0.47000000000E+01 0. -1.
         -5    1    3    3    0  501  0.36033619846E+02  0.62139456710E+01 -0.16942446175E+02  0.40573037382E+02  0.47000000000E+01 0. -1.
          5    1    4    4  502    0 -0.56517690768E+02 -0.10694698819E+03 -0.10055515855E+03  0.15737006565E+03  0.47000000000E+01 0. -1.
         -5    1    4    4    0  502  0.52453596276E+02 -0.23708559728E+02 -0.25764597827E+02  0.63240652020E+02  0.47000000000E+01 0. -1.
<mgrwt>
<rscale>  0 0.40618316E+03</rscale>
<asrwt>0</asrwt>
<pdfrwt beam="1">  1       21 0.26609161E-01 0.40618316E+03</pdfrwt>
<pdfrwt beam="2">  1       21 0.36688161E-01 0.40618316E+03</pdfrwt>
<totfact> 0.90486952E+04</totfact>
</mgrwt>
</event>
<event>
 8    1  0.9400004E-006  0.2690791E+03  0.7546771E-02  0.1101808E+00
         21   -1    0    0  504  503  0.00000000000E+00  0.00000000000E+00  0.16238369112E+03  0.16238369112E+03  0.00000000000E+00 0. -1.
         21   -1    0    0  503  504 -0.00000000000E+00 -0.00000000000E+00 -0.11146985903E+03  0.11146985903E+03  0.00000000000E+00 0. -1.
         25    2    1    2    0    0 -0.80551436813E+01 -0.44373814558E+02  0.40646239223E+01  0.13295021930E+03  0.12500127554E+03 0.  0.
         25    2    1    2    0    0  0.80551436813E+01  0.44373814558E+02  0.46849208168E+02  0.14090333086E+03  0.12499991833E+03 0.  0.
          5    1    3    3  501    0 -0.48800737565E+01 -0.17376404195E+02  0.64165165520E+02  0.66820752830E+02  0.47000000000E+01 0.  1.
         -5    1    3    3    0  501 -0.31750699248E+01 -0.26997410363E+02 -0.60100541598E+02  0.66129466470E+02  0.47000000000E+01 0.  1.
          5    1    4    4  502    0  0.51791373284E+02  0.54605345089E+02  0.57107142360E+02  0.94590727704E+02  0.47000000000E+01 0. -1.
         -5    1    4    4    0  502 -0.43736229603E+02 -0.10231530531E+02 -0.10257934192E+02  0.46312603153E+02  0.47000000000E+01 0. -1.
<mgrwt>
<rscale>  0 0.26907908E+03</rscale>
<asrwt>0</asrwt>
<pdfrwt beam="1">  1       21 0.24982106E-01 0.26907908E+03</pdfrwt>
<pdfrwt beam="2">  1       21 0.17149209E-01 0.26907908E+03</pdfrwt>
<totfact> 0.45862326E+05</totfact>
</mgrwt>
</event>
<event>
 8    1  0.9400004E-006  0.3927360E+03  0.7546771E-02  0.1046324E+00
         21   -1    0    0  504  503  0.00000000000E+00  0.00000000000E+00  0.18124170776E+04  0.18124170776E+04  0.00000000000E+00 0. -1.
         21   -1    0    0  503  504 -0.00000000000E+00 -0.00000000000E+00 -0.21275673450E+02  0.21275673450E+02  0.00000000000E+00 0. -1.
         25    2    1    2    0    0 -0.43819795775E+02 -0.11286339080E+02  0.22053086980E+03  0.25746603879E+03  0.12492934260E+03 0.  0.
         25    2    1    2    0    0  0.43819795775E+02  0.11286339080E+02  0.15706105343E+04  0.15762267122E+04  0.12500256753E+03 0.  0.
          5    1    3    3  501    0  0.12864124695E+02 -0.51040176873E+02  0.14769660611E+03  0.15686606649E+03  0.47000000000E+01 0. -1.
         -5    1    3    3    0  501 -0.56683920470E+02  0.39753837793E+02  0.72834263692E+02  0.10059997230E+03  0.47000000000E+01 0. -1.
          5    1    4    4  502    0 -0.42049711557E+02  0.61627549964E+01  0.35467420379E+03  0.35724226881E+03  0.47000000000E+01 0.  1.
         -5    1    4    4    0  502  0.85869507331E+02  0.51235840839E+01  0.12159363305E+04  0.12189844434E+04  0.47000000000E+01 0.  1.
<mgrwt>
<rscale>  0 0.39273601E+03</rscale>
<asrwt>0</asrwt>
<pdfrwt beam="1">  1       21 0.27883328E+00 0.39273601E+03</pdfrwt>
<pdfrwt beam="2">  1       21 0.32731819E-02 0.39273601E+03</pdfrwt>
<totfact> 0.21769577E+04</totfact>
</mgrwt>
</event>
<event>
 8    1  0.9400004E-006  0.3377496E+03  0.7546771E-02  0.1067758E+00
         21   -1    0    0  504  503  0.00000000000E+00  0.00000000000E+00  0.94223308710E+02  0.94223308710E+02  0.00000000000E+00 0. -1.
         21   -1    0    0  503  504 -0.00000000000E+00 -0.00000000000E+00 -0.30267144525E+03  0.30267144525E+03  0.00000000000E+00 0. -1.
         25    2    1    2    0    0 -0.27032719167E+02 -0.77964040983E+01  0.25051876157E+02  0.13055187355E+03  0.12499857345E+03 0.  0.
         25    2    1    2    0    0  0.27032719167E+02  0.77964040983E+01 -0.23350001270E+03  0.26634288041E+03  0.12499888877E+03 0.  0.
          5    1    3    3  501    0 -0.57410325538E+02 -0.39445975214E+02  0.44013144918E+02  0.82529857412E+02  0.47000000000E+01 0. -1.
         -5    1    3    3    0  501  0.30377606371E+02  0.31649571115E+02 -0.18961268761E+02  0.48022016135E+02  0.47000000000E+01 0. -1.
          5    1    4    4  502    0  0.66217091763E+02  0.27240929147E+02 -0.19534549044E+03  0.20810747727E+03  0.47000000000E+01 0.  1.
         -5    1    4    4    0  502 -0.39184372596E+02 -0.19444525049E+02 -0.38154522260E+02  0.58235403141E+02  0.47000000000E+01 0.  1.
<mgrwt>
<rscale>  0 0.33774964E+03</rscale>
<asrwt>0</asrwt>
<pdfrwt beam="1">  1       21 0.14495894E-01 0.33774964E+03</pdfrwt>
<pdfrwt beam="2">  1       21 0.46564838E-01 0.33774964E+03</pdfrwt>
<totfact> 0.17738755E+05</totfact>
</mgrwt>
</event>
<event>
 8    1  0.9400004E-006  0.4090524E+03  0.7546771E-02  0.1040689E+00
         21   -1    0    0  504  503  0.00000000000E+00  0.00000000000E+00  0.11857740884E+04  0.11857740884E+04  0.00000000000E+00 0. -1.
         21   -1    0    0  503  504 -0.00000000000E+00 -0.00000000000E+00 -0.35277347847E+02  0.35277347847E+02  0.00000000000E+00 0. -1.
         25    2    1    2    0    0 -0.16018244219E+03  0.22188827878E+02  0.59787433626E+03  0.63184298308E+03  0.12498429676E+03 0.  0.
         25    2    1    2    0    0  0.16018244219E+03 -0.22188827878E+02  0.55262240432E+03  0.58920845320E+03  0.12499728275E+03 0.  0.
          5    1    3    3  501    0 -0.40363512689E+02  0.60479170910E+02  0.15234216419E+03  0.16887027051E+03  0.47000000000E+01 0. -1.
         -5    1    3    3    0  501 -0.11981892950E+03 -0.38290343032E+02  0.44553217207E+03  0.46297271257E+03  0.47000000000E+01 0. -1.
          5    1    4    4  502    0  0.46065367584E+02  0.45578693180E+02  0.11746644718E+03  0.13423818970E+03  0.47000000000E+01 0.  1.
         -5    1    4    4    0  502  0.11411707461E+03 -0.67767521058E+02  0.43515595714E+03  0.45497026350E+03  0.47000000000E+01 0.  1.
<mgrwt>
<rscale>  0 0.40905239E+03</rscale>
<asrwt>0</asrwt>
<pdfrwt beam="1">  1       21 0.18242675E+00 0.40905239E+03</pdfrwt>
<pdfrwt beam="2">  1       21 0.54272852E-02 0.40905239E+03</pdfrwt>
<totfact> 0.37183420E+04</totfact>
</mgrwt>
</event>
<event>
 8    1  0.9400004E-006  0.3246270E+03  0.7546771E-02  0.1073539E+00
         21   -1    0    0  504  503  0.00000000000E+00  0.00000000000E+00  0.80203652423E+02  0.80203652423E+02  0.00000000000E+00 0. -1.
         21   -1    0    0  503  504 -0.00000000000E+00 -0.00000000000E+00 -0.32848478159E+03  0.32848478159E+03  0.00000000000E+00 0. -1.
         25    2    1    2    0    0 -0.61162676762E+02  0.57182790967E+02 -0.47461527853E+02  0.15776218630E+03  0.12500226473E+03 0.  0.
         25    2    1    2    0    0  0.61162676762E+02 -0.57182790967E+02 -0.20081960131E+03  0.25092624771E+03  0.12499889963E+03 0.  0.
          5    1    3    3  501    0 -0.54814973276E+02  0.71141761448E+02  0.16835376503E+02  0.91495089591E+02  0.47000000000E+01 0.  1.
         -5    1    3    3    0  501 -0.63477034859E+01 -0.13958970481E+02 -0.64296904356E+02  0.66267096709E+02  0.47000000000E+01 0.  1.
          5    1    4    4  502    0  0.77674283746E+00 -0.70594277608E+01 -0.16381131285E+03  0.16403254270E+03  0.47000000000E+01 0. -1.
         -5    1    4    4    0  502  0.60385933924E+02 -0.50123363206E+02 -0.37008288469E+02  0.86893705010E+02  0.47000000000E+01 0. -1.
<mgrwt>
<rscale>  0 0.32462704E+03</rscale>
<asrwt>0</asrwt>
<pdfrwt beam="1">  1       21 0.12339024E-01 0.32462704E+03</pdfrwt>
<pdfrwt beam="2">  1       21 0.50536120E-01 0.32462704E+03</pdfrwt>
<totfact> 0.20097475E+05</totfact>
</mgrwt>
</event>
<event>
 8    1  0.9400004E-006  0.3513754E+03  0.7546771E-02  0.1062052E+00
         21   -1    0    0  504  503  0.00000000000E+00  0.00000000000E+00  0.75444930859E+02  0.75444930859E+02  0.00000000000E+00 0. -1.
         21   -1    0    0  503  504 -0.00000000000E+00 -0.00000000000E+00 -0.40912190182E+03  0.40912190182E+03  0.00000000000E+00 0. -1.
         25    2    1    2    0    0 -0.20262169042E+02  0.11795670546E+03 -0.12510605402E+03  0.21354203298E+03  0.12499734093E+03 0.  0.
         25    2    1    2    0    0  0.20262169042E+02 -0.11795670546E+03 -0.20857091694E+03  0.27102479970E+03  0.12501309852E+03 0.  0.
          5    1    3    3  501    0  0.38784535481E+02  0.14159526778E+02 -0.14604322955E+01  0.41580707709E+02  0.47000000000E+01 0.  1.
         -5    1    3    3    0  501 -0.59046704523E+02  0.10379717868E+03 -0.12364562173E+03  0.17196132527E+03  0.47000000000E+01 0.  1.
          5    1    4    4  502    0  0.60429184529E+02 -0.66492091004E+02 -0.58545716047E+02  0.10734325958E+03  0.47000000000E+01 0. -1.
         -5    1    4    4    0  502 -0.40167015487E+02 -0.51464614456E+02 -0.15002520089E+03  0.16368154012E+03  0.47000000000E+01 0. -1.
<mgrwt>
<rscale>  0 0.35137543E+03</rscale>
<asrwt>0</asrwt>
<pdfrwt beam="1">  1       21 0.11606912E-01 0.35137543E+03</pdfrwt>
<pdfrwt beam="2">  1       21 0.62941831E-01 0.35137543E+03</pdfrwt>
<totfact> 0.13909926E+05</totfact>
</mgrwt>
</event>
<event>
 8    1  0.9400004E-006  0.5277447E+03  0.7546771E-02  0.1006781E+00
         21   -1    0    0  504  503  0.00000000000E+00  0.00000000000E+00  0.87290608899E+02  0.87290608899E+02  0.00000000000E+00 0. -1.
         21   -1    0    0  503  504 -0.00000000000E+00 -0.00000000000E+00 -0.79766432050E+03  0.79766432050E+03  0.00000000000E+00 0. -1.
         25    2    1    2    0    0  0.15655670046E+03 -0.17170921895E+03 -0.35976883941E+03  0.44615376169E+03  0.12500201970E+03 0.  0.
         25    2    1    2    0    0 -0.15655670046E+03  0.17170921895E+03 -0.35060487220E+03  0.43880116771E+03  0.12501452733E+03 0.  0.
          5    1    3    3  501    0  0.29700623931E+02  0.17890976879E+02 -0.37526204817E+02  0.51308090625E+02  0.47000000000E+01 0.  1.
         -5    1    3    3    0  501  0.12685607653E+03 -0.18960019583E+03 -0.32224263459E+03  0.39484567106E+03  0.47000000000E+01 0.  1.
          5    1    4    4  502    0 -0.11759675203E+03  0.16063831525E+03 -0.19791107731E+03  0.28075709953E+03  0.47000000000E+01 0. -1.
         -5    1    4    4    0  502 -0.38959948434E+02  0.11070903704E+02 -0.15269379489E+03  0.15804406819E+03  0.47000000000E+01 0. -1.
<mgrwt>
<rscale>  0 0.52774465E+03</rscale>
<asrwt>0</asrwt>
<pdfrwt beam="1">  1       21 0.13429325E-01 0.52774465E+03</pdfrwt>
<pdfrwt beam="2">  1       21 0.12271758E+00 0.52774465E+03</pdfrwt>
<totfact> 0.21127543E+04</totfact>
</mgrwt>
</event>
<event>
 8    1  0.9400004E-006  0.2713566E+03  0.7546771E-02  0.1100506E+00
         21   -1    0    0  504  503  0.00000000000E+00  0.00000000000E+00  0.32896136892E+03  0.32896136892E+03  0.00000000000E+00 0.  1.
         21   -1    0    0  503  504 -0.00000000000E+00 -0.00000000000E+00 -0.55959779618E+02  0.55959779618E+02  0.00000000000E+00 0.  1.
         25    2    1    2    0    0 -0.41100541853E+02 -0.31532600807E+02  0.15071186096E+03  0.20254180182E+03  0.12500222796E+03 0.  0.
         25    2    1    2    0    0  0.41100541853E+02  0.31532600807E+02  0.12228972834E+03  0.18237934672E+03  0.12499555591E+03 0.  0.
          5    1    3    3  501    0 -0.22613387529E+02 -0.31925586293E+02  0.17053521407E+03  0.17502844795E+03  0.47000000000E+01 0.  1.
         -5    1    3    3    0  501 -0.18487154325E+02  0.39298548561E+00 -0.19823353106E+02  0.27513353867E+02  0.47000000000E+01 0.  1.
          5    1    4    4  502    0  0.30737126833E+02  0.67728799845E+02  0.26078373244E+02  0.78956525034E+02  0.47000000000E+01 0.  1.
         -5    1    4    4    0  502  0.10363415020E+02 -0.36196199037E+02  0.96211355099E+02  0.10342282169E+03  0.47000000000E+01 0.  1.
<mgrwt>
<rscale>  0 0.27135663E+03</rscale>
<asrwt>0</asrwt>
<pdfrwt beam="1">  1       21 0.50609440E-01 0.27135663E+03</pdfrwt>
<pdfrwt beam="2">  1       21 0.86091970E-02 0.27135663E+03</pdfrwt>
<totfact> 0.38544424E+05</totfact>
</mgrwt>
</event>
<event>
 8    1  0.9400004E-006  0.2667769E+03  0.7546771E-02  0.1103139E+00
         21   -1    0    0  504  503  0.00000000000E+00  0.00000000000E+00  0.43524638139E+02  0.43524638139E+02  0.00000000000E+00 0. -1.
         21   -1    0    0  503  504 -0.00000000000E+00 -0.00000000000E+00 -0.40879102417E+03  0.40879102417E+03  0.00000000000E+00 0. -1.
         25    2    1    2    0    0 -0.35213469972E+02 -0.27122328529E+02 -0.15903799634E+03  0.20710003254E+03  0.12498691942E+03 0.  0.
         25    2    1    2    0    0  0.35213469972E+02  0.27122328529E+02 -0.20622838969E+03  0.24521562977E+03  0.12499978878E+03 0.  0.
          5    1    3    3  501    0 -0.27557276810E+02  0.40883881523E+02 -0.11597122236E+03  0.12610436031E+03  0.47000000000E+01 0.  1.
         -5    1    3    3    0  501 -0.76561931617E+01 -0.68006210052E+02 -0.43066773986E+02  0.80995672235E+02  0.47000000000E+01 0.  1.
          5    1    4    4  502    0 -0.11303871196E+02  0.28247935228E+02  0.28988815143E+01  0.30922756389E+02  0.47000000000E+01 0.  1.
         -5    1    4    4    0  502  0.46517341168E+02 -0.11256066985E+01 -0.20912727120E+03  0.21429287338E+03  0.47000000000E+01 0.  1.
<mgrwt>
<rscale>  0 0.26677692E+03</rscale>
<asrwt>0</asrwt>
<pdfrwt beam="1">  1       21 0.66960983E-02 0.26677692E+03</pdfrwt>
<pdfrwt beam="2">  1       21 0.62890925E-01 0.26677692E+03</pdfrwt>
<totfact> 0.37579257E+05</totfact>
</mgrwt>
</event>
<event>
 8    1  0.9400004E-006  0.2650872E+03  0.7546771E-02  0.1104125E+00
         21   -1    0    0  504  503  0.00000000000E+00  0.00000000000E+00  0.41181778498E+02  0.41181778498E+02  0.00000000000E+00 0. -1.
         21   -1    0    0  503  504 -0.00000000000E+00 -0.00000000000E+00 -0.42659184102E+03  0.42659184102E+03  0.00000000000E+00 0. -1.
         25    2    1    2    0    0  0.31665903043E+01 -0.41053317176E+02 -0.16501642262E+03  0.21107440644E+03  0.12500633254E+03 0.  0.
         25    2    1    2    0    0 -0.31665903043E+01  0.41053317176E+02 -0.22039363991E+03  0.25669921308E+03  0.12500290932E+03 0.  0.
          5    1    3    3  501    0  0.26070558196E+02 -0.75770135585E+02 -0.14248645012E+03  0.16353979919E+03  0.47000000000E+01 0.  1.
         -5    1    3    3    0  501 -0.22903967892E+02  0.34716818409E+02 -0.22529972499E+02  0.47534607250E+02  0.47000000000E+01 0.  1.
          5    1    4    4  502    0 -0.43774790893E+02 -0.23516529857E+02 -0.53657673127E+02  0.73283663798E+02  0.47000000000E+01 0.  1.
         -5    1    4    4    0  502  0.40608200588E+02  0.64569847033E+02 -0.16673596678E+03  0.18341554929E+03  0.47000000000E+01 0.  1.
<mgrwt>
<rscale>  0 0.26508724E+03</rscale>
<asrwt>0</asrwt>
<pdfrwt beam="1">  1       21 0.63356585E-02 0.26508724E+03</pdfrwt>
<pdfrwt beam="2">  1       21 0.65629511E-01 0.26508724E+03</pdfrwt>
<totfact> 0.37686671E+05</totfact>
</mgrwt>
</event>
<event>
 8    1  0.9400004E-006  0.4232917E+03  0.7546771E-02  0.1036000E+00
         21   -1    0    0  504  503  0.00000000000E+00  0.00000000000E+00  0.90413673189E+02  0.90413673189E+02  0.00000000000E+00 0. -1.
         21   -1    0    0  503  504 -0.00000000000E+00 -0.00000000000E+00 -0.49543359098E+03  0.49543359098E+03  0.00000000000E+00 0. -1.
         25    2    1    2    0    0  0.41282314268E+02 -0.67320802977E+02  0.70875443119E+01  0.14801981546E+03  0.12499324981E+03 0.  0.
         25    2    1    2    0    0 -0.41282314268E+02  0.67320802977E+02 -0.41210746210E+03  0.43782744871E+03  0.12499597810E+03 0.  0.
          5    1    3    3  501    0  0.83621796126E+02 -0.50009973223E+02  0.21386751656E+02  0.99865336106E+02  0.47000000000E+01 0.  1.
         -5    1    3    3    0  501 -0.42339481858E+02 -0.17310829754E+02 -0.14299207344E+02  0.48154479350E+02  0.47000000000E+01 0.  1.
          5    1    4    4  502    0 -0.37408604477E+01  0.93672744729E+02 -0.20233063869E+03  0.22304339151E+03  0.47000000000E+01 0. -1.
         -5    1    4    4    0  502 -0.37541453820E+02 -0.26351941752E+02 -0.20977682341E+03  0.21478405721E+03  0.47000000000E+01 0. -1.
<mgrwt>
<rscale>  0 0.42329172E+03</rscale>
<asrwt>0</asrwt>
<pdfrwt beam="1">  1       21 0.13909796E-01 0.42329172E+03</pdfrwt>
<pdfrwt beam="2">  1       21 0.76220551E-01 0.42329172E+03</pdfrwt>
<totfact> 0.64080199E+04</totfact>
</mgrwt>
</event>
<event>
 8    1  0.9400004E-006  0.2670669E+03  0.7546771E-02  0.1102970E+00
         21   -1    0    0  504  503  0.00000000000E+00  0.00000000000E+00  0.56378564023E+02  0.56378564023E+02  0.00000000000E+00 0.  1.
         21   -1    0    0  503  504 -0.00000000000E+00 -0.00000000000E+00 -0.31627581991E+03  0.31627581991E+03  0.00000000000E+00 0.  1.
         25    2    1    2    0    0 -0.20359738535E+02 -0.15159321320E+02 -0.74786272106E+02  0.14785908565E+03  0.12499999495E+03 0.  0.
         25    2    1    2    0    0  0.20359738535E+02  0.15159321320E+02 -0.18511098378E+03  0.22479529828E+03  0.12499010295E+03 0.  0.
          5    1    3    3  501    0  0.12055014500E+02  0.23383514737E+01  0.32109295278E+02  0.34697090735E+02  0.47000000000E+01 0. -1.
         -5    1    3    3    0  501 -0.32414753035E+02 -0.17497672794E+02 -0.10689556738E+03  0.11316199492E+03  0.47000000000E+01 0. -1.
          5    1    4    4  502    0 -0.33067896860E+02 -0.24105861245E+02 -0.18004048456E+02  0.44953466050E+02  0.47000000000E+01 0. -1.
         -5    1    4    4    0  502  0.53427635395E+02  0.39265182566E+02 -0.16710693532E+03  0.17984183223E+03  0.47000000000E+01 0. -1.
<mgrwt>
<rscale>  0 0.26706686E+03</rscale>
<asrwt>0</asrwt>
<pdfrwt beam="1">  1       21 0.86736248E-02 0.26706686E+03</pdfrwt>
<pdfrwt beam="2">  1       21 0.48657821E-01 0.26706686E+03</pdfrwt>
<totfact> 0.41350519E+05</totfact>
</mgrwt>
</event>
<event>
 8    1  0.9400004E-006  0.3108350E+03  0.7546771E-02  0.1079946E+00
         21   -1    0    0  504  503  0.00000000000E+00  0.00000000000E+00  0.15200865647E+03  0.15200865647E+03  0.00000000000E+00 0. -1.
         21   -1    0    0  503  504 -0.00000000000E+00 -0.00000000000E+00 -0.15890283322E+03  0.15890283322E+03  0.00000000000E+00 0. -1.
         25    2    1    2    0    0 -0.21392087953E+02 -0.18700729835E+02  0.84458378282E+02  0.15351078821E+03  0.12500002285E+03 0.  0.
         25    2    1    2    0    0  0.21392087953E+02  0.18700729835E+02 -0.91352555026E+02  0.15740070148E+03  0.12498941072E+03 0.  0.
          5    1    3    3  501    0  0.12925394626E+02  0.12739688793E+02  0.10188183111E+03  0.10359229222E+03  0.47000000000E+01 0.  1.
         -5    1    3    3    0  501 -0.34317482579E+02 -0.31440418628E+02 -0.17423452827E+02  0.49918495996E+02  0.47000000000E+01 0.  1.
          5    1    4    4  502    0  0.17618002866E+02  0.71250952663E+02 -0.40194433947E+02  0.83813929634E+02  0.47000000000E+01 0. -1.
         -5    1    4    4    0  502  0.37740850871E+01 -0.52550222829E+02 -0.51158121079E+02  0.73586771841E+02  0.47000000000E+01 0. -1.
<mgrwt>
<rscale>  0 0.31083504E+03</rscale>
<asrwt>0</asrwt>
<pdfrwt beam="1">  1       21 0.23385947E-01 0.31083504E+03</pdfrwt>
<pdfrwt beam="2">  1       21 0.24446590E-01 0.31083504E+03</pdfrwt>
<totfact> 0.26433041E+05</totfact>
</mgrwt>
</event>
<event>
 8    1  0.9400004E-006  0.2857668E+03  0.7546771E-02  0.1092580E+00
         21   -1    0    0  504  503  0.00000000000E+00  0.00000000000E+00  0.28506765576E+03  0.28506765576E+03  0.00000000000E+00 0. -1.
         21   -1    0    0  503  504 -0.00000000000E+00 -0.00000000000E+00 -0.71616939614E+02  0.71616939614E+02  0.00000000000E+00 0. -1.
         25    2    1    2    0    0 -0.84269481572E+01  0.63514441560E+02  0.74016150710E+02  0.15876448954E+03  0.12499069898E+03 0.  0.
         25    2    1    2    0    0  0.84269481572E+01 -0.63514441560E+02  0.13943456543E+03  0.19792010583E+03  0.12500109005E+03 0.  0.
          5    1    3    3  501    0 -0.27274108210E+02 -0.90625959582E+01  0.78270517161E+02  0.83512702512E+02  0.47000000000E+01 0.  1.
         -5    1    3    3    0  501  0.18847160053E+02  0.72577037519E+02 -0.42543664511E+01  0.75251787028E+02  0.47000000000E+01 0.  1.
          5    1    4    4  502    0 -0.75727849995E+01 -0.48616864464E+02 -0.68827280147E+01  0.49903993106E+02  0.47000000000E+01 0.  1.
         -5    1    4    4    0  502  0.15999733157E+02 -0.14897577096E+02  0.14631729345E+03  0.14801611273E+03  0.47000000000E+01 0.  1.
<mgrwt>
<rscale>  0 0.28576685E+03</rscale>
<asrwt>0</asrwt>
<pdfrwt beam="1">  1       21 0.43856562E-01 0.28576685E+03</pdfrwt>
<pdfrwt beam="2">  1       21 0.11017991E-01 0.28576685E+03</pdfrwt>
<totfact> 0.33417283E+05</totfact>
</mgrwt>
</event>
<event>
 8    1  0.9400004E-006  0.3028983E+03  0.7546771E-02  0.1083801E+00
         21   -1    0    0  504  503  0.00000000000E+00  0.00000000000E+00  0.10376848214E+03  0.10376848214E+03  0.00000000000E+00 0. -1.
         21   -1    0    0  503  504 -0.00000000000E+00 -0.00000000000E+00 -0.22103857894E+03  0.22103857894E+03  0.00000000000E+00 0. -1.
         25    2    1    2    0    0 -0.15881726661E+02  0.56651932587E+02  0.79036678240E+01  0.13837782495E+03  0.12499713503E+03 0.  0.
         25    2    1    2    0    0  0.15881726661E+02 -0.56651932587E+02 -0.12517376463E+03  0.18642923613E+03  0.12500287207E+03 0.  0.
          5    1    3    3  501    0 -0.62108067240E+02  0.63938065543E+02 -0.56248443716E+01  0.89438342538E+02  0.47000000000E+01 0. -1.
         -5    1    3    3    0  501  0.46226340580E+02 -0.72861329560E+01  0.13528512196E+02  0.48939482415E+02  0.47000000000E+01 0. -1.
          5    1    4    4  502    0 -0.14524962710E+02 -0.28559621313E+02  0.18184031575E+02  0.37139945013E+02  0.47000000000E+01 0. -1.
         -5    1    4    4    0  502  0.30406689371E+02 -0.28092311274E+02 -0.14335779620E+03  0.14928929112E+03  0.47000000000E+01 0. -1.
<mgrwt>
<rscale>  0 0.30289825E+03</rscale>
<asrwt>0</asrwt>
<pdfrwt beam="1">  1       21 0.15964382E-01 0.30289825E+03</pdfrwt>
<pdfrwt beam="2">  1       21 0.34005935E-01 0.30289825E+03</pdfrwt>
<totfact> 0.28424971E+05</totfact>
</mgrwt>
</event>
<event>
 8    1  0.9400004E-006  0.3683884E+03  0.7546771E-02  0.1055311E+00
         21   -1    0    0  504  503  0.00000000000E+00  0.00000000000E+00  0.90553379999E+02  0.90553379999E+02  0.00000000000E+00 0.  1.
         21   -1    0    0  503  504 -0.00000000000E+00 -0.00000000000E+00 -0.37466854969E+03  0.37466854969E+03  0.00000000000E+00 0.  1.
         25    2    1    2    0    0 -0.17515002114E+02  0.11236093346E+03 -0.49513145515E+02  0.17609213192E+03  0.12500053072E+03 0.  0.
         25    2    1    2    0    0  0.17515002114E+02 -0.11236093346E+03 -0.23460202417E+03  0.28912979776E+03  0.12500470207E+03 0.  0.
          5    1    3    3  501    0 -0.42900604098E+02  0.79704011567E+02 -0.82820421041E+02  0.12277826939E+03  0.47000000000E+01 0. -1.
         -5    1    3    3    0  501  0.25385601985E+02  0.32656921895E+02  0.33307275526E+02  0.53313862539E+02  0.47000000000E+01 0. -1.
          5    1    4    4  502    0  0.21958227180E+02 -0.12627024517E+03 -0.24060928281E+03  0.27265592884E+03  0.47000000000E+01 0.  1.
         -5    1    4    4    0  502 -0.44432250660E+01  0.13909311704E+02  0.60072586375E+01  0.16473868926E+02  0.47000000000E+01 0.  1.
<mgrwt>
<rscale>  0 0.36838840E+03</rscale>
<asrwt>0</asrwt>
<pdfrwt beam="1">  1       21 0.13931289E-01 0.36838840E+03</pdfrwt>
<pdfrwt beam="2">  1       21 0.57641316E-01 0.36838840E+03</pdfrwt>
<totfact> 0.12039884E+05</totfact>
</mgrwt>
</event>
<event>
 8    1  0.9400004E-006  0.2873736E+03  0.7546771E-02  0.1091728E+00
         21   -1    0    0  504  503  0.00000000000E+00  0.00000000000E+00  0.40391757598E+03  0.40391757598E+03  0.00000000000E+00 0. -1.
         21   -1    0    0  503  504 -0.00000000000E+00 -0.00000000000E+00 -0.51114119381E+02  0.51114119381E+02  0.00000000000E+00 0. -1.
         25    2    1    2    0    0  0.21565686825E+02  0.34260783017E+02  0.26848001581E+03  0.29891091965E+03  0.12500935524E+03 0.  0.
         25    2    1    2    0    0 -0.21565686825E+02 -0.34260783017E+02  0.84323440798E+02  0.15612077572E+03  0.12499749534E+03 0.  0.
          5    1    3    3  501    0  0.89707892295E+01  0.42831444460E+02  0.27724547819E+03  0.28071721157E+03  0.47000000000E+01 0.  1.
         -5    1    3    3    0  501  0.12594897595E+02 -0.85706614432E+01 -0.87654623823E+01  0.18193708082E+02  0.47000000000E+01 0.  1.
          5    1    4    4  502    0 -0.79735131455E+01 -0.21660520097E+02 -0.31162095866E+02  0.39063042143E+02  0.47000000000E+01 0.  1.
         -5    1    4    4    0  502 -0.13592173679E+02 -0.12600262920E+02  0.11548553666E+03  0.11705773357E+03  0.47000000000E+01 0.  1.
<mgrwt>
<rscale>  0 0.28737356E+03</rscale>
<asrwt>0</asrwt>
<pdfrwt beam="1">  1       21 0.62141164E-01 0.28737356E+03</pdfrwt>
<pdfrwt beam="2">  1       21 0.78637109E-02 0.28737356E+03</pdfrwt>
<totfact> 0.29017514E+05</totfact>
</mgrwt>
</event>
<event>
 8    1  0.9400004E-006  0.2799799E+03  0.7546771E-02  0.1095700E+00
         21   -1    0    0  504  503  0.00000000000E+00  0.00000000000E+00  0.49506334821E+03  0.49506334821E+03  0.00000000000E+00 0. -1.
         21   -1    0    0  503  504 -0.00000000000E+00 -0.00000000000E+00 -0.39585211587E+02  0.39585211587E+02  0.00000000000E+00 0. -1.
         25    2    1    2    0    0 -0.43641293899E+02 -0.61955716113E+01  0.14169240164E+03  0.19401806521E+03  0.12499330103E+03 0.  0.
         25    2    1    2    0    0  0.43641293899E+02  0.61955716113E+01  0.31378573498E+03  0.34063049459E+03  0.12499879489E+03 0.  0.
          5    1    3    3  501    0 -0.55223850698E+02  0.40276720945E+02  0.12596091801E+03  0.14338804274E+03  0.47000000000E+01 0. -1.
         -5    1    3    3    0  501  0.11582556799E+02 -0.46472292556E+02  0.15731483632E+02  0.50630022464E+02  0.47000000000E+01 0. -1.
          5    1    4    4  502    0 -0.30307392393E+02 -0.32671869649E+02  0.72315587498E+02  0.85074222273E+02  0.47000000000E+01 0.  1.
         -5    1    4    4    0  502  0.73948686293E+02  0.38867441261E+02  0.24147014748E+03  0.25555627232E+03  0.47000000000E+01 0.  1.
<mgrwt>
<rscale>  0 0.27997991E+03</rscale>
<asrwt>0</asrwt>
<pdfrwt beam="1">  1       21 0.76163588E-01 0.27997991E+03</pdfrwt>
<pdfrwt beam="2">  1       21 0.60900329E-02 0.27997991E+03</pdfrwt>
<totfact> 0.28865073E+05</totfact>
</mgrwt>
</event>
<event>
 8    1  0.9400004E-006  0.2978101E+03  0.7546771E-02  0.1086340E+00
         21   -1    0    0  504  503  0.00000000000E+00  0.00000000000E+00  0.38274106694E+02  0.38274106694E+02  0.00000000000E+00 0. -1.
         21   -1    0    0  503  504 -0.00000000000E+00 -0.00000000000E+00 -0.57931374889E+03  0.57931374889E+03  0.00000000000E+00 0. -1.
         25    2    1    2    0    0  0.30382252997E+02 -0.10080883393E+02 -0.11640281830E+03  0.17377935883E+03  0.12499977575E+03 0.  0.
         25    2    1    2    0    0 -0.30382252997E+02  0.10080883393E+02 -0.42463682390E+03  0.44380849676E+03  0.12499937632E+03 0.  0.
          5    1    3    3  501    0  0.20123304910E+02 -0.67019635056E+02 -0.73554387040E+02  0.10163127834E+03  0.47000000000E+01 0. -1.
         -5    1    3    3    0  501  0.10258948087E+02  0.56938751662E+02 -0.42848431262E+02  0.72148080490E+02  0.47000000000E+01 0. -1.
          5    1    4    4  502    0 -0.80527385062E+01 -0.98533353835E+01 -0.40988344242E+03  0.41010786530E+03  0.47000000000E+01 0. -1.
         -5    1    4    4    0  502 -0.22329514490E+02  0.19934218777E+02 -0.14753381479E+02  0.33700631458E+02  0.47000000000E+01 0. -1.
<mgrwt>
<rscale>  0 0.29781012E+03</rscale>
<asrwt>0</asrwt>
<pdfrwt beam="1">  1       21 0.58883248E-02 0.29781012E+03</pdfrwt>
<pdfrwt beam="2">  1       21 0.89125181E-01 0.29781012E+03</pdfrwt>
<totfact> 0.21229430E+05</totfact>
</mgrwt>
</event>
<event>
 8    1  0.9400004E-006  0.2570018E+03  0.7546771E-02  0.1108958E+00
         21   -1    0    0  504  503  0.00000000000E+00  0.00000000000E+00  0.17372280890E+03  0.17372280890E+03  0.00000000000E+00 0. -1.
         21   -1    0    0  503  504 -0.00000000000E+00 -0.00000000000E+00 -0.95050730030E+02  0.95050730030E+02  0.00000000000E+00 0. -1.
         25    2    1    2    0    0 -0.23137113174E+01  0.81660361104E+01  0.69199965945E+02  0.14312847659E+03  0.12500035247E+03 0.  0.
         25    2    1    2    0    0  0.23137113174E+01 -0.81660361104E+01  0.94721129285E+01  0.12564506234E+03  0.12499969345E+03 0.  0.
          5    1    3    3  501    0 -0.34819957472E+02 -0.39420489021E+02  0.66943480119E+02  0.85263848867E+02  0.47000000000E+01 0. -1.
         -5    1    3    3    0  501  0.32506246155E+02  0.47586525132E+02  0.22564858256E+01  0.57864627723E+02  0.47000000000E+01 0. -1.
          5    1    4    4  502    0  0.61644402072E+02  0.10054355540E+02  0.98220016757E+01  0.63400978613E+02  0.47000000000E+01 0. -1.
         -5    1    4    4    0  502 -0.59330690755E+02 -0.18220391651E+02 -0.34988874720E+00  0.62244083731E+02  0.47000000000E+01 0. -1.
<mgrwt>
<rscale>  0 0.25700179E+03</rscale>
<asrwt>0</asrwt>
<pdfrwt beam="1">  1       21 0.26726586E-01 0.25700179E+03</pdfrwt>
<pdfrwt beam="2">  1       21 0.14623189E-01 0.25700179E+03</pdfrwt>
<totfact> 0.54108452E+05</totfact>
</mgrwt>
</event>
<event>
 8    1  0.9400004E-006  0.2935241E+03  0.7546771E-02  0.1088523E+00
         21   -1    0    0  504  503  0.00000000000E+00  0.00000000000E+00  0.60375752366E+03  0.60375752366E+03  0.00000000000E+00 0. -1.
         21   -1    0    0  503  504 -0.00000000000E+00 -0.00000000000E+00 -0.35675079273E+02  0.35675079273E+02  0.00000000000E+00 0. -1.
         25    2    1    2    0    0  0.40843976114E+02  0.56404667471E+02  0.35508512196E+03  0.38283170479E+03  0.12499981384E+03 0.  0.
         25    2    1    2    0    0 -0.40843976114E+02 -0.56404667471E+02  0.21299732243E+03  0.25660089814E+03  0.12500577854E+03 0.  0.
          5    1    3    3  501    0 -0.88307810822E+01  0.80265950137E+02  0.26550502972E+03  0.27755290712E+03  0.47000000000E+01 0.  1.
         -5    1    3    3    0  501  0.49674757196E+02 -0.23861282666E+02  0.89580092238E+02  0.10527879767E+03  0.47000000000E+01 0.  1.
          5    1    4    4  502    0 -0.68139473705E+02 -0.58071985438E+02  0.78161602330E+02  0.11893977236E+03  0.47000000000E+01 0. -1.
         -5    1    4    4    0  502  0.27295497591E+02  0.16673179666E+01  0.13483572010E+03  0.13766112578E+03  0.47000000000E+01 0. -1.
<mgrwt>
<rscale>  0 0.29352409E+03</rscale>
<asrwt>0</asrwt>
<pdfrwt beam="1">  1       21 0.92885766E-01 0.29352409E+03</pdfrwt>
<pdfrwt beam="2">  1       21 0.54884742E-02 0.29352409E+03</pdfrwt>
<totfact> 0.21769435E+05</totfact>
</mgrwt>
</event>
<event>
 8    1  0.9400004E-006  0.6979485E+03  0.7546771E-02  0.9720747E-01
         21   -1    0    0  504  503  0.00000000000E+00  0.00000000000E+00  0.23896118723E+03  0.23896118723E+03  0.00000000000E+00 0. -1.
         21   -1    0    0  503  504 -0.00000000000E+00 -0.00000000000E+00 -0.50963523385E+03  0.50963523385E+03  0.00000000000E+00 0. -1.
         25    2    1    2    0    0 -0.20640214482E+03 -0.25151831870E+03 -0.11715297268E+03  0.36771418144E+03  0.12500236077E+03 0.  0.
         25    2    1    2    0    0  0.20640214482E+03  0.25151831870E+03 -0.15352107394E+03  0.38088223964E+03  0.12505698821E+03 0.  0.
          5    1    3    3  501    0 -0.33651924120E+02 -0.10487219338E+03  0.47893331085E+01  0.11034335799E+03  0.47000000000E+01 0.  1.
         -5    1    3    3    0  501 -0.17275022070E+03 -0.14664612533E+03 -0.12194230579E+03  0.25737082345E+03  0.47000000000E+01 0.  1.
          5    1    4    4  502    0  0.13425549951E+03  0.77400777252E+02 -0.37498523048E+02  0.15951065387E+03  0.47000000000E+01 0. -1.
         -5    1    4    4    0  502  0.72146645310E+02  0.17411754145E+03 -0.11602255090E+03  0.22137158577E+03  0.47000000000E+01 0. -1.
<mgrwt>
<rscale>  0 0.69794854E+03</rscale>
<asrwt>0</asrwt>
<pdfrwt beam="1">  1       21 0.36763260E-01 0.69794854E+03</pdfrwt>
<pdfrwt beam="2">  1       21 0.78405421E-01 0.69794854E+03</pdfrwt>
<totfact> 0.86213074E+03</totfact>
</mgrwt>
</event>
<event>
 8    1  0.9400004E-006  0.2896245E+03  0.7546771E-02  0.1090545E+00
         21   -1    0    0  504  503  0.00000000000E+00  0.00000000000E+00  0.21095391664E+03  0.21095391664E+03  0.00000000000E+00 0. -1.
         21   -1    0    0  503  504 -0.00000000000E+00 -0.00000000000E+00 -0.99408400826E+02  0.99408400826E+02  0.00000000000E+00 0. -1.
         25    2    1    2    0    0 -0.11818387902E+02 -0.27690890154E+02  0.12717080350E+03  0.18084270148E+03  0.12500083890E+03 0.  0.
         25    2    1    2    0    0  0.11818387902E+02  0.27690890154E+02 -0.15625287681E+02  0.12951961599E+03  0.12499888648E+03 0.  0.
          5    1    3    3  501    0 -0.66242670548E+02 -0.18321046048E+02  0.47065972269E+02  0.83432894444E+02  0.47000000000E+01 0. -1.
         -5    1    3    3    0  501  0.54424282646E+02 -0.93698441061E+01  0.80104831230E+02  0.97409807034E+02  0.47000000000E+01 0. -1.
          5    1    4    4  502    0 -0.30017438879E+02  0.12394059085E+02  0.44034765137E+02  0.54916389886E+02  0.47000000000E+01 0.  1.
         -5    1    4    4    0  502  0.41835826781E+02  0.15296831069E+02 -0.59660052818E+02  0.74603226106E+02  0.47000000000E+01 0.  1.
<mgrwt>
<rscale>  0 0.28962453E+03</rscale>
<asrwt>0</asrwt>
<pdfrwt beam="1">  1       21 0.32454449E-01 0.28962453E+03</pdfrwt>
<pdfrwt beam="2">  1       21 0.15293600E-01 0.28962453E+03</pdfrwt>
<totfact> 0.33854703E+05</totfact>
</mgrwt>
</event>
<event>
 8    1  0.9400004E-006  0.3048428E+03  0.7546771E-02  0.1082845E+00
         21   -1    0    0  504  503  0.00000000000E+00  0.00000000000E+00  0.82160094394E+02  0.82160094394E+02  0.00000000000E+00 0.  1.
         21   -1    0    0  503  504 -0.00000000000E+00 -0.00000000000E+00 -0.28276842057E+03  0.28276842057E+03  0.00000000000E+00 0.  1.
         25    2    1    2    0    0  0.72419756081E+02  0.47394155597E+02 -0.87249048279E+02  0.17528266017E+03  0.12498314877E+03 0.  0.
         25    2    1    2    0    0 -0.72419756081E+02 -0.47394155597E+02 -0.11335927789E+03  0.18964585479E+03  0.12499758917E+03 0.  0.
          5    1    3    3  501    0  0.14143793330E+02  0.79940857284E+02 -0.28287847316E+02  0.86098082783E+02  0.47000000000E+01 0. -1.
         -5    1    3    3    0  501  0.58275962751E+02 -0.32546701687E+02 -0.58961200962E+02  0.89184577390E+02  0.47000000000E+01 0. -1.
          5    1    4    4  502    0 -0.99037704809E+02 -0.63372444837E+02 -0.10356193942E+03  0.15675362527E+03  0.47000000000E+01 0. -1.
         -5    1    4    4    0  502  0.26617948729E+02  0.15978289240E+02 -0.97973384777E+01  0.32892229520E+02  0.47000000000E+01 0. -1.
<mgrwt>
<rscale>  0 0.30484278E+03</rscale>
<asrwt>0</asrwt>
<pdfrwt beam="1">  1       21 0.12640015E-01 0.30484278E+03</pdfrwt>
<pdfrwt beam="2">  1       21 0.43502833E-01 0.30484278E+03</pdfrwt>
<totfact> 0.26422722E+05</totfact>
</mgrwt>
</event>
<event>
 8    1  0.9400004E-006  0.3582513E+03  0.7546771E-02  0.1059278E+00
         21   -1    0    0  504  503  0.00000000000E+00  0.00000000000E+00  0.12582802230E+03  0.12582802230E+03  0.00000000000E+00 0. -1.
         21   -1    0    0  503  504 -0.00000000000E+00 -0.00000000000E+00 -0.25499884671E+03  0.25499884671E+03  0.00000000000E+00 0. -1.
         25    2    1    2    0    0 -0.63974590786E+02 -0.32656116504E+02 -0.17756604810E+03  0.22872238303E+03  0.12500022740E+03 0.  0.
         25    2    1    2    0    0  0.63974590786E+02  0.32656116504E+02  0.48395223695E+02  0.15210448598E+03  0.12503802129E+03 0.  0.
          5    1    3    3  501    0 -0.49114502064E+02  0.23887735359E+01 -0.18339204194E+03  0.18992806954E+03  0.47000000000E+01 0. -1.
         -5    1    3    3    0  501 -0.14860088722E+02 -0.35044890040E+02  0.58259938451E+01  0.38794313489E+02  0.47000000000E+01 0. -1.
          5    1    4    4  502    0  0.67369661467E+02 -0.35156417357E+02  0.24995080270E+02  0.80134193733E+02  0.47000000000E+01 0.  1.
         -5    1    4    4    0  502 -0.33950706816E+01  0.67812533861E+02  0.23400143424E+02  0.71970292245E+02  0.47000000000E+01 0.  1.
<mgrwt>
<rscale>  0 0.35825131E+03</rscale>
<asrwt>0</asrwt>
<pdfrwt beam="1">  1       21 0.19358157E-01 0.35825131E+03</pdfrwt>
<pdfrwt beam="2">  1       21 0.39230592E-01 0.35825131E+03</pdfrwt>
<totfact> 0.14689780E+05</totfact>
</mgrwt>
</event>
<event>
 8    1  0.9400004E-006  0.2911308E+03  0.7546771E-02  0.1089760E+00
         21   -1    0    0  504  503  0.00000000000E+00  0.00000000000E+00  0.13986378032E+04  0.13986378032E+04  0.00000000000E+00 0. -1.
         21   -1    0    0  503  504 -0.00000000000E+00 -0.00000000000E+00 -0.15149946640E+02  0.15149946640E+02  0.00000000000E+00 0. -1.
         25    2    1    2    0    0  0.50678710920E+02  0.52636532828E+02  0.61820708435E+03  0.63493713602E+03  0.12500492480E+03 0.  0.
         25    2    1    2    0    0 -0.50678710920E+02 -0.52636532828E+02  0.76528077220E+03  0.77885061381E+03  0.12495872122E+03 0.  0.
          5    1    3    3  501    0 -0.11051409164E+02  0.21143028150E+01  0.62821125532E+00  0.12210183057E+02  0.47000000000E+01 0. -1.
         -5    1    3    3    0  501  0.61730120084E+02  0.50522230013E+02  0.61757887310E+03  0.62272695296E+03  0.47000000000E+01 0. -1.
          5    1    4    4  502    0 -0.16351711150E+00  0.72505522230E+01 -0.87379754071E+00  0.86862401260E+01  0.47000000000E+01 0. -1.
         -5    1    4    4    0  502 -0.50515193809E+02 -0.59887085051E+02  0.76615456974E+03  0.77016437369E+03  0.47000000000E+01 0. -1.
<mgrwt>
<rscale>  0 0.29113082E+03</rscale>
<asrwt>0</asrwt>
<pdfrwt beam="1">  1       21 0.21517495E+00 0.29113082E+03</pdfrwt>
<pdfrwt beam="2">  1       21 0.23307621E-02 0.29113082E+03</pdfrwt>
<totfact> 0.98168441E+04</totfact>
</mgrwt>
</event>
<event>
 8    1  0.9400004E-006  0.2724977E+03  0.7546771E-02  0.1099859E+00
         21   -1    0    0  504  503  0.00000000000E+00  0.00000000000E+00  0.77232498838E+03  0.77232498838E+03  0.00000000000E+00 0. -1.
         21   -1    0    0  503  504 -0.00000000000E+00 -0.00000000000E+00 -0.24036197066E+02  0.24036197066E+02  0.00000000000E+00 0. -1.
         25    2    1    2    0    0  0.13155310995E+02 -0.51494933148E+02  0.34287884955E+03  0.36880330524E+03  0.12500072855E+03 0.  0.
         25    2    1    2    0    0 -0.13155310995E+02  0.51494933148E+02  0.40540994176E+03  0.42755788021E+03  0.12499491870E+03 0.  0.
          5    1    3    3  501    0  0.52683887003E+02 -0.31733773430E+01  0.64516085143E+02  0.83486990098E+02  0.47000000000E+01 0. -1.
         -5    1    3    3    0  501 -0.39528576008E+02 -0.48321555805E+02  0.27836276441E+03  0.28531631514E+03  0.47000000000E+01 0. -1.
          5    1    4    4  502    0  0.19909500445E+02  0.46388184617E+02  0.52315970697E+02  0.72851236571E+02  0.47000000000E+01 0.  1.
         -5    1    4    4    0  502 -0.33064811440E+02  0.51067485309E+01  0.35309397107E+03  0.35470664364E+03  0.47000000000E+01 0.  1.
<mgrwt>
<rscale>  0 0.27249775E+03</rscale>
<asrwt>0</asrwt>
<pdfrwt beam="1">  1       21 0.11881921E+00 0.27249775E+03</pdfrwt>
<pdfrwt beam="2">  1       21 0.36978771E-02 0.27249775E+03</pdfrwt>
<totfact> 0.23583923E+05</totfact>
</mgrwt>
</event>
<event>
 8    1  0.9400004E-006  0.3780069E+03  0.7546771E-02  0.1051673E+00
         21   -1    0    0  504  503  0.00000000000E+00  0.00000000000E+00  0.40919143253E+02  0.40919143253E+02  0.00000000000E+00 0.  1.
         21   -1    0    0  503  504 -0.00000000000E+00 -0.00000000000E+00 -0.87299756933E+03  0.87299756933E+03  0.00000000000E+00 0.  1.
         25    2    1    2    0    0 -0.98534760199E+02  0.75177619655E+02 -0.24964549580E+03  0.30546412315E+03  0.12499873398E+03 0.  0.
         25    2    1    2    0    0  0.98534760199E+02 -0.75177619655E+02 -0.58243293028E+03  0.60845258943E+03  0.12500264736E+03 0.  0.
          5    1    3    3  501    0  0.37662662662E+01  0.31051689562E+02  0.45139833327E+00  0.31633620512E+02  0.47000000000E+01 0.  1.
         -5    1    3    3    0  501 -0.10230102647E+03  0.44125930093E+02 -0.25009689413E+03  0.27383050264E+03  0.47000000000E+01 0.  1.
          5    1    4    4  502    0 -0.99605881392E+01 -0.64534705357E+02 -0.18191773096E+03  0.19333931920E+03  0.47000000000E+01 0.  1.
         -5    1    4    4    0  502  0.10849534834E+03 -0.10642914298E+02 -0.40051519932E+03  0.41511327023E+03  0.47000000000E+01 0.  1.
<mgrwt>
<rscale>  0 0.37800694E+03</rscale>
<asrwt>0</asrwt>
<pdfrwt beam="1">  1       21 0.62952531E-02 0.37800694E+03</pdfrwt>
<pdfrwt beam="2">  1       21 0.13430731E+00 0.37800694E+03</pdfrwt>
<totfact> 0.67427549E+04</totfact>
</mgrwt>
</event>
<event>
 8    1  0.9400004E-006  0.2513825E+03  0.7546771E-02  0.1112434E+00
         21   -1    0    0  504  503  0.00000000000E+00  0.00000000000E+00  0.42365902712E+02  0.42365902712E+02  0.00000000000E+00 0. -1.
         21   -1    0    0  503  504 -0.00000000000E+00 -0.00000000000E+00 -0.37290103252E+03  0.37290103252E+03  0.00000000000E+00 0. -1.
         25    2    1    2    0    0 -0.12814021966E+02  0.20071960760E+01 -0.16170656727E+03  0.20479998522E+03  0.12500316817E+03 0.  0.
         25    2    1    2    0    0  0.12814021966E+02 -0.20071960760E+01 -0.16882856253E+03  0.21046695001E+03  0.12500010210E+03 0.  0.
          5    1    3    3  501    0 -0.39372970373E+02  0.59825956205E+01  0.71357488634E+00  0.40107623159E+02  0.47000000000E+01 0. -1.
         -5    1    3    3    0  501  0.26558948407E+02 -0.39753995445E+01 -0.16242014216E+03  0.16469236206E+03  0.47000000000E+01 0. -1.
          5    1    4    4  502    0  0.47739531568E+02  0.45654877594E+02 -0.83568240574E+02  0.10662631737E+03  0.47000000000E+01 0. -1.
         -5    1    4    4    0  502 -0.34925509602E+02 -0.47662073670E+02 -0.85260321961E+02  0.10384063265E+03  0.47000000000E+01 0. -1.
<mgrwt>
<rscale>  0 0.25138249E+03</rscale>
<asrwt>0</asrwt>
<pdfrwt beam="1">  1       21 0.65178312E-02 0.25138249E+03</pdfrwt>
<pdfrwt beam="2">  1       21 0.57369389E-01 0.25138249E+03</pdfrwt>
<totfact> 0.48188000E+05</totfact>
</mgrwt>
</event>
<event>
 8    1  0.9400004E-006  0.2616641E+03  0.7546771E-02  0.1106148E+00
         21   -1    0    0  504  503  0.00000000000E+00  0.00000000000E+00  0.50014314528E+02  0.50014314528E+02  0.00000000000E+00 0. -1.
         21   -1    0    0  503  504 -0.00000000000E+00 -0.00000000000E+00 -0.34224250123E+03  0.34224250123E+03  0.00000000000E+00 0. -1.
         25    2    1    2    0    0  0.10292690991E+02 -0.70860519046E+01 -0.20088417720E+03  0.23693242973E+03  0.12500548785E+03 0.  0.
         25    2    1    2    0    0 -0.10292690991E+02  0.70860519046E+01 -0.91344009505E+02  0.15532438603E+03  0.12500314077E+03 0.  0.
          5    1    3    3  501    0 -0.51308116148E+02 -0.85207929410E+01 -0.14308919117E+03  0.15232115193E+03  0.47000000000E+01 0. -1.
         -5    1    3    3    0  501  0.61600807139E+02  0.14347410364E+01 -0.57794986029E+02  0.84611277806E+02  0.47000000000E+01 0. -1.
          5    1    4    4  502    0 -0.19586408116E+01  0.40735612815E+02 -0.10875679861E+03  0.11624696843E+03  0.47000000000E+01 0.  1.
         -5    1    4    4    0  502 -0.83340501793E+01 -0.33649560911E+02  0.17412789102E+02  0.39077417598E+02  0.47000000000E+01 0.  1.
<mgrwt>
<rscale>  0 0.26166409E+03</rscale>
<asrwt>0</asrwt>
<pdfrwt beam="1">  1       21 0.76945101E-02 0.26166409E+03</pdfrwt>
<pdfrwt beam="2">  1       21 0.52652691E-01 0.26166409E+03</pdfrwt>
<totfact> 0.43260973E+05</totfact>
</mgrwt>
</event>
<event>
 8    1  0.9400004E-006  0.2617397E+03  0.7546771E-02  0.1106102E+00
         21   -1    0    0  504  503  0.00000000000E+00  0.00000000000E+00  0.81651749049E+02  0.81651749049E+02  0.00000000000E+00 0. -1.
         21   -1    0    0  503  504 -0.00000000000E+00 -0.00000000000E+00 -0.20975571345E+03  0.20975571345E+03  0.00000000000E+00 0. -1.
         25    2    1    2    0    0  0.14862709642E+02  0.33705876841E+02 -0.77460649166E+02  0.15159891218E+03  0.12500036693E+03 0.  0.
         25    2    1    2    0    0 -0.14862709642E+02 -0.33705876841E+02 -0.50643315236E+02  0.13980855032E+03  0.12499879637E+03 0.  0.
          5    1    3    3  501    0 -0.38406200231E+02 -0.19495639322E+02  0.20971748545E+00  0.43327244894E+02  0.47000000000E+01 0.  1.
         -5    1    3    3    0  501  0.53268909872E+02  0.53201516163E+02 -0.77670366651E+02  0.10827166729E+03  0.47000000000E+01 0.  1.
          5    1    4    4  502    0  0.80706883473E+00  0.44200674271E+02 -0.39417379607E+02  0.59415240310E+02  0.47000000000E+01 0.  1.
         -5    1    4    4    0  502 -0.15669778476E+02 -0.77906551112E+02 -0.11225935630E+02  0.80393310010E+02  0.47000000000E+01 0.  1.
<mgrwt>
<rscale>  0 0.26173972E+03</rscale>
<asrwt>0</asrwt>
<pdfrwt beam="1">  1       21 0.12561808E-01 0.26173972E+03</pdfrwt>
<pdfrwt beam="2">  1       21 0.32270109E-01 0.26173972E+03</pdfrwt>
<totfact> 0.49276475E+05</totfact>
</mgrwt>
</event>
<event>
 8    1  0.9400004E-006  0.4365388E+03  0.7546771E-02  0.1031814E+00
         21   -1    0    0  504  503  0.00000000000E+00  0.00000000000E+00  0.66926792307E+03  0.66926792307E+03  0.00000000000E+00 0. -1.
         21   -1    0    0  503  504 -0.00000000000E+00 -0.00000000000E+00 -0.71184547332E+02  0.71184547332E+02  0.00000000000E+00 0. -1.
         25    2    1    2    0    0  0.11155271614E+03  0.13151529077E+03  0.37996114055E+03  0.43558595902E+03  0.12499751672E+03 0.  0.
         25    2    1    2    0    0 -0.11155271614E+03 -0.13151529077E+03  0.21812223519E+03  0.30486651138E+03  0.12500400032E+03 0.  0.
          5    1    3    3  501    0  0.35101293085E+02  0.13056772555E+03  0.22077557316E+03  0.25892851414E+03  0.47000000000E+01 0. -1.
         -5    1    3    3    0  501  0.76451423052E+02  0.94756521927E+00  0.15918556739E+03  0.17665744488E+03  0.47000000000E+01 0. -1.
          5    1    4    4  502    0 -0.19809676362E+02  0.16953671087E+01 -0.11889781668E+02  0.23637987548E+02  0.47000000000E+01 0. -1.
         -5    1    4    4    0  502 -0.91743039774E+02 -0.13321065788E+03  0.23001201686E+03  0.28122852384E+03  0.47000000000E+01 0. -1.
<mgrwt>
<rscale>  0 0.43653881E+03</rscale>
<asrwt>0</asrwt>
<pdfrwt beam="1">  1       21 0.10296429E+00 0.43653881E+03</pdfrwt>
<pdfrwt beam="2">  1       21 0.10951469E-01 0.43653881E+03</pdfrwt>
<totfact> 0.48599777E+04</totfact>
</mgrwt>
</event>
<event>
 8    1  0.9400004E-006  0.2809104E+03  0.7546771E-02  0.1095193E+00
         21   -1    0    0  504  503  0.00000000000E+00  0.00000000000E+00  0.50472949602E+03  0.50472949602E+03  0.00000000000E+00 0.  1.
         21   -1    0    0  503  504 -0.00000000000E+00 -0.00000000000E+00 -0.39085618722E+02  0.39085618722E+02  0.00000000000E+00 0.  1.
         25    2    1    2    0    0 -0.20228548790E+01 -0.59370337580E+02  0.18645210567E+03  0.23220341228E+03  0.12500043216E+03 0.  0.
         25    2    1    2    0    0  0.20228548790E+01  0.59370337580E+02  0.27919177163E+03  0.31161170247E+03  0.12499951536E+03 0.  0.
          5    1    3    3  501    0 -0.12122384243E+02  0.37966033015E+02  0.47454425366E+02  0.62148084037E+02  0.47000000000E+01 0. -1.
         -5    1    3    3    0  501  0.10099529364E+02 -0.97336370595E+02  0.13899768030E+03  0.17005532824E+03  0.47000000000E+01 0. -1.
          5    1    4    4  502    0  0.38493809910E+02  0.66729834413E+02  0.25631535920E+03  0.26768320374E+03  0.47000000000E+01 0.  1.
         -5    1    4    4    0  502 -0.36470955031E+02 -0.73594968335E+01  0.22876412432E+02  0.43928498726E+02  0.47000000000E+01 0.  1.
<mgrwt>
<rscale>  0 0.28091041E+03</rscale>
<asrwt>0</asrwt>
<pdfrwt beam="1">  1       21 0.77650687E-01 0.28091041E+03</pdfrwt>
<pdfrwt beam="2">  1       21 0.60131725E-02 0.28091041E+03</pdfrwt>
<totfact> 0.28234377E+05</totfact>
</mgrwt>
</event>
<event>
 8    1  0.9400004E-006  0.7223319E+03  0.7546771E-02  0.9679786E-01
         21   -1    0    0  504  503  0.00000000000E+00  0.00000000000E+00  0.11240604250E+04  0.11240604250E+04  0.00000000000E+00 0. -1.
         21   -1    0    0  503  504 -0.00000000000E+00 -0.00000000000E+00 -0.11604434951E+03  0.11604434951E+03  0.00000000000E+00 0. -1.
         25    2    1    2    0    0  0.10534262325E+03 -0.24007700748E+03  0.87255515840E+03  0.91962585278E+03  0.12500066738E+03 0.  0.
         25    2    1    2    0    0 -0.10534262325E+03  0.24007700748E+03  0.13546091711E+03  0.32047892175E+03  0.12499216548E+03 0.  0.
          5    1    3    3  501    0  0.74506807330E+02 -0.20049511841E+03  0.81731328695E+03  0.84485067075E+03  0.47000000000E+01 0. -1.
         -5    1    3    3    0  501  0.30835815915E+02 -0.39581889063E+02  0.55241871457E+02  0.74775182026E+02  0.47000000000E+01 0. -1.
          5    1    4    4  502    0 -0.93904802575E+02  0.63736601766E+02  0.49328803937E+02  0.12383814941E+03  0.47000000000E+01 0. -1.
         -5    1    4    4    0  502 -0.11437820670E+02  0.17634040571E+03  0.86132113172E+02  0.19664077234E+03  0.47000000000E+01 0. -1.
<mgrwt>
<rscale>  0 0.72233195E+03</rscale>
<asrwt>0</asrwt>
<pdfrwt beam="1">  1       21 0.17293237E+00 0.72233195E+03</pdfrwt>
<pdfrwt beam="2">  1       21 0.17852978E-01 0.72233195E+03</pdfrwt>
<totfact> 0.46541425E+03</totfact>
</mgrwt>
</event>
<event>
 8    1  0.9400004E-006  0.4255043E+03  0.7546771E-02  0.1035290E+00
         21   -1    0    0  504  503  0.00000000000E+00  0.00000000000E+00  0.15122704012E+03  0.15122704012E+03  0.00000000000E+00 0.  1.
         21   -1    0    0  503  504 -0.00000000000E+00 -0.00000000000E+00 -0.29930802916E+03  0.29930802916E+03  0.00000000000E+00 0.  1.
         25    2    1    2    0    0 -0.15336540321E+03  0.77670340501E+02 -0.83821219324E+02  0.22848271638E+03  0.12499890471E+03 0.  0.
         25    2    1    2    0    0  0.15336540321E+03 -0.77670340501E+02 -0.64259769717E+02  0.22205235291E+03  0.12499720289E+03 0.  0.
          5    1    3    3  501    0 -0.16931263749E+03  0.44013359519E+02 -0.69850051454E+02  0.18842787670E+03  0.47000000000E+01 0. -1.
         -5    1    3    3    0  501  0.15947234277E+02  0.33656980982E+02 -0.13971167870E+02  0.40054839677E+02  0.47000000000E+01 0. -1.
          5    1    4    4  502    0  0.10037172029E+03  0.10694339347E+02 -0.99976078271E+00  0.10105414711E+03  0.47000000000E+01 0.  1.
         -5    1    4    4    0  502  0.52993682925E+02 -0.88364679848E+02 -0.63260008934E+02  0.12099820579E+03  0.47000000000E+01 0.  1.
<mgrwt>
<rscale>  0 0.42550425E+03</rscale>
<asrwt>0</asrwt>
<pdfrwt beam="1">  1       21 0.23265699E-01 0.42550425E+03</pdfrwt>
<pdfrwt beam="2">  1       21 0.46047388E-01 0.42550425E+03</pdfrwt>
<totfact> 0.73167749E+04</totfact>
</mgrwt>
</event>
<event>
 8    1  0.9400004E-006  0.2633976E+03  0.7546771E-02  0.1105119E+00
         21   -1    0    0  504  503  0.00000000000E+00  0.00000000000E+00  0.87752906897E+01  0.87752906897E+01  0.00000000000E+00 0.  1.
         21   -1    0    0  503  504 -0.00000000000E+00 -0.00000000000E+00 -0.19765236992E+04  0.19765236992E+04  0.00000000000E+00 0.  1.
         25    2    1    2    0    0  0.15512779440E+02 -0.35141276008E+02 -0.11012146639E+04  0.11089533137E+04  0.12501264101E+03 0.  0.
         25    2    1    2    0    0 -0.15512779440E+02  0.35141276008E+02 -0.86653374456E+03  0.87634567612E+03  0.12500183194E+03 0.  0.
          5    1    3    3  501    0  0.65252618324E+02 -0.20048104667E+02 -0.82630801304E+03  0.82913620902E+03  0.47000000000E+01 0.  1.
         -5    1    3    3    0  501 -0.49739838884E+02 -0.15093171341E+02 -0.27490665089E+03  0.27981710472E+03  0.47000000000E+01 0.  1.
          5    1    4    4  502    0 -0.44941741690E+02 -0.32746383567E+02 -0.32424212379E+03  0.32900931693E+03  0.47000000000E+01 0.  1.
         -5    1    4    4    0  502  0.29428962250E+02  0.67887659575E+02 -0.54229162076E+03  0.54733635919E+03  0.47000000000E+01 0.  1.
<mgrwt>
<rscale>  0 0.26339757E+03</rscale>
<asrwt>0</asrwt>
<pdfrwt beam="1">  1       21 0.13500449E-02 0.26339757E+03</pdfrwt>
<pdfrwt beam="2">  1       21 0.30408054E+00 0.26339757E+03</pdfrwt>
<totfact> 0.71226753E+04</totfact>
</mgrwt>
</event>
<event>
 8    1  0.9400004E-006  0.2575845E+03  0.7546771E-02  0.1108603E+00
         21   -1    0    0  504  503  0.00000000000E+00  0.00000000000E+00  0.44707987598E+03  0.44707987598E+03  0.00000000000E+00 0. -1.
         21   -1    0    0  503  504 -0.00000000000E+00 -0.00000000000E+00 -0.37101747203E+02  0.37101747203E+02  0.00000000000E+00 0. -1.
         25    2    1    2    0    0  0.18401422218E+02 -0.22894493773E+02  0.18591309011E+03  0.22594290655E+03  0.12499499894E+03 0.  0.
         25    2    1    2    0    0 -0.18401422218E+02  0.22894493773E+02  0.22406503866E+03  0.25823871663E+03  0.12497729007E+03 0.  0.
          5    1    3    3  501    0 -0.21396177315E+02  0.30175870023E+02  0.14062615508E+03  0.14548603036E+03  0.47000000000E+01 0.  1.
         -5    1    3    3    0  501  0.39797599533E+02 -0.53070363797E+02  0.45286935028E+02  0.80456876191E+02  0.47000000000E+01 0.  1.
          5    1    4    4  502    0  0.77384039050E+00 -0.15523496993E+02  0.21304258319E+03  0.21366050183E+03  0.47000000000E+01 0.  1.
         -5    1    4    4    0  502 -0.19175262608E+02  0.38417990766E+02  0.11022455469E+02  0.44578214805E+02  0.47000000000E+01 0.  1.
<mgrwt>
<rscale>  0 0.25758451E+03</rscale>
<asrwt>0</asrwt>
<pdfrwt beam="1">  1       21 0.68781516E-01 0.25758451E+03</pdfrwt>
<pdfrwt beam="2">  1       21 0.57079614E-02 0.25758451E+03</pdfrwt>
<totfact> 0.40738961E+05</totfact>
</mgrwt>
</event>
<event>
 8    1  0.9400004E-006  0.2581820E+03  0.7546771E-02  0.1108240E+00
         21   -1    0    0  504  503  0.00000000000E+00  0.00000000000E+00  0.85485545410E+03  0.85485545410E+03  0.00000000000E+00 0.  1.
         21   -1    0    0  503  504 -0.00000000000E+00 -0.00000000000E+00 -0.19493922579E+02  0.19493922579E+02  0.00000000000E+00 0.  1.
         25    2    1    2    0    0  0.62589545995E+01  0.21854448107E+02  0.34025155295E+03  0.36319818417E+03  0.12500004114E+03 0.  0.
         25    2    1    2    0    0 -0.62589545995E+01 -0.21854448107E+02  0.49510997857E+03  0.51115119251E+03  0.12499943723E+03 0.  0.
          5    1    3    3  501    0 -0.18668919057E+02 -0.48363995502E+02  0.15291727085E+03  0.16153447411E+03  0.47000000000E+01 0.  1.
         -5    1    3    3    0  501  0.24927873657E+02  0.70218443609E+02  0.18733428210E+03  0.20166371006E+03  0.47000000000E+01 0.  1.
          5    1    4    4  502    0 -0.16750854503E+02  0.15833362232E+01  0.22656311999E+01  0.17615934971E+02  0.47000000000E+01 0. -1.
         -5    1    4    4    0  502  0.10491899904E+02 -0.23437784330E+02  0.49284434737E+03  0.49353525754E+03  0.47000000000E+01 0. -1.
<mgrwt>
<rscale>  0 0.25818200E+03</rscale>
<asrwt>0</asrwt>
<pdfrwt beam="1">  1       21 0.13151619E+00 0.25818200E+03</pdfrwt>
<pdfrwt beam="2">  1       21 0.29990657E-02 0.25818200E+03</pdfrwt>
<totfact> 0.26009085E+05</totfact>
</mgrwt>
</event>
<event>
 8    1  0.9400004E-006  0.3375350E+03  0.7546771E-02  0.1067851E+00
         21   -1    0    0  504  503  0.00000000000E+00  0.00000000000E+00  0.37888339402E+03  0.37888339402E+03  0.00000000000E+00 0.  1.
         21   -1    0    0  503  504 -0.00000000000E+00 -0.00000000000E+00 -0.75174745788E+02  0.75174745788E+02  0.00000000000E+00 0.  1.
         25    2    1    2    0    0  0.10984398129E+03 -0.23264627004E+02  0.13061370645E+03  0.21281716262E+03  0.12499704516E+03 0.  0.
         25    2    1    2    0    0 -0.10984398129E+03  0.23264627004E+02  0.17309494178E+03  0.24124097719E+03  0.12501362770E+03 0.  0.
          5    1    3    3  501    0  0.11197564037E+03 -0.22836596134E+01  0.38996812263E+02  0.11868698540E+03  0.47000000000E+01 0.  1.
         -5    1    3    3    0  501 -0.21316590784E+01 -0.20980967390E+02  0.91616894189E+02  0.94130177222E+02  0.47000000000E+01 0.  1.
          5    1    4    4  502    0 -0.77304921950E+02 -0.22264998296E+02  0.27429596966E+02  0.85124931110E+02  0.47000000000E+01 0. -1.
         -5    1    4    4    0  502 -0.32539059337E+02  0.45529625300E+02  0.14566534482E+03  0.15611604608E+03  0.47000000000E+01 0. -1.
<mgrwt>
<rscale>  0 0.33753496E+03</rscale>
<asrwt>0</asrwt>
<pdfrwt beam="1">  1       21 0.58289752E-01 0.33753496E+03</pdfrwt>
<pdfrwt beam="2">  1       21 0.11565346E-01 0.33753496E+03</pdfrwt>
<totfact> 0.16603917E+05</totfact>
</mgrwt>
</event>
<event>
 8    1  0.9400004E-006  0.2991463E+03  0.7546771E-02  0.1085668E+00
         21   -1    0    0  504  503  0.00000000000E+00  0.00000000000E+00  0.11646900707E+04  0.11646900707E+04  0.00000000000E+00 0. -1.
         21   -1    0    0  503  504 -0.00000000000E+00 -0.00000000000E+00 -0.19208655623E+02  0.19208655623E+02  0.00000000000E+00 0. -1.
         25    2    1    2    0    0  0.52540665210E+01 -0.79505572122E+02  0.65199865595E+03  0.66863736565E+03  0.12499975268E+03 0.  0.
         25    2    1    2    0    0 -0.52540665210E+01  0.79505572122E+02  0.49348275909E+03  0.51526136063E+03  0.12498117871E+03 0.  0.
          5    1    3    3  501    0 -0.55260941863E+02 -0.11666998654E+02  0.27825052278E+03  0.28396361383E+03  0.47000000000E+01 0. -1.
         -5    1    3    3    0  501  0.60515008384E+02 -0.67838573468E+02  0.37374813317E+03  0.38467375182E+03  0.47000000000E+01 0. -1.
          5    1    4    4  502    0 -0.45878943303E+02  0.92512235920E+02  0.30818870524E+03  0.32506270052E+03  0.47000000000E+01 0.  1.
         -5    1    4    4    0  502  0.40624876782E+02 -0.13006663798E+02  0.18529405385E+03  0.19019866011E+03  0.47000000000E+01 0.  1.
<mgrwt>
<rscale>  0 0.29914632E+03</rscale>
<asrwt>0</asrwt>
<pdfrwt beam="1">  1       21 0.17918303E+00 0.29914632E+03</pdfrwt>
<pdfrwt beam="2">  1       21 0.29551787E-02 0.29914632E+03</pdfrwt>
<totfact> 0.11412406E+05</totfact>
</mgrwt>
</event>
<event>
 8    1  0.9400004E-006  0.5471491E+03  0.7546771E-02  0.1002156E+00
         21   -1    0    0  504  503  0.00000000000E+00  0.00000000000E+00  0.10405040782E+04  0.10405040782E+04  0.00000000000E+00 0. -1.
         21   -1    0    0  503  504 -0.00000000000E+00 -0.00000000000E+00 -0.71929596900E+02  0.71929596900E+02  0.00000000000E+00 0. -1.
         25    2    1    2    0    0 -0.20058635337E+03  0.13894797134E+02  0.20559001025E+03  0.31356072986E+03  0.12500051379E+03 0.  0.
         25    2    1    2    0    0  0.20058635337E+03 -0.13894797134E+02  0.76298447104E+03  0.79887294524E+03  0.12499891616E+03 0.  0.
          5    1    3    3  501    0 -0.20930706973E+03  0.35615289440E+02  0.19071023498E+03  0.28543017010E+03  0.47000000000E+01 0.  1.
         -5    1    3    3    0  501  0.87207163597E+01 -0.21720492306E+02  0.14879775275E+02  0.28130559754E+02  0.47000000000E+01 0.  1.
          5    1    4    4  502    0  0.21001485234E+03 -0.17096595621E+02  0.60792851454E+03  0.64342653083E+03  0.47000000000E+01 0.  1.
         -5    1    4    4    0  502 -0.94284989723E+01  0.32017984869E+01  0.15505595650E+03  0.15544641441E+03  0.47000000000E+01 0.  1.
<mgrwt>
<rscale>  0 0.54714912E+03</rscale>
<asrwt>0</asrwt>
<pdfrwt beam="1">  1       21 0.16007754E+00 0.54714912E+03</pdfrwt>
<pdfrwt beam="2">  1       21 0.11066093E-01 0.54714912E+03</pdfrwt>
<totfact> 0.14715893E+04</totfact>
</mgrwt>
</event>
<event>
 8    1  0.9400004E-006  0.3538112E+03  0.7546771E-02  0.1061062E+00
         21   -1    0    0  504  503  0.00000000000E+00  0.00000000000E+00  0.35108175879E+03  0.35108175879E+03  0.00000000000E+00 0. -1.
         21   -1    0    0  503  504 -0.00000000000E+00 -0.00000000000E+00 -0.89140475993E+02  0.89140475993E+02  0.00000000000E+00 0. -1.
         25    2    1    2    0    0 -0.66821063325E+02 -0.10215124891E+03  0.16546688773E+03  0.24064047851E+03  0.12501446637E+03 0.  0.
         25    2    1    2    0    0  0.66821063325E+02  0.10215124891E+03  0.96474395062E+02  0.19958175627E+03  0.12500254548E+03 0.  0.
          5    1    3    3  501    0 -0.42662462702E+01 -0.11061878266E+03  0.95372627022E+02  0.14619419934E+03  0.47000000000E+01 0.  1.
         -5    1    3    3    0  501 -0.62554817054E+02  0.84675337512E+01  0.70094260712E+02  0.94446279171E+02  0.47000000000E+01 0.  1.
          5    1    4    4  502    0  0.90875137678E+02  0.11104605223E+03  0.97405752301E+02  0.17349203712E+03  0.47000000000E+01 0. -1.
         -5    1    4    4    0  502 -0.24054074353E+02 -0.88948033169E+01 -0.93135723937E+00  0.26089719150E+02  0.47000000000E+01 0. -1.
<mgrwt>
<rscale>  0 0.35381122E+03</rscale>
<asrwt>0</asrwt>
<pdfrwt beam="1">  1       21 0.54012578E-01 0.35381122E+03</pdfrwt>
<pdfrwt beam="2">  1       21 0.13713920E-01 0.35381122E+03</pdfrwt>
<totfact> 0.14299486E+05</totfact>
</mgrwt>
</event>
<event>
 8    1  0.9400004E-006  0.3063494E+03  0.7546771E-02  0.1082109E+00
         21   -1    0    0  504  503  0.00000000000E+00  0.00000000000E+00  0.76204864646E+02  0.76204864646E+02  0.00000000000E+00 0.  1.
         21   -1    0    0  503  504 -0.00000000000E+00 -0.00000000000E+00 -0.30788704462E+03  0.30788704462E+03  0.00000000000E+00 0.  1.
         25    2    1    2    0    0  0.29723013084E+02  0.83358672888E+02 -0.11893143325E+03  0.19391175274E+03  0.12499982473E+03 0.  0.
         25    2    1    2    0    0 -0.29723013084E+02 -0.83358672888E+02 -0.11275074673E+03  0.19018015653E+03  0.12499454067E+03 0.  0.
          5    1    3    3  501    0  0.38589857873E+02  0.11284329336E+03 -0.78411834017E+02  0.14280508289E+03  0.47000000000E+01 0.  1.
         -5    1    3    3    0  501 -0.88668447891E+01 -0.29484620469E+02 -0.40519599232E+02  0.51106669844E+02  0.47000000000E+01 0.  1.
          5    1    4    4  502    0  0.26188294291E+02 -0.36254103656E+02 -0.10774090341E+03  0.11674921438E+03  0.47000000000E+01 0. -1.
         -5    1    4    4    0  502 -0.55911307375E+02 -0.47104569232E+02 -0.50098433130E+01  0.73430942150E+02  0.47000000000E+01 0. -1.
<mgrwt>
<rscale>  0 0.30634941E+03</rscale>
<asrwt>0</asrwt>
<pdfrwt beam="1">  1       21 0.11723825E-01 0.30634941E+03</pdfrwt>
<pdfrwt beam="2">  1       21 0.47367239E-01 0.30634941E+03</pdfrwt>
<totfact> 0.25358667E+05</totfact>
</mgrwt>
</event>
<event>
 8    1  0.9400004E-006  0.4686753E+03  0.7546771E-02  0.1022295E+00
         21   -1    0    0  504  503  0.00000000000E+00  0.00000000000E+00  0.92767096681E+02  0.92767096681E+02  0.00000000000E+00 0.  1.
         21   -1    0    0  503  504 -0.00000000000E+00 -0.00000000000E+00 -0.59195690547E+03  0.59195690547E+03  0.00000000000E+00 0.  1.
         25    2    1    2    0    0  0.97833663924E+02 -0.16161063431E+03 -0.16198895212E+03  0.27849898528E+03  0.12502736210E+03 0.  0.
         25    2    1    2    0    0 -0.97833663924E+02  0.16161063431E+03 -0.33720085667E+03  0.40622501688E+03  0.12499969470E+03 0.  0.
          5    1    3    3  501    0  0.11657456944E+02 -0.24148792359E+02  0.20643329032E+02  0.34165735881E+02  0.47000000000E+01 0.  1.
         -5    1    3    3    0  501  0.86176206979E+02 -0.13746184195E+03 -0.18263228115E+03  0.24433324940E+03  0.47000000000E+01 0.  1.
          5    1    4    4  502    0 -0.12106972937E+01  0.19865652158E+02 -0.15342773177E+03  0.15478458837E+03  0.47000000000E+01 0.  1.
         -5    1    4    4    0  502 -0.96622966630E+02  0.14174498215E+03 -0.18377312491E+03  0.25144042850E+03  0.47000000000E+01 0.  1.
<mgrwt>
<rscale>  0 0.46867525E+03</rscale>
<asrwt>0</asrwt>
<pdfrwt beam="1">  1       21 0.14271861E-01 0.46867525E+03</pdfrwt>
<pdfrwt beam="2">  1       21 0.91070296E-01 0.46867525E+03</pdfrwt>
<totfact> 0.39957565E+04</totfact>
</mgrwt>
</event>
<event>
 8    1  0.9400004E-006  0.2650120E+03  0.7546771E-02  0.1104169E+00
         21   -1    0    0  504  503  0.00000000000E+00  0.00000000000E+00  0.22398839439E+02  0.22398839439E+02  0.00000000000E+00 0. -1.
         21   -1    0    0  503  504 -0.00000000000E+00 -0.00000000000E+00 -0.78387263086E+03  0.78387263086E+03  0.00000000000E+00 0. -1.
         25    2    1    2    0    0  0.80731216617E+01 -0.44403586655E+01 -0.51151570713E+03  0.52664817981E+03  0.12500037831E+03 0.  0.
         25    2    1    2    0    0 -0.80731216617E+01  0.44403586655E+01 -0.24995808430E+03  0.27962329050E+03  0.12500099441E+03 0.  0.
          5    1    3    3  501    0  0.61121003712E+02  0.42776620693E+01 -0.16731350367E+03  0.17824133639E+03  0.47000000000E+01 0.  1.
         -5    1    3    3    0  501 -0.53047882051E+02 -0.87180207348E+01 -0.34420220345E+03  0.34840684341E+03  0.47000000000E+01 0.  1.
          5    1    4    4  502    0  0.32854849254E+02 -0.45979612551E+02 -0.83994201050E+02  0.10134437182E+03  0.47000000000E+01 0.  1.
         -5    1    4    4    0  502 -0.40927970916E+02  0.50419971217E+02 -0.16596388325E+03  0.17827891868E+03  0.47000000000E+01 0.  1.
<mgrwt>
<rscale>  0 0.26501198E+03</rscale>
<asrwt>0</asrwt>
<pdfrwt beam="1">  1       21 0.34459756E-02 0.26501198E+03</pdfrwt>
<pdfrwt beam="2">  1       21 0.12059578E+00 0.26501198E+03</pdfrwt>
<totfact> 0.25634266E+05</totfact>
</mgrwt>
</event>
<event>
 8    1  0.9400004E-006  0.2798525E+03  0.7546771E-02  0.1095770E+00
         21   -1    0    0  504  503  0.00000000000E+00  0.00000000000E+00  0.36932345283E+03  0.36932345283E+03  0.00000000000E+00 0. -1.
         21   -1    0    0  503  504 -0.00000000000E+00 -0.00000000000E+00 -0.53014107834E+02  0.53014107834E+02  0.00000000000E+00 0. -1.
         25    2    1    2    0    0 -0.75783094323E+01  0.59878530362E+02  0.13125327230E+03  0.19103844761E+03  0.12500159121E+03 0.  0.
         25    2    1    2    0    0  0.75783094323E+01 -0.59878530362E+02  0.18505607270E+03  0.23129911305E+03  0.12494262878E+03 0.  0.
          5    1    3    3  501    0 -0.91733150088E+00 -0.32410557387E+02  0.76984748191E+02  0.83666165092E+02  0.47000000000E+01 0.  1.
         -5    1    3    3    0  501 -0.66609779314E+01  0.92289087749E+02  0.54268524110E+02  0.10737228252E+03  0.47000000000E+01 0.  1.
          5    1    4    4  502    0  0.55588122272E+02 -0.59604779979E+02  0.73866872201E+02  0.11009620313E+03  0.47000000000E+01 0.  1.
         -5    1    4    4    0  502 -0.48009812840E+02 -0.27375038325E+00  0.11118920049E+03  0.12120290993E+03  0.47000000000E+01 0.  1.
<mgrwt>
<rscale>  0 0.27985249E+03</rscale>
<asrwt>0</asrwt>
<pdfrwt beam="1">  1       21 0.56818991E-01 0.27985249E+03</pdfrwt>
<pdfrwt beam="2">  1       21 0.81560168E-02 0.27985249E+03</pdfrwt>
<totfact> 0.33089163E+05</totfact>
</mgrwt>
</event>
<event>
 8    1  0.9400004E-006  0.2848081E+03  0.7546771E-02  0.1093091E+00
         21   -1    0    0  504  503  0.00000000000E+00  0.00000000000E+00  0.15142431014E+03  0.15142431014E+03  0.00000000000E+00 0. -1.
         21   -1    0    0  503  504 -0.00000000000E+00 -0.00000000000E+00 -0.13392111450E+03  0.13392111450E+03  0.00000000000E+00 0. -1.
         25    2    1    2    0    0 -0.46378043361E+02  0.45450071737E+02  0.29689153489E+02  0.14395372681E+03  0.12499839080E+03 0.  0.
         25    2    1    2    0    0  0.46378043361E+02 -0.45450071737E+02 -0.12185957850E+02  0.14139169783E+03  0.12500593074E+03 0.  0.
          5    1    3    3  501    0 -0.25728591368E+01 -0.29968876132E+02 -0.26278256380E+02  0.40216786285E+02  0.47000000000E+01 0.  1.
         -5    1    3    3    0  501 -0.43805184224E+02  0.75418947870E+02  0.55967409868E+02  0.10373694053E+03  0.47000000000E+01 0.  1.
          5    1    4    4  502    0  0.70055543089E+01 -0.23488878131E+01 -0.63150942009E+02  0.63755207958E+02  0.47000000000E+01 0. -1.
         -5    1    4    4    0  502  0.39372489052E+02 -0.43101183924E+02  0.50964984159E+02  0.77636489875E+02  0.47000000000E+01 0. -1.
<mgrwt>
<rscale>  0 0.28480809E+03</rscale>
<asrwt>0</asrwt>
<pdfrwt beam="1">  1       21 0.23296048E-01 0.28480809E+03</pdfrwt>
<pdfrwt beam="2">  1       21 0.20603248E-01 0.28480809E+03</pdfrwt>
<totfact> 0.37087415E+05</totfact>
</mgrwt>
</event>
<event>
 8    1  0.9400004E-006  0.2587498E+03  0.7546771E-02  0.1107897E+00
         21   -1    0    0  504  503  0.00000000000E+00  0.00000000000E+00  0.50149245867E+03  0.50149245867E+03  0.00000000000E+00 0.  1.
         21   -1    0    0  503  504 -0.00000000000E+00 -0.00000000000E+00 -0.33376107375E+02  0.33376107375E+02  0.00000000000E+00 0.  1.
         25    2    1    2    0    0  0.26095082149E+02  0.18590332565E+02  0.21488050065E+03  0.25065011858E+03  0.12500119443E+03 0.  0.
         25    2    1    2    0    0 -0.26095082149E+02 -0.18590332565E+02  0.25323585065E+03  0.28421844747E+03  0.12500070420E+03 0.  0.
          5    1    3    3  501    0 -0.10967643257E+02  0.62822396239E+02  0.70967478442E+02  0.95527041534E+02  0.47000000000E+01 0.  1.
         -5    1    3    3    0  501  0.37062725406E+02 -0.44232063675E+02  0.14391302220E+03  0.15512307704E+03  0.47000000000E+01 0.  1.
          5    1    4    4  502    0  0.35500139239E+02  0.24710497259E+02  0.44351278447E+02  0.62128853689E+02  0.47000000000E+01 0.  1.
         -5    1    4    4    0  502 -0.61595221388E+02 -0.43300829824E+02  0.20888457220E+03  0.22208959378E+03  0.47000000000E+01 0.  1.
<mgrwt>
<rscale>  0 0.25874981E+03</rscale>
<asrwt>0</asrwt>
<pdfrwt beam="1">  1       21 0.77152681E-01 0.25874981E+03</pdfrwt>
<pdfrwt beam="2">  1       21 0.51347861E-02 0.25874981E+03</pdfrwt>
<totfact> 0.37757692E+05</totfact>
</mgrwt>
</event>
<event>
 8    1  0.9400004E-006  0.4661549E+03  0.7546771E-02  0.1023011E+00
         21   -1    0    0  504  503  0.00000000000E+00  0.00000000000E+00  0.22035258966E+03  0.22035258966E+03  0.00000000000E+00 0.  1.
         21   -1    0    0  503  504 -0.00000000000E+00 -0.00000000000E+00 -0.24653710216E+03  0.24653710216E+03  0.00000000000E+00 0.  1.
         25    2    1    2    0    0  0.39343220847E+01  0.13981722485E+03 -0.15164090422E+03  0.24121638486E+03  0.12500418087E+03 0.  0.
         25    2    1    2    0    0 -0.39343220847E+01 -0.13981722485E+03  0.12545639172E+03  0.22567330696E+03  0.12499919997E+03 0.  0.
          5    1    3    3  501    0  0.51423820317E+02  0.56111691752E+02 -0.21388673574E+02  0.79199094720E+02  0.47000000000E+01 0.  1.
         -5    1    3    3    0  501 -0.47489498233E+02  0.83705533102E+02 -0.13025223065E+03  0.16201729013E+03  0.47000000000E+01 0.  1.
          5    1    4    4  502    0 -0.20072588177E+02  0.10734845276E+02 -0.71789227446E+01  0.24326377268E+02  0.47000000000E+01 0.  1.
         -5    1    4    4    0  502  0.16138266092E+02 -0.15055207013E+03  0.13263531446E+03  0.20134692969E+03  0.47000000000E+01 0.  1.
<mgrwt>
<rscale>  0 0.46615486E+03</rscale>
<asrwt>0</asrwt>
<pdfrwt beam="1">  1       21 0.33900398E-01 0.46615486E+03</pdfrwt>
<pdfrwt beam="2">  1       21 0.37928785E-01 0.46615486E+03</pdfrwt>
<totfact> 0.51624600E+04</totfact>
</mgrwt>
</event>
<event>
 8    1  0.9400004E-006  0.2581310E+03  0.7546771E-02  0.1108271E+00
         21   -1    0    0  504  503  0.00000000000E+00  0.00000000000E+00  0.56065576431E+02  0.56065576431E+02  0.00000000000E+00 0. -1.
         21   -1    0    0  503  504 -0.00000000000E+00 -0.00000000000E+00 -0.29711455849E+03  0.29711455849E+03  0.00000000000E+00 0. -1.
         25    2    1    2    0    0  0.22051224862E+02 -0.17978027070E+02 -0.14093724059E+03  0.19051780879E+03  0.12499705478E+03 0.  0.
         25    2    1    2    0    0 -0.22051224862E+02  0.17978027070E+02 -0.10011174147E+03  0.16266232613E+03  0.12500882204E+03 0.  0.
          5    1    3    3  501    0 -0.43922653592E+02  0.23362845010E+02 -0.49585970201E+02  0.70398014647E+02  0.47000000000E+01 0. -1.
         -5    1    3    3    0  501  0.65973878454E+02 -0.41340872079E+02 -0.91351270387E+02  0.12011979414E+03  0.47000000000E+01 0. -1.
          5    1    4    4  502    0 -0.56494756963E+02  0.52533808494E+02 -0.47320449958E+02  0.90624354251E+02  0.47000000000E+01 0.  1.
         -5    1    4    4    0  502  0.34443532101E+02 -0.34555781424E+02 -0.52791291509E+02  0.72037971880E+02  0.47000000000E+01 0.  1.
<mgrwt>
<rscale>  0 0.25813097E+03</rscale>
<asrwt>0</asrwt>
<pdfrwt beam="1">  1       21 0.86254731E-02 0.25813097E+03</pdfrwt>
<pdfrwt beam="2">  1       21 0.45709933E-01 0.25813097E+03</pdfrwt>
<totfact> 0.47644093E+05</totfact>
</mgrwt>
</event>
<event>
 8    1  0.9400004E-006  0.3017334E+03  0.7546771E-02  0.1084377E+00
         21   -1    0    0  504  503  0.00000000000E+00  0.00000000000E+00  0.14764782200E+03  0.14764782200E+03  0.00000000000E+00 0.  1.
         21   -1    0    0  503  504 -0.00000000000E+00 -0.00000000000E+00 -0.15415573428E+03  0.15415573428E+03  0.00000000000E+00 0.  1.
         25    2    1    2    0    0 -0.10825717203E+02 -0.83583764026E+02 -0.88250173498E+01  0.15102294113E+03  0.12500642406E+03 0.  0.
         25    2    1    2    0    0  0.10825717203E+02  0.83583764026E+02  0.23171050617E+01  0.15078061515E+03  0.12500393260E+03 0.  0.
          5    1    3    3  501    0 -0.40296181075E+02 -0.78509487605E+02 -0.48744500395E+02  0.10092392269E+03  0.47000000000E+01 0. -1.
         -5    1    3    3    0  501  0.29470463871E+02 -0.50742764218E+01  0.39919483046E+02  0.50099018440E+02  0.47000000000E+01 0. -1.
          5    1    4    4  502    0  0.41625863877E+02 -0.38377593535E+01  0.32532767597E+02  0.53178114934E+02  0.47000000000E+01 0.  1.
         -5    1    4    4    0  502 -0.30800146674E+02  0.87421523380E+02 -0.30215662535E+02  0.97602500212E+02  0.47000000000E+01 0.  1.
<mgrwt>
<rscale>  0 0.30173338E+03</rscale>
<asrwt>0</asrwt>
<pdfrwt beam="1">  1       21 0.22715050E-01 0.30173338E+03</pdfrwt>
<pdfrwt beam="2">  1       21 0.23716267E-01 0.30173338E+03</pdfrwt>
<totfact> 0.29677570E+05</totfact>
</mgrwt>
</event>
<event>
 8    1  0.9400004E-006  0.2593984E+03  0.7546771E-02  0.1107505E+00
         21   -1    0    0  504  503  0.00000000000E+00  0.00000000000E+00  0.12097885806E+04  0.12097885806E+04  0.00000000000E+00 0. -1.
         21   -1    0    0  503  504 -0.00000000000E+00 -0.00000000000E+00 -0.13904807007E+02  0.13904807007E+02  0.00000000000E+00 0. -1.
         25    2    1    2    0    0 -0.10279281135E+02 -0.30197537307E+02  0.66105480392E+03  0.67352602931E+03  0.12500521386E+03 0.  0.
         25    2    1    2    0    0  0.10279281135E+02  0.30197537307E+02  0.53482896964E+03  0.55016735827E+03  0.12499816180E+03 0.  0.
          5    1    3    3  501    0  0.18243419658E+02 -0.66906693609E+01  0.11823624061E+02  0.23226611962E+02  0.47000000000E+01 0.  1.
         -5    1    3    3    0  501 -0.28522700793E+02 -0.23506867946E+02  0.64923117986E+03  0.65029941735E+03  0.47000000000E+01 0.  1.
          5    1    4    4  502    0 -0.22470819004E+02  0.70412979934E+02  0.36880274683E+03  0.37616549751E+03  0.47000000000E+01 0. -1.
         -5    1    4    4    0  502  0.32750100139E+02 -0.40215442627E+02  0.16602622282E+03  0.17400186076E+03  0.47000000000E+01 0. -1.
<mgrwt>
<rscale>  0 0.25939836E+03</rscale>
<asrwt>0</asrwt>
<pdfrwt beam="1">  1       21 0.18612124E+00 0.25939836E+03</pdfrwt>
<pdfrwt beam="2">  1       21 0.21392020E-02 0.25939836E+03</pdfrwt>
<totfact> 0.17722549E+05</totfact>
</mgrwt>
</event>
<event>
 8    1  0.9400004E-006  0.3358861E+03  0.7546771E-02  0.1068562E+00
         21   -1    0    0  504  503  0.00000000000E+00  0.00000000000E+00  0.41497239211E+03  0.41497239211E+03  0.00000000000E+00 0.  1.
         21   -1    0    0  503  504 -0.00000000000E+00 -0.00000000000E+00 -0.67968072441E+02  0.67968072441E+02  0.00000000000E+00 0.  1.
         25    2    1    2    0    0  0.65560092718E+02  0.44402021240E+02  0.59283547177E+02  0.15940212013E+03  0.12499932676E+03 0.  0.
         25    2    1    2    0    0 -0.65560092718E+02 -0.44402021240E+02  0.28772077250E+03  0.32353834442E+03  0.12499660851E+03 0.  0.
          5    1    3    3  501    0  0.96518118712E+00 -0.32912135989E+02  0.47318307399E+02  0.57838157692E+02  0.47000000000E+01 0.  1.
         -5    1    3    3    0  501  0.64594911531E+02  0.77314157229E+02  0.11965239778E+02  0.10156396244E+03  0.47000000000E+01 0.  1.
          5    1    4    4  502    0  0.13237734050E+02 -0.64760329782E+02  0.12114770734E+03  0.13808691072E+03  0.47000000000E+01 0.  1.
         -5    1    4    4    0  502 -0.78797826768E+02  0.20358308543E+02  0.16657306515E+03  0.18545143371E+03  0.47000000000E+01 0.  1.
<mgrwt>
<rscale>  0 0.33588613E+03</rscale>
<asrwt>0</asrwt>
<pdfrwt beam="1">  1       21 0.63841905E-01 0.33588613E+03</pdfrwt>
<pdfrwt beam="2">  1       21 0.10456627E-01 0.33588613E+03</pdfrwt>
<totfact> 0.16326096E+05</totfact>
</mgrwt>
</event>
<event>
 8    1  0.9400004E-006  0.3735714E+03  0.7546771E-02  0.1053336E+00
         21   -1    0    0  504  503  0.00000000000E+00  0.00000000000E+00  0.34091158589E+03  0.34091158589E+03  0.00000000000E+00 0.  1.
         21   -1    0    0  503  504 -0.00000000000E+00 -0.00000000000E+00 -0.10234004159E+03  0.10234004159E+03  0.00000000000E+00 0.  1.
         25    2    1    2    0    0  0.29287895616E+02  0.11594163329E+03  0.35698987951E+02  0.17663773331E+03  0.12500491161E+03 0.  0.
         25    2    1    2    0    0 -0.29287895616E+02 -0.11594163329E+03  0.20287255635E+03  0.26661389418E+03  0.12500180514E+03 0.  0.
          5    1    3    3  501    0 -0.37420332979E+02  0.54639691851E+02  0.52168017718E+02  0.84435592723E+02  0.47000000000E+01 0. -1.
         -5    1    3    3    0  501  0.66708228595E+02  0.61301941444E+02 -0.16469029768E+02  0.92202140586E+02  0.47000000000E+01 0. -1.
          5    1    4    4  502    0 -0.15740832281E+02 -0.44565439642E+02  0.18588334160E+03  0.19185556780E+03  0.47000000000E+01 0.  1.
         -5    1    4    4    0  502 -0.13547063334E+02 -0.71376193652E+02  0.16989214753E+02  0.74758326380E+02  0.47000000000E+01 0.  1.
<mgrwt>
<rscale>  0 0.37357144E+03</rscale>
<asrwt>0</asrwt>
<pdfrwt beam="1">  1       21 0.52447936E-01 0.37357144E+03</pdfrwt>
<pdfrwt beam="2">  1       21 0.15744622E-01 0.37357144E+03</pdfrwt>
<totfact> 0.11754031E+05</totfact>
</mgrwt>
</event>
<event>
 8    1  0.9400004E-006  0.4873290E+03  0.7546771E-02  0.1017140E+00
         21   -1    0    0  504  503  0.00000000000E+00  0.00000000000E+00  0.11523012285E+04  0.11523012285E+04  0.00000000000E+00 0.  1.
         21   -1    0    0  503  504 -0.00000000000E+00 -0.00000000000E+00 -0.51525051849E+02  0.51525051849E+02  0.00000000000E+00 0.  1.
         25    2    1    2    0    0 -0.19339314367E+03 -0.33484324483E+02  0.37183884860E+03  0.43864836196E+03  0.12500459239E+03 0.  0.
         25    2    1    2    0    0  0.19339314367E+03  0.33484324483E+02  0.72893732804E+03  0.76517791837E+03  0.12500204219E+03 0.  0.
          5    1    3    3  501    0 -0.12982336578E+03  0.39370495014E+02  0.20923679122E+03  0.24941184210E+03  0.47000000000E+01 0. -1.
         -5    1    3    3    0  501 -0.63569777891E+02 -0.72854819497E+02  0.16260205738E+03  0.18923651986E+03  0.47000000000E+01 0. -1.
          5    1    4    4  502    0  0.14262173723E+03  0.77072679853E+02  0.45146760849E+03  0.47971475840E+03  0.47000000000E+01 0.  1.
         -5    1    4    4    0  502  0.50771406446E+02 -0.43588355370E+02  0.27746971955E+03  0.28546315998E+03  0.47000000000E+01 0.  1.
<mgrwt>
<rscale>  0 0.48732897E+03</rscale>
<asrwt>0</asrwt>
<pdfrwt beam="1">  1       21 0.17727709E+00 0.48732897E+03</pdfrwt>
<pdfrwt beam="2">  1       21 0.79269320E-02 0.48732897E+03</pdfrwt>
<totfact> 0.20341510E+04</totfact>
</mgrwt>
</event>
<event>
 8    1  0.9400004E-006  0.3520863E+03  0.7546771E-02  0.1061762E+00
         21   -1    0    0  504  503  0.00000000000E+00  0.00000000000E+00  0.11713098533E+03  0.11713098533E+03  0.00000000000E+00 0. -1.
         21   -1    0    0  503  504 -0.00000000000E+00 -0.00000000000E+00 -0.26458580283E+03  0.26458580283E+03  0.00000000000E+00 0. -1.
         25    2    1    2    0    0 -0.75886756383E+02 -0.44275633725E+02  0.21080781622E+02  0.15423550212E+03  0.12500023690E+03 0.  0.
         25    2    1    2    0    0  0.75886756383E+02  0.44275633725E+02 -0.16853559912E+03  0.22748128603E+03  0.12499742312E+03 0.  0.
          5    1    3    3  501    0 -0.10008722484E+03 -0.20027508403E+02 -0.16122597058E+02  0.10344361655E+03  0.47000000000E+01 0.  1.
         -5    1    3    3    0  501  0.24200468455E+02 -0.24248125322E+02  0.37203378680E+02  0.50791885575E+02  0.47000000000E+01 0.  1.
          5    1    4    4  502    0  0.63138967915E+02  0.61614336040E+01 -0.17527401962E+03  0.18646062450E+03  0.47000000000E+01 0. -1.
         -5    1    4    4    0  502  0.12747788467E+02  0.38114200121E+02  0.67384205027E+01  0.41020661532E+02  0.47000000000E+01 0. -1.
<mgrwt>
<rscale>  0 0.35208633E+03</rscale>
<asrwt>0</asrwt>
<pdfrwt beam="1">  1       21 0.18020152E-01 0.35208633E+03</pdfrwt>
<pdfrwt beam="2">  1       21 0.40705508E-01 0.35208633E+03</pdfrwt>
<totfact> 0.15604214E+05</totfact>
</mgrwt>
</event>
<event>
 8    1  0.9400004E-006  0.2745046E+03  0.7546771E-02  0.1098729E+00
         21   -1    0    0  504  503  0.00000000000E+00  0.00000000000E+00  0.22189676072E+02  0.22189676072E+02  0.00000000000E+00 0. -1.
         21   -1    0    0  503  504 -0.00000000000E+00 -0.00000000000E+00 -0.84896229813E+03  0.84896229813E+03  0.00000000000E+00 0. -1.
         25    2    1    2    0    0  0.43275140966E+02 -0.19310469180E+02 -0.51177727057E+03  0.52894833926E+03  0.12499895555E+03 0.  0.
         25    2    1    2    0    0 -0.43275140966E+02  0.19310469180E+02 -0.31499535148E+03  0.34220363494E+03  0.12504248983E+03 0.  0.
          5    1    3    3  501    0  0.82378546454E+02 -0.35777600455E+02 -0.31457612792E+03  0.32717960185E+03  0.47000000000E+01 0.  1.
         -5    1    3    3    0  501 -0.39103405488E+02  0.16467131275E+02 -0.19720114265E+03  0.20176873741E+03  0.47000000000E+01 0.  1.
          5    1    4    4  502    0  0.33624207671E+02  0.25887136865E+02 -0.48014981685E+02  0.64251534322E+02  0.47000000000E+01 0.  1.
         -5    1    4    4    0  502 -0.76899348637E+02 -0.65766676845E+01 -0.26698036980E+03  0.27795210061E+03  0.47000000000E+01 0.  1.
<mgrwt>
<rscale>  0 0.27450463E+03</rscale>
<asrwt>0</asrwt>
<pdfrwt beam="1">  1       21 0.34137968E-02 0.27450463E+03</pdfrwt>
<pdfrwt beam="2">  1       21 0.13060957E+00 0.27450463E+03</pdfrwt>
<totfact> 0.21219246E+05</totfact>
</mgrwt>
</event>
<event>
 8    1  0.9400004E-006  0.2596376E+03  0.7546771E-02  0.1107361E+00
         21   -1    0    0  504  503  0.00000000000E+00  0.00000000000E+00  0.18889628182E+03  0.18889628182E+03  0.00000000000E+00 0.  1.
         21   -1    0    0  503  504 -0.00000000000E+00 -0.00000000000E+00 -0.89217866740E+02  0.89217866740E+02  0.00000000000E+00 0.  1.
         25    2    1    2    0    0 -0.32110677895E+02 -0.11744649844E+02  0.41913466051E+02  0.13620303118E+03  0.12500197851E+03 0.  0.
         25    2    1    2    0    0  0.32110677895E+02  0.11744649844E+02  0.57764949029E+02  0.14191111738E+03  0.12503176982E+03 0.  0.
          5    1    3    3  501    0 -0.44385344387E+02 -0.56731091135E+02  0.51104088235E+02  0.88443164417E+02  0.47000000000E+01 0. -1.
         -5    1    3    3    0  501  0.12274666493E+02  0.44986441291E+02 -0.91906221833E+01  0.47759866767E+02  0.47000000000E+01 0. -1.
          5    1    4    4  502    0  0.68381330559E+00  0.42407455681E+02 -0.24018483865E+02  0.48967718603E+02  0.47000000000E+01 0. -1.
         -5    1    4    4    0  502  0.31426864589E+02 -0.30662805837E+02  0.81783432894E+02  0.92943398774E+02  0.47000000000E+01 0. -1.
<mgrwt>
<rscale>  0 0.25963762E+03</rscale>
<asrwt>0</asrwt>
<pdfrwt beam="1">  1       21 0.29060967E-01 0.25963762E+03</pdfrwt>
<pdfrwt beam="2">  1       21 0.13725826E-01 0.25963762E+03</pdfrwt>
<totfact> 0.51580924E+05</totfact>
</mgrwt>
</event>
<event>
 8    1  0.9400004E-006  0.2850961E+03  0.7546771E-02  0.1092938E+00
         21   -1    0    0  504  503  0.00000000000E+00  0.00000000000E+00  0.12405953948E+03  0.12405953948E+03  0.00000000000E+00 0. -1.
         21   -1    0    0  503  504 -0.00000000000E+00 -0.00000000000E+00 -0.16379184819E+03  0.16379184819E+03  0.00000000000E+00 0. -1.
         25    2    1    2    0    0  0.28913893970E+02  0.27136406396E+02 -0.76282845153E+02  0.15171146051E+03  0.12499958787E+03 0.  0.
         25    2    1    2    0    0 -0.28913893970E+02 -0.27136406396E+02  0.36550536440E+02  0.13613992716E+03  0.12500296091E+03 0.  0.
          5    1    3    3  501    0 -0.92197264855E+01 -0.43310133994E+02 -0.57937343962E+01  0.44904659238E+02  0.47000000000E+01 0.  1.
         -5    1    3    3    0  501  0.38133620455E+02  0.70446540389E+02 -0.70489110756E+02  0.10680680127E+03  0.47000000000E+01 0.  1.
          5    1    4    4  502    0  0.14151105024E+02 -0.46781127460E+02 -0.27563333015E+02  0.56307681418E+02  0.47000000000E+01 0.  1.
         -5    1    4    4    0  502 -0.43064998994E+02  0.19644721064E+02  0.64113869455E+02  0.79832245744E+02  0.47000000000E+01 0.  1.
<mgrwt>
<rscale>  0 0.28509606E+03</rscale>
<asrwt>0</asrwt>
<pdfrwt beam="1">  1       21 0.19086083E-01 0.28509606E+03</pdfrwt>
<pdfrwt beam="2">  1       21 0.25198746E-01 0.28509606E+03</pdfrwt>
<totfact> 0.36837251E+05</totfact>
</mgrwt>
</event>
<event>
 8    1  0.9400004E-006  0.3717176E+03  0.7546771E-02  0.1054038E+00
         21   -1    0    0  504  503  0.00000000000E+00  0.00000000000E+00  0.59667397295E+03  0.59667397295E+03  0.00000000000E+00 0. -1.
         21   -1    0    0  503  504 -0.00000000000E+00 -0.00000000000E+00 -0.57893425558E+02  0.57893425558E+02  0.00000000000E+00 0. -1.
         25    2    1    2    0    0  0.59640310263E+02 -0.24676361515E+02  0.55510308146E+02  0.15123808611E+03  0.12500269978E+03 0.  0.
         25    2    1    2    0    0 -0.59640310263E+02  0.24676361515E+02  0.48327023925E+03  0.50332931240E+03  0.12499753259E+03 0.  0.
          5    1    3    3  501    0 -0.31392015162E+02 -0.36324363603E+02  0.12833420741E+02  0.49916978024E+02  0.47000000000E+01 0. -1.
         -5    1    3    3    0  501  0.91032325425E+02  0.11648002088E+02  0.42676887405E+02  0.10132110808E+03  0.47000000000E+01 0. -1.
          5    1    4    4  502    0 -0.33747231908E+02 -0.35524481633E+02  0.74370417483E+02  0.89184715357E+02  0.47000000000E+01 0.  1.
         -5    1    4    4    0  502 -0.25893078356E+02  0.60200843148E+02  0.40889982176E+03  0.41414459704E+03  0.47000000000E+01 0.  1.
<mgrwt>
<rscale>  0 0.37171764E+03</rscale>
<asrwt>0</asrwt>
<pdfrwt beam="1">  1       21 0.91795991E-01 0.37171764E+03</pdfrwt>
<pdfrwt beam="2">  1       21 0.89066813E-02 0.37171764E+03</pdfrwt>
<totfact> 0.94254499E+04</totfact>
</mgrwt>
</event>
<event>
 8    1  0.9400004E-006  0.2529673E+03  0.7546771E-02  0.1111444E+00
         21   -1    0    0  504  503  0.00000000000E+00  0.00000000000E+00  0.21130500308E+03  0.21130500308E+03  0.00000000000E+00 0.  1.
         21   -1    0    0  503  504 -0.00000000000E+00 -0.00000000000E+00 -0.75711005216E+02  0.75711005216E+02  0.00000000000E+00 0.  1.
         25    2    1    2    0    0  0.15629781060E+02  0.40613224028E+01  0.79667739271E+02  0.14911121666E+03  0.12500568730E+03 0.  0.
         25    2    1    2    0    0 -0.15629781060E+02 -0.40613224028E+01  0.55926258593E+02  0.13790479163E+03  0.12501680191E+03 0.  0.
          5    1    3    3  501    0  0.40830182979E+02 -0.42975372183E+02  0.74458616167E+02  0.95289883922E+02  0.47000000000E+01 0. -1.
         -5    1    3    3    0  501 -0.25200401920E+02  0.47036694586E+02  0.52091231038E+01  0.53821332741E+02  0.47000000000E+01 0. -1.
          5    1    4    4  502    0  0.72832430238E+00  0.51771093336E+02  0.60003929688E+02  0.79393564850E+02  0.47000000000E+01 0. -1.
         -5    1    4    4    0  502 -0.16358105362E+02 -0.55832415739E+02 -0.40776710950E+01  0.58511226784E+02  0.47000000000E+01 0. -1.
<mgrwt>
<rscale>  0 0.25296730E+03</rscale>
<asrwt>0</asrwt>
<pdfrwt beam="1">  1       21 0.32508462E-01 0.25296730E+03</pdfrwt>
<pdfrwt beam="2">  1       21 0.11647847E-01 0.25296730E+03</pdfrwt>
<totfact> 0.55729047E+05</totfact>
</mgrwt>
</event>
<event>
 8    1  0.9400004E-006  0.3307288E+03  0.7546771E-02  0.1070815E+00
         21   -1    0    0  504  503  0.00000000000E+00  0.00000000000E+00  0.89492360601E+03  0.89492360601E+03  0.00000000000E+00 0.  1.
         21   -1    0    0  503  504 -0.00000000000E+00 -0.00000000000E+00 -0.30556109740E+02  0.30556109740E+02  0.00000000000E+00 0.  1.
         25    2    1    2    0    0  0.49402142569E+02 -0.35129853449E+02  0.68319343253E+03  0.69717416151E+03  0.12499546761E+03 0.  0.
         25    2    1    2    0    0 -0.49402142569E+02  0.35129853449E+02  0.18117406374E+03  0.22830555424E+03  0.12499882573E+03 0.  0.
          5    1    3    3  501    0  0.62788581122E+01 -0.45836540695E+02  0.81574405158E+02  0.93898275271E+02  0.47000000000E+01 0. -1.
         -5    1    3    3    0  501  0.43123284457E+02  0.10706687246E+02  0.60161902738E+03  0.60327588624E+03  0.47000000000E+01 0. -1.
          5    1    4    4  502    0  0.34729111267E+02 -0.82806156846E+01  0.89354423168E+02  0.96337857072E+02  0.47000000000E+01 0.  1.
         -5    1    4    4    0  502 -0.84131253837E+02  0.43410469133E+02  0.91819640571E+02  0.13196769717E+03  0.47000000000E+01 0.  1.
<mgrwt>
<rscale>  0 0.33072879E+03</rscale>
<asrwt>0</asrwt>
<pdfrwt beam="1">  1       21 0.13768053E+00 0.33072879E+03</pdfrwt>
<pdfrwt beam="2">  1       21 0.47009406E-02 0.33072879E+03</pdfrwt>
<totfact> 0.10599837E+05</totfact>
</mgrwt>
</event>
<event>
 8    1  0.9400004E-006  0.3132181E+03  0.7546771E-02  0.1078814E+00
         21   -1    0    0  504  503  0.00000000000E+00  0.00000000000E+00  0.10020970027E+03  0.10020970027E+03  0.00000000000E+00 0. -1.
         21   -1    0    0  503  504 -0.00000000000E+00 -0.00000000000E+00 -0.24475064169E+03  0.24475064169E+03  0.00000000000E+00 0. -1.
         25    2    1    2    0    0 -0.92764202700E+02  0.15578857537E+02 -0.64411461894E+02  0.16917691461E+03  0.12499637558E+03 0.  0.
         25    2    1    2    0    0  0.92764202700E+02 -0.15578857537E+02 -0.80129479525E+02  0.17578342735E+03  0.12502472450E+03 0.  0.
          5    1    3    3  501    0 -0.48144551907E+02 -0.54224395674E+02 -0.21616674467E+02  0.75812621506E+02  0.47000000000E+01 0. -1.
         -5    1    3    3    0  501 -0.44619650793E+02  0.69803253211E+02 -0.42794787427E+02  0.93364293104E+02  0.47000000000E+01 0. -1.
          5    1    4    4  502    0  0.64410706562E+02 -0.75969455353E+01 -0.11363432753E+03  0.13092479939E+03  0.47000000000E+01 0.  1.
         -5    1    4    4    0  502  0.28353496138E+02 -0.79819120014E+01  0.33504848008E+02  0.44858627961E+02  0.47000000000E+01 0.  1.
<mgrwt>
<rscale>  0 0.31321806E+03</rscale>
<asrwt>0</asrwt>
<pdfrwt beam="1">  1       21 0.15416877E-01 0.31321806E+03</pdfrwt>
<pdfrwt beam="2">  1       21 0.37653945E-01 0.31321806E+03</pdfrwt>
<totfact> 0.24645633E+05</totfact>
</mgrwt>
</event>
<event>
 8    1  0.9400004E-006  0.3300174E+03  0.7546771E-02  0.1071129E+00
         21   -1    0    0  504  503  0.00000000000E+00  0.00000000000E+00  0.20469119858E+03  0.20469119858E+03  0.00000000000E+00 0.  1.
         21   -1    0    0  503  504 -0.00000000000E+00 -0.00000000000E+00 -0.13301928208E+03  0.13301928208E+03  0.00000000000E+00 0.  1.
         25    2    1    2    0    0  0.21708264628E+02 -0.59390066146E+02 -0.53398302796E+02  0.14991492270E+03  0.12499870638E+03 0.  0.
         25    2    1    2    0    0 -0.21708264628E+02  0.59390066146E+02  0.12507021930E+03  0.18779555796E+03  0.12500473241E+03 0.  0.
          5    1    3    3  501    0 -0.13356172637E+02  0.31115881497E+02  0.78142219507E+01  0.35067613171E+02  0.47000000000E+01 0.  1.
         -5    1    3    3    0  501  0.35064437265E+02 -0.90505947643E+02 -0.61212524746E+02  0.11484730953E+03  0.47000000000E+01 0.  1.
          5    1    4    4  502    0  0.51053232354E+02  0.14097972742E+02  0.59385364199E+02  0.79711334516E+02  0.47000000000E+01 0.  1.
         -5    1    4    4    0  502 -0.72761496982E+02  0.45292093404E+02  0.65684855102E+02  0.10808422345E+03  0.47000000000E+01 0.  1.
<mgrwt>
<rscale>  0 0.33001743E+03</rscale>
<asrwt>0</asrwt>
<pdfrwt beam="1">  1       21 0.31490954E-01 0.33001743E+03</pdfrwt>
<pdfrwt beam="2">  1       21 0.20464505E-01 0.33001743E+03</pdfrwt>
<totfact> 0.20701930E+05</totfact>
</mgrwt>
</event>
<event>
 8    1  0.9400004E-006  0.3020571E+03  0.7546771E-02  0.1084217E+00
         21   -1    0    0  504  503  0.00000000000E+00  0.00000000000E+00  0.10322627552E+03  0.10322627552E+03  0.00000000000E+00 0. -1.
         21   -1    0    0  503  504 -0.00000000000E+00 -0.00000000000E+00 -0.22096724531E+03  0.22096724531E+03  0.00000000000E+00 0. -1.
         25    2    1    2    0    0  0.72132565936E+02  0.40185325357E+02 -0.38355015602E+02  0.15464962959E+03  0.12500973270E+03 0.  0.
         25    2    1    2    0    0 -0.72132565936E+02 -0.40185325357E+02 -0.79385954194E+02  0.16954389123E+03  0.12500013556E+03 0.  0.
          5    1    3    3  501    0  0.42576515549E+02 -0.32144557558E+02 -0.52624248084E+02  0.75082845865E+02  0.47000000000E+01 0. -1.
         -5    1    3    3    0  501  0.29556050387E+02  0.72329882915E+02  0.14269232482E+02  0.79566783727E+02  0.47000000000E+01 0. -1.
          5    1    4    4  502    0 -0.16842966916E+02 -0.54736623225E+02 -0.94158329132E+02  0.11030713668E+03  0.47000000000E+01 0.  1.
         -5    1    4    4    0  502 -0.55289599020E+02  0.14551297867E+02  0.14772374937E+02  0.59236754559E+02  0.47000000000E+01 0.  1.
<mgrwt>
<rscale>  0 0.30205712E+03</rscale>
<asrwt>0</asrwt>
<pdfrwt beam="1">  1       21 0.15880966E-01 0.30205712E+03</pdfrwt>
<pdfrwt beam="2">  1       21 0.33994960E-01 0.30205712E+03</pdfrwt>
<totfact> 0.28724846E+05</totfact>
</mgrwt>
</event>
<event>
 8    1  0.9400004E-006  0.3053037E+03  0.7546771E-02  0.1082619E+00
         21   -1    0    0  504  503  0.00000000000E+00  0.00000000000E+00  0.21445361568E+03  0.21445361568E+03  0.00000000000E+00 0.  1.
         21   -1    0    0  503  504 -0.00000000000E+00 -0.00000000000E+00 -0.10866026840E+03  0.10866026840E+03  0.00000000000E+00 0.  1.
         25    2    1    2    0    0  0.36873928690E+02 -0.56873693812E+02 -0.58576910109E+01  0.14231390490E+03  0.12499852527E+03 0.  0.
         25    2    1    2    0    0 -0.36873928690E+02  0.56873693812E+02  0.11165103828E+03  0.18079997918E+03  0.12501349709E+03 0.  0.
          5    1    3    3  501    0  0.80476926233E+02 -0.47297109622E+02 -0.19338557331E+02  0.95444339979E+02  0.47000000000E+01 0.  1.
         -5    1    3    3    0  501 -0.43602997542E+02 -0.95765841909E+01  0.13480866321E+02  0.46869564924E+02  0.47000000000E+01 0.  1.
          5    1    4    4  502    0 -0.12054967038E+02  0.70364430266E+02  0.12886092877E+03  0.14738963410E+03  0.47000000000E+01 0.  1.
         -5    1    4    4    0  502 -0.24818961653E+02 -0.13490736454E+02 -0.17209890486E+02  0.33410345076E+02  0.47000000000E+01 0.  1.
<mgrwt>
<rscale>  0 0.30530370E+03</rscale>
<asrwt>0</asrwt>
<pdfrwt beam="1">  1       21 0.32992864E-01 0.30530370E+03</pdfrwt>
<pdfrwt beam="2">  1       21 0.16716964E-01 0.30530370E+03</pdfrwt>
<totfact> 0.27710389E+05</totfact>
</mgrwt>
</event>
<event>
 8    1  0.9400004E-006  0.2689767E+03  0.7546771E-02  0.1101867E+00
         21   -1    0    0  504  503  0.00000000000E+00  0.00000000000E+00  0.18253112715E+04  0.18253112715E+04  0.00000000000E+00 0.  1.
         21   -1    0    0  503  504 -0.00000000000E+00 -0.00000000000E+00 -0.99090550653E+01  0.99090550653E+01  0.00000000000E+00 0.  1.
         25    2    1    2    0    0 -0.29245052833E+02 -0.66005535346E+01  0.63846233536E+03  0.65128090212E+03  0.12503527249E+03 0.  0.
         25    2    1    2    0    0  0.29245052833E+02  0.66005535346E+01  0.11769398811E+04  0.11839394244E+04  0.12500494661E+03 0.  0.
          5    1    3    3  501    0 -0.65181464906E+02 -0.28680009744E+02  0.23513283503E+03  0.24572485922E+03  0.47000000000E+01 0.  1.
         -5    1    3    3    0  501  0.35936412073E+02  0.22079456209E+02  0.40332950033E+03  0.40555604290E+03  0.47000000000E+01 0.  1.
          5    1    4    4  502    0 -0.13976661965E+02 -0.73284466507E+01  0.10286339283E+04  0.10287657175E+04  0.47000000000E+01 0. -1.
         -5    1    4    4    0  502  0.43221714798E+02  0.13929000185E+02  0.14830595279E+03  0.15517370688E+03  0.47000000000E+01 0. -1.
<mgrwt>
<rscale>  0 0.26897665E+03</rscale>
<asrwt>0</asrwt>
<pdfrwt beam="1">  1       21 0.28081685E+00 0.26897665E+03</pdfrwt>
<pdfrwt beam="2">  1       21 0.15244715E-02 0.26897665E+03</pdfrwt>
<totfact> 0.79808819E+04</totfact>
</mgrwt>
</event>
<event>
 8    1  0.9400004E-006  0.3159064E+03  0.7546771E-02  0.1077549E+00
         21   -1    0    0  504  503  0.00000000000E+00  0.00000000000E+00  0.13874494262E+04  0.13874494262E+04  0.00000000000E+00 0. -1.
         21   -1    0    0  503  504 -0.00000000000E+00 -0.00000000000E+00 -0.17982075197E+02  0.17982075197E+02  0.00000000000E+00 0. -1.
         25    2    1    2    0    0  0.58545024341E+02 -0.33734933658E+02  0.37782903200E+03  0.40366449327E+03  0.12499872030E+03 0.  0.
         25    2    1    2    0    0 -0.58545024341E+02  0.33734933658E+02  0.99163831900E+03  0.10017670081E+04  0.12500006897E+03 0.  0.
          5    1    3    3  501    0 -0.18370584886E+02 -0.49643285875E+02  0.83309553988E+02  0.98815515013E+02  0.47000000000E+01 0. -1.
         -5    1    3    3    0  501  0.76915609227E+02  0.15908352217E+02  0.29451947801E+03  0.30484897825E+03  0.47000000000E+01 0. -1.
          5    1    4    4  502    0 -0.13335234843E+02  0.68672552941E+02  0.31520819557E+03  0.32291182166E+03  0.47000000000E+01 0. -1.
         -5    1    4    4    0  502 -0.45209789498E+02 -0.34937619282E+02  0.67643012343E+03  0.67885518647E+03  0.47000000000E+01 0. -1.
<mgrwt>
<rscale>  0 0.31590644E+03</rscale>
<asrwt>0</asrwt>
<pdfrwt beam="1">  1       21 0.21345367E+00 0.31590644E+03</pdfrwt>
<pdfrwt beam="2">  1       21 0.27664742E-02 0.31590644E+03</pdfrwt>
<totfact> 0.74993228E+04</totfact>
</mgrwt>
</event>
<event>
 8    1  0.9400004E-006  0.4747523E+03  0.7546771E-02  0.1020587E+00
         21   -1    0    0  504  503  0.00000000000E+00  0.00000000000E+00  0.10104883028E+03  0.10104883028E+03  0.00000000000E+00 0.  1.
         21   -1    0    0  503  504 -0.00000000000E+00 -0.00000000000E+00 -0.55762590346E+03  0.55762590346E+03  0.00000000000E+00 0.  1.
         25    2    1    2    0    0  0.16452874559E+03 -0.73841262921E+01 -0.66506405931E+02  0.21719534740E+03  0.12500593367E+03 0.  0.
         25    2    1    2    0    0 -0.16452874559E+03  0.73841262921E+01 -0.39007066725E+03  0.44147938635E+03  0.12499875868E+03 0.  0.
          5    1    3    3  501    0  0.92148904663E+02 -0.58411510996E+02 -0.67732964849E+02  0.12850357884E+03  0.47000000000E+01 0.  1.
         -5    1    3    3    0  501  0.72379840930E+02  0.51027384703E+02  0.12265589173E+01  0.88691768556E+02  0.47000000000E+01 0.  1.
          5    1    4    4  502    0 -0.67878629896E+02 -0.58057681805E+02 -0.18445188970E+03  0.20499461561E+03  0.47000000000E+01 0. -1.
         -5    1    4    4    0  502 -0.96650115697E+02  0.65441808098E+02 -0.20561877755E+03  0.23648477074E+03  0.47000000000E+01 0. -1.
<mgrwt>
<rscale>  0 0.47475234E+03</rscale>
<asrwt>0</asrwt>
<pdfrwt beam="1">  1       21 0.15545974E-01 0.47475234E+03</pdfrwt>
<pdfrwt beam="2">  1       21 0.85788602E-01 0.47475234E+03</pdfrwt>
<totfact> 0.39208170E+04</totfact>
</mgrwt>
</event>
<event>
 8    1  0.9400004E-006  0.2756282E+03  0.7546771E-02  0.1098101E+00
         21   -1    0    0  504  503  0.00000000000E+00  0.00000000000E+00  0.33027862372E+03  0.33027862372E+03  0.00000000000E+00 0. -1.
         21   -1    0    0  503  504 -0.00000000000E+00 -0.00000000000E+00 -0.57505154323E+02  0.57505154323E+02  0.00000000000E+00 0. -1.
         25    2    1    2    0    0 -0.54670891724E+02 -0.14805444670E+02  0.15409753595E+03  0.20635277748E+03  0.12500924202E+03 0.  0.
         25    2    1    2    0    0  0.54670891724E+02  0.14805444670E+02  0.11867593344E+03  0.18143100057E+03  0.12500049278E+03 0.  0.
          5    1    3    3  501    0 -0.26301874665E+02 -0.20662091684E+02 -0.13375726852E+02  0.36327822842E+02  0.47000000000E+01 0.  1.
         -5    1    3    3    0  501 -0.28369017059E+02  0.58566470138E+01  0.16747326281E+03  0.17002495463E+03  0.47000000000E+01 0.  1.
          5    1    4    4  502    0  0.59703928092E+01 -0.52985910828E+02  0.42914213314E+02  0.68606647207E+02  0.47000000000E+01 0. -1.
         -5    1    4    4    0  502  0.48700498915E+02  0.67791355498E+02  0.75761720131E+02  0.11282435336E+03  0.47000000000E+01 0. -1.
<mgrwt>
<rscale>  0 0.27562818E+03</rscale>
<asrwt>0</asrwt>
<pdfrwt beam="1">  1       21 0.50812095E-01 0.27562818E+03</pdfrwt>
<pdfrwt beam="2">  1       21 0.88469470E-02 0.27562818E+03</pdfrwt>
<totfact> 0.36397685E+05</totfact>
</mgrwt>
</event>
<event>
 8    1  0.9400004E-006  0.3244943E+03  0.7546771E-02  0.1073599E+00
         21   -1    0    0  504  503  0.00000000000E+00  0.00000000000E+00  0.38110827784E+02  0.38110827784E+02  0.00000000000E+00 0.  1.
         21   -1    0    0  503  504 -0.00000000000E+00 -0.00000000000E+00 -0.69072592856E+03  0.69072592856E+03  0.00000000000E+00 0.  1.
         25    2    1    2    0    0 -0.10084685156E+03  0.18695977354E+02 -0.29623958382E+03  0.33749537236E+03  0.12500243319E+03 0.  0.
         25    2    1    2    0    0  0.10084685156E+03 -0.18695977354E+02 -0.35637551696E+03  0.39134138399E+03  0.12499977077E+03 0.  0.
          5    1    3    3  501    0  0.29135736053E+02  0.76927327192E+01 -0.68865877771E+02  0.75317118726E+02  0.47000000000E+01 0.  1.
         -5    1    3    3    0  501 -0.12998258762E+03  0.11003244635E+02 -0.22737370605E+03  0.26217825363E+03  0.47000000000E+01 0.  1.
          5    1    4    4  502    0  0.58951235751E+02  0.42528313685E+02 -0.95665593565E+02  0.12024101402E+03  0.47000000000E+01 0. -1.
         -5    1    4    4    0  502  0.41895615812E+02 -0.61224291039E+02 -0.26070992340E+03  0.27110036996E+03  0.47000000000E+01 0. -1.
<mgrwt>
<rscale>  0 0.32449430E+03</rscale>
<asrwt>0</asrwt>
<pdfrwt beam="1">  1       21 0.58632046E-02 0.32449430E+03</pdfrwt>
<pdfrwt beam="2">  1       21 0.10626552E+00 0.32449430E+03</pdfrwt>
<totfact> 0.13954137E+05</totfact>
</mgrwt>
</event>
<event>
 8    1  0.9400004E-006  0.2984762E+03  0.7546771E-02  0.1086005E+00
         21   -1    0    0  504  503  0.00000000000E+00  0.00000000000E+00  0.18938035055E+02  0.18938035055E+02  0.00000000000E+00 0.  1.
         21   -1    0    0  503  504 -0.00000000000E+00 -0.00000000000E+00 -0.11760468056E+04  0.11760468056E+04  0.00000000000E+00 0.  1.
         25    2    1    2    0    0 -0.41776625872E+02 -0.47841497129E+02 -0.37391656757E+03  0.39934030470E+03  0.12499993655E+03 0.  0.
         25    2    1    2    0    0  0.41776625872E+02  0.47841497129E+02 -0.78319220300E+03  0.79564453598E+03  0.12500442184E+03 0.  0.
          5    1    3    3  501    0 -0.73524854778E+02  0.92859955856E+00 -0.13950017235E+03  0.15776296984E+03  0.47000000000E+01 0. -1.
         -5    1    3    3    0  501  0.31748228906E+02 -0.48770096688E+02 -0.23441639522E+03  0.24157733486E+03  0.47000000000E+01 0. -1.
          5    1    4    4  502    0  0.58275311083E+02  0.12764084223E+02 -0.15364100291E+03  0.16488353921E+03  0.47000000000E+01 0.  1.
         -5    1    4    4    0  502 -0.16498685211E+02  0.35077412906E+02 -0.62955120010E+03  0.63076099678E+03  0.47000000000E+01 0.  1.
<mgrwt>
<rscale>  0 0.29847623E+03</rscale>
<asrwt>0</asrwt>
<pdfrwt beam="1">  1       21 0.29135442E-02 0.29847623E+03</pdfrwt>
<pdfrwt beam="2">  1       21 0.18093025E+00 0.29847623E+03</pdfrwt>
<totfact> 0.11367026E+05</totfact>
</mgrwt>
</event>
<event>
 8    1  0.9400004E-006  0.5441164E+03  0.7546771E-02  0.1002865E+00
         21   -1    0    0  504  503  0.00000000000E+00  0.00000000000E+00  0.16014201961E+03  0.16014201961E+03  0.00000000000E+00 0. -1.
         21   -1    0    0  503  504 -0.00000000000E+00 -0.00000000000E+00 -0.46218772280E+03  0.46218772280E+03  0.00000000000E+00 0. -1.
         25    2    1    2    0    0 -0.21877367778E+03  0.21461261644E+01 -0.26835009242E+03  0.36811098066E+03  0.12500957576E+03 0.  0.
         25    2    1    2    0    0  0.21877367778E+03 -0.21461261644E+01 -0.33695610764E+02  0.25421876175E+03  0.12500102678E+03 0.  0.
          5    1    3    3  501    0 -0.28608397195E+02  0.63639176146E+01 -0.12873590782E+03  0.13211345049E+03  0.47000000000E+01 0. -1.
         -5    1    3    3    0  501 -0.19016528058E+03 -0.42177914502E+01 -0.13961418460E+03  0.23599753017E+03  0.47000000000E+01 0. -1.
          5    1    4    4  502    0 -0.14663152879E+02  0.87400168398E+01 -0.66848769067E+01  0.18925472939E+02  0.47000000000E+01 0. -1.
         -5    1    4    4    0  502  0.23343683066E+03 -0.10886143004E+02 -0.27010733857E+02  0.23529328881E+03  0.47000000000E+01 0. -1.
<mgrwt>
<rscale>  0 0.54411644E+03</rscale>
<asrwt>0</asrwt>
<pdfrwt beam="1">  1       21 0.24637234E-01 0.54411644E+03</pdfrwt>
<pdfrwt beam="2">  1       21 0.71105802E-01 0.54411644E+03</pdfrwt>
<totfact> 0.24778904E+04</totfact>
</mgrwt>
</event>
<event>
 8    1  0.9400004E-006  0.3221677E+03  0.7546771E-02  0.1074656E+00
         21   -1    0    0  504  503  0.00000000000E+00  0.00000000000E+00  0.59575973861E+03  0.59575973861E+03  0.00000000000E+00 0. -1.
         21   -1    0    0  503  504 -0.00000000000E+00 -0.00000000000E+00 -0.43554479592E+02  0.43554479592E+02  0.00000000000E+00 0. -1.
         25    2    1    2    0    0  0.97447356884E+02 -0.22688319198E+02  0.24099514970E+03  0.28933389665E+03  0.12499877751E+03 0.  0.
         25    2    1    2    0    0 -0.97447356884E+02  0.22688319198E+02  0.31121010932E+03  0.34998032155E+03  0.12499498446E+03 0.  0.
          5    1    3    3  501    0  0.27055392367E+02 -0.67332123959E+02  0.14427881656E+03  0.16156755887E+03  0.47000000000E+01 0. -1.
         -5    1    3    3    0  501  0.70391964517E+02  0.44643804762E+02  0.96716333143E+02  0.12776633778E+03  0.47000000000E+01 0. -1.
          5    1    4    4  502    0  0.13563784001E+02 -0.25007993823E+02  0.12255593462E+03  0.12590243485E+03  0.47000000000E+01 0. -1.
         -5    1    4    4    0  502 -0.11101114088E+03  0.47696313021E+02  0.18865417470E+03  0.22407788670E+03  0.47000000000E+01 0. -1.
<mgrwt>
<rscale>  0 0.32216769E+03</rscale>
<asrwt>0</asrwt>
<pdfrwt beam="1">  1       21 0.91655338E-01 0.32216769E+03</pdfrwt>
<pdfrwt beam="2">  1       21 0.67006896E-02 0.32216769E+03</pdfrwt>
<totfact> 0.15794978E+05</totfact>
</mgrwt>
</event>
<event>
 8    1  0.9400004E-006  0.3915030E+03  0.7546771E-02  0.1046762E+00
         21   -1    0    0  504  503  0.00000000000E+00  0.00000000000E+00  0.23527264095E+03  0.23527264095E+03  0.00000000000E+00 0.  1.
         21   -1    0    0  503  504 -0.00000000000E+00 -0.00000000000E+00 -0.16286909787E+03  0.16286909787E+03  0.00000000000E+00 0.  1.
         25    2    1    2    0    0 -0.79034449252E+02 -0.66000314757E+02 -0.75609841151E+02  0.17875036728E+03  0.12502943656E+03 0.  0.
         25    2    1    2    0    0  0.79034449252E+02  0.66000314757E+02  0.14801338424E+03  0.21939137154E+03  0.12498850458E+03 0.  0.
          5    1    3    3  501    0 -0.11220545749E+03 -0.60741657754E+02 -0.64634966652E+02  0.14310619340E+03  0.47000000000E+01 0.  1.
         -5    1    3    3    0  501  0.33171008235E+02 -0.52586570029E+01 -0.10974874498E+02  0.35644173872E+02  0.47000000000E+01 0.  1.
          5    1    4    4  502    0 -0.31609720203E+02 -0.40538007216E+00  0.20840973084E+02  0.38154618376E+02  0.47000000000E+01 0.  1.
         -5    1    4    4    0  502  0.11064416946E+03  0.66405694830E+02  0.12717241115E+03  0.18123675317E+03  0.47000000000E+01 0.  1.
<mgrwt>
<rscale>  0 0.39150296E+03</rscale>
<asrwt>0</asrwt>
<pdfrwt beam="1">  1       21 0.36195791E-01 0.39150296E+03</pdfrwt>
<pdfrwt beam="2">  1       21 0.25056784E-01 0.39150296E+03</pdfrwt>
<totfact> 0.10487253E+05</totfact>
</mgrwt>
</event>
<event>
 8    1  0.9400004E-006  0.2746757E+03  0.7546771E-02  0.1098633E+00
         21   -1    0    0  504  503  0.00000000000E+00  0.00000000000E+00  0.62229638829E+02  0.62229638829E+02  0.00000000000E+00 0. -1.
         21   -1    0    0  503  504 -0.00000000000E+00 -0.00000000000E+00 -0.30309812673E+03  0.30309812673E+03  0.00000000000E+00 0. -1.
         25    2    1    2    0    0 -0.17366584930E+02  0.23334992774E+02 -0.55408810693E+02  0.13979151878E+03  0.12500164903E+03 0.  0.
         25    2    1    2    0    0  0.17366584930E+02 -0.23334992774E+02 -0.18545967720E+03  0.22553624677E+03  0.12500074632E+03 0.  0.
          5    1    3    3  501    0 -0.60356497566E+02  0.48940173096E+02 -0.29504430546E+02  0.83250518095E+02  0.47000000000E+01 0.  1.
         -5    1    3    3    0  501  0.42989912636E+02 -0.25605180322E+02 -0.25904380147E+02  0.56541000686E+02  0.47000000000E+01 0.  1.
          5    1    4    4  502    0  0.43257853572E+02 -0.65369048505E+02 -0.12006595196E+03  0.14346524742E+03  0.47000000000E+01 0.  1.
         -5    1    4    4    0  502 -0.25891268642E+02  0.42034055731E+02 -0.65393725243E+02  0.82070999350E+02  0.47000000000E+01 0.  1.
<mgrwt>
<rscale>  0 0.27467571E+03</rscale>
<asrwt>0</asrwt>
<pdfrwt beam="1">  1       21 0.95737904E-02 0.27467571E+03</pdfrwt>
<pdfrwt beam="2">  1       21 0.46630482E-01 0.27467571E+03</pdfrwt>
<totfact> 0.37894084E+05</totfact>
</mgrwt>
</event>
<event>
 8    1  0.9400004E-006  0.2968479E+03  0.7546771E-02  0.1086827E+00
         21   -1    0    0  504  503  0.00000000000E+00  0.00000000000E+00  0.24746592220E+02  0.24746592220E+02  0.00000000000E+00 0.  1.
         21   -1    0    0  503  504 -0.00000000000E+00 -0.00000000000E+00 -0.89021045762E+03  0.89021045762E+03  0.00000000000E+00 0.  1.
         25    2    1    2    0    0  0.59393756033E+02  0.36624132811E+02 -0.31194783333E+03  0.34322831867E+03  0.12500113064E+03 0.  0.
         25    2    1    2    0    0 -0.59393756033E+02 -0.36624132811E+02 -0.55351603207E+03  0.57172873117E+03  0.12499919568E+03 0.  0.
          5    1    3    3  501    0  0.89686532974E+02  0.15921593669E+02 -0.27955714980E+03  0.29406030223E+03  0.47000000000E+01 0. -1.
         -5    1    3    3    0  501 -0.30292776941E+02  0.20702539142E+02 -0.32390683523E+02  0.49168016442E+02  0.47000000000E+01 0. -1.
          5    1    4    4  502    0 -0.73743528512E+02 -0.51617688499E+02 -0.22299040362E+03  0.24051882228E+03  0.47000000000E+01 0. -1.
         -5    1    4    4    0  502  0.14349772479E+02  0.14993555688E+02 -0.33052562845E+03  0.33120990889E+03  0.47000000000E+01 0. -1.
<mgrwt>
<rscale>  0 0.29684794E+03</rscale>
<asrwt>0</asrwt>
<pdfrwt beam="1">  1       21 0.38071688E-02 0.29684794E+03</pdfrwt>
<pdfrwt beam="2">  1       21 0.13695543E+00 0.29684794E+03</pdfrwt>
<totfact> 0.15530060E+05</totfact>
</mgrwt>
</event>
<event>
 8    1  0.9400004E-006  0.3097081E+03  0.7546771E-02  0.1080486E+00
         21   -1    0    0  504  503  0.00000000000E+00  0.00000000000E+00  0.23577716387E+03  0.23577716387E+03  0.00000000000E+00 0. -1.
         21   -1    0    0  503  504 -0.00000000000E+00 -0.00000000000E+00 -0.10170522945E+03  0.10170522945E+03  0.00000000000E+00 0. -1.
         25    2    1    2    0    0  0.50382589690E+01  0.72976386189E+02  0.12675224703E+03  0.19246427654E+03  0.12500171448E+03 0.  0.
         25    2    1    2    0    0 -0.50382589690E+01 -0.72976386189E+02  0.73196873876E+01  0.14501811677E+03  0.12500295746E+03 0.  0.
          5    1    3    3  501    0  0.52050457285E+02  0.48060935828E+02  0.11888659155E+03  0.13847460167E+03  0.47000000000E+01 0. -1.
         -5    1    3    3    0  501 -0.47012198316E+02  0.24915450361E+02  0.78656554828E+01  0.53989674877E+02  0.47000000000E+01 0. -1.
          5    1    4    4  502    0 -0.69618517185E+00 -0.59245860572E+02  0.63414439347E+02  0.86913967729E+02  0.47000000000E+01 0.  1.
         -5    1    4    4    0  502 -0.43420737971E+01 -0.13730525617E+02 -0.56094751959E+02  0.58104149042E+02  0.47000000000E+01 0.  1.
<mgrwt>
<rscale>  0 0.30970806E+03</rscale>
<asrwt>0</asrwt>
<pdfrwt beam="1">  1       21 0.36273410E-01 0.30970806E+03</pdfrwt>
<pdfrwt beam="2">  1       21 0.15646958E-01 0.30970806E+03</pdfrwt>
<totfact> 0.25879461E+05</totfact>
</mgrwt>
</event>
<event>
 8    1  0.9400004E-006  0.2664410E+03  0.7546771E-02  0.1103334E+00
         21   -1    0    0  504  503  0.00000000000E+00  0.00000000000E+00  0.50299920184E+02  0.50299920184E+02  0.00000000000E+00 0. -1.
         21   -1    0    0  503  504 -0.00000000000E+00 -0.00000000000E+00 -0.35283763833E+03  0.35283763833E+03  0.00000000000E+00 0. -1.
         25    2    1    2    0    0 -0.33239878087E+02 -0.27419045477E+02 -0.12649897874E+03  0.18297560238E+03  0.12498554275E+03 0.  0.
         25    2    1    2    0    0  0.33239878087E+02  0.27419045477E+02 -0.17603873941E+03  0.22016195613E+03  0.12499982242E+03 0.  0.
          5    1    3    3  501    0  0.50209379081E+01 -0.27572484361E+02  0.17856428810E+02  0.33561790196E+02  0.47000000000E+01 0.  1.
         -5    1    3    3    0  501 -0.38260815995E+02  0.15343888400E+00 -0.14435540755E+03  0.14941381219E+03  0.47000000000E+01 0.  1.
          5    1    4    4  502    0  0.14624691529E+02 -0.30552954961E+02 -0.14987115194E+03  0.15372318252E+03  0.47000000000E+01 0. -1.
         -5    1    4    4    0  502  0.18615186558E+02  0.57972000438E+02 -0.26167587466E+02  0.66438773612E+02  0.47000000000E+01 0. -1.
<mgrwt>
<rscale>  0 0.26644103E+03</rscale>
<asrwt>0</asrwt>
<pdfrwt beam="1">  1       21 0.77384496E-02 0.26644103E+03</pdfrwt>
<pdfrwt beam="2">  1       21 0.54282711E-01 0.26644103E+03</pdfrwt>
<totfact> 0.40110602E+05</totfact>
</mgrwt>
</event>
<event>
 8    1  0.9400004E-006  0.3267108E+03  0.7546771E-02  0.1072602E+00
         21   -1    0    0  504  503  0.00000000000E+00  0.00000000000E+00  0.22882254617E+03  0.22882254617E+03  0.00000000000E+00 0.  1.
         21   -1    0    0  503  504 -0.00000000000E+00 -0.00000000000E+00 -0.11661868604E+03  0.11661868604E+03  0.00000000000E+00 0.  1.
         25    2    1    2    0    0  0.38597104733E+02  0.37245077260E+02 -0.39566796258E+02  0.14164881221E+03  0.12498768883E+03 0.  0.
         25    2    1    2    0    0 -0.38597104733E+02 -0.37245077260E+02  0.15177065639E+03  0.20379242001E+03  0.12498034260E+03 0.  0.
          5    1    3    3  501    0 -0.10385306789E+02  0.25506472016E+02  0.39138991466E+02  0.48087268220E+02  0.47000000000E+01 0.  1.
         -5    1    3    3    0  501  0.48982411522E+02  0.11738605244E+02 -0.78705787725E+02  0.93561543985E+02  0.47000000000E+01 0.  1.
          5    1    4    4  502    0  0.44285564627E+02 -0.21020535339E+02  0.38969103844E+02  0.62799324795E+02  0.47000000000E+01 0.  1.
         -5    1    4    4    0  502 -0.82882669360E+02 -0.16224541921E+02  0.11280155255E+03  0.14099309521E+03  0.47000000000E+01 0.  1.
<mgrwt>
<rscale>  0 0.32671079E+03</rscale>
<asrwt>0</asrwt>
<pdfrwt beam="1">  1       21 0.35203469E-01 0.32671079E+03</pdfrwt>
<pdfrwt beam="2">  1       21 0.17941336E-01 0.32671079E+03</pdfrwt>
<totfact> 0.21242854E+05</totfact>
</mgrwt>
</event>
<event>
 8    1  0.9400004E-006  0.2727835E+03  0.7546771E-02  0.1099697E+00
         21   -1    0    0  504  503  0.00000000000E+00  0.00000000000E+00  0.15132731987E+03  0.15132731987E+03  0.00000000000E+00 0. -1.
         21   -1    0    0  503  504 -0.00000000000E+00 -0.00000000000E+00 -0.12293028632E+03  0.12293028632E+03  0.00000000000E+00 0. -1.
         25    2    1    2    0    0 -0.30542150923E+01  0.14130727332E+02  0.67085943185E+02  0.14260513833E+03  0.12500678390E+03 0.  0.
         25    2    1    2    0    0  0.30542150923E+01 -0.14130727332E+02 -0.38688909636E+02  0.13165246786E+03  0.12500613937E+03 0.  0.
          5    1    3    3  501    0  0.45673139314E+02 -0.25603999078E+02  0.29281710908E+01  0.52652299186E+02  0.47000000000E+01 0. -1.
         -5    1    3    3    0  501 -0.48727354407E+02  0.39734726410E+02  0.64157772094E+02  0.89952839146E+02  0.47000000000E+01 0. -1.
          5    1    4    4  502    0  0.34427509124E+02 -0.52216944545E+02 -0.50700444178E+02  0.80650404351E+02  0.47000000000E+01 0.  1.
         -5    1    4    4    0  502 -0.31373294032E+02  0.38086217213E+02  0.12011534542E+02  0.51002063508E+02  0.47000000000E+01 0.  1.
<mgrwt>
<rscale>  0 0.27278351E+03</rscale>
<asrwt>0</asrwt>
<pdfrwt beam="1">  1       21 0.23281126E-01 0.27278351E+03</pdfrwt>
<pdfrwt beam="2">  1       21 0.18912352E-01 0.27278351E+03</pdfrwt>
<totfact> 0.43720271E+05</totfact>
</mgrwt>
</event>
<event>
 8    1  0.9400004E-006  0.2801240E+03  0.7546771E-02  0.1095621E+00
         21   -1    0    0  504  503  0.00000000000E+00  0.00000000000E+00  0.72184487742E+02  0.72184487742E+02  0.00000000000E+00 0. -1.
         21   -1    0    0  503  504 -0.00000000000E+00 -0.00000000000E+00 -0.27176706427E+03  0.27176706427E+03  0.00000000000E+00 0. -1.
         25    2    1    2    0    0  0.54544758457E+02 -0.31846818712E+02 -0.10152405001E+03  0.17298402495E+03  0.12500795823E+03 0.  0.
         25    2    1    2    0    0 -0.54544758457E+02  0.31846818712E+02 -0.98058526521E+02  0.17096752706E+03  0.12500028060E+03 0.  0.
          5    1    3    3  501    0  0.19130465682E+02 -0.55845493984E+02 -0.11375225055E+03  0.12824335625E+03  0.47000000000E+01 0.  1.
         -5    1    3    3    0  501  0.35414292776E+02  0.23998675271E+02  0.12228200545E+02  0.44740668705E+02  0.47000000000E+01 0.  1.
          5    1    4    4  502    0  0.36267139729E+01 -0.29109905274E+02 -0.79070191146E+02  0.84467299987E+02  0.47000000000E+01 0.  1.
         -5    1    4    4    0  502 -0.58171472430E+02  0.60956723986E+02 -0.18988335375E+02  0.86500227076E+02  0.47000000000E+01 0.  1.
<mgrwt>
<rscale>  0 0.28012402E+03</rscale>
<asrwt>0</asrwt>
<pdfrwt beam="1">  1       21 0.11105306E-01 0.28012402E+03</pdfrwt>
<pdfrwt beam="2">  1       21 0.41810318E-01 0.28012402E+03</pdfrwt>
<totfact> 0.36392844E+05</totfact>
</mgrwt>
</event>
<event>
 8    1  0.9400004E-006  0.2826044E+03  0.7546771E-02  0.1094275E+00
         21   -1    0    0  504  503  0.00000000000E+00  0.00000000000E+00  0.53484910501E+03  0.53484910501E+03  0.00000000000E+00 0.  1.
         21   -1    0    0  503  504 -0.00000000000E+00 -0.00000000000E+00 -0.37330736316E+02  0.37330736316E+02  0.00000000000E+00 0.  1.
         25    2    1    2    0    0  0.57255898528E+02  0.14136685623E+02  0.30823114352E+03  0.33780075968E+03  0.12499932642E+03 0.  0.
         25    2    1    2    0    0 -0.57255898528E+02 -0.14136685623E+02  0.18928722518E+03  0.23437908166E+03  0.12500326598E+03 0.  0.
          5    1    3    3  501    0  0.91823194542E+02  0.14153855240E+02  0.27216181911E+03  0.28762123783E+03  0.47000000000E+01 0.  1.
         -5    1    3    3    0  501 -0.34567296014E+02 -0.17169617288E-01  0.36069324415E+02  0.50179521842E+02  0.47000000000E+01 0.  1.
          5    1    4    4  502    0 -0.70300240717E+02 -0.33122392153E+02  0.19518650157E+03  0.21014061269E+03  0.47000000000E+01 0. -1.
         -5    1    4    4    0  502  0.13044342190E+02  0.18985706531E+02 -0.58992763957E+01  0.24238468962E+02  0.47000000000E+01 0. -1.
<mgrwt>
<rscale>  0 0.28260439E+03</rscale>
<asrwt>0</asrwt>
<pdfrwt beam="1">  1       21 0.82284472E-01 0.28260439E+03</pdfrwt>
<pdfrwt beam="2">  1       21 0.57431906E-02 0.28260439E+03</pdfrwt>
<totfact> 0.26762906E+05</totfact>
</mgrwt>
</event>
<event>
 8    1  0.9400004E-006  0.2694896E+03  0.7546771E-02  0.1101572E+00
         21   -1    0    0  504  503  0.00000000000E+00  0.00000000000E+00  0.24961047966E+02  0.24961047966E+02  0.00000000000E+00 0.  1.
         21   -1    0    0  503  504 -0.00000000000E+00 -0.00000000000E+00 -0.72737993969E+03  0.72737993969E+03  0.00000000000E+00 0.  1.
         25    2    1    2    0    0 -0.15948487608E+02  0.23297269420E+02 -0.46741573694E+03  0.48466385185E+03  0.12499784449E+03 0.  0.
         25    2    1    2    0    0  0.15948487608E+02 -0.23297269420E+02 -0.23500315478E+03  0.26767713581E+03  0.12500979665E+03 0.  0.
          5    1    3    3  501    0 -0.34160036145E+02  0.69764473921E+02 -0.27103361990E+03  0.28198457938E+03  0.47000000000E+01 0.  1.
         -5    1    3    3    0  501  0.18211548537E+02 -0.46467204502E+02 -0.19638211705E+03  0.20267927247E+03  0.47000000000E+01 0.  1.
          5    1    4    4  502    0  0.67658464719E+02 -0.10989033352E+02 -0.17137607590E+03  0.18463552230E+03  0.47000000000E+01 0.  1.
         -5    1    4    4    0  502 -0.51709977111E+02 -0.12308236068E+02 -0.63627078879E+02  0.83041613512E+02  0.47000000000E+01 0.  1.
<mgrwt>
<rscale>  0 0.26948963E+03</rscale>
<asrwt>0</asrwt>
<pdfrwt beam="1">  1       21 0.38401618E-02 0.26948963E+03</pdfrwt>
<pdfrwt beam="2">  1       21 0.11190459E+00 0.26948963E+03</pdfrwt>
<totfact> 0.25679987E+05</totfact>
</mgrwt>
</event>
<event>
 8    1  0.9400004E-006  0.3266657E+03  0.7546771E-02  0.1072622E+00
         21   -1    0    0  504  503  0.00000000000E+00  0.00000000000E+00  0.12439926133E+04  0.12439926133E+04  0.00000000000E+00 0.  1.
         21   -1    0    0  503  504 -0.00000000000E+00 -0.00000000000E+00 -0.21445154690E+02  0.21445154690E+02  0.00000000000E+00 0.  1.
         25    2    1    2    0    0  0.43592436870E+02 -0.41957851147E+02  0.94428194459E+03  0.95443979599E+03  0.12500468575E+03 0.  0.
         25    2    1    2    0    0 -0.43592436870E+02  0.41957851147E+02  0.27826551406E+03  0.31099797204E+03  0.12500912157E+03 0.  0.
          5    1    3    3  501    0  0.73608976334E+02  0.14043738060E+02  0.52703401905E+03  0.53235557216E+03  0.47000000000E+01 0. -1.
         -5    1    3    3    0  501 -0.30016539464E+02 -0.56001589207E+02  0.41724792554E+03  0.42208422382E+03  0.47000000000E+01 0. -1.
          5    1    4    4  502    0  0.14762825588E+01 -0.39175159573E+02  0.44792988907E+02  0.59710756091E+02  0.47000000000E+01 0. -1.
         -5    1    4    4    0  502 -0.45068719429E+02  0.81133010720E+02  0.23347252515E+03  0.25128721595E+03  0.47000000000E+01 0. -1.
<mgrwt>
<rscale>  0 0.32666566E+03</rscale>
<asrwt>0</asrwt>
<pdfrwt beam="1">  1       21 0.19138342E+00 0.32666566E+03</pdfrwt>
<pdfrwt beam="2">  1       21 0.32992555E-02 0.32666566E+03</pdfrwt>
<totfact> 0.77551095E+04</totfact>
</mgrwt>
</event>
<event>
 8    1  0.9400004E-006  0.5995583E+03  0.7546771E-02  0.9906323E-01
         21   -1    0    0  504  503  0.00000000000E+00  0.00000000000E+00  0.63234547428E+03  0.63234547428E+03  0.00000000000E+00 0.  1.
         21   -1    0    0  503  504 -0.00000000000E+00 -0.00000000000E+00 -0.14211777126E+03  0.14211777126E+03  0.00000000000E+00 0.  1.
         25    2    1    2    0    0  0.65222863655E+02  0.72621298489E+02  0.57371571525E+03  0.59523187296E+03  0.12499354275E+03 0.  0.
         25    2    1    2    0    0 -0.65222863655E+02 -0.72621298489E+02 -0.83488012225E+02  0.17923137257E+03  0.12500304713E+03 0.  0.
          5    1    3    3  501    0  0.18384152996E+02 -0.25939471503E+01  0.52163941313E+01  0.19849594729E+02  0.47000000000E+01 0.  1.
         -5    1    3    3    0  501  0.46838710660E+02  0.75215245640E+02  0.56849932112E+03  0.57538227823E+03  0.47000000000E+01 0.  1.
          5    1    4    4  502    0 -0.50624472593E+02 -0.94167372674E+02 -0.17887720609E+02  0.10850065369E+03  0.47000000000E+01 0. -1.
         -5    1    4    4    0  502 -0.14598391063E+02  0.21546074184E+02 -0.65600291616E+02  0.70730718888E+02  0.47000000000E+01 0. -1.
<mgrwt>
<rscale>  0 0.59955827E+03</rscale>
<asrwt>0</asrwt>
<pdfrwt beam="1">  1       21 0.97283918E-01 0.59955827E+03</pdfrwt>
<pdfrwt beam="2">  1       21 0.21864273E-01 0.59955827E+03</pdfrwt>
<totfact> 0.14810235E+04</totfact>
</mgrwt>
</event>
<event>
 8    1  0.9400004E-006  0.2853694E+03  0.7546771E-02  0.1092792E+00
         21   -1    0    0  504  503  0.00000000000E+00  0.00000000000E+00  0.28698584364E+03  0.28698584364E+03  0.00000000000E+00 0. -1.
         21   -1    0    0  503  504 -0.00000000000E+00 -0.00000000000E+00 -0.70940534647E+02  0.70940534647E+02  0.00000000000E+00 0. -1.
         25    2    1    2    0    0 -0.20744535855E+02 -0.65594704797E+02  0.10733392653E+03  0.17855158129E+03  0.12500837704E+03 0.  0.
         25    2    1    2    0    0  0.20744535855E+02  0.65594704797E+02  0.10871138246E+03  0.17937479700E+03  0.12499660818E+03 0.  0.
          5    1    3    3  501    0  0.19652127307E+02  0.17574414376E+02 -0.10442567341E+02  0.28743753427E+02  0.47000000000E+01 0.  1.
         -5    1    3    3    0  501 -0.40396663162E+02 -0.83169119173E+02  0.11777649388E+03  0.14980782786E+03  0.47000000000E+01 0.  1.
          5    1    4    4  502    0 -0.29582981253E+01  0.73886991601E+02  0.12763415311E+03  0.14758253995E+03  0.47000000000E+01 0. -1.
         -5    1    4    4    0  502  0.23702833980E+02 -0.82922868040E+01 -0.18922770657E+02  0.31792257052E+02  0.47000000000E+01 0. -1.
<mgrwt>
<rscale>  0 0.28536944E+03</rscale>
<asrwt>0</asrwt>
<pdfrwt beam="1">  1       21 0.44151668E-01 0.28536944E+03</pdfrwt>
<pdfrwt beam="2">  1       21 0.10913929E-01 0.28536944E+03</pdfrwt>
<totfact> 0.33525626E+05</totfact>
</mgrwt>
</event>
<event>
 8    1  0.9400004E-006  0.4385763E+03  0.7546771E-02  0.1031185E+00
         21   -1    0    0  504  503  0.00000000000E+00  0.00000000000E+00  0.14812752079E+04  0.14812752079E+04  0.00000000000E+00 0. -1.
         21   -1    0    0  503  504 -0.00000000000E+00 -0.00000000000E+00 -0.32463447613E+02  0.32463447613E+02  0.00000000000E+00 0. -1.
         25    2    1    2    0    0  0.78609496711E+02 -0.16032775527E+03  0.80736980501E+03  0.83627502355E+03  0.12500188354E+03 0.  0.
         25    2    1    2    0    0 -0.78609496711E+02  0.16032775527E+03  0.64144195526E+03  0.67746363194E+03  0.12499899424E+03 0.  0.
          5    1    3    3  501    0 -0.12132469637E+02 -0.60926428055E+02  0.45144928097E+03  0.45572773642E+03  0.47000000000E+01 0.  1.
         -5    1    3    3    0  501  0.90741966348E+02 -0.99401327213E+02  0.35592052404E+03  0.38054728713E+03  0.47000000000E+01 0.  1.
          5    1    4    4  502    0 -0.13108612123E+01  0.13293351910E+03  0.34200788001E+03  0.36696664541E+03  0.47000000000E+01 0. -1.
         -5    1    4    4    0  502 -0.77298635499E+02  0.27394236168E+02  0.29943407525E+03  0.31049698654E+03  0.47000000000E+01 0. -1.
<mgrwt>
<rscale>  0 0.43857633E+03</rscale>
<asrwt>0</asrwt>
<pdfrwt beam="1">  1       21 0.22788844E+00 0.43857633E+03</pdfrwt>
<pdfrwt beam="2">  1       21 0.49943777E-02 0.43857633E+03</pdfrwt>
<totfact> 0.21316344E+04</totfact>
</mgrwt>
</event>
<event>
 8    1  0.9400004E-006  0.2718264E+03  0.7546771E-02  0.1100239E+00
         21   -1    0    0  504  503  0.00000000000E+00  0.00000000000E+00  0.15962800472E+03  0.15962800472E+03  0.00000000000E+00 0. -1.
         21   -1    0    0  503  504 -0.00000000000E+00 -0.00000000000E+00 -0.11572153043E+03  0.11572153043E+03  0.00000000000E+00 0. -1.
         25    2    1    2    0    0  0.41183820713E+02  0.31536677158E+02  0.34632039103E+02  0.13969631022E+03  0.12500004745E+03 0.  0.
         25    2    1    2    0    0 -0.41183820713E+02 -0.31536677158E+02  0.92744351883E+01  0.13565322493E+03  0.12500045277E+03 0.  0.
          5    1    3    3  501    0 -0.20354608746E+02  0.33111129461E+02 -0.30742197006E+02  0.49777802966E+02  0.47000000000E+01 0. -1.
         -5    1    3    3    0  501  0.61538429459E+02 -0.15744523030E+01  0.65374236109E+02  0.89918507256E+02  0.47000000000E+01 0. -1.
          5    1    4    4  502    0 -0.70479791396E+02 -0.43780709775E+02 -0.26845562558E+02  0.87332272229E+02  0.47000000000E+01 0.  1.
         -5    1    4    4    0  502  0.29295970683E+02  0.12244032616E+02  0.36119997746E+02  0.48320952703E+02  0.47000000000E+01 0.  1.
<mgrwt>
<rscale>  0 0.27182639E+03</rscale>
<asrwt>0</asrwt>
<pdfrwt beam="1">  1       21 0.24558155E-01 0.27182639E+03</pdfrwt>
<pdfrwt beam="2">  1       21 0.17803312E-01 0.27182639E+03</pdfrwt>
<totfact> 0.44189930E+05</totfact>
</mgrwt>
</event>
<event>
 8    1  0.9400004E-006  0.3281074E+03  0.7546771E-02  0.1071977E+00
         21   -1    0    0  504  503  0.00000000000E+00  0.00000000000E+00  0.26437124576E+03  0.26437124576E+03  0.00000000000E+00 0. -1.
         21   -1    0    0  503  504 -0.00000000000E+00 -0.00000000000E+00 -0.10180235881E+03  0.10180235881E+03  0.00000000000E+00 0. -1.
         25    2    1    2    0    0  0.68438407283E+02  0.77145856955E+02  0.52959647095E+02  0.17050020745E+03  0.12502118894E+03 0.  0.
         25    2    1    2    0    0 -0.68438407283E+02 -0.77145856955E+02  0.10960923985E+03  0.19567339711E+03  0.12505436434E+03 0.  0.
          5    1    3    3  501    0  0.30476239583E+02  0.40542049967E+02 -0.39160112868E+02  0.64250007272E+02  0.47000000000E+01 0. -1.
         -5    1    3    3    0  501  0.37962167700E+02  0.36603806989E+02  0.92119759963E+02  0.10625020018E+03  0.47000000000E+01 0. -1.
          5    1    4    4  502    0 -0.97021048053E+01 -0.31937906294E+02 -0.24978172527E+02  0.41954258412E+02  0.47000000000E+01 0.  1.
         -5    1    4    4    0  502 -0.58736302478E+02 -0.45207950661E+02  0.13458741238E+03  0.15371913870E+03  0.47000000000E+01 0.  1.
<mgrwt>
<rscale>  0 0.32810740E+03</rscale>
<asrwt>0</asrwt>
<pdfrwt beam="1">  1       21 0.40672499E-01 0.32810740E+03</pdfrwt>
<pdfrwt beam="2">  1       21 0.15661901E-01 0.32810740E+03</pdfrwt>
<totfact> 0.20394719E+05</totfact>
</mgrwt>
</event>
<event>
 8    1  0.9400004E-006  0.2652738E+03  0.7546771E-02  0.1104015E+00
         21   -1    0    0  504  503  0.00000000000E+00  0.00000000000E+00  0.63731733956E+03  0.63731733956E+03  0.00000000000E+00 0. -1.
         21   -1    0    0  503  504 -0.00000000000E+00 -0.00000000000E+00 -0.27604066991E+02  0.27604066991E+02  0.00000000000E+00 0. -1.
         25    2    1    2    0    0 -0.27846571717E+02  0.34125446787E+02  0.29159065254E+03  0.32029682949E+03  0.12499989062E+03 0.  0.
         25    2    1    2    0    0  0.27846571717E+02 -0.34125446787E+02  0.31812262003E+03  0.34462457706E+03  0.12499648022E+03 0.  0.
          5    1    3    3  501    0 -0.50020160962E+02 -0.28950795171E+02  0.83351100400E+02  0.10153650074E+03  0.47000000000E+01 0.  1.
         -5    1    3    3    0  501  0.22173589245E+02  0.63076241958E+02  0.20823955214E+03  0.21876032875E+03  0.47000000000E+01 0.  1.
          5    1    4    4  502    0 -0.25712559959E+02  0.78067251507E+01  0.23738803954E+03  0.23895031286E+03  0.47000000000E+01 0. -1.
         -5    1    4    4    0  502  0.53559131676E+02 -0.41932171938E+02  0.80734580484E+02  0.10567426420E+03  0.47000000000E+01 0. -1.
<mgrwt>
<rscale>  0 0.26527382E+03</rscale>
<asrwt>0</asrwt>
<pdfrwt beam="1">  1       21 0.98048811E-01 0.26527382E+03</pdfrwt>
<pdfrwt beam="2">  1       21 0.42467800E-02 0.26527382E+03</pdfrwt>
<totfact> 0.29869935E+05</totfact>
</mgrwt>
</event>
<event>
 8    1  0.9400004E-006  0.2668311E+03  0.7546771E-02  0.1103107E+00
         21   -1    0    0  504  503  0.00000000000E+00  0.00000000000E+00  0.10132472067E+04  0.10132472067E+04  0.00000000000E+00 0. -1.
         21   -1    0    0  503  504 -0.00000000000E+00 -0.00000000000E+00 -0.17567000788E+02  0.17567000788E+02  0.00000000000E+00 0. -1.
         25    2    1    2    0    0 -0.36701623482E+02  0.42474792235E+01  0.60769549942E+03  0.62151746666E+03  0.12500036440E+03 0.  0.
         25    2    1    2    0    0  0.36701623482E+02 -0.42474792235E+01  0.38798470645E+03  0.40929674078E+03  0.12500655716E+03 0.  0.
          5    1    3    3  501    0 -0.76397722098E+02  0.27583290318E+02  0.44450972060E+03  0.45189427033E+03  0.47000000000E+01 0. -1.
         -5    1    3    3    0  501  0.39696098617E+02 -0.23335811094E+02  0.16318577882E+03  0.16962319634E+03  0.47000000000E+01 0. -1.
          5    1    4    4  502    0  0.48783595014E+02  0.13276592915E+02  0.38374559629E+03  0.38709027336E+03  0.47000000000E+01 0. -1.
         -5    1    4    4    0  502 -0.12081971532E+02 -0.17524072138E+02  0.42391101606E+01  0.22206467422E+02  0.47000000000E+01 0. -1.
<mgrwt>
<rscale>  0 0.26683114E+03</rscale>
<asrwt>0</asrwt>
<pdfrwt beam="1">  1       21 0.15588414E+00 0.26683114E+03</pdfrwt>
<pdfrwt beam="2">  1       21 0.27026163E-02 0.26683114E+03</pdfrwt>
<totfact> 0.19730212E+05</totfact>
</mgrwt>
</event>
<event>
 8    1  0.9400004E-006  0.4621023E+03  0.7546771E-02  0.1024173E+00
         21   -1    0    0  504  503  0.00000000000E+00  0.00000000000E+00  0.31482380421E+02  0.31482380421E+02  0.00000000000E+00 0.  1.
         21   -1    0    0  503  504 -0.00000000000E+00 -0.00000000000E+00 -0.16956984747E+04  0.16956984747E+04  0.00000000000E+00 0.  1.
         25    2    1    2    0    0 -0.12969619716E+03 -0.14463010578E+03 -0.81506379536E+03  0.84716797992E+03  0.12500249856E+03 0.  0.
         25    2    1    2    0    0  0.12969619716E+03  0.14463010578E+03 -0.84915229890E+03  0.88001287518E+03  0.12499625072E+03 0.  0.
          5    1    3    3  501    0 -0.11452218405E+03 -0.85539637224E+02 -0.72033597134E+03  0.73439659707E+03  0.47000000000E+01 0. -1.
         -5    1    3    3    0  501 -0.15174013108E+02 -0.59090468557E+02 -0.94727824016E+02  0.11277138285E+03  0.47000000000E+01 0. -1.
          5    1    4    4  502    0  0.45395726947E+02  0.96661226168E+02 -0.23420335691E+03  0.25744410473E+03  0.47000000000E+01 0. -1.
         -5    1    4    4    0  502  0.84300470215E+02  0.47968879613E+02 -0.61494894199E+03  0.62256877045E+03  0.47000000000E+01 0. -1.
<mgrwt>
<rscale>  0 0.46210226E+03</rscale>
<asrwt>0</asrwt>
<pdfrwt beam="1">  1       21 0.48434430E-02 0.46210226E+03</pdfrwt>
<pdfrwt beam="2">  1       21 0.26087670E+00 0.46210226E+03</pdfrwt>
<totfact> 0.13928091E+04</totfact>
</mgrwt>
</event>
<event>
 8    1  0.9400004E-006  0.3780969E+03  0.7546771E-02  0.1051639E+00
         21   -1    0    0  504  503  0.00000000000E+00  0.00000000000E+00  0.21055387996E+03  0.21055387996E+03  0.00000000000E+00 0.  1.
         21   -1    0    0  503  504 -0.00000000000E+00 -0.00000000000E+00 -0.16973952720E+03  0.16973952720E+03  0.00000000000E+00 0.  1.
         25    2    1    2    0    0  0.34431178548E+02 -0.63528680853E+02  0.14316604082E+03  0.20333083535E+03  0.12500205602E+03 0.  0.
         25    2    1    2    0    0 -0.34431178548E+02  0.63528680853E+02 -0.10235168807E+03  0.17696257181E+03  0.12497393498E+03 0.  0.
          5    1    3    3  501    0  0.14092425080E+01 -0.30042653858E+02  0.15219765977E+03  0.15521199907E+03  0.47000000000E+01 0.  1.
         -5    1    3    3    0  501  0.33021936040E+02 -0.33486026995E+02 -0.90316189488E+01  0.48118836276E+02  0.47000000000E+01 0.  1.
          5    1    4    4  502    0 -0.26378653448E+02  0.86116744079E+02 -0.21800384485E+02  0.92786172096E+02  0.47000000000E+01 0. -1.
         -5    1    4    4    0  502 -0.80525250998E+01 -0.22588063226E+02 -0.80551303580E+02  0.84176399716E+02  0.47000000000E+01 0. -1.
<mgrwt>
<rscale>  0 0.37809690E+03</rscale>
<asrwt>0</asrwt>
<pdfrwt beam="1">  1       21 0.32392904E-01 0.37809690E+03</pdfrwt>
<pdfrwt beam="2">  1       21 0.26113774E-01 0.37809690E+03</pdfrwt>
<totfact> 0.12132855E+05</totfact>
</mgrwt>
</event>
<event>
 8    1  0.9400004E-006  0.3588327E+03  0.7546771E-02  0.1059047E+00
         21   -1    0    0  504  503  0.00000000000E+00  0.00000000000E+00  0.41432492295E+03  0.41432492295E+03  0.00000000000E+00 0. -1.
         21   -1    0    0  503  504 -0.00000000000E+00 -0.00000000000E+00 -0.77693198982E+02  0.77693198982E+02  0.00000000000E+00 0. -1.
         25    2    1    2    0    0  0.89839330330E+02 -0.63396293962E+02  0.26010505583E+03  0.30882023646E+03  0.12500041207E+03 0.  0.
         25    2    1    2    0    0 -0.89839330330E+02  0.63396293962E+02  0.76526668136E+02  0.18319788547E+03  0.12495974929E+03 0.  0.
          5    1    3    3  501    0 -0.10937082562E+02 -0.42495807220E+01 -0.89237677745E+01  0.15472632051E+02  0.47000000000E+01 0.  1.
         -5    1    3    3    0  501  0.10077641289E+03 -0.59146713240E+02  0.26902882361E+03  0.29334760441E+03  0.47000000000E+01 0.  1.
          5    1    4    4  502    0 -0.11801968308E+03  0.37209659268E+02  0.40516940596E+02  0.13029549805E+03  0.47000000000E+01 0. -1.
         -5    1    4    4    0  502  0.28180352747E+02  0.26186634694E+02  0.36009727539E+02  0.52902387422E+02  0.47000000000E+01 0. -1.
<mgrwt>
<rscale>  0 0.35883271E+03</rscale>
<asrwt>0</asrwt>
<pdfrwt beam="1">  1       21 0.63742294E-01 0.35883271E+03</pdfrwt>
<pdfrwt beam="2">  1       21 0.11952800E-01 0.35883271E+03</pdfrwt>
<totfact> 0.12806890E+05</totfact>
</mgrwt>
</event>
<event>
 8    1  0.9400004E-006  0.3106927E+03  0.7546771E-02  0.1080014E+00
         21   -1    0    0  504  503  0.00000000000E+00  0.00000000000E+00  0.51736349434E+02  0.51736349434E+02  0.00000000000E+00 0.  1.
         21   -1    0    0  503  504 -0.00000000000E+00 -0.00000000000E+00 -0.46645144297E+03  0.46645144297E+03  0.00000000000E+00 0.  1.
         25    2    1    2    0    0  0.48973466371E+01 -0.27141945019E+01 -0.36091023334E+03  0.38198201009E+03  0.12499083423E+03 0.  0.
         25    2    1    2    0    0 -0.48973466371E+01  0.27141945019E+01 -0.53804860193E+02  0.13620578232E+03  0.12500280517E+03 0.  0.
          5    1    3    3  501    0 -0.49930481859E+02 -0.77170341361E+01 -0.27634418810E+03  0.28096406519E+03  0.47000000000E+01 0.  1.
         -5    1    3    3    0  501  0.54827828496E+02  0.50028396342E+01 -0.84566045244E+02  0.10101794489E+03  0.47000000000E+01 0.  1.
          5    1    4    4  502    0  0.16128084332E+02 -0.17311765876E+02 -0.87915166272E+02  0.91164569886E+02  0.47000000000E+01 0.  1.
         -5    1    4    4    0  502 -0.21025430969E+02  0.20025960378E+02  0.34110306078E+02  0.45041212431E+02  0.47000000000E+01 0.  1.
<mgrwt>
<rscale>  0 0.31069274E+03</rscale>
<asrwt>0</asrwt>
<pdfrwt beam="1">  1       21 0.79594388E-02 0.31069274E+03</pdfrwt>
<pdfrwt beam="2">  1       21 0.71761756E-01 0.31069274E+03</pdfrwt>
<totfact> 0.20557785E+05</totfact>
</mgrwt>
</event>
<event>
 8    1  0.9400004E-006  0.3489625E+03  0.7546771E-02  0.1063042E+00
         21   -1    0    0  504  503  0.00000000000E+00  0.00000000000E+00  0.21026856098E+03  0.21026856098E+03  0.00000000000E+00 0.  1.
         21   -1    0    0  503  504 -0.00000000000E+00 -0.00000000000E+00 -0.14478489914E+03  0.14478489914E+03  0.00000000000E+00 0.  1.
         25    2    1    2    0    0  0.11683695747E+03 -0.73832459077E+01 -0.12088524125E+01  0.17126898389E+03  0.12500486617E+03 0.  0.
         25    2    1    2    0    0 -0.11683695747E+03  0.73832459077E+01  0.66692514254E+02  0.18378447624E+03  0.12499382103E+03 0.  0.
          5    1    3    3  501    0  0.33768558547E+02 -0.60655668115E+02  0.14929956854E+02  0.71164733067E+02  0.47000000000E+01 0. -1.
         -5    1    3    3    0  501  0.83068398928E+02  0.53272422207E+02 -0.16138809267E+02  0.10010425082E+03  0.47000000000E+01 0. -1.
          5    1    4    4  502    0 -0.66373871424E+02 -0.19548621790E+02 -0.26577869476E+02  0.74270536336E+02  0.47000000000E+01 0. -1.
         -5    1    4    4    0  502 -0.50463086051E+02  0.26931867697E+02  0.93270383730E+02  0.10951393990E+03  0.47000000000E+01 0. -1.
<mgrwt>
<rscale>  0 0.34896253E+03</rscale>
<asrwt>0</asrwt>
<pdfrwt beam="1">  1       21 0.32349010E-01 0.34896253E+03</pdfrwt>
<pdfrwt beam="2">  1       21 0.22274600E-01 0.34896253E+03</pdfrwt>
<totfact> 0.16635362E+05</totfact>
</mgrwt>
</event>
<event>
 8    1  0.9400004E-006  0.3357187E+03  0.7546771E-02  0.1068634E+00
         21   -1    0    0  504  503  0.00000000000E+00  0.00000000000E+00  0.22951116241E+03  0.22951116241E+03  0.00000000000E+00 0. -1.
         21   -1    0    0  503  504 -0.00000000000E+00 -0.00000000000E+00 -0.12276859697E+03  0.12276859697E+03  0.00000000000E+00 0. -1.
         25    2    1    2    0    0 -0.59214633515E+02 -0.70917385848E+02  0.11986416055E+03  0.19628645518E+03  0.12500122825E+03 0.  0.
         25    2    1    2    0    0  0.59214633515E+02  0.70917385848E+02 -0.13121595106E+02  0.15599330419E+03  0.12500434496E+03 0.  0.
          5    1    3    3  501    0 -0.63763424436E+02  0.11483489607E+02  0.22916092333E+02  0.68883104730E+02  0.47000000000E+01 0. -1.
         -5    1    3    3    0  501  0.45487909218E+01 -0.82400875455E+02  0.96948068213E+02  0.12740335045E+03  0.47000000000E+01 0. -1.
          5    1    4    4  502    0  0.11133092764E+01  0.52901545420E+02  0.46565171701E+02  0.70641476350E+02  0.47000000000E+01 0. -1.
         -5    1    4    4    0  502  0.58101324238E+02  0.18015840427E+02 -0.59686766807E+02  0.85351827844E+02  0.47000000000E+01 0. -1.
<mgrwt>
<rscale>  0 0.33571871E+03</rscale>
<asrwt>0</asrwt>
<pdfrwt beam="1">  1       21 0.35309410E-01 0.33571871E+03</pdfrwt>
<pdfrwt beam="2">  1       21 0.18887477E-01 0.33571871E+03</pdfrwt>
<totfact> 0.19139580E+05</totfact>
</mgrwt>
</event>
<event>
 8    1  0.9400004E-006  0.4217759E+03  0.7546771E-02  0.1036490E+00
         21   -1    0    0  504  503  0.00000000000E+00  0.00000000000E+00  0.17321463029E+03  0.17321463029E+03  0.00000000000E+00 0.  1.
         21   -1    0    0  503  504 -0.00000000000E+00 -0.00000000000E+00 -0.25675501813E+03  0.25675501813E+03  0.00000000000E+00 0.  1.
         25    2    1    2    0    0 -0.14649978139E+03 -0.44823839952E+02  0.33018488698E+02  0.20046444616E+03  0.12499764398E+03 0.  0.
         25    2    1    2    0    0  0.14649978139E+03  0.44823839952E+02 -0.11655887654E+03  0.22950520227E+03  0.12496120834E+03 0.  0.
          5    1    3    3  501    0 -0.57988860942E+02 -0.55801675114E+02 -0.35313822932E+02  0.88009607595E+02  0.47000000000E+01 0. -1.
         -5    1    3    3    0  501 -0.88510920451E+02  0.10977835162E+02  0.68332311630E+02  0.11245483856E+03  0.47000000000E+01 0. -1.
          5    1    4    4  502    0  0.10226669921E+03  0.88088849582E+02 -0.71470166111E+02  0.15280117091E+03  0.47000000000E+01 0. -1.
         -5    1    4    4    0  502  0.44233082185E+02 -0.43265009630E+02 -0.45088710431E+02  0.76704031356E+02  0.47000000000E+01 0. -1.
<mgrwt>
<rscale>  0 0.42177589E+03</rscale>
<asrwt>0</asrwt>
<pdfrwt beam="1">  1       21 0.26648405E-01 0.42177589E+03</pdfrwt>
<pdfrwt beam="2">  1       21 0.39500772E-01 0.42177589E+03</pdfrwt>
<totfact> 0.77343170E+04</totfact>
</mgrwt>
</event>
<event>
 8    1  0.9400004E-006  0.3543550E+03  0.7546771E-02  0.1060842E+00
         21   -1    0    0  504  503  0.00000000000E+00  0.00000000000E+00  0.39928640155E+03  0.39928640155E+03  0.00000000000E+00 0. -1.
         21   -1    0    0  503  504 -0.00000000000E+00 -0.00000000000E+00 -0.78619914723E+02  0.78619914723E+02  0.00000000000E+00 0. -1.
         25    2    1    2    0    0 -0.10665291010E+03 -0.65282014576E+02  0.14534917962E+03  0.22888231373E+03  0.12499657940E+03 0.  0.
         25    2    1    2    0    0  0.10665291010E+03  0.65282014576E+02  0.17531730720E+03  0.24902400254E+03  0.12506082912E+03 0.  0.
          5    1    3    3  501    0 -0.48985944713E+02 -0.68593986722E+01 -0.12204520888E+02  0.51163604835E+02  0.47000000000E+01 0. -1.
         -5    1    3    3    0  501 -0.57666965383E+02 -0.58422615904E+02  0.15755370051E+03  0.17771870889E+03  0.47000000000E+01 0. -1.
          5    1    4    4  502    0 -0.57285686275E+00 -0.11551305381E+01 -0.17720995452E+02  0.18378960018E+02  0.47000000000E+01 0. -1.
         -5    1    4    4    0  502  0.10722576696E+03  0.66437145114E+02  0.19303830265E+03  0.23064504253E+03  0.47000000000E+01 0. -1.
<mgrwt>
<rscale>  0 0.35435498E+03</rscale>
<asrwt>0</asrwt>
<pdfrwt beam="1">  1       21 0.61428676E-01 0.35435498E+03</pdfrwt>
<pdfrwt beam="2">  1       21 0.12095372E-01 0.35435498E+03</pdfrwt>
<totfact> 0.13607726E+05</totfact>
</mgrwt>
</event>
<event>
 8    1  0.9400004E-006  0.2549068E+03  0.7546771E-02  0.1110243E+00
         21   -1    0    0  504  503  0.00000000000E+00  0.00000000000E+00  0.61763204220E+03  0.61763204220E+03  0.00000000000E+00 0.  1.
         21   -1    0    0  503  504 -0.00000000000E+00 -0.00000000000E+00 -0.26301045041E+02  0.26301045041E+02  0.00000000000E+00 0.  1.
         25    2    1    2    0    0  0.22629795650E+02 -0.10348468341E+02  0.29327084013E+03  0.31976641641E+03  0.12499430765E+03 0.  0.
         25    2    1    2    0    0 -0.22629795650E+02  0.10348468341E+02  0.29806015702E+03  0.32416667083E+03  0.12499989929E+03 0.  0.
          5    1    3    3  501    0 -0.22597072088E+02 -0.24735135554E+02  0.14268036192E+02  0.36716773477E+02  0.47000000000E+01 0.  1.
         -5    1    3    3    0  501  0.45226867738E+02  0.14386667213E+02  0.27900280394E+03  0.28304964294E+03  0.47000000000E+01 0.  1.
          5    1    4    4  502    0 -0.47891357246E+02  0.34945277999E+02  0.63793574067E+02  0.87215048275E+02  0.47000000000E+01 0. -1.
         -5    1    4    4    0  502  0.25261561596E+02 -0.24596809658E+02  0.23426658296E+03  0.23695162255E+03  0.47000000000E+01 0. -1.
<mgrwt>
<rscale>  0 0.25490679E+03</rscale>
<asrwt>0</asrwt>
<pdfrwt beam="1">  1       21 0.95020304E-01 0.25490679E+03</pdfrwt>
<pdfrwt beam="2">  1       21 0.40463151E-02 0.25490679E+03</pdfrwt>
<totfact> 0.35003132E+05</totfact>
</mgrwt>
</event>
<event>
 8    1  0.9400004E-006  0.3000243E+03  0.7546771E-02  0.1085228E+00
         21   -1    0    0  504  503  0.00000000000E+00  0.00000000000E+00  0.18435315539E+02  0.18435315539E+02  0.00000000000E+00 0. -1.
         21   -1    0    0  503  504 -0.00000000000E+00 -0.00000000000E+00 -0.12206815001E+04  0.12206815001E+04  0.00000000000E+00 0. -1.
         25    2    1    2    0    0  0.51942870435E+02  0.19941034150E+02 -0.85512920184E+03  0.86600662904E+03  0.12500329225E+03 0.  0.
         25    2    1    2    0    0 -0.51942870435E+02 -0.19941034150E+02 -0.34711698268E+03  0.37311018655E+03  0.12500122005E+03 0.  0.
          5    1    3    3  501    0  0.32550144847E+02  0.25022682286E+02 -0.75207807086E+02  0.85813465173E+02  0.47000000000E+01 0. -1.
         -5    1    3    3    0  501  0.19392725588E+02 -0.50816481360E+01 -0.77992139475E+03  0.78019316386E+03  0.47000000000E+01 0. -1.
          5    1    4    4  502    0  0.23642808673E+02 -0.39339192117E+00 -0.84774817390E+01  0.25555720608E+02  0.47000000000E+01 0. -1.
         -5    1    4    4    0  502 -0.75585679108E+02 -0.19547642229E+02 -0.33863950094E+03  0.34755446595E+03  0.47000000000E+01 0. -1.
<mgrwt>
<rscale>  0 0.30002432E+03</rscale>
<asrwt>0</asrwt>
<pdfrwt beam="1">  1       21 0.28362021E-02 0.30002432E+03</pdfrwt>
<pdfrwt beam="2">  1       21 0.18779717E+00 0.30002432E+03</pdfrwt>
<totfact> 0.10663948E+05</totfact>
</mgrwt>
</event>
<event>
 8    1  0.9400004E-006  0.2855357E+03  0.7546771E-02  0.1092703E+00
         21   -1    0    0  504  503  0.00000000000E+00  0.00000000000E+00  0.41451247651E+02  0.41451247651E+02  0.00000000000E+00 0.  1.
         21   -1    0    0  503  504 -0.00000000000E+00 -0.00000000000E+00 -0.49172622473E+03  0.49172622473E+03  0.00000000000E+00 0.  1.
         25    2    1    2    0    0 -0.39478206616E+02 -0.33344144383E+02 -0.31042360522E+03  0.33862005094E+03  0.12502145199E+03 0.  0.
         25    2    1    2    0    0  0.39478206616E+02  0.33344144383E+02 -0.13985137185E+03  0.19455742144E+03  0.12499529297E+03 0.  0.
          5    1    3    3  501    0  0.12600216019E+02  0.76191577456E+01  0.50255972784E+01  0.16253111594E+02  0.47000000000E+01 0.  1.
         -5    1    3    3    0  501 -0.52078422635E+02 -0.40963302129E+02 -0.31544920250E+03  0.32236693935E+03  0.47000000000E+01 0.  1.
          5    1    4    4  502    0 -0.10177979326E+02  0.64477464941E+02 -0.34678684477E+02  0.74065078852E+02  0.47000000000E+01 0. -1.
         -5    1    4    4    0  502  0.49656185942E+02 -0.31133320558E+02 -0.10517268738E+03  0.12049234258E+03  0.47000000000E+01 0. -1.
<mgrwt>
<rscale>  0 0.28553575E+03</rscale>
<asrwt>0</asrwt>
<pdfrwt beam="1">  1       21 0.63771147E-02 0.28553575E+03</pdfrwt>
<pdfrwt beam="2">  1       21 0.75650192E-01 0.28553575E+03</pdfrwt>
<totfact> 0.27031019E+05</totfact>
</mgrwt>
</event>
<event>
 8    1  0.9400004E-006  0.4566177E+03  0.7546771E-02  0.1025767E+00
         21   -1    0    0  504  503  0.00000000000E+00  0.00000000000E+00  0.31490098369E+03  0.31490098369E+03  0.00000000000E+00 0. -1.
         21   -1    0    0  503  504 -0.00000000000E+00 -0.00000000000E+00 -0.16552802733E+03  0.16552802733E+03  0.00000000000E+00 0. -1.
         25    2    1    2    0    0  0.29326699066E+01  0.52169530771E-01 -0.12630231592E+03  0.17772433034E+03  0.12500023725E+03 0.  0.
         25    2    1    2    0    0 -0.29326699066E+01 -0.52169530771E-01  0.27567527228E+03  0.30270468069E+03  0.12499865874E+03 0.  0.
          5    1    3    3  501    0  0.55774203529E+02 -0.25373362060E+02 -0.40167626677E+02  0.73417283485E+02  0.47000000000E+01 0. -1.
         -5    1    3    3    0  501 -0.52841533623E+02  0.25425531590E+02 -0.86134689243E+02  0.10430704685E+03  0.47000000000E+01 0. -1.
          5    1    4    4  502    0 -0.39165148210E+02 -0.13230228704E+02  0.25563635320E+03  0.25899996692E+03  0.47000000000E+01 0. -1.
         -5    1    4    4    0  502  0.36232478303E+02  0.13178059174E+02  0.20038919079E+02  0.43704713767E+02  0.47000000000E+01 0. -1.
<mgrwt>
<rscale>  0 0.45661773E+03</rscale>
<asrwt>0</asrwt>
<pdfrwt beam="1">  1       21 0.48446305E-01 0.45661773E+03</pdfrwt>
<pdfrwt beam="2">  1       21 0.25465850E-01 0.45661773E+03</pdfrwt>
<totfact> 0.54810670E+04</totfact>
</mgrwt>
</event>
<event>
 8    1  0.9400004E-006  0.2874181E+03  0.7546771E-02  0.1091705E+00
         21   -1    0    0  504  503  0.00000000000E+00  0.00000000000E+00  0.14476996416E+03  0.14476996416E+03  0.00000000000E+00 0.  1.
         21   -1    0    0  503  504 -0.00000000000E+00 -0.00000000000E+00 -0.14265592804E+03  0.14265592804E+03  0.00000000000E+00 0.  1.
         25    2    1    2    0    0 -0.60711611835E+02 -0.27179906024E+02 -0.23466068796E+02  0.14353199757E+03  0.12500452327E+03 0.  0.
         25    2    1    2    0    0  0.60711611835E+02  0.27179906024E+02  0.25580104911E+02  0.14389389463E+03  0.12500585603E+03 0.  0.
          5    1    3    3  501    0  0.25249453515E+02  0.15549694386E+02  0.21988956699E+02  0.37214676070E+02  0.47000000000E+01 0.  1.
         -5    1    3    3    0  501 -0.85961065350E+02 -0.42729600410E+02 -0.45455025495E+02  0.10631732150E+03  0.47000000000E+01 0.  1.
          5    1    4    4  502    0  0.70707331542E+02  0.24484452696E+02  0.67240778626E+02  0.10070961954E+03  0.47000000000E+01 0. -1.
         -5    1    4    4    0  502 -0.99957197070E+01  0.26954533287E+01 -0.41660673715E+02  0.43184275095E+02  0.47000000000E+01 0. -1.
<mgrwt>
<rscale>  0 0.28741812E+03</rscale>
<asrwt>0</asrwt>
<pdfrwt beam="1">  1       21 0.22272302E-01 0.28741812E+03</pdfrwt>
<pdfrwt beam="2">  1       21 0.21947066E-01 0.28741812E+03</pdfrwt>
<totfact> 0.35829327E+05</totfact>
</mgrwt>
</event>
<event>
 8    1  0.9400004E-006  0.3115452E+03  0.7546771E-02  0.1079608E+00
         21   -1    0    0  504  503  0.00000000000E+00  0.00000000000E+00  0.16029360838E+02  0.16029360838E+02  0.00000000000E+00 0. -1.
         21   -1    0    0  503  504 -0.00000000000E+00 -0.00000000000E+00 -0.15137914999E+04  0.15137914999E+04  0.00000000000E+00 0. -1.
         25    2    1    2    0    0 -0.28953700030E+01 -0.86936526824E+02 -0.90975867950E+03  0.92241667991E+03  0.12500133436E+03 0.  0.
         25    2    1    2    0    0  0.28953700030E+01  0.86936526824E+02 -0.58800345952E+03  0.60740418079E+03  0.12500171023E+03 0.  0.
          5    1    3    3  501    0 -0.20445490051E+02 -0.57313846707E+02 -0.15107459394E+03  0.16293715974E+03  0.47000000000E+01 0.  1.
         -5    1    3    3    0  501  0.17550120048E+02 -0.29622680117E+02 -0.75868408556E+03  0.75947952018E+03  0.47000000000E+01 0.  1.
          5    1    4    4  502    0 -0.98249074623E+00 -0.27066453223E+02 -0.46677778957E+02  0.54170686044E+02  0.47000000000E+01 0.  1.
         -5    1    4    4    0  502  0.38778607492E+01  0.11400298005E+03 -0.54132568057E+03  0.55323349474E+03  0.47000000000E+01 0.  1.
<mgrwt>
<rscale>  0 0.31154525E+03</rscale>
<asrwt>0</asrwt>
<pdfrwt beam="1">  1       21 0.24660556E-02 0.31154525E+03</pdfrwt>
<pdfrwt beam="2">  1       21 0.23289099E+00 0.31154525E+03</pdfrwt>
<totfact> 0.68729247E+04</totfact>
</mgrwt>
</event>
<event>
 8    1  0.9400004E-006  0.2638078E+03  0.7546771E-02  0.1104877E+00
         21   -1    0    0  504  503  0.00000000000E+00  0.00000000000E+00  0.10792653015E+02  0.10792653015E+02  0.00000000000E+00 0. -1.
         21   -1    0    0  503  504 -0.00000000000E+00 -0.00000000000E+00 -0.16120819114E+04  0.16120819114E+04  0.00000000000E+00 0. -1.
         25    2    1    2    0    0 -0.27098647757E+02  0.25346060536E+02 -0.67805750958E+03  0.69048061826E+03  0.12499895358E+03 0.  0.
         25    2    1    2    0    0  0.27098647757E+02 -0.25346060536E+02 -0.92323174881E+03  0.93239394616E+03  0.12499939734E+03 0.  0.
          5    1    3    3  501    0 -0.48295459579E+02  0.38874082167E+02 -0.64814890114E+03  0.65112420760E+03  0.47000000000E+01 0. -1.
         -5    1    3    3    0  501  0.21196811822E+02 -0.13528021631E+02 -0.29908608440E+02  0.39356410653E+02  0.47000000000E+01 0. -1.
          5    1    4    4  502    0  0.75346482138E+02 -0.22439534256E+01 -0.59948278822E+03  0.60422167378E+03  0.47000000000E+01 0. -1.
         -5    1    4    4    0  502 -0.48247834381E+02 -0.23102107111E+02 -0.32374896059E+03  0.32817227238E+03  0.47000000000E+01 0. -1.
<mgrwt>
<rscale>  0 0.26380781E+03</rscale>
<asrwt>0</asrwt>
<pdfrwt beam="1">  1       21 0.16604069E-02 0.26380781E+03</pdfrwt>
<pdfrwt beam="2">  1       21 0.24801279E+00 0.26380781E+03</pdfrwt>
<totfact> 0.10896433E+05</totfact>
</mgrwt>
</event>
<event>
 8    1  0.9400004E-006  0.3416524E+03  0.7546771E-02  0.1066094E+00
         21   -1    0    0  504  503  0.00000000000E+00  0.00000000000E+00  0.22554822259E+03  0.22554822259E+03  0.00000000000E+00 0.  1.
         21   -1    0    0  503  504 -0.00000000000E+00 -0.00000000000E+00 -0.12938070349E+03  0.12938070349E+03  0.00000000000E+00 0.  1.
         25    2    1    2    0    0  0.55967923961E+02  0.72438477338E+02  0.12280891980E+03  0.19772034332E+03  0.12502624471E+03 0.  0.
         25    2    1    2    0    0 -0.55967923961E+02 -0.72438477338E+02 -0.26641400704E+02  0.15720858276E+03  0.12500013100E+03 0.  0.
          5    1    3    3  501    0 -0.29982784500E+02  0.45048927668E+02  0.82563248588E+02  0.98828909069E+02  0.47000000000E+01 0.  1.
         -5    1    3    3    0  501  0.85950708461E+02  0.27389549670E+02  0.40245671217E+02  0.98891434249E+02  0.47000000000E+01 0.  1.
          5    1    4    4  502    0  0.32490149879E+02 -0.36980860037E+01 -0.30575769207E+02  0.45013923867E+02  0.47000000000E+01 0. -1.
         -5    1    4    4    0  502 -0.88458073840E+02 -0.68740391334E+02  0.39343685035E+01  0.11219465889E+03  0.47000000000E+01 0. -1.
<mgrwt>
<rscale>  0 0.34165238E+03</rscale>
<asrwt>0</asrwt>
<pdfrwt beam="1">  1       21 0.34699727E-01 0.34165238E+03</pdfrwt>
<pdfrwt beam="2">  1       21 0.19904724E-01 0.34165238E+03</pdfrwt>
<totfact> 0.17932397E+05</totfact>
</mgrwt>
</event>
<event>
 8    1  0.9400004E-006  0.2647019E+03  0.7546771E-02  0.1104351E+00
         21   -1    0    0  504  503  0.00000000000E+00  0.00000000000E+00  0.96859802728E+03  0.96859802728E+03  0.00000000000E+00 0.  1.
         21   -1    0    0  503  504 -0.00000000000E+00 -0.00000000000E+00 -0.18084670582E+02  0.18084670582E+02  0.00000000000E+00 0.  1.
         25    2    1    2    0    0 -0.62678488822E+01  0.31631986862E+02  0.58410092756E+03  0.59819585013E+03  0.12499805201E+03 0.  0.
         25    2    1    2    0    0  0.62678488822E+01 -0.31631986862E+02  0.36641242913E+03  0.38848684773E+03  0.12499637641E+03 0.  0.
          5    1    3    3  501    0  0.36601654490E+02  0.57258990332E+02  0.44788949502E+03  0.45304013380E+03  0.47000000000E+01 0.  1.
         -5    1    3    3    0  501 -0.42869503373E+02 -0.25627003470E+02  0.13621143254E+03  0.14515571632E+03  0.47000000000E+01 0.  1.
          5    1    4    4  502    0  0.45165881499E+02 -0.44973756748E+02  0.31991285797E+03  0.32623445915E+03  0.47000000000E+01 0.  1.
         -5    1    4    4    0  502 -0.38898032617E+02  0.13341769886E+02  0.46499571167E+02  0.62252388580E+02  0.47000000000E+01 0.  1.
<mgrwt>
<rscale>  0 0.26470192E+03</rscale>
<asrwt>0</asrwt>
<pdfrwt beam="1">  1       21 0.14901504E+00 0.26470192E+03</pdfrwt>
<pdfrwt beam="2">  1       21 0.27822578E-02 0.26470192E+03</pdfrwt>
<totfact> 0.21228862E+05</totfact>
</mgrwt>
</event>
<event>
 8    1  0.9400004E-006  0.2984125E+03  0.7546771E-02  0.1086037E+00
         21   -1    0    0  504  503  0.00000000000E+00  0.00000000000E+00  0.14049457731E+03  0.14049457731E+03  0.00000000000E+00 0. -1.
         21   -1    0    0  503  504 -0.00000000000E+00 -0.00000000000E+00 -0.15845809703E+03  0.15845809703E+03  0.00000000000E+00 0. -1.
         25    2    1    2    0    0  0.70088507351E+02 -0.27949401337E+02  0.21811100853E+02  0.14762857510E+03  0.12499961667E+03 0.  0.
         25    2    1    2    0    0 -0.70088507351E+02  0.27949401337E+02 -0.39774620573E+02  0.15132409924E+03  0.12499357853E+03 0.  0.
          5    1    3    3  501    0 -0.20465235230E+02 -0.32256398933E+02  0.39491481245E+02  0.55144974531E+02  0.47000000000E+01 0. -1.
         -5    1    3    3    0  501  0.90553742581E+02  0.43069975956E+01 -0.17680380392E+02  0.92483600571E+02  0.47000000000E+01 0. -1.
          5    1    4    4  502    0 -0.96003991895E+02 -0.10816035952E+02 -0.13695658028E+02  0.97690399438E+02  0.47000000000E+01 0. -1.
         -5    1    4    4    0  502  0.25915484545E+02  0.38765437290E+02 -0.26078962545E+02  0.53633699806E+02  0.47000000000E+01 0. -1.
<mgrwt>
<rscale>  0 0.29841249E+03</rscale>
<asrwt>0</asrwt>
<pdfrwt beam="1">  1       21 0.21614550E-01 0.29841249E+03</pdfrwt>
<pdfrwt beam="2">  1       21 0.24378169E-01 0.29841249E+03</pdfrwt>
<totfact> 0.30962645E+05</totfact>
</mgrwt>
</event>
<event>
 8    1  0.9400004E-006  0.2539050E+03  0.7546771E-02  0.1110862E+00
         21   -1    0    0  504  503  0.00000000000E+00  0.00000000000E+00  0.12108287896E+02  0.12108287896E+02  0.00000000000E+00 0. -1.
         21   -1    0    0  503  504 -0.00000000000E+00 -0.00000000000E+00 -0.13310663499E+04  0.13310663499E+04  0.00000000000E+00 0. -1.
         25    2    1    2    0    0  0.20616370029E+02  0.42332156071E+01 -0.69634480371E+03  0.70778927695E+03  0.12500648019E+03 0.  0.
         25    2    1    2    0    0 -0.20616370029E+02 -0.42332156071E+01 -0.62261325828E+03  0.63538536083E+03  0.12499733014E+03 0.  0.
          5    1    3    3  501    0  0.25377926145E+02 -0.57103737552E+02 -0.28224279448E+03  0.28911582630E+03  0.47000000000E+01 0. -1.
         -5    1    3    3    0  501 -0.47615561168E+01  0.61336953159E+02 -0.41410200922E+03  0.41867345065E+03  0.47000000000E+01 0. -1.
          5    1    4    4  502    0  0.16914273574E+02  0.49080279327E+02 -0.16259539538E+03  0.17074635887E+03  0.47000000000E+01 0.  1.
         -5    1    4    4    0  502 -0.37530643603E+02 -0.53313494934E+02 -0.46001786290E+03  0.46463900196E+03  0.47000000000E+01 0.  1.
<mgrwt>
<rscale>  0 0.25390498E+03</rscale>
<asrwt>0</asrwt>
<pdfrwt beam="1">  1       21 0.18628131E-02 0.25390498E+03</pdfrwt>
<pdfrwt beam="2">  1       21 0.20477948E+00 0.25390498E+03</pdfrwt>
<totfact> 0.16787360E+05</totfact>
</mgrwt>
</event>
<event>
 8    1  0.9400004E-006  0.2846631E+03  0.7546771E-02  0.1093169E+00
         21   -1    0    0  504  503  0.00000000000E+00  0.00000000000E+00  0.22881945605E+03  0.22881945605E+03  0.00000000000E+00 0.  1.
         21   -1    0    0  503  504 -0.00000000000E+00 -0.00000000000E+00 -0.88533851793E+02  0.88533851793E+02  0.00000000000E+00 0.  1.
         25    2    1    2    0    0 -0.39433543559E+02 -0.54278747800E+02  0.57468501700E+02  0.15308083691E+03  0.12501970694E+03 0.  0.
         25    2    1    2    0    0  0.39433543559E+02  0.54278747800E+02  0.82817102556E+02  0.16427247093E+03  0.12500234161E+03 0.  0.
          5    1    3    3  501    0 -0.57653326276E+02 -0.52163458728E+02 -0.14006416806E+02  0.79140395304E+02  0.47000000000E+01 0.  1.
         -5    1    3    3    0  501  0.18219782717E+02 -0.21152890713E+01  0.71474918506E+02  0.73940441611E+02  0.47000000000E+01 0.  1.
          5    1    4    4  502    0  0.78775208487E+02  0.69410341668E+01  0.37223059377E+02  0.87529181287E+02  0.47000000000E+01 0.  1.
         -5    1    4    4    0  502 -0.39341664927E+02  0.47337713633E+02  0.45594043178E+02  0.76743289639E+02  0.47000000000E+01 0.  1.
<mgrwt>
<rscale>  0 0.28466308E+03</rscale>
<asrwt>0</asrwt>
<pdfrwt beam="1">  1       21 0.35202993E-01 0.28466308E+03</pdfrwt>
<pdfrwt beam="2">  1       21 0.13620593E-01 0.28466308E+03</pdfrwt>
<totfact> 0.35625218E+05</totfact>
</mgrwt>
</event>
<event>
 8    1  0.9400004E-006  0.4005786E+03  0.7546771E-02  0.1043580E+00
         21   -1    0    0  504  503  0.00000000000E+00  0.00000000000E+00  0.23067993639E+03  0.23067993639E+03  0.00000000000E+00 0. -1.
         21   -1    0    0  503  504 -0.00000000000E+00 -0.00000000000E+00 -0.17390242486E+03  0.17390242486E+03  0.00000000000E+00 0. -1.
         25    2    1    2    0    0 -0.11253165990E+03 -0.34332526948E+02  0.13261318948E+03  0.21691880596E+03  0.12500165386E+03 0.  0.
         25    2    1    2    0    0  0.11253165990E+03  0.34332526948E+02 -0.75835677947E+02  0.18766355529E+03  0.12499785217E+03 0.  0.
          5    1    3    3  501    0 -0.56043770183E+02 -0.76954712776E+02  0.10221058248E+03  0.13975702189E+03  0.47000000000E+01 0. -1.
         -5    1    3    3    0  501 -0.56487889717E+02  0.42622185828E+02  0.30402607000E+02  0.77161784076E+02  0.47000000000E+01 0. -1.
          5    1    4    4  502    0  0.30822490051E+01  0.34824274352E+02  0.21336727456E+02  0.41225917596E+02  0.47000000000E+01 0. -1.
         -5    1    4    4    0  502  0.10944941090E+03 -0.49174740411E+00 -0.97172405403E+02  0.14643763769E+03  0.47000000000E+01 0. -1.
<mgrwt>
<rscale>  0 0.40057858E+03</rscale>
<asrwt>0</asrwt>
<pdfrwt beam="1">  1       21 0.35489221E-01 0.40057858E+03</pdfrwt>
<pdfrwt beam="2">  1       21 0.26754219E-01 0.40057858E+03</pdfrwt>
<totfact> 0.95878926E+04</totfact>
</mgrwt>
</event>
<event>
 8    1  0.9400004E-006  0.2528249E+03  0.7546771E-02  0.1111532E+00
         21   -1    0    0  504  503  0.00000000000E+00  0.00000000000E+00  0.66659137108E+02  0.66659137108E+02  0.00000000000E+00 0.  1.
         21   -1    0    0  503  504 -0.00000000000E+00 -0.00000000000E+00 -0.23972870066E+03  0.23972870066E+03  0.00000000000E+00 0.  1.
         25    2    1    2    0    0  0.16949290121E+02 -0.59645741855E+01 -0.80762422948E+02  0.14990805260E+03  0.12500800251E+03 0.  0.
         25    2    1    2    0    0 -0.16949290121E+02  0.59645741855E+01 -0.92307140602E+02  0.15647978517E+03  0.12506982202E+03 0.  0.
          5    1    3    3  501    0  0.30647087632E+02  0.33035794219E+02  0.13164214956E+02  0.47180443357E+02  0.47000000000E+01 0.  1.
         -5    1    3    3    0  501 -0.13697797511E+02 -0.39000368404E+02 -0.93926637904E+02  0.10272760924E+03  0.47000000000E+01 0.  1.
          5    1    4    4  502    0 -0.50690614967E+02 -0.25210602064E+02 -0.94487125454E+02  0.11024980625E+03  0.47000000000E+01 0.  1.
         -5    1    4    4    0  502  0.33741324847E+02  0.31175176249E+02  0.21799848516E+01  0.46229978916E+02  0.47000000000E+01 0.  1.
<mgrwt>
<rscale>  0 0.25282491E+03</rscale>
<asrwt>0</asrwt>
<pdfrwt beam="1">  1       21 0.10255252E-01 0.25282491E+03</pdfrwt>
<pdfrwt beam="2">  1       21 0.36881339E-01 0.25282491E+03</pdfrwt>
<totfact> 0.54402748E+05</totfact>
</mgrwt>
</event>
<event>
 8    1  0.9400004E-006  0.3054834E+03  0.7546771E-02  0.1082531E+00
         21   -1    0    0  504  503  0.00000000000E+00  0.00000000000E+00  0.59757439026E+03  0.59757439026E+03  0.00000000000E+00 0. -1.
         21   -1    0    0  503  504 -0.00000000000E+00 -0.00000000000E+00 -0.39041214118E+02  0.39041214118E+02  0.00000000000E+00 0. -1.
         25    2    1    2    0    0  0.44365691068E+01 -0.87111732268E+02  0.25867155539E+03  0.30023874708E+03  0.12499677850E+03 0.  0.
         25    2    1    2    0    0 -0.44365691068E+01  0.87111732268E+02  0.29986162075E+03  0.33637685729E+03  0.12499704590E+03 0.  0.
          5    1    3    3  501    0  0.88585023660E+01 -0.11842045874E+03  0.18439305038E+03  0.21937357439E+03  0.47000000000E+01 0. -1.
         -5    1    3    3    0  501 -0.44219332592E+01  0.31308726475E+02  0.74278505015E+02  0.80865172692E+02  0.47000000000E+01 0. -1.
          5    1    4    4  502    0 -0.13427747592E+02  0.84651335500E+02  0.83461122052E+02  0.11972469211E+03  0.47000000000E+01 0.  1.
         -5    1    4    4    0  502  0.89911784855E+01  0.24603967677E+01  0.21640049869E+03  0.21665216518E+03  0.47000000000E+01 0.  1.
<mgrwt>
<rscale>  0 0.30548342E+03</rscale>
<asrwt>0</asrwt>
<pdfrwt beam="1">  1       21 0.91934515E-01 0.30548342E+03</pdfrwt>
<pdfrwt beam="2">  1       21 0.60063411E-02 0.30548342E+03</pdfrwt>
<totfact> 0.19038085E+05</totfact>
</mgrwt>
</event>
<event>
 8    1  0.9400004E-006  0.2702469E+03  0.7546771E-02  0.1101138E+00
         21   -1    0    0  504  503  0.00000000000E+00  0.00000000000E+00  0.30218273947E+02  0.30218273947E+02  0.00000000000E+00 0.  1.
         21   -1    0    0  503  504 -0.00000000000E+00 -0.00000000000E+00 -0.60421523176E+03  0.60421523176E+03  0.00000000000E+00 0.  1.
         25    2    1    2    0    0  0.28147529658E+02  0.26963188442E+02 -0.20851433162E+03  0.24621575213E+03  0.12499869260E+03 0.  0.
         25    2    1    2    0    0 -0.28147529658E+02 -0.26963188442E+02 -0.36548262619E+03  0.38821775357E+03  0.12496470375E+03 0.  0.
          5    1    3    3  501    0 -0.46976917238E+02  0.26940401865E+02 -0.70645810674E+02  0.89137739323E+02  0.47000000000E+01 0.  1.
         -5    1    3    3    0  501  0.75124446895E+02  0.22786576955E-01 -0.13786852095E+03  0.15707801281E+03  0.47000000000E+01 0.  1.
          5    1    4    4  502    0 -0.31110081705E+01 -0.71930340270E+02 -0.27192994632E+03  0.28133900890E+03  0.47000000000E+01 0. -1.
         -5    1    4    4    0  502 -0.25036521487E+02  0.44967151827E+02 -0.93552679875E+02  0.10687874468E+03  0.47000000000E+01 0. -1.
<mgrwt>
<rscale>  0 0.27024686E+03</rscale>
<asrwt>0</asrwt>
<pdfrwt beam="1">  1       21 0.46489656E-02 0.27024686E+03</pdfrwt>
<pdfrwt beam="2">  1       21 0.92956182E-01 0.27024686E+03</pdfrwt>
<totfact> 0.29027590E+05</totfact>
</mgrwt>
</event>
<event>
 8    1  0.9400004E-006  0.2682402E+03  0.7546771E-02  0.1102291E+00
         21   -1    0    0  504  503  0.00000000000E+00  0.00000000000E+00  0.39262697068E+02  0.39262697068E+02  0.00000000000E+00 0.  1.
         21   -1    0    0  503  504 -0.00000000000E+00 -0.00000000000E+00 -0.45814979778E+03  0.45814979778E+03  0.00000000000E+00 0.  1.
         25    2    1    2    0    0  0.15015599295E+02 -0.25229965845E+02 -0.28127983671E+03  0.30920280128E+03  0.12500402545E+03 0.  0.
         25    2    1    2    0    0 -0.15015599295E+02  0.25229965845E+02 -0.13760726400E+03  0.18820969357E+03  0.12500044100E+03 0.  0.
          5    1    3    3  501    0 -0.52675793577E+01  0.27096572804E+02 -0.23400418821E+03  0.23567354911E+03  0.47000000000E+01 0.  1.
         -5    1    3    3    0  501  0.20283178653E+02 -0.52326538649E+02 -0.47275648505E+02  0.73529252171E+02  0.47000000000E+01 0.  1.
          5    1    4    4  502    0 -0.31705463218E+02  0.71841784469E+01  0.13155698197E+02  0.35383770473E+02  0.47000000000E+01 0. -1.
         -5    1    4    4    0  502  0.16689863923E+02  0.18045787398E+02 -0.15076296220E+03  0.15282592310E+03  0.47000000000E+01 0. -1.
<mgrwt>
<rscale>  0 0.26824017E+03</rscale>
<asrwt>0</asrwt>
<pdfrwt beam="1">  1       21 0.60404147E-02 0.26824017E+03</pdfrwt>
<pdfrwt beam="2">  1       21 0.70484587E-01 0.26824017E+03</pdfrwt>
<totfact> 0.34924445E+05</totfact>
</mgrwt>
</event>
<event>
 8    1  0.9400004E-006  0.2895900E+03  0.7546771E-02  0.1090563E+00
         21   -1    0    0  504  503  0.00000000000E+00  0.00000000000E+00  0.99469906210E+01  0.99469906210E+01  0.00000000000E+00 0. -1.
         21   -1    0    0  503  504 -0.00000000000E+00 -0.00000000000E+00 -0.21077324904E+04  0.21077324904E+04  0.00000000000E+00 0. -1.
         25    2    1    2    0    0  0.66197893000E+02 -0.23012587394E+02 -0.12004393301E+04  0.12089639501E+04  0.12501002822E+03 0.  0.
         25    2    1    2    0    0 -0.66197893000E+02  0.23012587394E+02 -0.89734616964E+03  0.90871553089E+03  0.12498811022E+03 0.  0.
          5    1    3    3  501    0  0.10204512252E+03 -0.87709919673E+01 -0.77475990505E+03  0.78151464337E+03  0.47000000000E+01 0. -1.
         -5    1    3    3    0  501 -0.35847229525E+02 -0.14241595427E+02 -0.42567942506E+03  0.42744930673E+03  0.47000000000E+01 0. -1.
          5    1    4    4  502    0 -0.24871796650E+02  0.30841646775E+01 -0.26961184128E+02  0.37109483828E+02  0.47000000000E+01 0. -1.
         -5    1    4    4    0  502 -0.41326096349E+02  0.19928422716E+02 -0.87038498551E+03  0.87160604706E+03  0.47000000000E+01 0. -1.
<mgrwt>
<rscale>  0 0.28959002E+03</rscale>
<asrwt>0</asrwt>
<pdfrwt beam="1">  1       21 0.15303064E-02 0.28959002E+03</pdfrwt>
<pdfrwt beam="2">  1       21 0.32426651E+00 0.28959002E+03</pdfrwt>
<totfact> 0.43469775E+04</totfact>
</mgrwt>
</event>
<event>
 8    1  0.9400004E-006  0.2757521E+03  0.7546771E-02  0.1098032E+00
         21   -1    0    0  504  503  0.00000000000E+00  0.00000000000E+00  0.19494721162E+02  0.19494721162E+02  0.00000000000E+00 0. -1.
         21   -1    0    0  503  504 -0.00000000000E+00 -0.00000000000E+00 -0.97512568163E+03  0.97512568163E+03  0.00000000000E+00 0. -1.
         25    2    1    2    0    0  0.51173113684E+02 -0.12693506774E+02 -0.56663098193E+03  0.58264392452E+03  0.12499384152E+03 0.  0.
         25    2    1    2    0    0 -0.51173113684E+02  0.12693506774E+02 -0.38899997854E+03  0.41197647827E+03  0.12499529059E+03 0.  0.
          5    1    3    3  501    0  0.17817185709E+02  0.41330416820E+02 -0.80378398454E+02  0.92241164341E+02  0.47000000000E+01 0.  1.
         -5    1    3    3    0  501  0.33355927975E+02 -0.54023923594E+02 -0.48625258348E+03  0.49040276018E+03  0.47000000000E+01 0.  1.
          5    1    4    4  502    0 -0.42841078714E+02 -0.25824526355E+02 -0.35828639216E+03  0.36179205767E+03  0.47000000000E+01 0.  1.
         -5    1    4    4    0  502 -0.83320349702E+01  0.38518033130E+02 -0.30713586378E+02  0.50184420601E+02  0.47000000000E+01 0.  1.
<mgrwt>
<rscale>  0 0.27575209E+03</rscale>
<asrwt>0</asrwt>
<pdfrwt beam="1">  1       21 0.29991888E-02 0.27575209E+03</pdfrwt>
<pdfrwt beam="2">  1       21 0.15001929E+00 0.27575209E+03</pdfrwt>
<totfact> 0.18338341E+05</totfact>
</mgrwt>
</event>
<event>
 8    1  0.9400004E-006  0.3429217E+03  0.7546771E-02  0.1065558E+00
         21   -1    0    0  504  503  0.00000000000E+00  0.00000000000E+00  0.43987597221E+02  0.43987597221E+02  0.00000000000E+00 0. -1.
         21   -1    0    0  503  504 -0.00000000000E+00 -0.00000000000E+00 -0.66834347008E+03  0.66834347008E+03  0.00000000000E+00 0. -1.
         25    2    1    2    0    0 -0.55692334323E+02 -0.96677929925E+02 -0.23653435993E+03  0.28986724261E+03  0.12500502660E+03 0.  0.
         25    2    1    2    0    0  0.55692334323E+02  0.96677929925E+02 -0.38782151293E+03  0.42246382469E+03  0.12498759555E+03 0.  0.
          5    1    3    3  501    0  0.56604204517E+01 -0.58900176758E+02 -0.20063465531E+03  0.20923103521E+03  0.47000000000E+01 0.  1.
         -5    1    3    3    0  501 -0.61352754775E+02 -0.37777753168E+02 -0.35899704613E+02  0.80636207402E+02  0.47000000000E+01 0.  1.
          5    1    4    4  502    0  0.32774368093E+02  0.40708769781E+02 -0.31898201627E+02  0.61408048398E+02  0.47000000000E+01 0. -1.
         -5    1    4    4    0  502  0.22917966230E+02  0.55969160145E+02 -0.35592331130E+03  0.36105577629E+03  0.47000000000E+01 0. -1.
<mgrwt>
<rscale>  0 0.34292170E+03</rscale>
<asrwt>0</asrwt>
<pdfrwt beam="1">  1       21 0.67673228E-02 0.34292170E+03</pdfrwt>
<pdfrwt beam="2">  1       21 0.10282207E+00 0.34292170E+03</pdfrwt>
<totfact> 0.11731733E+05</totfact>
</mgrwt>
</event>
<event>
 8    1  0.9400004E-006  0.4251734E+03  0.7546771E-02  0.1035396E+00
         21   -1    0    0  504  503  0.00000000000E+00  0.00000000000E+00  0.17193640426E+04  0.17193640426E+04  0.00000000000E+00 0. -1.
         21   -1    0    0  503  504 -0.00000000000E+00 -0.00000000000E+00 -0.26284775603E+02  0.26284775603E+02  0.00000000000E+00 0. -1.
         25    2    1    2    0    0  0.89671615356E+02 -0.71074274782E+02  0.13735745001E+04  0.13839881746E+04  0.12499523624E+03 0.  0.
         25    2    1    2    0    0 -0.89671615356E+02  0.71074274782E+02  0.31950476690E+03  0.36166064356E+03  0.12499029521E+03 0.  0.
          5    1    3    3  501    0  0.44074559468E+02 -0.98906641882E+02  0.10909698424E+04  0.10963404479E+04  0.47000000000E+01 0.  1.
         -5    1    3    3    0  501  0.45597055888E+02  0.27832367101E+02  0.28260465762E+03  0.28764772669E+03  0.47000000000E+01 0.  1.
          5    1    4    4  502    0  0.76481452322E+01  0.10948064549E+02 -0.69061671434E+01  0.15752440683E+02  0.47000000000E+01 0. -1.
         -5    1    4    4    0  502 -0.97319760588E+02  0.60126210233E+02  0.32641093404E+03  0.34590820288E+03  0.47000000000E+01 0. -1.
<mgrwt>
<rscale>  0 0.42517337E+03</rscale>
<asrwt>0</asrwt>
<pdfrwt beam="1">  1       21 0.26451746E+00 0.42517337E+03</pdfrwt>
<pdfrwt beam="2">  1       21 0.40438130E-02 0.42517337E+03</pdfrwt>
<totfact> 0.18297329E+04</totfact>
</mgrwt>
</event>
<event>
 8    1  0.9400004E-006  0.4805172E+03  0.7546771E-02  0.1018993E+00
         21   -1    0    0  504  503  0.00000000000E+00  0.00000000000E+00  0.15229011780E+04  0.15229011780E+04  0.00000000000E+00 0.  1.
         21   -1    0    0  503  504 -0.00000000000E+00 -0.00000000000E+00 -0.37904093390E+02  0.37904093390E+02  0.00000000000E+00 0.  1.
         25    2    1    2    0    0 -0.13257931920E+03  0.15488887671E+03  0.66762907513E+03  0.70916931247E+03  0.12499876712E+03 0.  0.
         25    2    1    2    0    0  0.13257931920E+03 -0.15488887671E+03  0.81736800951E+03  0.85163595895E+03  0.12500201439E+03 0.  0.
          5    1    3    3  501    0 -0.54033154719E+02  0.14651500104E+03  0.49922692043E+03  0.52310212714E+03  0.47000000000E+01 0. -1.
         -5    1    3    3    0  501 -0.78546164480E+02  0.83738756700E+01  0.16840215471E+03  0.18606718533E+03  0.47000000000E+01 0. -1.
          5    1    4    4  502    0  0.11305820133E+03 -0.13294759035E+03  0.79623633555E+03  0.81515128087E+03  0.47000000000E+01 0. -1.
         -5    1    4    4    0  502  0.19521117864E+02 -0.21941286361E+02  0.21131673964E+02  0.36484678077E+02  0.47000000000E+01 0. -1.
<mgrwt>
<rscale>  0 0.48051717E+03</rscale>
<asrwt>0</asrwt>
<pdfrwt beam="1">  1       21 0.23429244E+00 0.48051717E+03</pdfrwt>
<pdfrwt beam="2">  1       21 0.58314002E-02 0.48051717E+03</pdfrwt>
<totfact> 0.14636857E+04</totfact>
</mgrwt>
</event>
<event>
 8    1  0.9400004E-006  0.3654228E+03  0.7546771E-02  0.1056457E+00
         21   -1    0    0  504  503  0.00000000000E+00  0.00000000000E+00  0.62637406037E+03  0.62637406037E+03  0.00000000000E+00 0.  1.
         21   -1    0    0  503  504 -0.00000000000E+00 -0.00000000000E+00 -0.53296354517E+02  0.53296354517E+02  0.00000000000E+00 0.  1.
         25    2    1    2    0    0 -0.50302878860E+02 -0.12285204423E+03  0.26495407518E+03  0.32163534220E+03  0.12500250800E+03 0.  0.
         25    2    1    2    0    0  0.50302878860E+02  0.12285204423E+03  0.30812363068E+03  0.35803507269E+03  0.12500374834E+03 0.  0.
          5    1    3    3  501    0 -0.15717052135E+02  0.79921788444E+01  0.12706636020E+03  0.12836997524E+03  0.47000000000E+01 0. -1.
         -5    1    3    3    0  501 -0.34585826725E+02 -0.13084422307E+03  0.13788771498E+03  0.19326536695E+03  0.47000000000E+01 0. -1.
          5    1    4    4  502    0 -0.28350556254E+02  0.45434368668E+02  0.18485842092E+03  0.19251691271E+03  0.47000000000E+01 0.  1.
         -5    1    4    4    0  502  0.78653435114E+02  0.77417675561E+02  0.12326520976E+03  0.16551815997E+03  0.47000000000E+01 0.  1.
<mgrwt>
<rscale>  0 0.36542279E+03</rscale>
<asrwt>0</asrwt>
<pdfrwt beam="1">  1       21 0.96365235E-01 0.36542279E+03</pdfrwt>
<pdfrwt beam="2">  1       21 0.81994396E-02 0.36542279E+03</pdfrwt>
<totfact> 0.97378015E+04</totfact>
</mgrwt>
</event>
<event>
 8    1  0.9400004E-006  0.2982613E+03  0.7546771E-02  0.1086113E+00
         21   -1    0    0  504  503  0.00000000000E+00  0.00000000000E+00  0.11348144110E+02  0.11348144110E+02  0.00000000000E+00 0.  1.
         21   -1    0    0  503  504 -0.00000000000E+00 -0.00000000000E+00 -0.19597869095E+04  0.19597869095E+04  0.00000000000E+00 0.  1.
         25    2    1    2    0    0 -0.13744270288E+02  0.48742507582E+02 -0.55375784554E+03  0.56994641394E+03  0.12500570490E+03 0.  0.
         25    2    1    2    0    0  0.13744270288E+02 -0.48742507582E+02 -0.13946809198E+04  0.14011886397E+04  0.12501999333E+03 0.  0.
          5    1    3    3  501    0 -0.88235254168E+01  0.23462494487E+02 -0.13129913557E+02  0.28684976527E+02  0.47000000000E+01 0.  1.
         -5    1    3    3    0  501 -0.49207448712E+01  0.25280013095E+02 -0.54062793198E+03  0.54126143741E+03  0.47000000000E+01 0.  1.
          5    1    4    4  502    0  0.72873275794E+01  0.42170473819E+02 -0.50935312593E+03  0.51116939551E+03  0.47000000000E+01 0.  1.
         -5    1    4    4    0  502  0.64569427086E+01 -0.90912981401E+02 -0.88532779391E+03  0.89001924416E+03  0.47000000000E+01 0.  1.
<mgrwt>
<rscale>  0 0.29826126E+03</rscale>
<asrwt>0</asrwt>
<pdfrwt beam="1">  1       21 0.17458691E-02 0.29826126E+03</pdfrwt>
<pdfrwt beam="2">  1       21 0.30150555E+00 0.29826126E+03</pdfrwt>
<totfact> 0.47539955E+04</totfact>
</mgrwt>
</event>
<event>
 8    1  0.9400004E-006  0.3417238E+03  0.7546771E-02  0.1066064E+00
         21   -1    0    0  504  503  0.00000000000E+00  0.00000000000E+00  0.99680286587E+02  0.99680286587E+02  0.00000000000E+00 0.  1.
         21   -1    0    0  503  504 -0.00000000000E+00 -0.00000000000E+00 -0.29287419397E+03  0.29287419397E+03  0.00000000000E+00 0.  1.
         25    2    1    2    0    0  0.33838837312E+02 -0.68591180139E+02  0.43315545215E+01  0.14660676629E+03  0.12499985861E+03 0.  0.
         25    2    1    2    0    0 -0.33838837312E+02  0.68591180139E+02 -0.19752546191E+03  0.24594771427E+03  0.12499661256E+03 0.  0.
          5    1    3    3  501    0  0.40793564976E+02 -0.38925765084E+01 -0.47770714100E+02  0.63114168147E+02  0.47000000000E+01 0. -1.
         -5    1    3    3    0  501 -0.69547276643E+01 -0.64698603631E+02  0.52102268621E+02  0.83492598140E+02  0.47000000000E+01 0. -1.
          5    1    4    4  502    0 -0.56477557327E+02 -0.15819956218E+02 -0.85433038697E+02  0.10373465958E+03  0.47000000000E+01 0. -1.
         -5    1    4    4    0  502  0.22638720015E+02  0.84411136358E+02 -0.11209242321E+03  0.14221305470E+03  0.47000000000E+01 0. -1.
<mgrwt>
<rscale>  0 0.34172377E+03</rscale>
<asrwt>0</asrwt>
<pdfrwt beam="1">  1       21 0.15335429E-01 0.34172377E+03</pdfrwt>
<pdfrwt beam="2">  1       21 0.45057568E-01 0.34172377E+03</pdfrwt>
<totfact> 0.17112507E+05</totfact>
</mgrwt>
</event>
<event>
 8    1  0.9400004E-006  0.2592623E+03  0.7546771E-02  0.1107587E+00
         21   -1    0    0  504  503  0.00000000000E+00  0.00000000000E+00  0.53968191206E+02  0.53968191206E+02  0.00000000000E+00 0.  1.
         21   -1    0    0  503  504 -0.00000000000E+00 -0.00000000000E+00 -0.31137300128E+03  0.31137300128E+03  0.00000000000E+00 0.  1.
         25    2    1    2    0    0  0.26173769192E+02 -0.24449654746E+01 -0.97405377572E+02  0.16060682229E+03  0.12496279341E+03 0.  0.
         25    2    1    2    0    0 -0.26173769192E+02  0.24449654746E+01 -0.15999943250E+03  0.20473437019E+03  0.12500119954E+03 0.  0.
          5    1    3    3  501    0 -0.24069678709E+02  0.31471151688E+01  0.20574547137E+02  0.32166065300E+02  0.47000000000E+01 0. -1.
         -5    1    3    3    0  501  0.50243447901E+02 -0.55920806434E+01 -0.11797992471E+03  0.12844075699E+03  0.47000000000E+01 0. -1.
          5    1    4    4  502    0  0.37020927608E+02 -0.30913064981E+02 -0.32022988406E+02  0.58083805436E+02  0.47000000000E+01 0.  1.
         -5    1    4    4    0  502 -0.63194696800E+02  0.33358030455E+02 -0.12797644409E+03  0.14665056475E+03  0.47000000000E+01 0.  1.
<mgrwt>
<rscale>  0 0.25926232E+03</rscale>
<asrwt>0</asrwt>
<pdfrwt beam="1">  1       21 0.83027988E-02 0.25926232E+03</pdfrwt>
<pdfrwt beam="2">  1       21 0.47903538E-01 0.25926232E+03</pdfrwt>
<totfact> 0.46204911E+05</totfact>
</mgrwt>
</event>
<event>
 8    1  0.9400004E-006  0.2546047E+03  0.7546771E-02  0.1110429E+00
         21   -1    0    0  504  503  0.00000000000E+00  0.00000000000E+00  0.12827555926E+03  0.12827555926E+03  0.00000000000E+00 0.  1.
         21   -1    0    0  503  504 -0.00000000000E+00 -0.00000000000E+00 -0.12633648262E+03  0.12633648262E+03  0.00000000000E+00 0.  1.
         25    2    1    2    0    0  0.83856165915E+01  0.15421402411E+02  0.17535753582E+02  0.12742630494E+03  0.12498728863E+03 0.  0.
         25    2    1    2    0    0 -0.83856165915E+01 -0.15421402411E+02 -0.15596676942E+02  0.12718573695E+03  0.12499926853E+03 0.  0.
          5    1    3    3  501    0  0.49717150757E+02  0.50374211941E+02  0.17639651878E+02  0.73093116136E+02  0.47000000000E+01 0.  1.
         -5    1    3    3    0  501 -0.41331534165E+02 -0.34952809530E+02 -0.10389829533E+00  0.54333188802E+02  0.47000000000E+01 0.  1.
          5    1    4    4  502    0  0.38232400134E+02  0.19727422098E+02 -0.44323283148E+02  0.61947808933E+02  0.47000000000E+01 0. -1.
         -5    1    4    4    0  502 -0.46618016725E+02 -0.35148824508E+02  0.28726606206E+02  0.65237928016E+02  0.47000000000E+01 0. -1.
<mgrwt>
<rscale>  0 0.25460466E+03</rscale>
<asrwt>0</asrwt>
<pdfrwt beam="1">  1       21 0.19734701E-01 0.25460466E+03</pdfrwt>
<pdfrwt beam="2">  1       21 0.19436382E-01 0.25460466E+03</pdfrwt>
<totfact> 0.56980675E+05</totfact>
</mgrwt>
</event>
<event>
 8    1  0.9400004E-006  0.3221492E+03  0.7546771E-02  0.1074664E+00
         21   -1    0    0  504  503  0.00000000000E+00  0.00000000000E+00  0.40316391948E+02  0.40316391948E+02  0.00000000000E+00 0. -1.
         21   -1    0    0  503  504 -0.00000000000E+00 -0.00000000000E+00 -0.64353559407E+03  0.64353559407E+03  0.00000000000E+00 0. -1.
         25    2    1    2    0    0 -0.34661300130E+02  0.93865799264E+02 -0.33883101128E+03  0.37475907533E+03  0.12500286532E+03 0.  0.
         25    2    1    2    0    0  0.34661300130E+02 -0.93865799264E+02 -0.26438819085E+03  0.30909291070E+03  0.12500047194E+03 0.  0.
          5    1    3    3  501    0 -0.53562327392E+02  0.86572249322E+02 -0.33897302033E+03  0.35396112185E+03  0.47000000000E+01 0.  1.
         -5    1    3    3    0  501  0.18901027262E+02  0.72935499419E+01  0.14200905133E+00  0.20797953479E+02  0.47000000000E+01 0.  1.
          5    1    4    4  502    0 -0.14028520464E+02 -0.27295345628E+02  0.10822363608E+01  0.31066002558E+02  0.47000000000E+01 0.  1.
         -5    1    4    4    0  502  0.48689820594E+02 -0.66570453636E+02 -0.26547042721E+03  0.27802690814E+03  0.47000000000E+01 0.  1.
<mgrwt>
<rscale>  0 0.32214924E+03</rscale>
<asrwt>0</asrwt>
<pdfrwt beam="1">  1       21 0.62025218E-02 0.32214924E+03</pdfrwt>
<pdfrwt beam="2">  1       21 0.99005476E-01 0.32214924E+03</pdfrwt>
<totfact> 0.15038540E+05</totfact>
</mgrwt>
</event>
<event>
 8    1  0.9400004E-006  0.2773751E+03  0.7546771E-02  0.1097131E+00
         21   -1    0    0  504  503  0.00000000000E+00  0.00000000000E+00  0.56208922425E+03  0.56208922425E+03  0.00000000000E+00 0. -1.
         21   -1    0    0  503  504 -0.00000000000E+00 -0.00000000000E+00 -0.34219190882E+02  0.34219190882E+02  0.00000000000E+00 0. -1.
         25    2    1    2    0    0 -0.48446201346E+02  0.16878341685E+02  0.19669824014E+03  0.23863525251E+03  0.12499869289E+03 0.  0.
         25    2    1    2    0    0  0.48446201346E+02 -0.16878341685E+02  0.33117179322E+03  0.35767316262E+03  0.12499368698E+03 0.  0.
          5    1    3    3  501    0 -0.70130211376E+01  0.64952143514E+01 -0.17326665397E+02  0.20338967740E+02  0.47000000000E+01 0. -1.
         -5    1    3    3    0  501 -0.41433180209E+02  0.10383127333E+02  0.21402490554E+03  0.21829628477E+03  0.47000000000E+01 0. -1.
          5    1    4    4  502    0 -0.16216861408E+02  0.12343723242E+02  0.21176831741E+01  0.21022099786E+02  0.47000000000E+01 0.  1.
         -5    1    4    4    0  502  0.64663062754E+02 -0.29222064926E+02  0.32905411005E+03  0.33665106283E+03  0.47000000000E+01 0.  1.
<mgrwt>
<rscale>  0 0.27737511E+03</rscale>
<asrwt>0</asrwt>
<pdfrwt beam="1">  1       21 0.86475259E-01 0.27737511E+03</pdfrwt>
<pdfrwt beam="2">  1       21 0.52644913E-02 0.27737511E+03</pdfrwt>
<totfact> 0.27745213E+05</totfact>
</mgrwt>
</event>
<event>
 8    1  0.9400004E-006  0.2579900E+03  0.7546771E-02  0.1108357E+00
         21   -1    0    0  504  503  0.00000000000E+00  0.00000000000E+00  0.28115466384E+04  0.28115466384E+04  0.00000000000E+00 0. -1.
         21   -1    0    0  503  504 -0.00000000000E+00 -0.00000000000E+00 -0.59183469348E+01  0.59183469348E+01  0.00000000000E+00 0. -1.
         25    2    1    2    0    0 -0.30146489888E+02 -0.84677466977E+01  0.13387540671E+04  0.13449417303E+04  0.12500116893E+03 0.  0.
         25    2    1    2    0    0  0.30146489888E+02  0.84677466977E+01  0.14668742244E+04  0.14725232550E+04  0.12499693124E+03 0.  0.
          5    1    3    3  501    0 -0.63867547732E+02  0.84761336645E+01  0.38135101823E+03  0.38678365736E+03  0.47000000000E+01 0.  1.
         -5    1    3    3    0  501  0.33721057845E+02 -0.16943880362E+02  0.95740304888E+03  0.95815807298E+03  0.47000000000E+01 0.  1.
          5    1    4    4  502    0  0.33349401490E+01  0.39059129211E+02  0.13034210008E+04  0.13040188391E+04  0.47000000000E+01 0.  1.
         -5    1    4    4    0  502  0.26811549739E+02 -0.30591382514E+02  0.16345322354E+03  0.16850441587E+03  0.47000000000E+01 0.  1.
<mgrwt>
<rscale>  0 0.25798999E+03</rscale>
<asrwt>0</asrwt>
<pdfrwt beam="1">  1       21 0.43254457E+00 0.25798999E+03</pdfrwt>
<pdfrwt beam="2">  1       21 0.91051716E-03 0.25798999E+03</pdfrwt>
<totfact> 0.21984863E+04</totfact>
</mgrwt>
</event>
<event>
 8    1  0.9400004E-006  0.3716555E+03  0.7546771E-02  0.1054062E+00
         21   -1    0    0  504  503  0.00000000000E+00  0.00000000000E+00  0.11731305069E+03  0.11731305069E+03  0.00000000000E+00 0. -1.
         21   -1    0    0  503  504 -0.00000000000E+00 -0.00000000000E+00 -0.29435722944E+03  0.29435722944E+03  0.00000000000E+00 0. -1.
         25    2    1    2    0    0  0.12177645099E+03 -0.58346480068E+02 -0.11717679936E+03  0.21814912752E+03  0.12499929510E+03 0.  0.
         25    2    1    2    0    0 -0.12177645099E+03  0.58346480068E+02 -0.59867379395E+02  0.19352115261E+03  0.12503006694E+03 0.  0.
          5    1    3    3  501    0 -0.94398586877E+01  0.10070217734E+01 -0.63509492512E+02  0.64386882702E+02  0.47000000000E+01 0. -1.
         -5    1    3    3    0  501  0.13121630968E+03 -0.59353501841E+02 -0.53667306846E+02  0.15376224482E+03  0.47000000000E+01 0. -1.
          5    1    4    4  502    0 -0.14032368325E+03  0.61418448886E+02 -0.27353458757E+02  0.15567036857E+03  0.47000000000E+01 0.  1.
         -5    1    4    4    0  502  0.18547232260E+02 -0.30719688184E+01 -0.32513920638E+02  0.37850784036E+02  0.47000000000E+01 0.  1.
<mgrwt>
<rscale>  0 0.37165546E+03</rscale>
<asrwt>0</asrwt>
<pdfrwt beam="1">  1       21 0.18048162E-01 0.37165546E+03</pdfrwt>
<pdfrwt beam="2">  1       21 0.45285727E-01 0.37165546E+03</pdfrwt>
<totfact> 0.12424862E+05</totfact>
</mgrwt>
</event>
<event>
 8    1  0.9400004E-006  0.2732187E+03  0.7546771E-02  0.1099451E+00
         21   -1    0    0  504  503  0.00000000000E+00  0.00000000000E+00  0.53351330403E+03  0.53351330403E+03  0.00000000000E+00 0. -1.
         21   -1    0    0  503  504 -0.00000000000E+00 -0.00000000000E+00 -0.34979650037E+02  0.34979650037E+02  0.00000000000E+00 0. -1.
         25    2    1    2    0    0  0.37922749107E+02  0.38390810920E+02  0.22596208440E+03  0.26381068592E+03  0.12500090062E+03 0.  0.
         25    2    1    2    0    0 -0.37922749107E+02 -0.38390810920E+02  0.27257156960E+03  0.30468226815E+03  0.12499613878E+03 0.  0.
          5    1    3    3  501    0  0.23084241258E+02 -0.40938069055E+02  0.43373546956E+02  0.64126143405E+02  0.47000000000E+01 0.  1.
         -5    1    3    3    0  501  0.14838507849E+02  0.79328879976E+02  0.18258853744E+03  0.19968454251E+03  0.47000000000E+01 0.  1.
          5    1    4    4  502    0  0.16629336467E+02 -0.39003110869E+02  0.21619102874E+02  0.47825234948E+02  0.47000000000E+01 0.  1.
         -5    1    4    4    0  502 -0.54552085574E+02  0.61229994854E+00  0.25095246672E+03  0.25685703320E+03  0.47000000000E+01 0.  1.
<mgrwt>
<rscale>  0 0.27321866E+03</rscale>
<asrwt>0</asrwt>
<pdfrwt beam="1">  1       21 0.82078964E-01 0.27321866E+03</pdfrwt>
<pdfrwt beam="2">  1       21 0.53814850E-02 0.27321866E+03</pdfrwt>
<totfact> 0.30164811E+05</totfact>
</mgrwt>
</event>
<event>
 8    1  0.9400004E-006  0.2927945E+03  0.7546771E-02  0.1088899E+00
         21   -1    0    0  504  503  0.00000000000E+00  0.00000000000E+00  0.88866419454E+03  0.88866419454E+03  0.00000000000E+00 0. -1.
         21   -1    0    0  503  504 -0.00000000000E+00 -0.00000000000E+00 -0.24117275741E+02  0.24117275741E+02  0.00000000000E+00 0. -1.
         25    2    1    2    0    0  0.73574357898E+00  0.13919038981E+02  0.19871012626E+03  0.23516964373E+03  0.12499906435E+03 0.  0.
         25    2    1    2    0    0 -0.73574357898E+00 -0.13919038981E+02  0.66583679254E+03  0.67761182655E+03  0.12499948889E+03 0.  0.
          5    1    3    3  501    0  0.49217147781E+02 -0.60128161465E+01  0.29326171633E+02  0.57797888684E+02  0.47000000000E+01 0.  1.
         -5    1    3    3    0  501 -0.48481404202E+02  0.19931855127E+02  0.16938395462E+03  0.17737175504E+03  0.47000000000E+01 0.  1.
          5    1    4    4  502    0 -0.53183612972E+02  0.24378760558E+02  0.37582750372E+03  0.38038299543E+03  0.47000000000E+01 0.  1.
         -5    1    4    4    0  502  0.52447869393E+02 -0.38297799539E+02  0.29000928882E+03  0.29722883113E+03  0.47000000000E+01 0.  1.
<mgrwt>
<rscale>  0 0.29279453E+03</rscale>
<asrwt>0</asrwt>
<pdfrwt beam="1">  1       21 0.13671754E+00 0.29279453E+03</pdfrwt>
<pdfrwt beam="2">  1       21 0.37103508E-02 0.29279453E+03</pdfrwt>
<totfact> 0.16312715E+05</totfact>
</mgrwt>
</event>
<event>
 8    1  0.9400004E-006  0.3293785E+03  0.7546771E-02  0.1071412E+00
         21   -1    0    0  504  503  0.00000000000E+00  0.00000000000E+00  0.15160942799E+04  0.15160942799E+04  0.00000000000E+00 0. -1.
         21   -1    0    0  503  504 -0.00000000000E+00 -0.00000000000E+00 -0.17889752348E+02  0.17889752348E+02  0.00000000000E+00 0. -1.
         25    2    1    2    0    0  0.76325363131E+01 -0.25156828332E+02  0.26490161210E+03  0.29408485690E+03  0.12498766876E+03 0.  0.
         25    2    1    2    0    0 -0.76325363131E+01  0.25156828332E+02  0.12333029154E+04  0.12398991753E+04  0.12499104825E+03 0.  0.
          5    1    3    3  501    0 -0.13338395157E+02 -0.60821835686E+00  0.26081995847E+03  0.26120379678E+03  0.47000000000E+01 0. -1.
         -5    1    3    3    0  501  0.20970931470E+02 -0.24548609975E+02  0.40816536319E+01  0.32881060123E+02  0.47000000000E+01 0. -1.
          5    1    4    4  502    0 -0.15737524433E+02  0.74014262722E+02  0.85159910804E+03  0.85496719913E+03  0.47000000000E+01 0.  1.
         -5    1    4    4    0  502  0.81049881202E+01 -0.48857434389E+02  0.38170380737E+03  0.38493197618E+03  0.47000000000E+01 0.  1.
<mgrwt>
<rscale>  0 0.32937851E+03</rscale>
<asrwt>0</asrwt>
<pdfrwt beam="1">  1       21 0.23324517E+00 0.32937851E+03</pdfrwt>
<pdfrwt beam="2">  1       21 0.27522708E-02 0.32937851E+03</pdfrwt>
<totfact> 0.56530700E+04</totfact>
</mgrwt>
</event>
<event>
 8    1  0.9400004E-006  0.3221857E+03  0.7546771E-02  0.1074648E+00
         21   -1    0    0  504  503  0.00000000000E+00  0.00000000000E+00  0.69276080292E+03  0.69276080292E+03  0.00000000000E+00 0.  1.
         21   -1    0    0  503  504 -0.00000000000E+00 -0.00000000000E+00 -0.37460133185E+02  0.37460133185E+02  0.00000000000E+00 0.  1.
         25    2    1    2    0    0 -0.43394823765E+02 -0.71973194140E+02  0.19817950113E+03  0.24892283866E+03  0.12499685410E+03 0.  0.
         25    2    1    2    0    0  0.43394823765E+02  0.71973194140E+02  0.45712116860E+03  0.48129809744E+03  0.12499937765E+03 0.  0.
          5    1    3    3  501    0  0.30533297442E+02 -0.23083795937E+02  0.13387901256E+03  0.13932273286E+03  0.47000000000E+01 0. -1.
         -5    1    3    3    0  501 -0.73928121206E+02 -0.48889398203E+02  0.64300488577E+02  0.10960010581E+03  0.47000000000E+01 0. -1.
          5    1    4    4  502    0 -0.27910749610E+02 -0.57667029560E+01  0.21792948021E+03  0.21983542288E+03  0.47000000000E+01 0.  1.
         -5    1    4    4    0  502  0.71305573375E+02  0.77739897096E+02  0.23919168839E+03  0.26146267457E+03  0.47000000000E+01 0.  1.
<mgrwt>
<rscale>  0 0.32218573E+03</rscale>
<asrwt>0</asrwt>
<pdfrwt beam="1">  1       21 0.10657858E+00 0.32218573E+03</pdfrwt>
<pdfrwt beam="2">  1       21 0.57630979E-02 0.32218573E+03</pdfrwt>
<totfact> 0.14281044E+05</totfact>
</mgrwt>
</event>
<event>
 8    1  0.9400004E-006  0.3304679E+03  0.7546771E-02  0.1070930E+00
         21   -1    0    0  504  503  0.00000000000E+00  0.00000000000E+00  0.20786496222E+02  0.20786496222E+02  0.00000000000E+00 0. -1.
         21   -1    0    0  503  504 -0.00000000000E+00 -0.00000000000E+00 -0.13134616184E+04  0.13134616184E+04  0.00000000000E+00 0. -1.
         25    2    1    2    0    0  0.66104002893E+02 -0.65127531083E+02 -0.42274374765E+03  0.45049572358E+03  0.12499114484E+03 0.  0.
         25    2    1    2    0    0 -0.66104002893E+02  0.65127531083E+02 -0.86993137449E+03  0.88375239100E+03  0.12500543097E+03 0.  0.
          5    1    3    3  501    0  0.66683207384E+02 -0.72131248327E+02 -0.16130638337E+03  0.18892169396E+03  0.47000000000E+01 0. -1.
         -5    1    3    3    0  501 -0.57920449080E+00  0.70037172439E+01 -0.26143736428E+03  0.26157402963E+03  0.47000000000E+01 0. -1.
          5    1    4    4  502    0  0.33578558052E+02  0.64497046068E+01 -0.31428847358E+03  0.31617788170E+03  0.47000000000E+01 0. -1.
         -5    1    4    4    0  502 -0.99682560944E+02  0.58677826476E+02 -0.55564290091E+03  0.56757450930E+03  0.47000000000E+01 0. -1.
<mgrwt>
<rscale>  0 0.33046794E+03</rscale>
<asrwt>0</asrwt>
<pdfrwt beam="1">  1       21 0.31979230E-02 0.33046794E+03</pdfrwt>
<pdfrwt beam="2">  1       21 0.20207099E+00 0.33046794E+03</pdfrwt>
<totfact> 0.69304544E+04</totfact>
</mgrwt>
</event>
<event>
 8    1  0.9400004E-006  0.3816080E+03  0.7546771E-02  0.1050341E+00
         21   -1    0    0  504  503  0.00000000000E+00  0.00000000000E+00  0.76276451882E+02  0.76276451882E+02  0.00000000000E+00 0. -1.
         21   -1    0    0  503  504 -0.00000000000E+00 -0.00000000000E+00 -0.47729226821E+03  0.47729226821E+03  0.00000000000E+00 0. -1.
         25    2    1    2    0    0  0.13586767703E+02 -0.42124921629E+02 -0.39952217186E+03  0.42095402350E+03  0.12500085924E+03 0.  0.
         25    2    1    2    0    0 -0.13586767703E+02  0.42124921629E+02 -0.14936444635E+01  0.13261469659E+03  0.12500126999E+03 0.  0.
          5    1    3    3  501    0 -0.46795520607E+02 -0.30499711035E+02 -0.95463332743E+02  0.11070406958E+03  0.47000000000E+01 0. -1.
         -5    1    3    3    0  501  0.60382288310E+02 -0.11625210594E+02 -0.30405883912E+03  0.31024995393E+03  0.47000000000E+01 0. -1.
          5    1    4    4  502    0 -0.98796117563E+01  0.73580333710E+02  0.36555026702E+02  0.82885657471E+02  0.47000000000E+01 0.  1.
         -5    1    4    4    0  502 -0.37071559472E+01 -0.31455412081E+02 -0.38048671165E+02  0.49729039120E+02  0.47000000000E+01 0.  1.
<mgrwt>
<rscale>  0 0.38160797E+03</rscale>
<asrwt>0</asrwt>
<pdfrwt beam="1">  1       21 0.11734839E-01 0.38160797E+03</pdfrwt>
<pdfrwt beam="2">  1       21 0.73429579E-01 0.38160797E+03</pdfrwt>
<totfact> 0.96063098E+04</totfact>
</mgrwt>
</event>
<event>
 8    1  0.9400004E-006  0.3227072E+03  0.7546771E-02  0.1074410E+00
         21   -1    0    0  504  503  0.00000000000E+00  0.00000000000E+00  0.15407303958E+04  0.15407303958E+04  0.00000000000E+00 0.  1.
         21   -1    0    0  503  504 -0.00000000000E+00 -0.00000000000E+00 -0.16897817423E+02  0.16897817423E+02  0.00000000000E+00 0.  1.
         25    2    1    2    0    0  0.21386174813E+02  0.84613079224E+02  0.50680034091E+03  0.52923326874E+03  0.12499810220E+03 0.  0.
         25    2    1    2    0    0 -0.21386174813E+02 -0.84613079224E+02  0.10170322375E+04  0.10283949445E+04  0.12499939250E+03 0.  0.
          5    1    3    3  501    0 -0.14800729967E+02  0.18431804730E+02  0.38592360901E+03  0.38667546473E+03  0.47000000000E+01 0.  1.
         -5    1    3    3    0  501  0.36186904780E+02  0.66181274494E+02  0.12087673189E+03  0.14255780401E+03  0.47000000000E+01 0.  1.
          5    1    4    4  502    0 -0.71363854374E+02 -0.69175005821E+02  0.62787878948E+03  0.63571365049E+03  0.47000000000E+01 0.  1.
         -5    1    4    4    0  502  0.49977679561E+02 -0.15438073403E+02  0.38915344798E+03  0.39268129398E+03  0.47000000000E+01 0.  1.
<mgrwt>
<rscale>  0 0.32270718E+03</rscale>
<asrwt>0</asrwt>
<pdfrwt beam="1">  1       21 0.23703534E+00 0.32270718E+03</pdfrwt>
<pdfrwt beam="2">  1       21 0.25996654E-02 0.32270718E+03</pdfrwt>
<totfact> 0.59084526E+04</totfact>
</mgrwt>
</event>
<event>
 8    1  0.9400004E-006  0.2989770E+03  0.7546771E-02  0.1085753E+00
         21   -1    0    0  504  503  0.00000000000E+00  0.00000000000E+00  0.17494007492E+03  0.17494007492E+03  0.00000000000E+00 0. -1.
         21   -1    0    0  503  504 -0.00000000000E+00 -0.00000000000E+00 -0.12773977252E+03  0.12773977252E+03  0.00000000000E+00 0. -1.
         25    2    1    2    0    0  0.62297494067E+02  0.14553075513E+02  0.75519404504E+02  0.15943829722E+03  0.12499848155E+03 0.  0.
         25    2    1    2    0    0 -0.62297494067E+02 -0.14553075513E+02 -0.28319102103E+02  0.14324155022E+03  0.12499360140E+03 0.  0.
          5    1    3    3  501    0  0.62823477731E+02 -0.34773624023E+02  0.35333419027E+01  0.72045602135E+02  0.47000000000E+01 0.  1.
         -5    1    3    3    0  501 -0.52598366429E+00  0.49326699537E+02  0.71986062602E+02  0.87392695089E+02  0.47000000000E+01 0.  1.
          5    1    4    4  502    0 -0.15354639418E+02 -0.58974842252E+02 -0.45505573926E+02  0.76201340071E+02  0.47000000000E+01 0.  1.
         -5    1    4    4    0  502 -0.46942854649E+02  0.44421766738E+02  0.17186471823E+02  0.67040210147E+02  0.47000000000E+01 0.  1.
<mgrwt>
<rscale>  0 0.29897696E+03</rscale>
<asrwt>0</asrwt>
<pdfrwt beam="1">  1       21 0.26913858E-01 0.29897696E+03</pdfrwt>
<pdfrwt beam="2">  1       21 0.19652273E-01 0.29897696E+03</pdfrwt>
<totfact> 0.30613200E+05</totfact>
</mgrwt>
</event>
<event>
 8    1  0.9400004E-006  0.3911212E+03  0.7546771E-02  0.1046898E+00
         21   -1    0    0  504  503  0.00000000000E+00  0.00000000000E+00  0.23361439698E+03  0.23361439698E+03  0.00000000000E+00 0. -1.
         21   -1    0    0  503  504 -0.00000000000E+00 -0.00000000000E+00 -0.16370547105E+03  0.16370547105E+03  0.00000000000E+00 0. -1.
         25    2    1    2    0    0 -0.32391130590E+01 -0.12308251197E+03 -0.52774001002E+02  0.18322026676E+03  0.12499909746E+03 0.  0.
         25    2    1    2    0    0  0.32391130590E+01  0.12308251197E+03  0.12268292694E+03  0.21409960127E+03  0.12501096791E+03 0.  0.
          5    1    3    3  501    0 -0.19345922063E+02 -0.14278795796E+03 -0.26963719183E+02  0.14666900761E+03  0.47000000000E+01 0.  1.
         -5    1    3    3    0  501  0.16106809004E+02  0.19705445998E+02 -0.25810281818E+02  0.36551259155E+02  0.47000000000E+01 0.  1.
          5    1    4    4  502    0 -0.51367735379E+02  0.71488584338E+02  0.26676727729E+02  0.92103201524E+02  0.47000000000E+01 0.  1.
         -5    1    4    4    0  502  0.54606848438E+02  0.51593927627E+02  0.96006199211E+02  0.12199639975E+03  0.47000000000E+01 0.  1.
<mgrwt>
<rscale>  0 0.39112123E+03</rscale>
<asrwt>0</asrwt>
<pdfrwt beam="1">  1       21 0.35940677E-01 0.39112123E+03</pdfrwt>
<pdfrwt beam="2">  1       21 0.25185457E-01 0.39112123E+03</pdfrwt>
<totfact> 0.10534152E+05</totfact>
</mgrwt>
</event>
<event>
 8    1  0.9400004E-006  0.3306731E+03  0.7546771E-02  0.1070839E+00
         21   -1    0    0  504  503  0.00000000000E+00  0.00000000000E+00  0.12819314395E+03  0.12819314395E+03  0.00000000000E+00 0. -1.
         21   -1    0    0  503  504 -0.00000000000E+00 -0.00000000000E+00 -0.21324215609E+03  0.21324215609E+03  0.00000000000E+00 0. -1.
         25    2    1    2    0    0  0.18663239265E+02 -0.10641414378E+03 -0.48880991046E+02  0.17230647941E+03  0.12501153972E+03 0.  0.
         25    2    1    2    0    0 -0.18663239265E+02  0.10641414378E+03 -0.36168021089E+02  0.16912882064E+03  0.12499658285E+03 0.  0.
          5    1    3    3  501    0  0.32841254976E+02  0.19345167038E+02 -0.80004169581E+01  0.39228563415E+02  0.47000000000E+01 0.  1.
         -5    1    3    3    0  501 -0.14178015710E+02 -0.12575931082E+03 -0.40880574088E+02  0.13307791599E+03  0.47000000000E+01 0.  1.
          5    1    4    4  502    0  0.33301328968E+02  0.21419800229E+02 -0.54699552085E+02  0.67689861510E+02  0.47000000000E+01 0. -1.
         -5    1    4    4    0  502 -0.51964568234E+02  0.84994343551E+02  0.18531530996E+02  0.10143895913E+03  0.47000000000E+01 0. -1.
<mgrwt>
<rscale>  0 0.33067315E+03</rscale>
<asrwt>0</asrwt>
<pdfrwt beam="1">  1       21 0.19722022E-01 0.33067315E+03</pdfrwt>
<pdfrwt beam="2">  1       21 0.32806485E-01 0.33067315E+03</pdfrwt>
<totfact> 0.20462345E+05</totfact>
</mgrwt>
</event>
<event>
 8    1  0.9400004E-006  0.2580940E+03  0.7546771E-02  0.1108294E+00
         21   -1    0    0  504  503  0.00000000000E+00  0.00000000000E+00  0.35894783045E+03  0.35894783045E+03  0.00000000000E+00 0.  1.
         21   -1    0    0  503  504 -0.00000000000E+00 -0.00000000000E+00 -0.46394270037E+02  0.46394270037E+02  0.00000000000E+00 0.  1.
         25    2    1    2    0    0  0.35855184193E+01 -0.24345403176E+02  0.18824162404E+03  0.22729994412E+03  0.12499920392E+03 0.  0.
         25    2    1    2    0    0 -0.35855184193E+01  0.24345403176E+02  0.12431193637E+03  0.17804215636E+03  0.12505997488E+03 0.  0.
          5    1    3    3  501    0 -0.42568242684E+02 -0.36197486939E+02  0.33500542926E+02  0.65319902957E+02  0.47000000000E+01 0.  1.
         -5    1    3    3    0  501  0.46153761104E+02  0.11852083762E+02  0.15474108111E+03  0.16198004117E+03  0.47000000000E+01 0.  1.
          5    1    4    4  502    0  0.46337463107E+00 -0.40261065350E+02  0.10141757970E+03  0.10921897075E+03  0.47000000000E+01 0. -1.
         -5    1    4    4    0  502 -0.40488930503E+01  0.64606468526E+02  0.22894356675E+02  0.68823185613E+02  0.47000000000E+01 0. -1.
<mgrwt>
<rscale>  0 0.25809396E+03</rscale>
<asrwt>0</asrwt>
<pdfrwt beam="1">  1       21 0.55222741E-01 0.25809396E+03</pdfrwt>
<pdfrwt beam="2">  1       21 0.71375802E-02 0.25809396E+03</pdfrwt>
<totfact> 0.44600260E+05</totfact>
</mgrwt>
</event>
<event>
 8    1  0.9400004E-006  0.2587512E+03  0.7546771E-02  0.1107896E+00
         21   -1    0    0  504  503  0.00000000000E+00  0.00000000000E+00  0.49625481456E+02  0.49625481456E+02  0.00000000000E+00 0.  1.
         21   -1    0    0  503  504 -0.00000000000E+00 -0.00000000000E+00 -0.33728727923E+03  0.33728727923E+03  0.00000000000E+00 0.  1.
         25    2    1    2    0    0 -0.91171381409E+01 -0.25116758255E+02 -0.17368532435E+03  0.21565168845E+03  0.12500034034E+03 0.  0.
         25    2    1    2    0    0  0.91171381409E+01  0.25116758255E+02 -0.11397647342E+03  0.17126107223E+03  0.12500297843E+03 0.  0.
          5    1    3    3  501    0  0.21656189062E+02  0.30599098082E+02 -0.13683384871E+03  0.14195382165E+03  0.47000000000E+01 0. -1.
         -5    1    3    3    0  501 -0.30773327203E+02 -0.55715856337E+02 -0.36851475646E+02  0.73697866806E+02  0.47000000000E+01 0. -1.
          5    1    4    4  502    0  0.37579858559E+02 -0.40917197103E+02 -0.48549732462E+02  0.73929894564E+02  0.47000000000E+01 0.  1.
         -5    1    4    4    0  502 -0.28462720418E+02  0.66033955358E+02 -0.65426740955E+02  0.97331177666E+02  0.47000000000E+01 0.  1.
<mgrwt>
<rscale>  0 0.25875118E+03</rscale>
<asrwt>0</asrwt>
<pdfrwt beam="1">  1       21 0.76346899E-02 0.25875118E+03</pdfrwt>
<pdfrwt beam="2">  1       21 0.51890348E-01 0.25875118E+03</pdfrwt>
<totfact> 0.45254103E+05</totfact>
</mgrwt>
</event>
<event>
 8    1  0.9400004E-006  0.3842359E+03  0.7546771E-02  0.1049379E+00
         21   -1    0    0  504  503  0.00000000000E+00  0.00000000000E+00  0.22508368918E+04  0.22508368918E+04  0.00000000000E+00 0.  1.
         21   -1    0    0  503  504 -0.00000000000E+00 -0.00000000000E+00 -0.16398034338E+02  0.16398034338E+02  0.00000000000E+00 0.  1.
         25    2    1    2    0    0  0.30207183663E+02  0.80864817931E+02  0.42316468461E+03  0.44960280074E+03  0.12499094131E+03 0.  0.
         25    2    1    2    0    0 -0.30207183663E+02 -0.80864817931E+02  0.18112741728E+04  0.18176321254E+04  0.12498328412E+03 0.  0.
          5    1    3    3  501    0  0.73868655487E+02  0.25076191576E+02  0.17880229765E+03  0.19513519747E+03  0.47000000000E+01 0.  1.
         -5    1    3    3    0  501 -0.43661471824E+02  0.55788626355E+02  0.24436238696E+03  0.25446760327E+03  0.47000000000E+01 0.  1.
          5    1    4    4  502    0  0.44438759197E+02 -0.39225521903E+02  0.10222586114E+04  0.10239864274E+04  0.47000000000E+01 0.  1.
         -5    1    4    4    0  502 -0.74645942860E+02 -0.41639296028E+02  0.78901556143E+03  0.79364569799E+03  0.47000000000E+01 0.  1.
<mgrwt>
<rscale>  0 0.38423587E+03</rscale>
<asrwt>0</asrwt>
<pdfrwt beam="1">  1       21 0.34628235E+00 0.38423587E+03</pdfrwt>
<pdfrwt beam="2">  1       21 0.25227763E-02 0.38423587E+03</pdfrwt>
<totfact> 0.13319718E+04</totfact>
</mgrwt>
</event>
<event>
 8    1  0.9400004E-006  0.4552946E+03  0.7546771E-02  0.1026155E+00
         21   -1    0    0  504  503  0.00000000000E+00  0.00000000000E+00  0.42151851169E+03  0.42151851169E+03  0.00000000000E+00 0. -1.
         21   -1    0    0  503  504 -0.00000000000E+00 -0.00000000000E+00 -0.12294429749E+03  0.12294429749E+03  0.00000000000E+00 0. -1.
         25    2    1    2    0    0 -0.12265344937E+03 -0.14286844453E+03  0.11670503598E+03  0.25436629839E+03  0.12500754876E+03 0.  0.
         25    2    1    2    0    0  0.12265344937E+03  0.14286844453E+03  0.18186917822E+03  0.29009651079E+03  0.12499730598E+03 0.  0.
          5    1    3    3  501    0  0.95826621912E+00 -0.39913707285E+02  0.79643436706E+02  0.89214288731E+02  0.47000000000E+01 0. -1.
         -5    1    3    3    0  501 -0.12361171559E+03 -0.10295473725E+03  0.37061599269E+02  0.16515200966E+03  0.47000000000E+01 0. -1.
          5    1    4    4  502    0  0.88989860796E+02  0.16963071612E+02  0.45790250458E+02  0.10161583617E+03  0.47000000000E+01 0.  1.
         -5    1    4    4    0  502  0.33663588576E+02  0.12590537292E+03  0.13607892776E+03  0.18848067462E+03  0.47000000000E+01 0.  1.
<mgrwt>
<rscale>  0 0.45529462E+03</rscale>
<asrwt>0</asrwt>
<pdfrwt beam="1">  1       21 0.64849001E-01 0.45529462E+03</pdfrwt>
<pdfrwt beam="2">  1       21 0.18914508E-01 0.45529462E+03</pdfrwt>
<totfact> 0.51597304E+04</totfact>
</mgrwt>
</event>
<event>
 8    1  0.9400004E-006  0.3994887E+03  0.7546771E-02  0.1043957E+00
         21   -1    0    0  504  503  0.00000000000E+00  0.00000000000E+00  0.17694613280E+03  0.17694613280E+03  0.00000000000E+00 0.  1.
         21   -1    0    0  503  504 -0.00000000000E+00 -0.00000000000E+00 -0.22547990672E+03  0.22547990672E+03  0.00000000000E+00 0.  1.
         25    2    1    2    0    0 -0.10177128729E+03 -0.80876312098E+02 -0.11077672767E+03  0.21164617344E+03  0.12499698621E+03 0.  0.
         25    2    1    2    0    0  0.10177128729E+03  0.80876312098E+02  0.62242953748E+02  0.19077986608E+03  0.12499759692E+03 0.  0.
          5    1    3    3  501    0  0.10271995822E+02  0.22904607481E+02 -0.27893619293E+02  0.37819028799E+02  0.47000000000E+01 0. -1.
         -5    1    3    3    0  501 -0.11204328311E+03 -0.10378091958E+03 -0.82883108377E+02  0.17382714464E+03  0.47000000000E+01 0. -1.
          5    1    4    4  502    0 -0.25698106791E+02  0.53262651776E+01  0.27924303680E+02  0.38608529231E+02  0.47000000000E+01 0. -1.
         -5    1    4    4    0  502  0.12746939408E+03  0.75550046921E+02  0.34318650068E+02  0.15217133685E+03  0.47000000000E+01 0. -1.
<mgrwt>
<rscale>  0 0.39948866E+03</rscale>
<asrwt>0</asrwt>
<pdfrwt beam="1">  1       21 0.27222482E-01 0.39948866E+03</pdfrwt>
<pdfrwt beam="2">  1       21 0.34689216E-01 0.39948866E+03</pdfrwt>
<totfact> 0.97066676E+04</totfact>
</mgrwt>
</event>
<event>
 8    1  0.9400004E-006  0.7247067E+03  0.7546771E-02  0.9675889E-01
         21   -1    0    0  504  503  0.00000000000E+00  0.00000000000E+00  0.49210899283E+03  0.49210899283E+03  0.00000000000E+00 0.  1.
         21   -1    0    0  503  504 -0.00000000000E+00 -0.00000000000E+00 -0.26681070303E+03  0.26681070303E+03  0.00000000000E+00 0.  1.
         25    2    1    2    0    0 -0.16168061223E+03  0.20745074015E+03  0.33846211392E+03  0.44649673019E+03  0.12500519011E+03 0.  0.
         25    2    1    2    0    0  0.16168061223E+03 -0.20745074015E+03 -0.11316382411E+03  0.31242296566E+03  0.12500251368E+03 0.  0.
          5    1    3    3  501    0 -0.74261706450E+02  0.18305015732E+03  0.20228423246E+03  0.28277758369E+03  0.47000000000E+01 0.  1.
         -5    1    3    3    0  501 -0.87418905781E+02  0.24400582828E+02  0.13617788146E+03  0.16371914650E+03  0.47000000000E+01 0.  1.
          5    1    4    4  502    0  0.31461027055E+02 -0.13049798404E+03 -0.23016743648E+02  0.13627685259E+03  0.47000000000E+01 0.  1.
         -5    1    4    4    0  502  0.13021958518E+03 -0.76952756106E+02 -0.90147080466E+02  0.17614611308E+03  0.47000000000E+01 0.  1.
<mgrwt>
<rscale>  0 0.72470669E+03</rscale>
<asrwt>0</asrwt>
<pdfrwt beam="1">  1       21 0.75709075E-01 0.72470669E+03</pdfrwt>
<pdfrwt beam="2">  1       21 0.41047801E-01 0.72470669E+03</pdfrwt>
<totfact> 0.74036427E+03</totfact>
</mgrwt>
</event>
<event>
 8    1  0.9400004E-006  0.3151274E+03  0.7546771E-02  0.1077914E+00
         21   -1    0    0  504  503  0.00000000000E+00  0.00000000000E+00  0.10981257095E+03  0.10981257095E+03  0.00000000000E+00 0.  1.
         21   -1    0    0  503  504 -0.00000000000E+00 -0.00000000000E+00 -0.22607905203E+03  0.22607905203E+03  0.00000000000E+00 0.  1.
         25    2    1    2    0    0 -0.42644797474E+02 -0.68033915362E+02 -0.11405431968E+03  0.18731224025E+03  0.12502117868E+03 0.  0.
         25    2    1    2    0    0  0.42644797474E+02  0.68033915362E+02 -0.22121614011E+01  0.14857938274E+03  0.12499498760E+03 0.  0.
          5    1    3    3  501    0 -0.80455095690E+02 -0.15180364625E+02 -0.50599236633E+02  0.96363056409E+02  0.47000000000E+01 0. -1.
         -5    1    3    3    0  501  0.37810298216E+02 -0.52853550738E+02 -0.63455083046E+02  0.90949183840E+02  0.47000000000E+01 0. -1.
          5    1    4    4  502    0  0.65594807836E+02  0.48173357277E+02  0.44348328062E+02  0.92802022437E+02  0.47000000000E+01 0.  1.
         -5    1    4    4    0  502 -0.22950010362E+02  0.19860558085E+02 -0.46560489464E+02  0.55777360301E+02  0.47000000000E+01 0.  1.
<mgrwt>
<rscale>  0 0.31512742E+03</rscale>
<asrwt>0</asrwt>
<pdfrwt beam="1">  1       21 0.16894242E-01 0.31512742E+03</pdfrwt>
<pdfrwt beam="2">  1       21 0.34781392E-01 0.31512742E+03</pdfrwt>
<totfact> 0.24403384E+05</totfact>
</mgrwt>
</event>
<event>
 8    1  0.9400004E-006  0.2589347E+03  0.7546771E-02  0.1107785E+00
         21   -1    0    0  504  503  0.00000000000E+00  0.00000000000E+00  0.18353303562E+03  0.18353303562E+03  0.00000000000E+00 0. -1.
         21   -1    0    0  503  504 -0.00000000000E+00 -0.00000000000E+00 -0.91328494899E+02  0.91328494899E+02  0.00000000000E+00 0. -1.
         25    2    1    2    0    0  0.23744560935E+02  0.77130671413E+01  0.22011283468E+02  0.12935452456E+03  0.12499920338E+03 0.  0.
         25    2    1    2    0    0 -0.23744560935E+02 -0.77130671413E+01  0.70193257254E+02  0.14550700596E+03  0.12498759875E+03 0.  0.
          5    1    3    3  501    0 -0.17594877019E+02 -0.51754154677E+02  0.10777536098E+02  0.55913482345E+02  0.47000000000E+01 0.  1.
         -5    1    3    3    0  501  0.41339437954E+02  0.59467221818E+02  0.11233747370E+02  0.73441042211E+02  0.47000000000E+01 0.  1.
          5    1    4    4  502    0  0.16612180833E+02 -0.16869252501E+02 -0.29114701535E+02  0.37819202496E+02  0.47000000000E+01 0.  1.
         -5    1    4    4    0  502 -0.40356741768E+02  0.91561853592E+01  0.99307958789E+02  0.10768780347E+03  0.47000000000E+01 0.  1.
<mgrwt>
<rscale>  0 0.25893471E+03</rscale>
<asrwt>0</asrwt>
<pdfrwt beam="1">  1       21 0.28235851E-01 0.25893471E+03</pdfrwt>
<pdfrwt beam="2">  1       21 0.14050538E-01 0.25893471E+03</pdfrwt>
<totfact> 0.52295289E+05</totfact>
</mgrwt>
</event>
<event>
 8    1  0.9400004E-006  0.2678916E+03  0.7546771E-02  0.1102492E+00
         21   -1    0    0  504  503  0.00000000000E+00  0.00000000000E+00  0.88599911369E+02  0.88599911369E+02  0.00000000000E+00 0.  1.
         21   -1    0    0  503  504 -0.00000000000E+00 -0.00000000000E+00 -0.20249996594E+03  0.20249996594E+03  0.00000000000E+00 0.  1.
         25    2    1    2    0    0  0.47967294953E+02 -0.34700611570E+01 -0.59136114224E+02  0.14640629065E+03  0.12499927690E+03 0.  0.
         25    2    1    2    0    0 -0.47967294953E+02  0.34700611570E+01 -0.54763940343E+02  0.14469358666E+03  0.12499696855E+03 0.  0.
          5    1    3    3  501    0  0.58422582214E+02 -0.30849090579E+02  0.13804759368E+02  0.67657415583E+02  0.47000000000E+01 0.  1.
         -5    1    3    3    0  501 -0.10455287261E+02  0.27379029422E+02 -0.72940873592E+02  0.78748875066E+02  0.47000000000E+01 0.  1.
          5    1    4    4  502    0 -0.36235693666E+02  0.59731633554E+02 -0.80499378171E+01  0.70482515855E+02  0.47000000000E+01 0.  1.
         -5    1    4    4    0  502 -0.11731601287E+02 -0.56261572397E+02 -0.46714002526E+02  0.74211070800E+02  0.47000000000E+01 0.  1.
<mgrwt>
<rscale>  0 0.26789161E+03</rscale>
<asrwt>0</asrwt>
<pdfrwt beam="1">  1       21 0.13630756E-01 0.26789161E+03</pdfrwt>
<pdfrwt beam="2">  1       21 0.31153840E-01 0.26789161E+03</pdfrwt>
<totfact> 0.45502582E+05</totfact>
</mgrwt>
</event>
<event>
 8    1  0.9400004E-006  0.2866935E+03  0.7546771E-02  0.1092088E+00
         21   -1    0    0  504  503  0.00000000000E+00  0.00000000000E+00  0.11040280475E+03  0.11040280475E+03  0.00000000000E+00 0. -1.
         21   -1    0    0  503  504 -0.00000000000E+00 -0.00000000000E+00 -0.18612103934E+03  0.18612103934E+03  0.00000000000E+00 0. -1.
         25    2    1    2    0    0  0.22386062787E+02  0.37337222410E+02 -0.94741859405E+02  0.16277661774E+03  0.12500001350E+03 0.  0.
         25    2    1    2    0    0 -0.22386062787E+02 -0.37337222410E+02  0.19023624815E+02  0.13374722636E+03  0.12502487062E+03 0.  0.
          5    1    3    3  501    0 -0.37952367783E+02 -0.23640586986E+02 -0.21294966494E+02  0.49747614730E+02  0.47000000000E+01 0. -1.
         -5    1    3    3    0  501  0.60338430570E+02  0.60977809396E+02 -0.73446892911E+02  0.11302900301E+03  0.47000000000E+01 0. -1.
          5    1    4    4  502    0 -0.25205548876E+02  0.41597716336E+02  0.24050158603E+02  0.54462737971E+02  0.47000000000E+01 0.  1.
         -5    1    4    4    0  502  0.28194860886E+01 -0.78934938746E+02 -0.50265337885E+01  0.79284488385E+02  0.47000000000E+01 0.  1.
<mgrwt>
<rscale>  0 0.28669346E+03</rscale>
<asrwt>0</asrwt>
<pdfrwt beam="1">  1       21 0.16985047E-01 0.28669346E+03</pdfrwt>
<pdfrwt beam="2">  1       21 0.28634006E-01 0.28669346E+03</pdfrwt>
<totfact> 0.35716662E+05</totfact>
</mgrwt>
</event>
<event>
 8    1  0.9400004E-006  0.9384431E+03  0.7546771E-02  0.9378762E-01
         21   -1    0    0  504  503  0.00000000000E+00  0.00000000000E+00  0.84873691340E+03  0.84873691340E+03  0.00000000000E+00 0. -1.
         21   -1    0    0  503  504 -0.00000000000E+00 -0.00000000000E+00 -0.25940767984E+03  0.25940767984E+03  0.00000000000E+00 0. -1.
         25    2    1    2    0    0 -0.10983526306E+03 -0.39533158247E+03  0.51931187881E+03  0.67354334181E+03  0.12499984287E+03 0.  0.
         25    2    1    2    0    0  0.10983526306E+03  0.39533158247E+03  0.70017354750E+02  0.43460125144E+03  0.12499989071E+03 0.  0.
          5    1    3    3  501    0  0.17471811897E+02 -0.40989540048E+02  0.10231132096E+03  0.11169200062E+03  0.47000000000E+01 0.  1.
         -5    1    3    3    0  501 -0.12730707495E+03 -0.35434204242E+03  0.41700055785E+03  0.56185134120E+03  0.47000000000E+01 0.  1.
          5    1    4    4  502    0 -0.20688536156E+02  0.64987154266E+02 -0.13514165337E+02  0.69685496429E+02  0.47000000000E+01 0.  1.
         -5    1    4    4    0  502  0.13052379921E+03  0.33034442820E+03  0.83531520087E+02  0.36491575501E+03  0.47000000000E+01 0.  1.
<mgrwt>
<rscale>  0 0.93844312E+03</rscale>
<asrwt>0</asrwt>
<pdfrwt beam="1">  1       21 0.13057491E+00 0.93844312E+03</pdfrwt>
<pdfrwt beam="2">  1       21 0.39908874E-01 0.93844312E+03</pdfrwt>
<totfact> 0.19682992E+03</totfact>
</mgrwt>
</event>
<event>
 8    1  0.9400004E-006  0.3482978E+03  0.7546771E-02  0.1063316E+00
         21   -1    0    0  504  503  0.00000000000E+00  0.00000000000E+00  0.15704807125E+03  0.15704807125E+03  0.00000000000E+00 0. -1.
         21   -1    0    0  503  504 -0.00000000000E+00 -0.00000000000E+00 -0.19311179539E+03  0.19311179539E+03  0.00000000000E+00 0. -1.
         25    2    1    2    0    0 -0.45686592456E+01 -0.10535348028E+03 -0.78192535161E+02  0.18127208293E+03  0.12500106815E+03 0.  0.
         25    2    1    2    0    0  0.45686592456E+01  0.10535348028E+03  0.42128811026E+02  0.16888778371E+03  0.12501207267E+03 0.  0.
          5    1    3    3  501    0  0.53535424574E+02 -0.19039847521E+02 -0.13264451827E+02  0.58537109257E+02  0.47000000000E+01 0.  1.
         -5    1    3    3    0  501 -0.58104083819E+02 -0.86313632761E+02 -0.64928083335E+02  0.12273497367E+03  0.47000000000E+01 0.  1.
          5    1    4    4  502    0 -0.31954948796E+02  0.16891109205E+02  0.61157949918E+02  0.71195597904E+02  0.47000000000E+01 0.  1.
         -5    1    4    4    0  502  0.36523608042E+02  0.88462371077E+02 -0.19029138892E+02  0.97692185808E+02  0.47000000000E+01 0.  1.
<mgrwt>
<rscale>  0 0.34829777E+03</rscale>
<asrwt>0</asrwt>
<pdfrwt beam="1">  1       21 0.24161242E-01 0.34829777E+03</pdfrwt>
<pdfrwt beam="2">  1       21 0.29709507E-01 0.34829777E+03</pdfrwt>
<totfact> 0.16849956E+05</totfact>
</mgrwt>
</event>
<event>
 8    1  0.9400004E-006  0.3238462E+03  0.7546771E-02  0.1073893E+00
         21   -1    0    0  504  503  0.00000000000E+00  0.00000000000E+00  0.20062724720E+02  0.20062724720E+02  0.00000000000E+00 0. -1.
         21   -1    0    0  503  504 -0.00000000000E+00 -0.00000000000E+00 -0.13068555271E+04  0.13068555271E+04  0.00000000000E+00 0. -1.
         25    2    1    2    0    0  0.88293593976E+02 -0.49162801243E+02 -0.56361560976E+03  0.58608931472E+03  0.12500155799E+03 0.  0.
         25    2    1    2    0    0 -0.88293593976E+02  0.49162801243E+02 -0.72317719262E+03  0.74082893710E+03  0.12501808811E+03 0.  0.
          5    1    3    3  501    0  0.48054995293E+02  0.40059170029E+02 -0.21607457310E+03  0.22499851292E+03  0.47000000000E+01 0. -1.
         -5    1    3    3    0  501  0.40238598683E+02 -0.89221971273E+02 -0.34754103666E+03  0.36109080180E+03  0.47000000000E+01 0. -1.
          5    1    4    4  502    0 -0.89678284859E+02  0.66662513888E+02 -0.70903615778E+03  0.71780251363E+03  0.47000000000E+01 0.  1.
         -5    1    4    4    0  502  0.13846908823E+01 -0.17499712645E+02 -0.14141034842E+02  0.23026423472E+02  0.47000000000E+01 0.  1.
<mgrwt>
<rscale>  0 0.32384615E+03</rscale>
<asrwt>0</asrwt>
<pdfrwt beam="1">  1       21 0.30865742E-02 0.32384615E+03</pdfrwt>
<pdfrwt beam="2">  1       21 0.20105462E+00 0.32384615E+03</pdfrwt>
<totfact> 0.74874547E+04</totfact>
</mgrwt>
</event>
<event>
 8    1  0.9400004E-006  0.3390380E+03  0.7546771E-02  0.1067206E+00
         21   -1    0    0  504  503  0.00000000000E+00  0.00000000000E+00  0.67491457663E+02  0.67491457663E+02  0.00000000000E+00 0.  1.
         21   -1    0    0  503  504 -0.00000000000E+00 -0.00000000000E+00 -0.42578260918E+03  0.42578260918E+03  0.00000000000E+00 0.  1.
         25    2    1    2    0    0  0.71577724166E+01 -0.58717287406E+02 -0.36488777220E+02  0.14302117399E+03  0.12499868719E+03 0.  0.
         25    2    1    2    0    0 -0.71577724166E+01  0.58717287406E+02 -0.32180237429E+03  0.35025289285E+03  0.12498546836E+03 0.  0.
          5    1    3    3  501    0 -0.17837947440E+02 -0.93292487503E+02 -0.20999929666E+02  0.97389771739E+02  0.47000000000E+01 0.  1.
         -5    1    3    3    0  501  0.24995719857E+02  0.34575200097E+02 -0.15488847554E+02  0.45631402252E+02  0.47000000000E+01 0.  1.
          5    1    4    4  502    0 -0.29026199003E+02  0.28261357674E+02 -0.18808548342E+02  0.44911869888E+02  0.47000000000E+01 0. -1.
         -5    1    4    4    0  502  0.21868426586E+02  0.30455929732E+02 -0.30299382595E+03  0.30534102296E+03  0.47000000000E+01 0. -1.
<mgrwt>
<rscale>  0 0.33903799E+03</rscale>
<asrwt>0</asrwt>
<pdfrwt beam="1">  1       21 0.10383301E-01 0.33903799E+03</pdfrwt>
<pdfrwt beam="2">  1       21 0.65505017E-01 0.33903799E+03</pdfrwt>
<totfact> 0.15610994E+05</totfact>
</mgrwt>
</event>
<event>
 8    1  0.9400004E-006  0.4071407E+03  0.7546771E-02  0.1041335E+00
         21   -1    0    0  504  503  0.00000000000E+00  0.00000000000E+00  0.15225662213E+04  0.15225662213E+04  0.00000000000E+00 0.  1.
         21   -1    0    0  503  504 -0.00000000000E+00 -0.00000000000E+00 -0.27217784229E+02  0.27217784229E+02  0.00000000000E+00 0.  1.
         25    2    1    2    0    0  0.58183095023E+02 -0.44758535734E+02  0.20381041496E+03  0.25013608833E+03  0.12506309756E+03 0.  0.
         25    2    1    2    0    0 -0.58183095023E+02  0.44758535734E+02  0.12915380221E+04  0.12996479172E+04  0.12500258818E+03 0.  0.
          5    1    3    3  501    0 -0.30040492917E+02 -0.46713462566E+02  0.65506842115E+02  0.86010552629E+02  0.47000000000E+01 0. -1.
         -5    1    3    3    0  501  0.88223587940E+02  0.19549268326E+01  0.13830357285E+03  0.16412553570E+03  0.47000000000E+01 0. -1.
          5    1    4    4  502    0  0.30900597015E+02 -0.12585564840E+02  0.18531844060E+03  0.18835673007E+03  0.47000000000E+01 0. -1.
         -5    1    4    4    0  502 -0.89083692038E+02  0.57344100573E+02  0.11062195815E+04  0.11112911871E+04  0.47000000000E+01 0. -1.
<mgrwt>
<rscale>  0 0.40714066E+03</rscale>
<asrwt>0</asrwt>
<pdfrwt beam="1">  1       21 0.23424089E+00 0.40714066E+03</pdfrwt>
<pdfrwt beam="2">  1       21 0.41873526E-02 0.40714066E+03</pdfrwt>
<totfact> 0.26616103E+04</totfact>
</mgrwt>
</event>
<event>
 8    1  0.9400004E-006  0.3032314E+03  0.7546771E-02  0.1083636E+00
         21   -1    0    0  504  503  0.00000000000E+00  0.00000000000E+00  0.22050095983E+03  0.22050095983E+03  0.00000000000E+00 0. -1.
         21   -1    0    0  503  504 -0.00000000000E+00 -0.00000000000E+00 -0.10425043051E+03  0.10425043051E+03  0.00000000000E+00 0. -1.
         25    2    1    2    0    0  0.20956828177E+02 -0.31483745012E+01 -0.30926279195E+02  0.13050090545E+03  0.12499980268E+03 0.  0.
         25    2    1    2    0    0 -0.20956828177E+02  0.31483745012E+01  0.14717680851E+03  0.19425048488E+03  0.12499254778E+03 0.  0.
          5    1    3    3  501    0 -0.63354000196E+01 -0.55969998478E+02 -0.41247684661E+02  0.69973134223E+02  0.47000000000E+01 0.  1.
         -5    1    3    3    0  501  0.27292228197E+02  0.52821623977E+02  0.10321405466E+02  0.60527771232E+02  0.47000000000E+01 0.  1.
          5    1    4    4  502    0 -0.16856636418E+02  0.54287733431E+02  0.26214421807E+02  0.62774119692E+02  0.47000000000E+01 0.  1.
         -5    1    4    4    0  502 -0.41001917594E+01 -0.51139358930E+02  0.12096238671E+03  0.13147636518E+03  0.47000000000E+01 0.  1.
<mgrwt>
<rscale>  0 0.30323140E+03</rscale>
<asrwt>0</asrwt>
<pdfrwt beam="1">  1       21 0.33923224E-01 0.30323140E+03</pdfrwt>
<pdfrwt beam="2">  1       21 0.16038528E-01 0.30323140E+03</pdfrwt>
<totfact> 0.28318085E+05</totfact>
</mgrwt>
</event>
<event>
 8    1  0.9400004E-006  0.3451010E+03  0.7546771E-02  0.1064644E+00
         21   -1    0    0  504  503  0.00000000000E+00  0.00000000000E+00  0.12014188807E+04  0.12014188807E+04  0.00000000000E+00 0. -1.
         21   -1    0    0  503  504 -0.00000000000E+00 -0.00000000000E+00 -0.24782092068E+02  0.24782092068E+02  0.00000000000E+00 0. -1.
         25    2    1    2    0    0 -0.68359959792E+01  0.71932057711E+02  0.92404284996E+03  0.93525454455E+03  0.12499969114E+03 0.  0.
         25    2    1    2    0    0  0.68359959792E+01 -0.71932057711E+02  0.25259393866E+03  0.29094642820E+03  0.12500069786E+03 0.  0.
          5    1    3    3  501    0  0.41510899082E+02  0.28091764329E+02  0.14542741333E+03  0.15389452399E+03  0.47000000000E+01 0.  1.
         -5    1    3    3    0  501 -0.48346895061E+02  0.43840293382E+02  0.77861543663E+03  0.78136002057E+03  0.47000000000E+01 0.  1.
          5    1    4    4  502    0 -0.19589930675E+02  0.16783035631E+02  0.15166793820E+03  0.15391779997E+03  0.47000000000E+01 0. -1.
         -5    1    4    4    0  502  0.26425926654E+02 -0.88715093342E+02  0.10092600046E+03  0.13702862823E+03  0.47000000000E+01 0. -1.
<mgrwt>
<rscale>  0 0.34510099E+03</rscale>
<asrwt>0</asrwt>
<pdfrwt beam="1">  1       21 0.18483363E+00 0.34510099E+03</pdfrwt>
<pdfrwt beam="2">  1       21 0.38126305E-02 0.34510099E+03</pdfrwt>
<totfact> 0.66878372E+04</totfact>
</mgrwt>
</event>
<event>
 8    1  0.9400004E-006  0.3729675E+03  0.7546771E-02  0.1053564E+00
         21   -1    0    0  504  503  0.00000000000E+00  0.00000000000E+00  0.36528357728E+03  0.36528357728E+03  0.00000000000E+00 0.  1.
         21   -1    0    0  503  504 -0.00000000000E+00 -0.00000000000E+00 -0.95203244797E+02  0.95203244797E+02  0.00000000000E+00 0.  1.
         25    2    1    2    0    0  0.79722627410E+02 -0.25721149745E+02 -0.95639250667E+00  0.15047914010E+03  0.12500312817E+03 0.  0.
         25    2    1    2    0    0 -0.79722627410E+02  0.25721149745E+02  0.27103672499E+03  0.31000768198E+03  0.12500632675E+03 0.  0.
          5    1    3    3  501    0  0.73815916597E+02  0.38968590580E+02 -0.11873766842E+02  0.84441796131E+02  0.47000000000E+01 0.  1.
         -5    1    3    3    0  501  0.59067108126E+01 -0.64689740325E+02  0.10917374335E+02  0.66037343968E+02  0.47000000000E+01 0.  1.
          5    1    4    4  502    0 -0.86077563015E+02 -0.25848740966E+02  0.21686554683E+03  0.23479833829E+03  0.47000000000E+01 0. -1.
         -5    1    4    4    0  502  0.63549356050E+01  0.51569890711E+02  0.54171178168E+02  0.75209343693E+02  0.47000000000E+01 0. -1.
<mgrwt>
<rscale>  0 0.37296746E+03</rscale>
<asrwt>0</asrwt>
<pdfrwt beam="1">  1       21 0.56197473E-01 0.37296746E+03</pdfrwt>
<pdfrwt beam="2">  1       21 0.14646653E-01 0.37296746E+03</pdfrwt>
<totfact> 0.11587300E+05</totfact>
</mgrwt>
</event>
<event>
 8    1  0.9400004E-006  0.2791943E+03  0.7546771E-02  0.1096130E+00
         21   -1    0    0  504  503  0.00000000000E+00  0.00000000000E+00  0.72401622337E+03  0.72401622337E+03  0.00000000000E+00 0. -1.
         21   -1    0    0  503  504 -0.00000000000E+00 -0.00000000000E+00 -0.26915646946E+02  0.26915646946E+02  0.00000000000E+00 0. -1.
         25    2    1    2    0    0 -0.47323649204E+02 -0.19800802962E+02  0.44311691285E+03  0.46325876300E+03  0.12499793387E+03 0.  0.
         25    2    1    2    0    0  0.47323649204E+02  0.19800802962E+02  0.25398366357E+03  0.28767310731E+03  0.12496605834E+03 0.  0.
          5    1    3    3  501    0  0.27112056746E+02 -0.33768147881E+02  0.27985296363E+03  0.28322274394E+03  0.47000000000E+01 0. -1.
         -5    1    3    3    0  501 -0.74435705950E+02  0.13967344920E+02  0.16326394922E+03  0.18003601906E+03  0.47000000000E+01 0. -1.
          5    1    4    4  502    0  0.32742128749E+02 -0.51960988821E+02  0.11012820904E+03  0.12618361138E+03  0.47000000000E+01 0.  1.
         -5    1    4    4    0  502  0.14581520455E+02  0.71761791783E+02  0.14385545453E+03  0.16148949593E+03  0.47000000000E+01 0.  1.
<mgrwt>
<rscale>  0 0.27919431E+03</rscale>
<asrwt>0</asrwt>
<pdfrwt beam="1">  1       21 0.11138710E+00 0.27919431E+03</pdfrwt>
<pdfrwt beam="2">  1       21 0.41408693E-02 0.27919431E+03</pdfrwt>
<totfact> 0.22809607E+05</totfact>
</mgrwt>
</event>
<event>
 8    1  0.9400004E-006  0.5076779E+03  0.7546771E-02  0.1011794E+00
         21   -1    0    0  504  503  0.00000000000E+00  0.00000000000E+00  0.92838625128E+02  0.92838625128E+02  0.00000000000E+00 0. -1.
         21   -1    0    0  503  504 -0.00000000000E+00 -0.00000000000E+00 -0.69404524810E+03  0.69404524810E+03  0.00000000000E+00 0. -1.
         25    2    1    2    0    0  0.18235200535E+03 -0.97177566234E+02 -0.42179107227E+03  0.48603450222E+03  0.12500438180E+03 0.  0.
         25    2    1    2    0    0 -0.18235200535E+03  0.97177566234E+02 -0.17941555070E+03  0.30084937101E+03  0.12499868386E+03 0.  0.
          5    1    3    3  501    0  0.14463049542E+03 -0.11844831983E+03 -0.38865582136E+03  0.43130432660E+03  0.47000000000E+01 0. -1.
         -5    1    3    3    0  501  0.37721509932E+02  0.21270753592E+02 -0.33135250913E+02  0.54730175616E+02  0.47000000000E+01 0. -1.
          5    1    4    4  502    0 -0.74981987676E+02 -0.21529383751E+02 -0.82663750715E+02  0.11375938872E+03  0.47000000000E+01 0. -1.
         -5    1    4    4    0  502 -0.10737001767E+03  0.11870694998E+03 -0.96751799989E+02  0.18708998228E+03  0.47000000000E+01 0. -1.
<mgrwt>
<rscale>  0 0.50767788E+03</rscale>
<asrwt>0</asrwt>
<pdfrwt beam="1">  1       21 0.14282865E-01 0.50767788E+03</pdfrwt>
<pdfrwt beam="2">  1       21 0.10677619E+00 0.50767788E+03</pdfrwt>
<totfact> 0.26880710E+04</totfact>
</mgrwt>
</event>
<event>
 8    1  0.9400004E-006  0.2874714E+03  0.7546771E-02  0.1091677E+00
         21   -1    0    0  504  503  0.00000000000E+00  0.00000000000E+00  0.96889805258E+02  0.96889805258E+02  0.00000000000E+00 0.  1.
         21   -1    0    0  503  504 -0.00000000000E+00 -0.00000000000E+00 -0.21323139110E+03  0.21323139110E+03  0.00000000000E+00 0.  1.
         25    2    1    2    0    0 -0.24216916542E+02 -0.62852839757E+02 -0.82257889337E+02  0.16410062335E+03  0.12500286282E+03 0.  0.
         25    2    1    2    0    0  0.24216916542E+02  0.62852839757E+02 -0.34083696501E+02  0.14602057300E+03  0.12499348327E+03 0.  0.
          5    1    3    3  501    0  0.16575540231E+02 -0.87602223992E+02 -0.72875953864E+02  0.11524709469E+03  0.47000000000E+01 0.  1.
         -5    1    3    3    0  501 -0.40792456773E+02  0.24749384235E+02 -0.93819354731E+01  0.48853528663E+02  0.47000000000E+01 0.  1.
          5    1    4    4  502    0  0.96962730667E+01  0.79467491313E+02  0.24000234730E+02  0.83709026718E+02  0.47000000000E+01 0. -1.
         -5    1    4    4    0  502  0.14520643476E+02 -0.16614651556E+02 -0.58083931231E+02  0.62311546286E+02  0.47000000000E+01 0. -1.
<mgrwt>
<rscale>  0 0.28747138E+03</rscale>
<asrwt>0</asrwt>
<pdfrwt beam="1">  1       21 0.14906124E-01 0.28747138E+03</pdfrwt>
<pdfrwt beam="2">  1       21 0.32804829E-01 0.28747138E+03</pdfrwt>
<totfact> 0.34755489E+05</totfact>
</mgrwt>
</event>
<event>
 8    1  0.9400004E-006  0.2638366E+03  0.7546771E-02  0.1104860E+00
         21   -1    0    0  504  503  0.00000000000E+00  0.00000000000E+00  0.10900122298E+02  0.10900122298E+02  0.00000000000E+00 0.  1.
         21   -1    0    0  503  504 -0.00000000000E+00 -0.00000000000E+00 -0.15965361308E+04  0.15965361308E+04  0.00000000000E+00 0.  1.
         25    2    1    2    0    0 -0.34333099189E+02  0.12200247241E+01 -0.94188536430E+03  0.95076388719E+03  0.12499471807E+03 0.  0.
         25    2    1    2    0    0  0.34333099189E+02 -0.12200247241E+01 -0.64375064419E+03  0.65667236589E+03  0.12499381614E+03 0.  0.
          5    1    3    3  501    0 -0.19642733735E+02  0.51396025674E+02 -0.74360410991E+03  0.74565176237E+03  0.47000000000E+01 0.  1.
         -5    1    3    3    0  501 -0.14690365454E+02 -0.50176000950E+02 -0.19828125439E+03  0.20511212482E+03  0.47000000000E+01 0.  1.
          5    1    4    4  502    0 -0.23737137739E+02  0.41236067671E+02 -0.14352867895E+03  0.15128263835E+03  0.47000000000E+01 0. -1.
         -5    1    4    4    0  502  0.58070236928E+02 -0.42456092395E+02 -0.50022196524E+03  0.50538972754E+03  0.47000000000E+01 0. -1.
<mgrwt>
<rscale>  0 0.26383661E+03</rscale>
<asrwt>0</asrwt>
<pdfrwt beam="1">  1       21 0.16769430E-02 0.26383661E+03</pdfrwt>
<pdfrwt beam="2">  1       21 0.24562078E+00 0.26383661E+03</pdfrwt>
<totfact> 0.11082201E+05</totfact>
</mgrwt>
</event>
<event>
 8    1  0.9400004E-006  0.5366378E+03  0.7546771E-02  0.1004635E+00
         21   -1    0    0  504  503  0.00000000000E+00  0.00000000000E+00  0.24874009574E+03  0.24874009574E+03  0.00000000000E+00 0. -1.
         21   -1    0    0  503  504 -0.00000000000E+00 -0.00000000000E+00 -0.28943882806E+03  0.28943882806E+03  0.00000000000E+00 0. -1.
         25    2    1    2    0    0 -0.36747171609E+02 -0.22473045248E+03  0.47045599853E+02  0.26399471768E+03  0.12500316637E+03 0.  0.
         25    2    1    2    0    0  0.36747171609E+02  0.22473045248E+03 -0.87744332175E+02  0.27418420612E+03  0.12499512054E+03 0.  0.
          5    1    3    3  501    0  0.22385088916E+02 -0.67941035231E+02  0.63218307536E+02  0.95580965060E+02  0.47000000000E+01 0.  1.
         -5    1    3    3    0  501 -0.59132260525E+02 -0.15678941725E+03 -0.16172707683E+02  0.16841375262E+03  0.47000000000E+01 0.  1.
          5    1    4    4  502    0 -0.15885405915E+02 -0.44160420616E+01 -0.25843457898E+02  0.31013253050E+02  0.47000000000E+01 0. -1.
         -5    1    4    4    0  502  0.52632577524E+02  0.22914649454E+03 -0.61900874277E+02  0.24317095307E+03  0.47000000000E+01 0. -1.
<mgrwt>
<rscale>  0 0.53663784E+03</rscale>
<asrwt>0</asrwt>
<pdfrwt beam="1">  1       21 0.38267707E-01 0.53663784E+03</pdfrwt>
<pdfrwt beam="2">  1       21 0.44529050E-01 0.53663784E+03</pdfrwt>
<totfact> 0.28513136E+04</totfact>
</mgrwt>
</event>
<event>
 8    1  0.9400004E-006  0.7741240E+03  0.7546771E-02  0.9598246E-01
         21   -1    0    0  504  503  0.00000000000E+00  0.00000000000E+00  0.48823352230E+03  0.48823352230E+03  0.00000000000E+00 0. -1.
         21   -1    0    0  503  504 -0.00000000000E+00 -0.00000000000E+00 -0.30685516021E+03  0.30685516021E+03  0.00000000000E+00 0. -1.
         25    2    1    2    0    0 -0.71709258684E+02  0.27433032448E+03  0.32890149303E+03  0.45188593275E+03  0.12500143756E+03 0.  0.
         25    2    1    2    0    0  0.71709258684E+02 -0.27433032448E+03 -0.14752313094E+03  0.34320274975E+03  0.12500283422E+03 0.  0.
          5    1    3    3  501    0 -0.46671472641E+01 -0.12784902542E+02  0.21886136415E+02  0.26197880902E+02  0.47000000000E+01 0.  1.
         -5    1    3    3    0  501 -0.67042111420E+02  0.28711522702E+03  0.30701535662E+03  0.42568805185E+03  0.47000000000E+01 0. -1.
          5    1    4    4  502    0 -0.73381627940E+01 -0.12842618754E+03 -0.12706055729E+02  0.12934708397E+03  0.47000000000E+01 0. -1.
         -5    1    4    4    0  502  0.79047421478E+02 -0.14590413694E+03 -0.13481707521E+03  0.21385566579E+03  0.47000000000E+01 0. -1.
<mgrwt>
<rscale>  0 0.77412396E+03</rscale>
<asrwt>0</asrwt>
<pdfrwt beam="1">  1       21 0.75112849E-01 0.77412396E+03</pdfrwt>
<pdfrwt beam="2">  1       21 0.47208486E-01 0.77412396E+03</pdfrwt>
<totfact> 0.55627600E+03</totfact>
</mgrwt>
</event>
<event>
 8    1  0.9400004E-006  0.2693995E+03  0.7546771E-02  0.1101624E+00
         21   -1    0    0  504  503  0.00000000000E+00  0.00000000000E+00  0.22888449491E+02  0.22888449491E+02  0.00000000000E+00 0. -1.
         21   -1    0    0  503  504 -0.00000000000E+00 -0.00000000000E+00 -0.79271528801E+03  0.79271528801E+03  0.00000000000E+00 0. -1.
         25    2    1    2    0    0  0.10565362593E+02  0.19648370479E+02 -0.24878152771E+03  0.27931072650E+03  0.12499819222E+03 0.  0.
         25    2    1    2    0    0 -0.10565362593E+02 -0.19648370479E+02 -0.52104531080E+03  0.53629301100E+03  0.12499716951E+03 0.  0.
          5    1    3    3  501    0  0.22370949581E+02 -0.32574689362E+02 -0.20456570093E+02  0.44745178870E+02  0.47000000000E+01 0. -1.
         -5    1    3    3    0  501 -0.11805586988E+02  0.52223059841E+02 -0.22832495762E+03  0.23456554763E+03  0.47000000000E+01 0. -1.
          5    1    4    4  502    0 -0.39070349215E+02 -0.54387942970E+02 -0.17716803071E+03  0.18946013205E+03  0.47000000000E+01 0. -1.
         -5    1    4    4    0  502  0.28504986622E+02  0.34739572491E+02 -0.34387728009E+03  0.34683287895E+03  0.47000000000E+01 0. -1.
<mgrwt>
<rscale>  0 0.26939951E+03</rscale>
<asrwt>0</asrwt>
<pdfrwt beam="1">  1       21 0.35213006E-02 0.26939951E+03</pdfrwt>
<pdfrwt beam="2">  1       21 0.12195617E+00 0.26939951E+03</pdfrwt>
<totfact> 0.24004638E+05</totfact>
</mgrwt>
</event>
<event>
 8    1  0.9400004E-006  0.3178649E+03  0.7546771E-02  0.1076636E+00
         21   -1    0    0  504  503  0.00000000000E+00  0.00000000000E+00  0.14259894434E+03  0.14259894434E+03  0.00000000000E+00 0. -1.
         21   -1    0    0  503  504 -0.00000000000E+00 -0.00000000000E+00 -0.17713682469E+03  0.17713682469E+03  0.00000000000E+00 0. -1.
         25    2    1    2    0    0 -0.40386019799E+01  0.27511850385E+02 -0.11195752391E+03  0.17009453341E+03  0.12499780365E+03 0.  0.
         25    2    1    2    0    0  0.40386019799E+01 -0.27511850385E+02  0.77419643558E+02  0.14964123562E+03  0.12500194387E+03 0.  0.
          5    1    3    3  501    0 -0.36222862008E+02  0.57416191429E+02 -0.24892393872E+02  0.72459892651E+02  0.47000000000E+01 0. -1.
         -5    1    3    3    0  501  0.32184260028E+02 -0.29904341044E+02 -0.87065130039E+02  0.97634640756E+02  0.47000000000E+01 0. -1.
          5    1    4    4  502    0  0.48207787125E+02 -0.54469886664E+02  0.61296353901E+02  0.95238082164E+02  0.47000000000E+01 0.  1.
         -5    1    4    4    0  502 -0.44169185145E+02  0.26958036279E+02  0.16123289657E+02  0.54403153454E+02  0.47000000000E+01 0.  1.
<mgrwt>
<rscale>  0 0.31786490E+03</rscale>
<asrwt>0</asrwt>
<pdfrwt beam="1">  1       21 0.21938299E-01 0.31786490E+03</pdfrwt>
<pdfrwt beam="2">  1       21 0.27251819E-01 0.31786490E+03</pdfrwt>
<totfact> 0.24165793E+05</totfact>
</mgrwt>
</event>
<event>
 8    1  0.9400004E-006  0.2714194E+03  0.7546771E-02  0.1100470E+00
         21   -1    0    0  504  503  0.00000000000E+00  0.00000000000E+00  0.70372239528E+03  0.70372239528E+03  0.00000000000E+00 0.  1.
         21   -1    0    0  503  504 -0.00000000000E+00 -0.00000000000E+00 -0.26171013234E+02  0.26171013234E+02  0.00000000000E+00 0.  1.
         25    2    1    2    0    0  0.50486651646E+02 -0.15474220216E+02  0.34429068597E+03  0.37006606852E+03  0.12499786055E+03 0.  0.
         25    2    1    2    0    0 -0.50486651646E+02  0.15474220216E+02  0.33326069608E+03  0.35982733999E+03  0.12499867827E+03 0.  0.
          5    1    3    3  501    0 -0.79790963347E+01 -0.44502374116E+02  0.45960437975E+02  0.64641930194E+02  0.47000000000E+01 0.  1.
         -5    1    3    3    0  501  0.58465747981E+02  0.29028153900E+02  0.29833024799E+03  0.30542413833E+03  0.47000000000E+01 0.  1.
          5    1    4    4  502    0  0.22641606264E+01  0.53451750732E+02  0.24074675215E+03  0.24666435646E+03  0.47000000000E+01 0.  1.
         -5    1    4    4    0  502 -0.52750812272E+02 -0.37977530516E+02  0.92513943928E+02  0.11316298353E+03  0.47000000000E+01 0.  1.
<mgrwt>
<rscale>  0 0.27141944E+03</rscale>
<asrwt>0</asrwt>
<pdfrwt beam="1">  1       21 0.10826497E+00 0.27141944E+03</pdfrwt>
<pdfrwt beam="2">  1       21 0.40263103E-02 0.27141944E+03</pdfrwt>
<totfact> 0.25692627E+05</totfact>
</mgrwt>
</event>
<event>
 8    1  0.9400004E-006  0.4677890E+03  0.7546771E-02  0.1022546E+00
         21   -1    0    0  504  503  0.00000000000E+00  0.00000000000E+00  0.14153572938E+03  0.14153572938E+03  0.00000000000E+00 0.  1.
         21   -1    0    0  503  504 -0.00000000000E+00 -0.00000000000E+00 -0.38652177059E+03  0.38652177059E+03  0.00000000000E+00 0.  1.
         25    2    1    2    0    0  0.67721328964E+02  0.17639161256E+03 -0.18810242388E+03  0.29447719281E+03  0.12503645802E+03 0.  0.
         25    2    1    2    0    0 -0.67721328964E+02 -0.17639161256E+03 -0.56883617334E+02  0.23358030717E+03  0.12499533830E+03 0.  0.
          5    1    3    3  501    0  0.90299317352E+02  0.11834794804E+03 -0.78575459377E+02  0.16839357569E+03  0.47000000000E+01 0. -1.
         -5    1    3    3    0  501 -0.22577988387E+02  0.58043664525E+02 -0.10952696450E+03  0.12608361711E+03  0.47000000000E+01 0. -1.
          5    1    4    4  502    0 -0.41091725688E+02 -0.19087728139E+03 -0.54718977157E+02  0.20282732294E+03  0.47000000000E+01 0.  1.
         -5    1    4    4    0  502 -0.26629603276E+02  0.14485668824E+02 -0.21646401773E+01  0.30752984230E+02  0.47000000000E+01 0.  1.
<mgrwt>
<rscale>  0 0.46778902E+03</rscale>
<asrwt>0</asrwt>
<pdfrwt beam="1">  1       21 0.21774728E-01 0.46778902E+03</pdfrwt>
<pdfrwt beam="2">  1       21 0.59464887E-01 0.46778902E+03</pdfrwt>
<totfact> 0.47628433E+04</totfact>
</mgrwt>
</event>
<event>
 8    1  0.9400004E-006  0.3621301E+03  0.7546771E-02  0.1057744E+00
         21   -1    0    0  504  503  0.00000000000E+00  0.00000000000E+00  0.10682109730E+03  0.10682109730E+03  0.00000000000E+00 0.  1.
         21   -1    0    0  503  504 -0.00000000000E+00 -0.00000000000E+00 -0.30691085794E+03  0.30691085794E+03  0.00000000000E+00 0.  1.
         25    2    1    2    0    0  0.98826223173E+02 -0.23040144362E+02 -0.19467814539E+03  0.25263689095E+03  0.12501339022E+03 0.  0.
         25    2    1    2    0    0 -0.98826223173E+02  0.23040144362E+02 -0.54116152522E+01  0.16109506429E+03  0.12499945408E+03 0.  0.
          5    1    3    3  501    0  0.79107234896E+02 -0.70297937531E+02 -0.10434652044E+03  0.14869445505E+03  0.47000000000E+01 0.  1.
         -5    1    3    3    0  501  0.19718988276E+02  0.47257793170E+02 -0.90331624954E+02  0.10394243590E+03  0.47000000000E+01 0.  1.
          5    1    4    4  502    0 -0.10354355369E+03 -0.21428179953E+02 -0.29780681578E+02  0.10995186857E+03  0.47000000000E+01 0.  1.
         -5    1    4    4    0  502  0.47173305203E+01  0.44468324314E+02  0.24369066326E+02  0.51143195717E+02  0.47000000000E+01 0.  1.
<mgrwt>
<rscale>  0 0.36213011E+03</rscale>
<asrwt>0</asrwt>
<pdfrwt beam="1">  1       21 0.16434015E-01 0.36213011E+03</pdfrwt>
<pdfrwt beam="2">  1       21 0.47217055E-01 0.36213011E+03</pdfrwt>
<totfact> 0.13590285E+05</totfact>
</mgrwt>
</event>
<event>
 8    1  0.9400004E-006  0.2905059E+03  0.7546771E-02  0.1090085E+00
         21   -1    0    0  504  503  0.00000000000E+00  0.00000000000E+00  0.61151502090E+03  0.61151502090E+03  0.00000000000E+00 0. -1.
         21   -1    0    0  503  504 -0.00000000000E+00 -0.00000000000E+00 -0.34501887100E+02  0.34501887100E+02  0.00000000000E+00 0. -1.
         25    2    1    2    0    0 -0.57309356898E+02  0.25033310543E+02  0.20061086910E+03  0.24450167102E+03  0.12500126921E+03 0.  0.
         25    2    1    2    0    0  0.57309356898E+02 -0.25033310543E+02  0.37640226470E+03  0.40151523698E+03  0.12499916652E+03 0.  0.
          5    1    3    3  501    0  0.19707400169E+02  0.53423454311E+02  0.91667151076E+02  0.10801575662E+03  0.47000000000E+01 0. -1.
         -5    1    3    3    0  501 -0.77016757068E+02 -0.28390143767E+02  0.10894371802E+03  0.13648591440E+03  0.47000000000E+01 0. -1.
          5    1    4    4  502    0  0.17478588243E+02  0.50362773276E+02  0.12395395391E+03  0.13501326849E+03  0.47000000000E+01 0. -1.
         -5    1    4    4    0  502  0.39830768655E+02 -0.75396083820E+02  0.25244831079E+03  0.26650196849E+03  0.47000000000E+01 0. -1.
<mgrwt>
<rscale>  0 0.29050592E+03</rscale>
<asrwt>0</asrwt>
<pdfrwt beam="1">  1       21 0.94079226E-01 0.29050592E+03</pdfrwt>
<pdfrwt beam="2">  1       21 0.53079831E-02 0.29050592E+03</pdfrwt>
<totfact> 0.22387931E+05</totfact>
</mgrwt>
</event>
<event>
 8    1  0.9400004E-006  0.2912736E+03  0.7546771E-02  0.1089686E+00
         21   -1    0    0  504  503  0.00000000000E+00  0.00000000000E+00  0.12364651680E+03  0.12364651680E+03  0.00000000000E+00 0. -1.
         21   -1    0    0  503  504 -0.00000000000E+00 -0.00000000000E+00 -0.17153806531E+03  0.17153806531E+03  0.00000000000E+00 0. -1.
         25    2    1    2    0    0  0.21568899403E+02 -0.62197975928E+02 -0.59792089573E+02  0.15340747313E+03  0.12499981282E+03 0.  0.
         25    2    1    2    0    0 -0.21568899403E+02  0.62197975928E+02  0.11900541061E+02  0.14177710898E+03  0.12500128048E+03 0.  0.
          5    1    3    3  501    0 -0.11493568290E+02 -0.91169914005E+02 -0.58781440836E+02  0.10918517811E+03  0.47000000000E+01 0.  1.
         -5    1    3    3    0  501  0.33062467693E+02  0.28971938077E+02 -0.10106487365E+01  0.44222295019E+02  0.47000000000E+01 0.  1.
          5    1    4    4  502    0  0.30269052676E+02  0.79359813200E+02 -0.25241582060E+01  0.85103800594E+02  0.47000000000E+01 0. -1.
         -5    1    4    4    0  502 -0.51837952079E+02 -0.17161837271E+02  0.14424699267E+02  0.56673308384E+02  0.47000000000E+01 0. -1.
<mgrwt>
<rscale>  0 0.29127365E+03</rscale>
<asrwt>0</asrwt>
<pdfrwt beam="1">  1       21 0.19022541E-01 0.29127365E+03</pdfrwt>
<pdfrwt beam="2">  1       21 0.26390472E-01 0.29127365E+03</pdfrwt>
<totfact> 0.33861085E+05</totfact>
</mgrwt>
</event>
<event>
 8    1  0.9400004E-006  0.3651170E+03  0.7546771E-02  0.1056576E+00
         21   -1    0    0  504  503  0.00000000000E+00  0.00000000000E+00  0.13461931925E+03  0.13461931925E+03  0.00000000000E+00 0. -1.
         21   -1    0    0  503  504 -0.00000000000E+00 -0.00000000000E+00 -0.24756920947E+03  0.24756920947E+03  0.00000000000E+00 0. -1.
         25    2    1    2    0    0 -0.31945701229E+02 -0.88430435745E+02  0.42071495279E+02  0.16197620816E+03  0.12500324597E+03 0.  0.
         25    2    1    2    0    0  0.31945701229E+02  0.88430435745E+02 -0.15502138550E+03  0.22021232056E+03  0.12498546464E+03 0.  0.
          5    1    3    3  501    0  0.41283599834E+02 -0.68812800726E+02  0.24149574131E+02  0.83933480148E+02  0.47000000000E+01 0. -1.
         -5    1    3    3    0  501 -0.73229301063E+02 -0.19617635019E+02  0.17921921148E+02  0.78042728012E+02  0.47000000000E+01 0. -1.
          5    1    4    4  502    0 -0.29872070840E+02  0.69464184116E+02 -0.34257675095E+02  0.83146207334E+02  0.47000000000E+01 0. -1.
         -5    1    4    4    0  502  0.61817772069E+02  0.18966251629E+02 -0.12076371040E+03  0.13706611323E+03  0.47000000000E+01 0. -1.
<mgrwt>
<rscale>  0 0.36511696E+03</rscale>
<asrwt>0</asrwt>
<pdfrwt beam="1">  1       21 0.20710664E-01 0.36511696E+03</pdfrwt>
<pdfrwt beam="2">  1       21 0.38087571E-01 0.36511696E+03</pdfrwt>
<totfact> 0.13709063E+05</totfact>
</mgrwt>
</event>
<event>
 8    1  0.9400004E-006  0.2965422E+03  0.7546771E-02  0.1086982E+00
         21   -1    0    0  504  503  0.00000000000E+00  0.00000000000E+00  0.31071558235E+03  0.31071558235E+03  0.00000000000E+00 0.  1.
         21   -1    0    0  503  504 -0.00000000000E+00 -0.00000000000E+00 -0.70753853930E+02  0.70753853930E+02  0.00000000000E+00 0.  1.
         25    2    1    2    0    0 -0.46867892615E+00 -0.71528793507E+02  0.16532001945E+03  0.21925360830E+03  0.12499939185E+03 0.  0.
         25    2    1    2    0    0  0.46867892615E+00  0.71528793507E+02  0.74641708974E+02  0.16221582798E+03  0.12500400861E+03 0.  0.
          5    1    3    3  501    0 -0.41966279879E+01 -0.10718224862E+03  0.13130074068E+03  0.16961020195E+03  0.47000000000E+01 0. -1.
         -5    1    3    3    0  501  0.37279490617E+01  0.35653455110E+02  0.34019278770E+02  0.49643406344E+02  0.47000000000E+01 0. -1.
          5    1    4    4  502    0  0.48560743224E+02  0.33036446873E+02  0.80942662951E+02  0.10011671833E+03  0.47000000000E+01 0.  1.
         -5    1    4    4    0  502 -0.48092064298E+02  0.38492346633E+02 -0.63009539777E+01  0.62099109646E+02  0.47000000000E+01 0.  1.
<mgrwt>
<rscale>  0 0.29654224E+03</rscale>
<asrwt>0</asrwt>
<pdfrwt beam="1">  1       21 0.47802397E-01 0.29654224E+03</pdfrwt>
<pdfrwt beam="2">  1       21 0.10885208E-01 0.29654224E+03</pdfrwt>
<totfact> 0.28489116E+05</totfact>
</mgrwt>
</event>
<event>
 8    1  0.9400004E-006  0.2626629E+03  0.7546771E-02  0.1105554E+00
         21   -1    0    0  504  503  0.00000000000E+00  0.00000000000E+00  0.58423201405E+03  0.58423201405E+03  0.00000000000E+00 0.  1.
         21   -1    0    0  503  504 -0.00000000000E+00 -0.00000000000E+00 -0.29522420844E+02  0.29522420844E+02  0.00000000000E+00 0.  1.
         25    2    1    2    0    0  0.30751345355E+02  0.25440564564E+02  0.26477540649E+03  0.29550630742E+03  0.12500037711E+03 0.  0.
         25    2    1    2    0    0 -0.30751345355E+02 -0.25440564564E+02  0.28993418671E+03  0.31824812747E+03  0.12500868149E+03 0.  0.
          5    1    3    3  501    0  0.46589331065E+02 -0.11426131441E+02  0.24649589225E+03  0.25116416374E+03  0.47000000000E+01 0. -1.
         -5    1    3    3    0  501 -0.15837985710E+02  0.36866696005E+02  0.18279514238E+02  0.44342143683E+02  0.47000000000E+01 0. -1.
          5    1    4    4  502    0 -0.41741780449E+02 -0.53553701484E+02  0.27671380814E+03  0.28496139527E+03  0.47000000000E+01 0. -1.
         -5    1    4    4    0  502  0.10990435094E+02  0.28113136921E+02  0.13220378572E+02  0.33286732202E+02  0.47000000000E+01 0. -1.
<mgrwt>
<rscale>  0 0.26266285E+03</rscale>
<asrwt>0</asrwt>
<pdfrwt beam="1">  1       21 0.89881840E-01 0.26266285E+03</pdfrwt>
<pdfrwt beam="2">  1       21 0.45419113E-02 0.26266285E+03</pdfrwt>
<totfact> 0.32735892E+05</totfact>
</mgrwt>
</event>
<event>
 8    1  0.9400004E-006  0.2704542E+03  0.7546771E-02  0.1101020E+00
         21   -1    0    0  504  503  0.00000000000E+00  0.00000000000E+00  0.12439392725E+02  0.12439392725E+02  0.00000000000E+00 0.  1.
         21   -1    0    0  503  504 -0.00000000000E+00 -0.00000000000E+00 -0.14700371751E+04  0.14700371751E+04  0.00000000000E+00 0.  1.
         25    2    1    2    0    0 -0.28549294789E+02  0.42192711237E+02 -0.77302295495E+03  0.78471946479E+03  0.12499944966E+03 0.  0.
         25    2    1    2    0    0  0.28549294789E+02 -0.42192711237E+02 -0.68457482747E+03  0.69775710309E+03  0.12500797330E+03 0.  0.
          5    1    3    3  501    0  0.10793061438E+02 -0.14349913112E+02 -0.56953464330E+03  0.56983700310E+03  0.47000000000E+01 0.  1.
         -5    1    3    3    0  501 -0.39342356227E+02  0.56542624349E+02 -0.20348831166E+03  0.21488246169E+03  0.47000000000E+01 0.  1.
          5    1    4    4  502    0 -0.46015835103E+02 -0.17066501554E+02 -0.37839302226E+03  0.38159152487E+03  0.47000000000E+01 0.  1.
         -5    1    4    4    0  502  0.74565129892E+02 -0.25126209682E+02 -0.30618180520E+03  0.31616557821E+03  0.47000000000E+01 0.  1.
<mgrwt>
<rscale>  0 0.27045421E+03</rscale>
<asrwt>0</asrwt>
<pdfrwt beam="1">  1       21 0.19137539E-02 0.27045421E+03</pdfrwt>
<pdfrwt beam="2">  1       21 0.22615943E+00 0.27045421E+03</pdfrwt>
<totfact> 0.11696536E+05</totfact>
</mgrwt>
</event>
<event>
 8    1  0.9400004E-006  0.3511541E+03  0.7546771E-02  0.1062142E+00
         21   -1    0    0  504  503  0.00000000000E+00  0.00000000000E+00  0.72411033425E+03  0.72411033425E+03  0.00000000000E+00 0. -1.
         21   -1    0    0  503  504 -0.00000000000E+00 -0.00000000000E+00 -0.42572645973E+02  0.42572645973E+02  0.00000000000E+00 0. -1.
         25    2    1    2    0    0  0.95259448644E+02  0.83699744313E+01  0.51070091983E+03  0.53440195598E+03  0.12500240802E+03 0.  0.
         25    2    1    2    0    0 -0.95259448644E+02 -0.83699744313E+01  0.17083676845E+03  0.23228102425E+03  0.12499941497E+03 0.  0.
          5    1    3    3  501    0 -0.17748120758E+02  0.34088731536E+02  0.17483289736E+03  0.17906889570E+03  0.47000000000E+01 0. -1.
         -5    1    3    3    0  501  0.11300756940E+03 -0.25718757104E+02  0.33586802246E+03  0.35533306027E+03  0.47000000000E+01 0. -1.
          5    1    4    4  502    0 -0.13765326104E+02  0.52105776841E+02  0.43718156685E+02  0.69554751145E+02  0.47000000000E+01 0.  1.
         -5    1    4    4    0  502 -0.81494122540E+02 -0.60475751272E+02  0.12711861177E+03  0.16272627310E+03  0.47000000000E+01 0.  1.
<mgrwt>
<rscale>  0 0.35115406E+03</rscale>
<asrwt>0</asrwt>
<pdfrwt beam="1">  1       21 0.11140158E+00 0.35115406E+03</pdfrwt>
<pdfrwt beam="2">  1       21 0.65496384E-02 0.35115406E+03</pdfrwt>
<totfact> 0.10183504E+05</totfact>
</mgrwt>
</event>
<event>
 8    1  0.9400004E-006  0.5083526E+03  0.7546771E-02  0.1011621E+00
         21   -1    0    0  504  503  0.00000000000E+00  0.00000000000E+00  0.15475859741E+03  0.15475859741E+03  0.00000000000E+00 0. -1.
         21   -1    0    0  503  504 -0.00000000000E+00 -0.00000000000E+00 -0.41746041823E+03  0.41746041823E+03  0.00000000000E+00 0. -1.
         25    2    1    2    0    0 -0.93213964119E+02  0.90949744268E+02 -0.33277302109E+03  0.37858112431E+03  0.12500034013E+03 0.  0.
         25    2    1    2    0    0  0.93213964119E+02 -0.90949744268E+02  0.70071200279E+02  0.19363789132E+03  0.12499984304E+03 0.  0.
          5    1    3    3  501    0 -0.69300536227E+02  0.31389306373E+02 -0.29339746512E+03  0.30313695818E+03  0.47000000000E+01 0. -1.
         -5    1    3    3    0  501 -0.23913427892E+02  0.59560437894E+02 -0.39375555972E+02  0.75444166135E+02  0.47000000000E+01 0. -1.
          5    1    4    4  502    0  0.49233802629E+02  0.22261190420E+02  0.18759292216E+01  0.54269116730E+02  0.47000000000E+01 0.  1.
         -5    1    4    4    0  502  0.43980161490E+02 -0.11321093469E+03  0.68195271057E+02  0.13936877459E+03  0.47000000000E+01 0.  1.
<mgrwt>
<rscale>  0 0.50835259E+03</rscale>
<asrwt>0</asrwt>
<pdfrwt beam="1">  1       21 0.23809015E-01 0.50835259E+03</pdfrwt>
<pdfrwt beam="2">  1       21 0.64224678E-01 0.50835259E+03</pdfrwt>
<totfact> 0.33532323E+04</totfact>
</mgrwt>
</event>
<event>
 8    1  0.9400004E-006  0.2702773E+03  0.7546771E-02  0.1101121E+00
         21   -1    0    0  504  503  0.00000000000E+00  0.00000000000E+00  0.80292174783E+02  0.80292174783E+02  0.00000000000E+00 0. -1.
         21   -1    0    0  503  504 -0.00000000000E+00 -0.00000000000E+00 -0.22744995049E+03  0.22744995049E+03  0.00000000000E+00 0. -1.
         25    2    1    2    0    0  0.51007622791E+01 -0.49818579185E+02 -0.86515751566E+02  0.16005665052E+03  0.12500098999E+03 0.  0.
         25    2    1    2    0    0 -0.51007622791E+01  0.49818579185E+02 -0.60642024140E+02  0.14768547476E+03  0.12500254299E+03 0.  0.
          5    1    3    3  501    0 -0.56512082275E+02 -0.44275838571E+02 -0.54402961209E+02  0.90198323224E+02  0.47000000000E+01 0.  1.
         -5    1    3    3    0  501  0.61612844554E+02 -0.55427406143E+01 -0.32112790358E+02  0.69858327293E+02  0.47000000000E+01 0.  1.
          5    1    4    4  502    0 -0.34683380131E+02  0.78717680183E+02 -0.17826383025E+02  0.87973177517E+02  0.47000000000E+01 0. -1.
         -5    1    4    4    0  502  0.29582617851E+02 -0.28899100998E+02 -0.42815641115E+02  0.59712297239E+02  0.47000000000E+01 0. -1.
<mgrwt>
<rscale>  0 0.27027727E+03</rscale>
<asrwt>0</asrwt>
<pdfrwt beam="1">  1       21 0.12352643E-01 0.27027727E+03</pdfrwt>
<pdfrwt beam="2">  1       21 0.34992299E-01 0.27027727E+03</pdfrwt>
<totfact> 0.43167111E+05</totfact>
</mgrwt>
</event>
<event>
 8    1  0.9400004E-006  0.3754406E+03  0.7546771E-02  0.1052632E+00
         21   -1    0    0  504  503  0.00000000000E+00  0.00000000000E+00  0.89274857774E+02  0.89274857774E+02  0.00000000000E+00 0.  1.
         21   -1    0    0  503  504 -0.00000000000E+00 -0.00000000000E+00 -0.39472384417E+03  0.39472384417E+03  0.00000000000E+00 0.  1.
         25    2    1    2    0    0 -0.12986318297E+03  0.46578635553E+02 -0.18377263646E+03  0.26159283574E+03  0.12499765687E+03 0.  0.
         25    2    1    2    0    0  0.12986318297E+03 -0.46578635553E+02 -0.12167634994E+03  0.22240586620E+03  0.12500087841E+03 0.  0.
          5    1    3    3  501    0 -0.12134721162E+03  0.78642453972E+02 -0.17479661115E+03  0.22690466413E+03  0.47000000000E+01 0. -1.
         -5    1    3    3    0  501 -0.85159713531E+01 -0.32063818419E+02 -0.89760253038E+01  0.34688171614E+02  0.47000000000E+01 0. -1.
          5    1    4    4  502    0  0.13965642214E+03 -0.58147779499E+02 -0.13413047137E+03  0.20223291981E+03  0.47000000000E+01 0.  1.
         -5    1    4    4    0  502 -0.97932391751E+01  0.11569143947E+02  0.12454121431E+02  0.20172946384E+02  0.47000000000E+01 0.  1.
<mgrwt>
<rscale>  0 0.37544062E+03</rscale>
<asrwt>0</asrwt>
<pdfrwt beam="1">  1       21 0.13734593E-01 0.37544062E+03</pdfrwt>
<pdfrwt beam="2">  1       21 0.60726745E-01 0.37544062E+03</pdfrwt>
<totfact> 0.11015126E+05</totfact>
</mgrwt>
</event>
<event>
 8    1  0.9400004E-006  0.3611014E+03  0.7546771E-02  0.1058149E+00
         21   -1    0    0  504  503  0.00000000000E+00  0.00000000000E+00  0.51881986648E+03  0.51881986648E+03  0.00000000000E+00 0. -1.
         21   -1    0    0  503  504 -0.00000000000E+00 -0.00000000000E+00 -0.62832135760E+02  0.62832135760E+02  0.00000000000E+00 0. -1.
         25    2    1    2    0    0  0.35927634790E+01  0.13005584707E+03  0.23891757303E+03  0.29938894497E+03  0.12499880944E+03 0.  0.
         25    2    1    2    0    0 -0.35927634790E+01 -0.13005584707E+03  0.21707015769E+03  0.28226305727E+03  0.12500219531E+03 0.  0.
          5    1    3    3  501    0 -0.26296889232E+02  0.94344125027E+01  0.13316379687E+03  0.13614411966E+03  0.47000000000E+01 0. -1.
         -5    1    3    3    0  501  0.29889652711E+02  0.12062143457E+03  0.10575377616E+03  0.16324482531E+03  0.47000000000E+01 0. -1.
          5    1    4    4  502    0 -0.24378729998E+02  0.88374409630E+01  0.86571841198E+02  0.90494179523E+02  0.47000000000E+01 0.  1.
         -5    1    4    4    0  502  0.20785966519E+02 -0.13889328804E+03  0.13049831649E+03  0.19176887775E+03  0.47000000000E+01 0.  1.
<mgrwt>
<rscale>  0 0.36110143E+03</rscale>
<asrwt>0</asrwt>
<pdfrwt beam="1">  1       21 0.79818438E-01 0.36110143E+03</pdfrwt>
<pdfrwt beam="2">  1       21 0.96664828E-02 0.36110143E+03</pdfrwt>
<totfact> 0.11312487E+05</totfact>
</mgrwt>
</event>
<event>
 8    1  0.9400004E-006  0.2919934E+03  0.7546771E-02  0.1089313E+00
         21   -1    0    0  504  503  0.00000000000E+00  0.00000000000E+00  0.19682136856E+03  0.19682136856E+03  0.00000000000E+00 0.  1.
         21   -1    0    0  503  504 -0.00000000000E+00 -0.00000000000E+00 -0.10829634320E+03  0.10829634320E+03  0.00000000000E+00 0.  1.
         25    2    1    2    0    0  0.36915886280E+02 -0.32845716274E+02  0.10381808671E+03  0.16983706130E+03  0.12499923410E+03 0.  0.
         25    2    1    2    0    0 -0.36915886280E+02  0.32845716274E+02 -0.15293061359E+02  0.13528065046E+03  0.12500141169E+03 0.  0.
          5    1    3    3  501    0  0.12701658814E+02  0.23886827908E+02  0.10442132518E+03  0.10797136582E+03  0.47000000000E+01 0.  1.
         -5    1    3    3    0  501  0.24214227466E+02 -0.56732544182E+02 -0.60323846633E+00  0.61865695485E+02  0.47000000000E+01 0.  1.
          5    1    4    4  502    0  0.60736528778E+01 -0.68338000829E+01 -0.60393625493E+02  0.61262305564E+02  0.47000000000E+01 0.  1.
         -5    1    4    4    0  502 -0.42989539158E+02  0.39679516357E+02  0.45100564135E+02  0.74018344892E+02  0.47000000000E+01 0.  1.
<mgrwt>
<rscale>  0 0.29199339E+03</rscale>
<asrwt>0</asrwt>
<pdfrwt beam="1">  1       21 0.30280211E-01 0.29199339E+03</pdfrwt>
<pdfrwt beam="2">  1       21 0.16660976E-01 0.29199339E+03</pdfrwt>
<totfact> 0.33134906E+05</totfact>
</mgrwt>
</event>
<event>
 8    1  0.9400004E-006  0.3146644E+03  0.7546771E-02  0.1078131E+00
         21   -1    0    0  504  503  0.00000000000E+00  0.00000000000E+00  0.60472830119E+02  0.60472830119E+02  0.00000000000E+00 0. -1.
         21   -1    0    0  503  504 -0.00000000000E+00 -0.00000000000E+00 -0.40933118733E+03  0.40933118733E+03  0.00000000000E+00 0. -1.
         25    2    1    2    0    0 -0.10969472170E+02  0.31389344546E+02 -0.40691739104E+02  0.13559477583E+03  0.12499802131E+03 0.  0.
         25    2    1    2    0    0  0.10969472170E+02 -0.31389344546E+02 -0.30816661811E+03  0.33420924161E+03  0.12499412944E+03 0.  0.
          5    1    3    3  501    0  0.31025899489E+02 -0.36947353117E+02 -0.21258017434E+02  0.52931150060E+02  0.47000000000E+01 0.  1.
         -5    1    3    3    0  501 -0.41995371659E+02  0.68336697663E+02 -0.19433721670E+02  0.82663625775E+02  0.47000000000E+01 0.  1.
          5    1    4    4  502    0  0.22872674589E+02 -0.41347331163E+01  0.85014015853E+00  0.23729053902E+02  0.47000000000E+01 0.  1.
         -5    1    4    4    0  502 -0.11903202420E+02 -0.27254611429E+02 -0.30901675827E+03  0.31048018771E+03  0.47000000000E+01 0.  1.
<mgrwt>
<rscale>  0 0.31466436E+03</rscale>
<asrwt>0</asrwt>
<pdfrwt beam="1">  1       21 0.93035120E-02 0.31466436E+03</pdfrwt>
<pdfrwt beam="2">  1       21 0.62974031E-01 0.31466436E+03</pdfrwt>
<totfact> 0.20823728E+05</totfact>
</mgrwt>
</event>
<event>
 8    1  0.9400004E-006  0.8448535E+03  0.7546771E-02  0.9497271E-01
         21   -1    0    0  504  503  0.00000000000E+00  0.00000000000E+00  0.27948741958E+03  0.27948741958E+03  0.00000000000E+00 0.  1.
         21   -1    0    0  503  504 -0.00000000000E+00 -0.00000000000E+00 -0.63847004873E+03  0.63847004873E+03  0.00000000000E+00 0.  1.
         25    2    1    2    0    0  0.27765319276E+01 -0.36558773184E+03  0.60427924526E+01  0.38642230457E+03  0.12499433319E+03 0.  0.
         25    2    1    2    0    0 -0.27765319276E+01  0.36558773184E+03 -0.36502542160E+03  0.53153516373E+03  0.12499589221E+03 0.  0.
          5    1    3    3  501    0  0.35227290343E+02 -0.29151130200E+03  0.44024494578E+02  0.29695125408E+03  0.47000000000E+01 0.  1.
         -5    1    3    3    0  501 -0.32450758416E+02 -0.74076429839E+02 -0.37981702125E+02  0.89471050490E+02  0.47000000000E+01 0.  1.
          5    1    4    4  502    0 -0.48414261080E+02  0.27212704510E+03 -0.22155327640E+03  0.35426686782E+03  0.47000000000E+01 0.  1.
         -5    1    4    4    0  502  0.45637729153E+02  0.93460686740E+02 -0.14347214520E+03  0.17726829591E+03  0.47000000000E+01 0.  1.
<mgrwt>
<rscale>  0 0.84485347E+03</rscale>
<asrwt>0</asrwt>
<pdfrwt beam="1">  1       21 0.42998064E-01 0.84485347E+03</pdfrwt>
<pdfrwt beam="2">  1       21 0.98226162E-01 0.84485347E+03</pdfrwt>
<totfact> 0.35369593E+03</totfact>
</mgrwt>
</event>
<event>
 8    1  0.9400004E-006  0.2687636E+03  0.7546771E-02  0.1101989E+00
         21   -1    0    0  504  503  0.00000000000E+00  0.00000000000E+00  0.13952355289E+04  0.13952355289E+04  0.00000000000E+00 0. -1.
         21   -1    0    0  503  504 -0.00000000000E+00 -0.00000000000E+00 -0.12942948421E+02  0.12942948421E+02  0.00000000000E+00 0. -1.
         25    2    1    2    0    0  0.10303159584E+02  0.23229723022E+02  0.46954587401E+03  0.48656151080E+03  0.12499200320E+03 0.  0.
         25    2    1    2    0    0 -0.10303159584E+02 -0.23229723022E+02  0.91274670649E+03  0.92161696654E+03  0.12500203070E+03 0.  0.
          5    1    3    3  501    0  0.25109056644E+02 -0.17223809604E+02  0.41837306365E+03  0.41950594124E+03  0.47000000000E+01 0.  1.
         -5    1    3    3    0  501 -0.14805897060E+02  0.40453532626E+02  0.51172810357E+02  0.67055569564E+02  0.47000000000E+01 0.  1.
          5    1    4    4  502    0 -0.39108629808E+02  0.34862601173E+02  0.59296862700E+03  0.59529721022E+03  0.47000000000E+01 0.  1.
         -5    1    4    4    0  502  0.28805470223E+02 -0.58092324196E+02  0.31977807948E+03  0.32631975632E+03  0.47000000000E+01 0.  1.
<mgrwt>
<rscale>  0 0.26876355E+03</rscale>
<asrwt>0</asrwt>
<pdfrwt beam="1">  1       21 0.21465150E+00 0.26876355E+03</pdfrwt>
<pdfrwt beam="2">  1       21 0.19912239E-02 0.26876355E+03</pdfrwt>
<totfact> 0.12941440E+05</totfact>
</mgrwt>
</event>
<event>
 8    1  0.9400004E-006  0.2695365E+03  0.7546771E-02  0.1101545E+00
         21   -1    0    0  504  503  0.00000000000E+00  0.00000000000E+00  0.37906067274E+02  0.37906067274E+02  0.00000000000E+00 0. -1.
         21   -1    0    0  503  504 -0.00000000000E+00 -0.00000000000E+00 -0.47914434419E+03  0.47914434419E+03  0.00000000000E+00 0. -1.
         25    2    1    2    0    0 -0.12324332426E+02  0.31392953030E+02 -0.14885690558E+03  0.19728463666E+03  0.12500177140E+03 0.  0.
         25    2    1    2    0    0  0.12324332426E+02 -0.31392953030E+02 -0.29238137134E+03  0.31976577480E+03  0.12500351100E+03 0.  0.
          5    1    3    3  501    0  0.30345329476E+02 -0.33325683093E+02 -0.86637345112E+02  0.97773001093E+02  0.47000000000E+01 0. -1.
         -5    1    3    3    0  501 -0.42669661902E+02  0.64718636124E+02 -0.62219560471E+02  0.99511635569E+02  0.47000000000E+01 0. -1.
          5    1    4    4  502    0  0.16071627112E+02  0.47431786769E+02 -0.10707870238E+03  0.11830473405E+03  0.47000000000E+01 0. -1.
         -5    1    4    4    0  502 -0.37472946855E+01 -0.78824739800E+02 -0.18530266895E+03  0.20146104076E+03  0.47000000000E+01 0. -1.
<mgrwt>
<rscale>  0 0.26953647E+03</rscale>
<asrwt>0</asrwt>
<pdfrwt beam="1">  1       21 0.58317030E-02 0.26953647E+03</pdfrwt>
<pdfrwt beam="2">  1       21 0.73714510E-01 0.26953647E+03</pdfrwt>
<totfact> 0.33559311E+05</totfact>
</mgrwt>
</event>
<event>
 8    1  0.9400004E-006  0.2684993E+03  0.7546771E-02  0.1102142E+00
         21   -1    0    0  504  503  0.00000000000E+00  0.00000000000E+00  0.17010557148E+03  0.17010557148E+03  0.00000000000E+00 0.  1.
         21   -1    0    0  503  504 -0.00000000000E+00 -0.00000000000E+00 -0.10595168791E+03  0.10595168791E+03  0.00000000000E+00 0.  1.
         25    2    1    2    0    0  0.23340835101E+02 -0.41131018838E+02  0.45164530725E+02  0.14107049911E+03  0.12499798234E+03 0.  0.
         25    2    1    2    0    0 -0.23340835101E+02  0.41131018838E+02  0.18989352843E+02  0.13498676028E+03  0.12499709851E+03 0.  0.
          5    1    3    3  501    0  0.38889833802E+02  0.33750197647E+02 -0.81037544511E+00  0.51713071101E+02  0.47000000000E+01 0.  1.
         -5    1    3    3    0  501 -0.15548998701E+02 -0.74881216484E+02  0.45974906170E+02  0.89357428007E+02  0.47000000000E+01 0.  1.
          5    1    4    4  502    0 -0.42240230973E+02  0.57391778623E+02  0.55556401886E+02  0.90480147860E+02  0.47000000000E+01 0. -1.
         -5    1    4    4    0  502  0.18899395872E+02 -0.16260759786E+02 -0.36567049043E+02  0.44506612417E+02  0.47000000000E+01 0. -1.
<mgrwt>
<rscale>  0 0.26849933E+03</rscale>
<asrwt>0</asrwt>
<pdfrwt beam="1">  1       21 0.26170088E-01 0.26849933E+03</pdfrwt>
<pdfrwt beam="2">  1       21 0.16300260E-01 0.26849933E+03</pdfrwt>
<totfact> 0.46069049E+05</totfact>
</mgrwt>
</event>
<event>
 8    1  0.9400004E-006  0.2684256E+03  0.7546771E-02  0.1102184E+00
         21   -1    0    0  504  503  0.00000000000E+00  0.00000000000E+00  0.66351935613E+02  0.66351935613E+02  0.00000000000E+00 0. -1.
         21   -1    0    0  503  504 -0.00000000000E+00 -0.00000000000E+00 -0.27147780517E+03  0.27147780517E+03  0.00000000000E+00 0. -1.
         25    2    1    2    0    0  0.23272816699E+02  0.21639045650E+02 -0.55844125479E+02  0.14054744584E+03  0.12500058355E+03 0.  0.
         25    2    1    2    0    0 -0.23272816699E+02 -0.21639045650E+02 -0.14928174408E+03  0.19728229495E+03  0.12500156995E+03 0.  0.
          5    1    3    3  501    0  0.17290187489E+02  0.31886147344E+02 -0.93706654696E+02  0.10059176959E+03  0.47000000000E+01 0.  1.
         -5    1    3    3    0  501  0.59826292104E+01 -0.10247101694E+02  0.37862529217E+02  0.39955676243E+02  0.47000000000E+01 0.  1.
          5    1    4    4  502    0 -0.35300139147E+02 -0.57717642587E+02 -0.34133060730E+02  0.75924843921E+02  0.47000000000E+01 0.  1.
         -5    1    4    4    0  502  0.12027322448E+02  0.36078596937E+02 -0.11514868335E+03  0.12135745103E+03  0.47000000000E+01 0.  1.
<mgrwt>
<rscale>  0 0.26842562E+03</rscale>
<asrwt>0</asrwt>
<pdfrwt beam="1">  1       21 0.10207990E-01 0.26842562E+03</pdfrwt>
<pdfrwt beam="2">  1       21 0.41765816E-01 0.26842562E+03</pdfrwt>
<totfact> 0.42496417E+05</totfact>
</mgrwt>
</event>
<event>
 8    1  0.9400004E-006  0.2638892E+03  0.7546771E-02  0.1104829E+00
         21   -1    0    0  504  503  0.00000000000E+00  0.00000000000E+00  0.69248603043E+03  0.69248603043E+03  0.00000000000E+00 0. -1.
         21   -1    0    0  503  504 -0.00000000000E+00 -0.00000000000E+00 -0.25140404613E+02  0.25140404613E+02  0.00000000000E+00 0. -1.
         25    2    1    2    0    0  0.24725013222E+02  0.13423019518E+02  0.41942166789E+03  0.43855248211E+03  0.12498896084E+03 0.  0.
         25    2    1    2    0    0 -0.24725013222E+02 -0.13423019518E+02  0.24792395792E+03  0.27907395293E+03  0.12499791423E+03 0.  0.
          5    1    3    3  501    0  0.45902320466E+02  0.21540363047E+02  0.61340422665E+02  0.79722943479E+02  0.47000000000E+01 0.  1.
         -5    1    3    3    0  501 -0.21177307243E+02 -0.81173435297E+01  0.35808124523E+03  0.35882953863E+03  0.47000000000E+01 0.  1.
          5    1    4    4  502    0 -0.22004583585E+02 -0.68635832113E+02  0.15125015926E+03  0.16761199189E+03  0.47000000000E+01 0.  1.
         -5    1    4    4    0  502 -0.27204296375E+01  0.55212812596E+02  0.96673798663E+02  0.11146196105E+03  0.47000000000E+01 0.  1.
<mgrwt>
<rscale>  0 0.26388921E+03</rscale>
<asrwt>0</asrwt>
<pdfrwt beam="1">  1       21 0.10653630E+00 0.26388921E+03</pdfrwt>
<pdfrwt beam="2">  1       21 0.38677551E-02 0.26388921E+03</pdfrwt>
<totfact> 0.28649104E+05</totfact>
</mgrwt>
</event>
<event>
 8    1  0.9400004E-006  0.4110489E+03  0.7546771E-02  0.1040020E+00
         21   -1    0    0  504  503  0.00000000000E+00  0.00000000000E+00  0.75441131967E+03  0.75441131967E+03  0.00000000000E+00 0.  1.
         21   -1    0    0  503  504 -0.00000000000E+00 -0.00000000000E+00 -0.55991086871E+02  0.55991086871E+02  0.00000000000E+00 0.  1.
         25    2    1    2    0    0  0.15180954743E+03 -0.48573453579E+02  0.28059647707E+03  0.34606771364E+03  0.12499184131E+03 0.  0.
         25    2    1    2    0    0 -0.15180954743E+03  0.48573453579E+02  0.41782375573E+03  0.46433469290E+03  0.12499798837E+03 0.  0.
          5    1    3    3  501    0  0.13680509491E+03 -0.13766343819E+02  0.12510100548E+03  0.18595025622E+03  0.47000000000E+01 0.  1.
         -5    1    3    3    0  501  0.15004452521E+02 -0.34807109760E+02  0.15549547159E+03  0.16011745742E+03  0.47000000000E+01 0.  1.
          5    1    4    4  502    0 -0.99808923367E+02 -0.31279128478E+02  0.18241701962E+03  0.21032894263E+03  0.47000000000E+01 0. -1.
         -5    1    4    4    0  502 -0.52000624068E+02  0.79852582058E+02  0.23540673611E+03  0.25400575027E+03  0.47000000000E+01 0. -1.
<mgrwt>
<rscale>  0 0.41104895E+03</rscale>
<asrwt>0</asrwt>
<pdfrwt beam="1">  1       21 0.11606327E+00 0.41104895E+03</pdfrwt>
<pdfrwt beam="2">  1       21 0.86140139E-02 0.41104895E+03</pdfrwt>
<totfact> 0.55926960E+04</totfact>
</mgrwt>
</event>
<event>
 8    1  0.9400004E-006  0.2977759E+03  0.7546771E-02  0.1086358E+00
         21   -1    0    0  504  503  0.00000000000E+00  0.00000000000E+00  0.79229872411E+02  0.79229872411E+02  0.00000000000E+00 0.  1.
         21   -1    0    0  503  504 -0.00000000000E+00 -0.00000000000E+00 -0.27978873940E+03  0.27978873940E+03  0.00000000000E+00 0.  1.
         25    2    1    2    0    0  0.39771146317E+02  0.55361544432E+02 -0.15276302684E+03  0.20882621785E+03  0.12500080884E+03 0.  0.
         25    2    1    2    0    0 -0.39771146317E+02 -0.55361544432E+02 -0.47795840147E+02  0.15019239396E+03  0.12500667257E+03 0.  0.
          5    1    3    3  501    0  0.55891483339E+02 -0.22968287852E+02 -0.81792533756E+02  0.10180131991E+03  0.47000000000E+01 0.  1.
         -5    1    3    3    0  501 -0.16120337022E+02  0.78329832284E+02 -0.70970493083E+02  0.10702489794E+03  0.47000000000E+01 0.  1.
          5    1    4    4  502    0  0.27432635509E+02 -0.39518463156E+02  0.20917940346E+02  0.52667909105E+02  0.47000000000E+01 0. -1.
         -5    1    4    4    0  502 -0.67203781826E+02 -0.15843081277E+02 -0.68713780493E+02  0.97524484852E+02  0.47000000000E+01 0. -1.
<mgrwt>
<rscale>  0 0.29777593E+03</rscale>
<asrwt>0</asrwt>
<pdfrwt beam="1">  1       21 0.12189211E-01 0.29777593E+03</pdfrwt>
<pdfrwt beam="2">  1       21 0.43044421E-01 0.29777593E+03</pdfrwt>
<totfact> 0.28884394E+05</totfact>
</mgrwt>
</event>
<event>
 8    1  0.9400004E-006  0.2617515E+03  0.7546771E-02  0.1106095E+00
         21   -1    0    0  504  503  0.00000000000E+00  0.00000000000E+00  0.38073297854E+03  0.38073297854E+03  0.00000000000E+00 0. -1.
         21   -1    0    0  503  504 -0.00000000000E+00 -0.00000000000E+00 -0.44988114706E+02  0.44988114706E+02  0.00000000000E+00 0. -1.
         25    2    1    2    0    0  0.80191621277E+01 -0.22414592390E+02  0.11813283588E+03  0.17363618712E+03  0.12500975022E+03 0.  0.
         25    2    1    2    0    0 -0.80191621277E+01  0.22414592390E+02  0.21761202795E+03  0.25208490613E+03  0.12500033710E+03 0.  0.
          5    1    3    3  501    0  0.45596658227E+02 -0.58863937987E+02  0.72478009642E+02  0.10401524080E+03  0.47000000000E+01 0.  1.
         -5    1    3    3    0  501 -0.37577496099E+02  0.36449345597E+02  0.45654826243E+02  0.69620946322E+02  0.47000000000E+01 0.  1.
          5    1    4    4  502    0 -0.22357242325E+02  0.51818432770E+02  0.21088683395E+03  0.21835829042E+03  0.47000000000E+01 0. -1.
         -5    1    4    4    0  502  0.14338080197E+02 -0.29403840379E+02  0.67251939952E+01  0.33726615707E+02  0.47000000000E+01 0. -1.
<mgrwt>
<rscale>  0 0.26175148E+03</rscale>
<asrwt>0</asrwt>
<pdfrwt beam="1">  1       21 0.58574302E-01 0.26175148E+03</pdfrwt>
<pdfrwt beam="2">  1       21 0.69212487E-02 0.26175148E+03</pdfrwt>
<totfact> 0.41439928E+05</totfact>
</mgrwt>
</event>
<event>
 8    1  0.9400004E-006  0.3192384E+03  0.7546771E-02  0.1076000E+00
         21   -1    0    0  504  503  0.00000000000E+00  0.00000000000E+00  0.52558918593E+03  0.52558918593E+03  0.00000000000E+00 0. -1.
         21   -1    0    0  503  504 -0.00000000000E+00 -0.00000000000E+00 -0.48475662097E+02  0.48475662097E+02  0.00000000000E+00 0. -1.
         25    2    1    2    0    0  0.97884717720E+02 -0.91908356685E+01  0.26317132608E+03  0.30748800384E+03  0.12499534476E+03 0.  0.
         25    2    1    2    0    0 -0.97884717720E+02  0.91908356685E+01  0.21394219776E+03  0.26657684419E+03  0.12500424174E+03 0.  0.
          5    1    3    3  501    0  0.63438795099E+02 -0.58714271233E+02  0.93841643848E+02  0.12767219936E+03  0.47000000000E+01 0. -1.
         -5    1    3    3    0  501  0.34445922622E+02  0.49523435564E+02  0.16932968223E+03  0.17981580448E+03  0.47000000000E+01 0. -1.
          5    1    4    4  502    0 -0.39259974402E+02  0.62145977995E+02  0.66492671156E+02  0.99231212270E+02  0.47000000000E+01 0. -1.
         -5    1    4    4    0  502 -0.58624743318E+02 -0.52955142327E+02  0.14744952660E+03  0.16734563192E+03  0.47000000000E+01 0. -1.
<mgrwt>
<rscale>  0 0.31923837E+03</rscale>
<asrwt>0</asrwt>
<pdfrwt beam="1">  1       21 0.80859871E-01 0.31923837E+03</pdfrwt>
<pdfrwt beam="2">  1       21 0.74577946E-02 0.31923837E+03</pdfrwt>
<totfact> 0.17545771E+05</totfact>
</mgrwt>
</event>
<event>
 8    1  0.9400004E-006  0.3023941E+03  0.7546771E-02  0.1084050E+00
         21   -1    0    0  504  503  0.00000000000E+00  0.00000000000E+00  0.77846930921E+02  0.77846930921E+02  0.00000000000E+00 0. -1.
         21   -1    0    0  503  504 -0.00000000000E+00 -0.00000000000E+00 -0.29366021607E+03  0.29366021607E+03  0.00000000000E+00 0. -1.
         25    2    1    2    0    0 -0.61763193578E+02 -0.58222177152E+02 -0.11466846199E+03  0.18967943938E+03  0.12499967822E+03 0.  0.
         25    2    1    2    0    0  0.61763193578E+02  0.58222177152E+02 -0.10114482316E+03  0.18182770761E+03  0.12500610390E+03 0.  0.
          5    1    3    3  501    0 -0.32211192478E+02 -0.17985485751E+02  0.22613815570E+02  0.43526006861E+02  0.47000000000E+01 0.  1.
         -5    1    3    3    0  501 -0.29552001100E+02 -0.40236691401E+02 -0.13728227756E+03  0.14615343252E+03  0.47000000000E+01 0.  1.
          5    1    4    4  502    0  0.56673702073E+02  0.77216406292E+02 -0.12038896450E+03  0.15391515416E+03  0.47000000000E+01 0. -1.
         -5    1    4    4    0  502  0.50894915049E+01 -0.18994229140E+02  0.19244141340E+02  0.27912553454E+02  0.47000000000E+01 0. -1.
<mgrwt>
<rscale>  0 0.30239409E+03</rscale>
<asrwt>0</asrwt>
<pdfrwt beam="1">  1       21 0.11976451E-01 0.30239409E+03</pdfrwt>
<pdfrwt beam="2">  1       21 0.45178494E-01 0.30239409E+03</pdfrwt>
<totfact> 0.26951791E+05</totfact>
</mgrwt>
</event>
<event>
 8    1  0.9400004E-006  0.3082651E+03  0.7546771E-02  0.1081180E+00
         21   -1    0    0  504  503  0.00000000000E+00  0.00000000000E+00  0.42337808184E+02  0.42337808184E+02  0.00000000000E+00 0.  1.
         21   -1    0    0  503  504 -0.00000000000E+00 -0.00000000000E+00 -0.56112599439E+03  0.56112599439E+03  0.00000000000E+00 0.  1.
         25    2    1    2    0    0 -0.73499411812E+02 -0.40054454087E+02 -0.19377444746E+03  0.24531233396E+03  0.12499232727E+03 0.  0.
         25    2    1    2    0    0  0.73499411812E+02  0.40054454087E+02 -0.32501373874E+03  0.35815146861E+03  0.12502808191E+03 0.  0.
          5    1    3    3  501    0 -0.58982641644E+02  0.38351817034E+02 -0.93764953836E+02  0.11731909671E+03  0.47000000000E+01 0.  1.
         -5    1    3    3    0  501 -0.14516770169E+02 -0.78406271120E+02 -0.10000949363E+03  0.12799323725E+03  0.47000000000E+01 0.  1.
          5    1    4    4  502    0  0.34047502907E+02  0.59006350036E+02 -0.29968189113E+03  0.30736347810E+03  0.47000000000E+01 0. -1.
         -5    1    4    4    0  502  0.39451908905E+02 -0.18951895950E+02 -0.25331847611E+02  0.50787990507E+02  0.47000000000E+01 0. -1.
<mgrwt>
<rscale>  0 0.30826511E+03</rscale>
<asrwt>0</asrwt>
<pdfrwt beam="1">  1       21 0.65135087E-02 0.30826511E+03</pdfrwt>
<pdfrwt beam="2">  1       21 0.86327079E-01 0.30826511E+03</pdfrwt>
<totfact> 0.19154034E+05</totfact>
</mgrwt>
</event>
<event>
 8    1  0.9400004E-006  0.2974766E+03  0.7546771E-02  0.1086509E+00
         21   -1    0    0  504  503  0.00000000000E+00  0.00000000000E+00  0.24232150611E+03  0.24232150611E+03  0.00000000000E+00 0. -1.
         21   -1    0    0  503  504 -0.00000000000E+00 -0.00000000000E+00 -0.91296424709E+02  0.91296424709E+02  0.00000000000E+00 0. -1.
         25    2    1    2    0    0  0.62904589865E+02 -0.50410309064E+02  0.75271643809E+02  0.16669764309E+03  0.12499638860E+03 0.  0.
         25    2    1    2    0    0 -0.62904589865E+02  0.50410309064E+02  0.75753437594E+02  0.16692028773E+03  0.12500244983E+03 0.  0.
          5    1    3    3  501    0 -0.30135942727E+02 -0.44565022045E+02  0.38739573503E+02  0.66460971924E+02  0.47000000000E+01 0. -1.
         -5    1    3    3    0  501  0.93040532592E+02 -0.58452870187E+01  0.36532070306E+02  0.10023667116E+03  0.47000000000E+01 0. -1.
          5    1    4    4  502    0 -0.18540725225E+02  0.63159005054E+02 -0.12545123639E+02  0.67173570237E+02  0.47000000000E+01 0.  1.
         -5    1    4    4    0  502 -0.44363864640E+02 -0.12748695990E+02  0.88298561233E+02  0.99746717495E+02  0.47000000000E+01 0.  1.
<mgrwt>
<rscale>  0 0.29747664E+03</rscale>
<asrwt>0</asrwt>
<pdfrwt beam="1">  1       21 0.37280232E-01 0.29747664E+03</pdfrwt>
<pdfrwt beam="2">  1       21 0.14045604E-01 0.29747664E+03</pdfrwt>
<totfact> 0.29935521E+05</totfact>
</mgrwt>
</event>
<event>
 8    1  0.9400004E-006  0.2520288E+03  0.7546771E-02  0.1112029E+00
         21   -1    0    0  504  503  0.00000000000E+00  0.00000000000E+00  0.10295325126E+02  0.10295325126E+02  0.00000000000E+00 0. -1.
         21   -1    0    0  503  504 -0.00000000000E+00 -0.00000000000E+00 -0.15424111396E+04  0.15424111396E+04  0.00000000000E+00 0. -1.
         25    2    1    2    0    0  0.86161707921E+01  0.13360113158E+02 -0.75418243916E+03  0.76463521205E+03  0.12499249960E+03 0.  0.
         25    2    1    2    0    0 -0.86161707921E+01 -0.13360113158E+02 -0.77793337534E+03  0.78807125270E+03  0.12499292713E+03 0.  0.
          5    1    3    3  501    0  0.62664199589E+02  0.29178315809E+02 -0.39359696261E+03  0.39964838922E+03  0.47000000000E+01 0. -1.
         -5    1    3    3    0  501 -0.54048028797E+02 -0.15818202652E+02 -0.36058547654E+03  0.36498682284E+03  0.47000000000E+01 0. -1.
          5    1    4    4  502    0 -0.11062303668E+02  0.43405364295E+02 -0.58909647064E+03  0.59081565817E+03  0.47000000000E+01 0.  1.
         -5    1    4    4    0  502  0.24461328756E+01 -0.56765477453E+02 -0.18883690470E+03  0.19725559453E+03  0.47000000000E+01 0.  1.
<mgrwt>
<rscale>  0 0.25202876E+03</rscale>
<asrwt>0</asrwt>
<pdfrwt beam="1">  1       21 0.15838963E-02 0.25202876E+03</pdfrwt>
<pdfrwt beam="2">  1       21 0.23729401E+00 0.25202876E+03</pdfrwt>
<totfact> 0.13731611E+05</totfact>
</mgrwt>
</event>
<event>
 8    1  0.9400004E-006  0.2703492E+03  0.7546771E-02  0.1101080E+00
         21   -1    0    0  504  503  0.00000000000E+00  0.00000000000E+00  0.90483786409E+01  0.90483786409E+01  0.00000000000E+00 0. -1.
         21   -1    0    0  503  504 -0.00000000000E+00 -0.00000000000E+00 -0.20193868342E+04  0.20193868342E+04  0.00000000000E+00 0. -1.
         25    2    1    2    0    0 -0.44610693178E+02 -0.23229279764E+01 -0.81290332331E+03  0.82366500594E+03  0.12496687169E+03 0.  0.
         25    2    1    2    0    0  0.44610693178E+02  0.23229279764E+01 -0.11974351323E+04  0.12047702069E+04  0.12499938222E+03 0.  0.
          5    1    3    3  501    0  0.18476022127E+02  0.23269493201E+02 -0.58477882411E+03  0.58555204366E+03  0.47000000000E+01 0. -1.
         -5    1    3    3    0  501 -0.63086715305E+02 -0.25592421178E+02 -0.22812449921E+03  0.23811296228E+03  0.47000000000E+01 0. -1.
          5    1    4    4  502    0 -0.42076981857E+02 -0.13138420237E+02 -0.36780020704E+03  0.37046210708E+03  0.47000000000E+01 0. -1.
         -5    1    4    4    0  502  0.86687675035E+02  0.15461348214E+02 -0.82963492525E+03  0.83430809986E+03  0.47000000000E+01 0. -1.
<mgrwt>
<rscale>  0 0.27034923E+03</rscale>
<asrwt>0</asrwt>
<pdfrwt beam="1">  1       21 0.13920592E-02 0.27034923E+03</pdfrwt>
<pdfrwt beam="2">  1       21 0.31067468E+00 0.27034923E+03</pdfrwt>
<totfact> 0.61724049E+04</totfact>
</mgrwt>
</event>
<event>
 8    1  0.9400004E-006  0.3846397E+03  0.7546771E-02  0.1049232E+00
         21   -1    0    0  504  503  0.00000000000E+00  0.00000000000E+00  0.19762177419E+02  0.19762177419E+02  0.00000000000E+00 0. -1.
         21   -1    0    0  503  504 -0.00000000000E+00 -0.00000000000E+00 -0.18716021611E+04  0.18716021611E+04  0.00000000000E+00 0. -1.
         25    2    1    2    0    0 -0.33658384431E+02 -0.10872821159E+03 -0.13768067649E+04  0.13871458844E+04  0.12498850282E+03 0.  0.
         25    2    1    2    0    0  0.33658384431E+02  0.10872821159E+03 -0.47503321876E+03  0.50421845412E+03  0.12499991884E+03 0.  0.
          5    1    3    3  501    0 -0.14999404044E+02  0.25944493706E+02 -0.16889491472E+03  0.17159743907E+03  0.47000000000E+01 0. -1.
         -5    1    3    3    0  501 -0.18658980387E+02 -0.13467270530E+03 -0.12079118502E+04  0.12155484453E+04  0.47000000000E+01 0. -1.
          5    1    4    4  502    0  0.68497697789E+02  0.28633805307E+02 -0.29247158655E+03  0.30178394316E+03  0.47000000000E+01 0.  1.
         -5    1    4    4    0  502 -0.34839313359E+02  0.80094406282E+02 -0.18256163221E+03  0.20243451096E+03  0.47000000000E+01 0.  1.
<mgrwt>
<rscale>  0 0.38463975E+03</rscale>
<asrwt>0</asrwt>
<pdfrwt beam="1">  1       21 0.30403341E-02 0.38463975E+03</pdfrwt>
<pdfrwt beam="2">  1       21 0.28793888E+00 0.38463975E+03</pdfrwt>
<totfact> 0.21825218E+04</totfact>
</mgrwt>
</event>
<event>
 8    1  0.9400004E-006  0.3006412E+03  0.7546771E-02  0.1084921E+00
         21   -1    0    0  504  503  0.00000000000E+00  0.00000000000E+00  0.62708044545E+02  0.62708044545E+02  0.00000000000E+00 0.  1.
         21   -1    0    0  503  504 -0.00000000000E+00 -0.00000000000E+00 -0.36034108131E+03  0.36034108131E+03  0.00000000000E+00 0.  1.
         25    2    1    2    0    0 -0.36096226782E+02  0.47751881469E+02 -0.23073268203E+03  0.26915923115E+03  0.12500376547E+03 0.  0.
         25    2    1    2    0    0  0.36096226782E+02 -0.47751881469E+02 -0.66900354734E+02  0.15388989471E+03  0.12499304964E+03 0.  0.
          5    1    3    3  501    0  0.11546387016E+02  0.58422194202E+02 -0.39211242025E+02  0.71456863419E+02  0.47000000000E+01 0. -1.
         -5    1    3    3    0  501 -0.47642613798E+02 -0.10670312733E+02 -0.19152144001E+03  0.19770236773E+03  0.47000000000E+01 0. -1.
          5    1    4    4  502    0  0.74007840321E+02 -0.15059815255E+02 -0.70576349301E+02  0.10347497062E+03  0.47000000000E+01 0. -1.
         -5    1    4    4    0  502 -0.37911613539E+02 -0.32692066215E+02  0.36759945676E+01  0.50414924086E+02  0.47000000000E+01 0. -1.
<mgrwt>
<rscale>  0 0.30064121E+03</rscale>
<asrwt>0</asrwt>
<pdfrwt beam="1">  1       21 0.96473914E-02 0.30064121E+03</pdfrwt>
<pdfrwt beam="2">  1       21 0.55437090E-01 0.30064121E+03</pdfrwt>
<totfact> 0.25808715E+05</totfact>
</mgrwt>
</event>
<event>
 8    1  0.9400004E-006  0.3849104E+03  0.7546771E-02  0.1049134E+00
         21   -1    0    0  504  503  0.00000000000E+00  0.00000000000E+00  0.12077124437E+04  0.12077124437E+04  0.00000000000E+00 0.  1.
         21   -1    0    0  503  504 -0.00000000000E+00 -0.00000000000E+00 -0.30668720694E+02  0.30668720694E+02  0.00000000000E+00 0.  1.
         25    2    1    2    0    0 -0.84479998307E+02 -0.73821740518E+01  0.97223491957E+03  0.98389892425E+03  0.12499995081E+03 0.  0.
         25    2    1    2    0    0  0.84479998307E+02  0.73821740518E+01  0.20480880344E+03  0.25448224015E+03  0.12499279170E+03 0.  0.
          5    1    3    3  501    0 -0.50201185401E+02 -0.65564534691E+02  0.57953175581E+03  0.58540414520E+03  0.47000000000E+01 0.  1.
         -5    1    3    3    0  501 -0.34278812906E+02  0.58182360639E+02  0.39270316376E+03  0.39849477905E+03  0.47000000000E+01 0.  1.
          5    1    4    4  502    0  0.37405317010E+02  0.53446268124E+02  0.16473259602E+03  0.17724158516E+03  0.47000000000E+01 0. -1.
         -5    1    4    4    0  502  0.47074681297E+02 -0.46064094073E+02  0.40076207414E+02  0.77240654986E+02  0.47000000000E+01 0. -1.
<mgrwt>
<rscale>  0 0.38491036E+03</rscale>
<asrwt>0</asrwt>
<pdfrwt beam="1">  1       21 0.18580188E+00 0.38491036E+03</pdfrwt>
<pdfrwt beam="2">  1       21 0.47182657E-02 0.38491036E+03</pdfrwt>
<totfact> 0.45197766E+04</totfact>
</mgrwt>
</event>
<event>
 8    1  0.9400004E-006  0.4802503E+03  0.7546771E-02  0.1019066E+00
         21   -1    0    0  504  503  0.00000000000E+00  0.00000000000E+00  0.85195374209E+02  0.85195374209E+02  0.00000000000E+00 0. -1.
         21   -1    0    0  503  504 -0.00000000000E+00 -0.00000000000E+00 -0.67679833054E+03  0.67679833054E+03  0.00000000000E+00 0. -1.
         25    2    1    2    0    0  0.62097363329E+02 -0.38501460051E+02 -0.59974859082E+03  0.61697768321E+03  0.12499857768E+03 0.  0.
         25    2    1    2    0    0 -0.62097363329E+02  0.38501460051E+02  0.81456344912E+01  0.14501602154E+03  0.12499940074E+03 0.  0.
          5    1    3    3  501    0  0.39177466110E+02 -0.79037752011E+02 -0.27412850312E+03  0.28801105242E+03  0.47000000000E+01 0. -1.
         -5    1    3    3    0  501  0.22919897218E+02  0.40536291960E+02 -0.32562008771E+03  0.32896663079E+03  0.47000000000E+01 0. -1.
          5    1    4    4  502    0  0.48990206615E+01 -0.25348861048E+02  0.39295224791E+02  0.47252194142E+02  0.47000000000E+01 0.  1.
         -5    1    4    4    0  502 -0.66996383990E+02  0.63850321099E+02 -0.31149590299E+02  0.97763827401E+02  0.47000000000E+01 0.  1.
<mgrwt>
<rscale>  0 0.48025030E+03</rscale>
<asrwt>0</asrwt>
<pdfrwt beam="1">  1       21 0.13106981E-01 0.48025030E+03</pdfrwt>
<pdfrwt beam="2">  1       21 0.10412282E+00 0.48025030E+03</pdfrwt>
<totfact> 0.33729132E+04</totfact>
</mgrwt>
</event>
<event>
 8    1  0.9400004E-006  0.3277976E+03  0.7546771E-02  0.1072116E+00
         21   -1    0    0  504  503  0.00000000000E+00  0.00000000000E+00  0.17496929731E+03  0.17496929731E+03  0.00000000000E+00 0.  1.
         21   -1    0    0  503  504 -0.00000000000E+00 -0.00000000000E+00 -0.15352872461E+03  0.15352872461E+03  0.00000000000E+00 0.  1.
         25    2    1    2    0    0  0.72339297905E+01  0.10471028991E+03 -0.41803489648E+01  0.16327519253E+03  0.12499895450E+03 0.  0.
         25    2    1    2    0    0 -0.72339297905E+01 -0.10471028991E+03  0.25620921662E+02  0.16522282938E+03  0.12500230865E+03 0.  0.
          5    1    3    3  501    0  0.60642040125E+02  0.24373691741E+02 -0.11033879747E+02  0.66448253415E+02  0.47000000000E+01 0. -1.
         -5    1    3    3    0  501 -0.53408110335E+02  0.80336598169E+02  0.68535307819E+01  0.96826939119E+02  0.47000000000E+01 0. -1.
          5    1    4    4  502    0 -0.43976754820E+02 -0.74268068368E+02 -0.30267995934E+02  0.91585711339E+02  0.47000000000E+01 0. -1.
         -5    1    4    4    0  502  0.36742825030E+02 -0.30442221542E+02  0.55888917596E+02  0.73637118042E+02  0.47000000000E+01 0. -1.
<mgrwt>
<rscale>  0 0.32779758E+03</rscale>
<asrwt>0</asrwt>
<pdfrwt beam="1">  1       21 0.26918353E-01 0.32779758E+03</pdfrwt>
<pdfrwt beam="2">  1       21 0.23619804E-01 0.32779758E+03</pdfrwt>
<totfact> 0.21447852E+05</totfact>
</mgrwt>
</event>
<event>
 8    1  0.9400004E-006  0.3439405E+03  0.7546771E-02  0.1065130E+00
         21   -1    0    0  504  503  0.00000000000E+00  0.00000000000E+00  0.50860456653E+02  0.50860456653E+02  0.00000000000E+00 0.  1.
         21   -1    0    0  503  504 -0.00000000000E+00 -0.00000000000E+00 -0.58146886971E+03  0.58146886971E+03  0.00000000000E+00 0.  1.
         25    2    1    2    0    0  0.65671572554E+01  0.11789300283E+03 -0.26965426366E+03  0.31981432140E+03  0.12500356232E+03 0.  0.
         25    2    1    2    0    0 -0.65671572554E+01 -0.11789300283E+03 -0.26095414940E+03  0.31251500497E+03  0.12500669010E+03 0.  0.
          5    1    3    3  501    0 -0.14697639312E+02  0.84568550737E+02 -0.56259314766E+02  0.10273782591E+03  0.47000000000E+01 0. -1.
         -5    1    3    3    0  501  0.21264796567E+02  0.33324452089E+02 -0.21339494889E+03  0.21707649549E+03  0.47000000000E+01 0. -1.
          5    1    4    4  502    0  0.21130772757E+02 -0.15819467012E+02  0.40781520591E+01  0.27119852840E+02  0.47000000000E+01 0. -1.
         -5    1    4    4    0  502 -0.27697930013E+02 -0.10207353581E+03 -0.26503230146E+03  0.28539515213E+03  0.47000000000E+01 0. -1.
<mgrwt>
<rscale>  0 0.34394053E+03</rscale>
<asrwt>0</asrwt>
<pdfrwt beam="1">  1       21 0.78246860E-02 0.34394053E+03</pdfrwt>
<pdfrwt beam="2">  1       21 0.89456745E-01 0.34394053E+03</pdfrwt>
<totfact> 0.12679736E+05</totfact>
</mgrwt>
</event>
<event>
 8    1  0.9400004E-006  0.2763271E+03  0.7546771E-02  0.1097712E+00
         21   -1    0    0  504  503  0.00000000000E+00  0.00000000000E+00  0.96997952342E+03  0.96997952342E+03  0.00000000000E+00 0.  1.
         21   -1    0    0  503  504 -0.00000000000E+00 -0.00000000000E+00 -0.19679963601E+02  0.19679963601E+02  0.00000000000E+00 0.  1.
         25    2    1    2    0    0  0.31155879245E+02 -0.95614254439E+01  0.65066646866E+03  0.66336581953E+03  0.12500098965E+03 0.  0.
         25    2    1    2    0    0 -0.31155879245E+02  0.95614254439E+01  0.29963309117E+03  0.32629366750E+03  0.12500183382E+03 0.  0.
          5    1    3    3  501    0 -0.25569921880E+02 -0.51417873569E+02  0.25364456619E+03  0.26010627556E+03  0.47000000000E+01 0. -1.
         -5    1    3    3    0  501  0.56725801125E+02  0.41856448125E+02  0.39702190247E+03  0.40325954397E+03  0.47000000000E+01 0. -1.
          5    1    4    4  502    0  0.43276543007E+02 -0.16286013148E+02  0.15114701103E+03  0.15813159818E+03  0.47000000000E+01 0.  1.
         -5    1    4    4    0  502 -0.74432422252E+02  0.25847438592E+02  0.14848608014E+03  0.16816206932E+03  0.47000000000E+01 0.  1.
<mgrwt>
<rscale>  0 0.27632707E+03</rscale>
<asrwt>0</asrwt>
<pdfrwt beam="1">  1       21 0.14922758E+00 0.27632707E+03</pdfrwt>
<pdfrwt beam="2">  1       21 0.30276875E-02 0.27632707E+03</pdfrwt>
<totfact> 0.18304433E+05</totfact>
</mgrwt>
</event>
<event>
 8    1  0.9400004E-006  0.3004698E+03  0.7546771E-02  0.1085006E+00
         21   -1    0    0  504  503  0.00000000000E+00  0.00000000000E+00  0.21657679572E+03  0.21657679572E+03  0.00000000000E+00 0. -1.
         21   -1    0    0  503  504 -0.00000000000E+00 -0.00000000000E+00 -0.10421487296E+03  0.10421487296E+03  0.00000000000E+00 0. -1.
         25    2    1    2    0    0 -0.59547068256E+02  0.52940102967E+02  0.82284365250E+02  0.16953468908E+03  0.12499114447E+03 0.  0.
         25    2    1    2    0    0  0.59547068256E+02 -0.52940102967E+02  0.30077557518E+02  0.15125697960E+03  0.12500202628E+03 0.  0.
          5    1    3    3  501    0 -0.91534982855E+02  0.68381339717E+01  0.51868905359E+02  0.10553618576E+03  0.47000000000E+01 0.  1.
         -5    1    3    3    0  501  0.31987914600E+02  0.46101968995E+02  0.30415459890E+02  0.63998503311E+02  0.47000000000E+01 0.  1.
          5    1    4    4  502    0  0.13003307661E+02 -0.87569856705E+02  0.28169119999E+02  0.93022336753E+02  0.47000000000E+01 0.  1.
         -5    1    4    4    0  502  0.46543760595E+02  0.34629753738E+02  0.19084375183E+01  0.58234642852E+02  0.47000000000E+01 0.  1.
<mgrwt>
<rscale>  0 0.30046979E+03</rscale>
<asrwt>0</asrwt>
<pdfrwt beam="1">  1       21 0.33319507E-01 0.30046979E+03</pdfrwt>
<pdfrwt beam="2">  1       21 0.16033057E-01 0.30046979E+03</pdfrwt>
<totfact> 0.29385963E+05</totfact>
</mgrwt>
</event>
<event>
 8    1  0.9400004E-006  0.2795500E+03  0.7546771E-02  0.1095935E+00
         21   -1    0    0  504  503  0.00000000000E+00  0.00000000000E+00  0.62007818948E+03  0.62007818948E+03  0.00000000000E+00 0. -1.
         21   -1    0    0  503  504 -0.00000000000E+00 -0.00000000000E+00 -0.31507389570E+02  0.31507389570E+02  0.00000000000E+00 0. -1.
         25    2    1    2    0    0 -0.48378639003E+02 -0.39125008670E+02  0.30924022328E+03  0.33930111608E+03  0.12499789063E+03 0.  0.
         25    2    1    2    0    0  0.48378639003E+02  0.39125008670E+02  0.27933057662E+03  0.31228446297E+03  0.12499902303E+03 0.  0.
          5    1    3    3  501    0 -0.37670503372E+02  0.34257145703E+02  0.58094675065E+02  0.77393152972E+02  0.47000000000E+01 0. -1.
         -5    1    3    3    0  501 -0.10708135632E+02 -0.73382154374E+02  0.25114554822E+03  0.26190796311E+03  0.47000000000E+01 0. -1.
          5    1    4    4  502    0  0.51502321116E+02  0.35708310078E+02  0.43664682687E+02  0.76526250418E+02  0.47000000000E+01 0.  1.
         -5    1    4    4    0  502 -0.31236821124E+01  0.34166985925E+01  0.23566589394E+03  0.23575821255E+03  0.47000000000E+01 0.  1.
<mgrwt>
<rscale>  0 0.27954996E+03</rscale>
<asrwt>0</asrwt>
<pdfrwt beam="1">  1       21 0.95396635E-01 0.27954996E+03</pdfrwt>
<pdfrwt beam="2">  1       21 0.48472912E-02 0.27954996E+03</pdfrwt>
<totfact> 0.25371466E+05</totfact>
</mgrwt>
</event>
<event>
 8    1  0.9400004E-006  0.2950923E+03  0.7546771E-02  0.1087720E+00
         21   -1    0    0  504  503  0.00000000000E+00  0.00000000000E+00  0.41939970587E+02  0.41939970587E+02  0.00000000000E+00 0. -1.
         21   -1    0    0  503  504 -0.00000000000E+00 -0.00000000000E+00 -0.51907212893E+03  0.51907212893E+03  0.00000000000E+00 0. -1.
         25    2    1    2    0    0 -0.63691386883E+02 -0.28667235067E+02 -0.30622629601E+03  0.33805018821E+03  0.12499992902E+03 0.  0.
         25    2    1    2    0    0  0.63691386883E+02  0.28667235067E+02 -0.17090586234E+03  0.22296191130E+03  0.12499918793E+03 0.  0.
          5    1    3    3  501    0 -0.71348655358E+02  0.34484704472E+02 -0.17242047772E+03  0.18981764039E+03  0.47000000000E+01 0.  1.
         -5    1    3    3    0  501  0.76572684741E+01 -0.63151939539E+02 -0.13380581829E+03  0.14823254783E+03  0.47000000000E+01 0.  1.
          5    1    4    4  502    0 -0.68656432002E+01  0.29664518168E+02 -0.14405971005E+03  0.14731738103E+03  0.47000000000E+01 0. -1.
         -5    1    4    4    0  502  0.70557030084E+02 -0.99728310098E+00 -0.26846152289E+02  0.75644530275E+02  0.47000000000E+01 0. -1.
<mgrwt>
<rscale>  0 0.29509232E+03</rscale>
<asrwt>0</asrwt>
<pdfrwt beam="1">  1       21 0.64523036E-02 0.29509232E+03</pdfrwt>
<pdfrwt beam="2">  1       21 0.79857246E-01 0.29509232E+03</pdfrwt>
<totfact> 0.23371562E+05</totfact>
</mgrwt>
</event>
<event>
 8    1  0.9400004E-006  0.3139921E+03  0.7546771E-02  0.1078448E+00
         21   -1    0    0  504  503  0.00000000000E+00  0.00000000000E+00  0.43061580645E+02  0.43061580645E+02  0.00000000000E+00 0. -1.
         21   -1    0    0  503  504 -0.00000000000E+00 -0.00000000000E+00 -0.57238385674E+03  0.57238385674E+03  0.00000000000E+00 0. -1.
         25    2    1    2    0    0  0.55024503648E+02  0.20736008944E+02 -0.11841084153E+03  0.18193450018E+03  0.12498542674E+03 0.  0.
         25    2    1    2    0    0 -0.55024503648E+02 -0.20736008944E+02 -0.41091143457E+03  0.43351093720E+03  0.12500339015E+03 0.  0.
          5    1    3    3  501    0  0.10411521816E+01 -0.34529924554E+02  0.60354974873E+01  0.35382437981E+02  0.47000000000E+01 0.  1.
         -5    1    3    3    0  501  0.53983351467E+02  0.55265933498E+02 -0.12444633901E+03  0.14655206220E+03  0.47000000000E+01 0.  1.
          5    1    4    4  502    0 -0.21379802667E+02  0.48423934396E+02 -0.10057013404E+03  0.11374715489E+03  0.47000000000E+01 0.  1.
         -5    1    4    4    0  502 -0.33644700982E+02 -0.69159943341E+02 -0.31034130053E+03  0.31976378231E+03  0.47000000000E+01 0.  1.
<mgrwt>
<rscale>  0 0.31399206E+03</rscale>
<asrwt>0</asrwt>
<pdfrwt beam="1">  1       21 0.66248587E-02 0.31399206E+03</pdfrwt>
<pdfrwt beam="2">  1       21 0.88059053E-01 0.31399206E+03</pdfrwt>
<totfact> 0.17732342E+05</totfact>
</mgrwt>
</event>
<event>
 8    1  0.9400004E-006  0.2732062E+03  0.7546771E-02  0.1099458E+00
         21   -1    0    0  504  503  0.00000000000E+00  0.00000000000E+00  0.33465332385E+02  0.33465332385E+02  0.00000000000E+00 0.  1.
         21   -1    0    0  503  504 -0.00000000000E+00 -0.00000000000E+00 -0.55760428272E+03  0.55760428272E+03  0.00000000000E+00 0.  1.
         25    2    1    2    0    0 -0.24991270297E+02 -0.30330198801E+02 -0.17854010309E+03  0.22146219426E+03  0.12499780207E+03 0.  0.
         25    2    1    2    0    0  0.24991270297E+02  0.30330198801E+02 -0.34559884724E+03  0.36960742084E+03  0.12500639095E+03 0.  0.
          5    1    3    3  501    0  0.50053179063E+02 -0.47433228818E+01 -0.83742089653E+02  0.97788789878E+02  0.47000000000E+01 0. -1.
         -5    1    3    3    0  501 -0.75044449360E+02 -0.25586875919E+02 -0.94798013441E+02  0.12367340438E+03  0.47000000000E+01 0. -1.
          5    1    4    4  502    0 -0.18588298539E+02 -0.13535928297E+02 -0.27351520981E+03  0.27452032018E+03  0.47000000000E+01 0.  1.
         -5    1    4    4    0  502  0.43579568836E+02  0.43866127098E+02 -0.72083637433E+02  0.95087100661E+02  0.47000000000E+01 0.  1.
<mgrwt>
<rscale>  0 0.27320624E+03</rscale>
<asrwt>0</asrwt>
<pdfrwt beam="1">  1       21 0.51485130E-02 0.27320624E+03</pdfrwt>
<pdfrwt beam="2">  1       21 0.85785269E-01 0.27320624E+03</pdfrwt>
<totfact> 0.29392287E+05</totfact>
</mgrwt>
</event>
<event>
 8    1  0.9400004E-006  0.2732858E+03  0.7546771E-02  0.1099414E+00
         21   -1    0    0  504  503  0.00000000000E+00  0.00000000000E+00  0.43691544505E+03  0.43691544505E+03  0.00000000000E+00 0.  1.
         21   -1    0    0  503  504 -0.00000000000E+00 -0.00000000000E+00 -0.42734299625E+02  0.42734299625E+02  0.00000000000E+00 0.  1.
         25    2    1    2    0    0 -0.16555743416E+00  0.55178217199E+02  0.20013611921E+03  0.24232545171E+03  0.12498998067E+03 0.  0.
         25    2    1    2    0    0  0.16555743416E+00 -0.55178217199E+02  0.19404502621E+03  0.23732429297E+03  0.12499873909E+03 0.  0.
          5    1    3    3  501    0  0.30077982233E+01 -0.45034134969E+01  0.17841846902E+03  0.17856250354E+03  0.47000000000E+01 0. -1.
         -5    1    3    3    0  501 -0.31733556574E+01  0.59681630696E+02  0.21717650194E+02  0.63762948164E+02  0.47000000000E+01 0. -1.
          5    1    4    4  502    0 -0.37817975839E+02  0.25457617689E+02  0.83422214921E+02  0.95182170270E+02  0.47000000000E+01 0. -1.
         -5    1    4    4    0  502  0.37983533274E+02 -0.80635834888E+02  0.11062281129E+03  0.14214212270E+03  0.47000000000E+01 0. -1.
<mgrwt>
<rscale>  0 0.27328575E+03</rscale>
<asrwt>0</asrwt>
<pdfrwt beam="1">  1       21 0.67217758E-01 0.27328575E+03</pdfrwt>
<pdfrwt beam="2">  1       21 0.65745079E-02 0.27328575E+03</pdfrwt>
<totfact> 0.33475362E+05</totfact>
</mgrwt>
</event>
<event>
 8    1  0.9400004E-006  0.2751513E+03  0.7546771E-02  0.1098367E+00
         21   -1    0    0  504  503  0.00000000000E+00  0.00000000000E+00  0.89988076782E+02  0.89988076782E+02  0.00000000000E+00 0. -1.
         21   -1    0    0  503  504 -0.00000000000E+00 -0.00000000000E+00 -0.21032845403E+03  0.21032845403E+03  0.00000000000E+00 0. -1.
         25    2    1    2    0    0 -0.50831383348E+02  0.11333165141E+02 -0.33678736914E+02  0.13954239445E+03  0.12500220943E+03 0.  0.
         25    2    1    2    0    0  0.50831383348E+02 -0.11333165141E+02 -0.86661640337E+02  0.16077413637E+03  0.12500325137E+03 0.  0.
          5    1    3    3  501    0  0.37670195974E+02  0.57773853683E+01  0.11263284169E+02  0.40017164026E+02  0.47000000000E+01 0. -1.
         -5    1    3    3    0  501 -0.88501579322E+02  0.55557797729E+01 -0.44942021083E+02  0.99525230421E+02  0.47000000000E+01 0. -1.
          5    1    4    4  502    0 -0.15150986542E+02  0.43893179069E+02 -0.16011617339E+02  0.49341923876E+02  0.47000000000E+01 0. -1.
         -5    1    4    4    0  502  0.65982369890E+02 -0.55226344211E+02 -0.70650022998E+02  0.11143221249E+03  0.47000000000E+01 0. -1.
<mgrwt>
<rscale>  0 0.27515125E+03</rscale>
<asrwt>0</asrwt>
<pdfrwt beam="1">  1       21 0.13844320E-01 0.27515125E+03</pdfrwt>
<pdfrwt beam="2">  1       21 0.32358224E-01 0.27515125E+03</pdfrwt>
<totfact> 0.40981107E+05</totfact>
</mgrwt>
</event>
<event>
 8    1  0.9400004E-006  0.3981884E+03  0.7546771E-02  0.1044409E+00
         21   -1    0    0  504  503  0.00000000000E+00  0.00000000000E+00  0.34851147367E+03  0.34851147367E+03  0.00000000000E+00 0. -1.
         21   -1    0    0  503  504 -0.00000000000E+00 -0.00000000000E+00 -0.11373659199E+03  0.11373659199E+03  0.00000000000E+00 0. -1.
         25    2    1    2    0    0 -0.85462618679E+02 -0.48123107189E+02 -0.21888222223E+02  0.16038649005E+03  0.12500015713E+03 0.  0.
         25    2    1    2    0    0  0.85462618679E+02  0.48123107189E+02  0.25666310390E+03  0.30186157561E+03  0.12499907716E+03 0.  0.
          5    1    3    3  501    0 -0.87475628230E+02  0.18241164038E+01 -0.51952868343E+02  0.10186512388E+03  0.47000000000E+01 0. -1.
         -5    1    3    3    0  501  0.20130095514E+01 -0.49947223592E+02  0.30064646120E+02  0.58521366170E+02  0.47000000000E+01 0. -1.
          5    1    4    4  502    0  0.64245407033E+02  0.69602862433E+02  0.25407368388E+03  0.27119652952E+03  0.47000000000E+01 0.  1.
         -5    1    4    4    0  502  0.21217211646E+02 -0.21479755245E+02  0.25894200137E+01  0.30665046085E+02  0.47000000000E+01 0.  1.
<mgrwt>
<rscale>  0 0.39818843E+03</rscale>
<asrwt>0</asrwt>
<pdfrwt beam="1">  1       21 0.53617149E-01 0.39818843E+03</pdfrwt>
<pdfrwt beam="2">  1       21 0.17497937E-01 0.39818843E+03</pdfrwt>
<totfact> 0.91601913E+04</totfact>
</mgrwt>
</event>
<event>
 8    1  0.9400004E-006  0.2763235E+03  0.7546771E-02  0.1097714E+00
         21   -1    0    0  504  503  0.00000000000E+00  0.00000000000E+00  0.47912464390E+03  0.47912464390E+03  0.00000000000E+00 0.  1.
         21   -1    0    0  503  504 -0.00000000000E+00 -0.00000000000E+00 -0.39840727290E+02  0.39840727290E+02  0.00000000000E+00 0.  1.
         25    2    1    2    0    0 -0.54822270673E+02  0.18551705518E+02  0.19970169042E+03  0.24260757090E+03  0.12501208406E+03 0.  0.
         25    2    1    2    0    0  0.54822270673E+02 -0.18551705518E+02  0.23958222619E+03  0.27635780029E+03  0.12499737412E+03 0.  0.
          5    1    3    3  501    0 -0.41915180845E+02 -0.17066865972E+02  0.68488230927E+01  0.46012570860E+02  0.47000000000E+01 0. -1.
         -5    1    3    3    0  501 -0.12907089828E+02  0.35618571490E+02  0.19285286733E+03  0.19659500004E+03  0.47000000000E+01 0. -1.
          5    1    4    4  502    0  0.97509181806E+01 -0.68261207201E+02  0.10196506202E+03  0.12318131631E+03  0.47000000000E+01 0.  1.
         -5    1    4    4    0  502  0.45071352492E+02  0.49709501683E+02  0.13761716416E+03  0.15317648398E+03  0.47000000000E+01 0.  1.
<mgrwt>
<rscale>  0 0.27632354E+03</rscale>
<asrwt>0</asrwt>
<pdfrwt beam="1">  1       21 0.73711480E-01 0.27632354E+03</pdfrwt>
<pdfrwt beam="2">  1       21 0.61293430E-02 0.27632354E+03</pdfrwt>
<totfact> 0.30756223E+05</totfact>
</mgrwt>
</event>
<event>
 8    1  0.9400004E-006  0.3172866E+03  0.7546771E-02  0.1076905E+00
         21   -1    0    0  504  503  0.00000000000E+00  0.00000000000E+00  0.79244226257E+02  0.79244226257E+02  0.00000000000E+00 0. -1.
         21   -1    0    0  503  504 -0.00000000000E+00 -0.00000000000E+00 -0.31759669735E+03  0.31759669735E+03  0.00000000000E+00 0. -1.
         25    2    1    2    0    0 -0.18755932665E+02 -0.95843723087E+02 -0.12174933853E+03  0.19996510264E+03  0.12500134629E+03 0.  0.
         25    2    1    2    0    0  0.18755932665E+02  0.95843723087E+02 -0.11660313256E+03  0.19687582097E+03  0.12500397631E+03 0.  0.
          5    1    3    3  501    0  0.34833430377E+02 -0.81917241988E+02 -0.11265718547E+03  0.14365769678E+03  0.47000000000E+01 0.  1.
         -5    1    3    3    0  501 -0.53589363042E+02 -0.13926481100E+02 -0.90921530641E+01  0.56307405857E+02  0.47000000000E+01 0.  1.
          5    1    4    4  502    0  0.66409836763E+02  0.39017257382E+02 -0.30082719647E+02  0.82823141777E+02  0.47000000000E+01 0.  1.
         -5    1    4    4    0  502 -0.47653904098E+02  0.56826465705E+02 -0.86520412917E+02  0.11405267920E+03  0.47000000000E+01 0.  1.
<mgrwt>
<rscale>  0 0.31728665E+03</rscale>
<asrwt>0</asrwt>
<pdfrwt beam="1">  1       21 0.12191420E-01 0.31728665E+03</pdfrwt>
<pdfrwt beam="2">  1       21 0.48861029E-01 0.31728665E+03</pdfrwt>
<totfact> 0.22087922E+05</totfact>
</mgrwt>
</event>
<event>
 8    1  0.9400004E-006  0.3314033E+03  0.7546771E-02  0.1070518E+00
         21   -1    0    0  504  503  0.00000000000E+00  0.00000000000E+00  0.84925937954E+02  0.84925937954E+02  0.00000000000E+00 0.  1.
         21   -1    0    0  503  504 -0.00000000000E+00 -0.00000000000E+00 -0.32330557097E+03  0.32330557097E+03  0.00000000000E+00 0.  1.
         25    2    1    2    0    0 -0.34813857716E+02 -0.96473878507E+02 -0.16380696879E+03  0.23017112679E+03  0.12500724243E+03 0.  0.
         25    2    1    2    0    0  0.34813857716E+02  0.96473878507E+02 -0.74572664224E+02  0.17806038213E+03  0.12500081405E+03 0.  0.
          5    1    3    3  501    0 -0.31252438249E+02 -0.11324752863E+03 -0.74678122503E+02  0.13928614295E+03  0.47000000000E+01 0.  1.
         -5    1    3    3    0  501 -0.35614194672E+01  0.16773650122E+02 -0.89128846288E+02  0.90884983840E+02  0.47000000000E+01 0.  1.
          5    1    4    4  502    0 -0.20206092194E+02  0.75473774188E+02  0.55981796921E+01  0.78472965840E+02  0.47000000000E+01 0. -1.
         -5    1    4    4    0  502  0.55019949911E+02  0.21000104319E+02 -0.80170843916E+02  0.99587416293E+02  0.47000000000E+01 0. -1.
<mgrwt>
<rscale>  0 0.33140325E+03</rscale>
<asrwt>0</asrwt>
<pdfrwt beam="1">  1       21 0.13065529E-01 0.33140325E+03</pdfrwt>
<pdfrwt beam="2">  1       21 0.49739319E-01 0.33140325E+03</pdfrwt>
<totfact> 0.18703992E+05</totfact>
</mgrwt>
</event>
<event>
 8    1  0.9400004E-006  0.2773595E+03  0.7546771E-02  0.1097140E+00
         21   -1    0    0  504  503  0.00000000000E+00  0.00000000000E+00  0.70022406018E+03  0.70022406018E+03  0.00000000000E+00 0.  1.
         21   -1    0    0  503  504 -0.00000000000E+00 -0.00000000000E+00 -0.27465592261E+02  0.27465592261E+02  0.00000000000E+00 0.  1.
         25    2    1    2    0    0 -0.87341679083E+01 -0.33324910922E+02  0.20729592759E+03  0.24450598142E+03  0.12499895190E+03 0.  0.
         25    2    1    2    0    0  0.87341679083E+01  0.33324910922E+02  0.46546254033E+03  0.48318367102E+03  0.12499699243E+03 0.  0.
          5    1    3    3  501    0 -0.59713026036E+02  0.12185160423E+02  0.94879943167E+02  0.11286459688E+03  0.47000000000E+01 0.  1.
         -5    1    3    3    0  501  0.50978858127E+02 -0.45510071345E+02  0.11241598442E+03  0.13164138454E+03  0.47000000000E+01 0.  1.
          5    1    4    4  502    0  0.65267533294E+02  0.14315013789E+02  0.19504011682E+03  0.20622198644E+03  0.47000000000E+01 0. -1.
         -5    1    4    4    0  502 -0.56533365385E+02  0.19009897133E+02  0.27042242351E+03  0.27696168458E+03  0.47000000000E+01 0. -1.
<mgrwt>
<rscale>  0 0.27735947E+03</rscale>
<asrwt>0</asrwt>
<pdfrwt beam="1">  1       21 0.10772676E+00 0.27735947E+03</pdfrwt>
<pdfrwt beam="2">  1       21 0.42254763E-02 0.27735947E+03</pdfrwt>
<totfact> 0.23930200E+05</totfact>
</mgrwt>
</event>
<event>
 8    1  0.9400004E-006  0.3946175E+03  0.7546771E-02  0.1045660E+00
         21   -1    0    0  504  503  0.00000000000E+00  0.00000000000E+00  0.27617342975E+02  0.27617342975E+02  0.00000000000E+00 0. -1.
         21   -1    0    0  503  504 -0.00000000000E+00 -0.00000000000E+00 -0.14096484545E+04  0.14096484545E+04  0.00000000000E+00 0. -1.
         25    2    1    2    0    0 -0.62542786785E+02 -0.14974474147E+01 -0.18387504608E+03  0.23098378355E+03  0.12501853128E+03 0.  0.
         25    2    1    2    0    0  0.62542786785E+02  0.14974474147E+01 -0.11981560655E+04  0.12062820140E+04  0.12499798973E+03 0.  0.
          5    1    3    3  501    0 -0.54797085355E+01 -0.51792755594E+02 -0.12228770004E+03  0.13299958014E+03  0.47000000000E+01 0.  1.
         -5    1    3    3    0  501 -0.57063078249E+02  0.50295308179E+02 -0.61587346040E+02  0.97984203402E+02  0.47000000000E+01 0.  1.
          5    1    4    4  502    0 -0.16269638809E+02 -0.10982031755E+02 -0.79617570043E+03  0.79643150498E+03  0.47000000000E+01 0.  1.
         -5    1    4    4    0  502  0.78812425594E+02  0.12479479170E+02 -0.40198036504E+03  0.40985050897E+03  0.47000000000E+01 0.  1.
<mgrwt>
<rscale>  0 0.39461751E+03</rscale>
<asrwt>0</asrwt>
<pdfrwt beam="1">  1       21 0.42488210E-02 0.39461751E+03</pdfrwt>
<pdfrwt beam="2">  1       21 0.21686904E+00 0.39461751E+03</pdfrwt>
<totfact> 0.33568445E+04</totfact>
</mgrwt>
</event>
<event>
 8    1  0.9400004E-006  0.2731704E+03  0.7546771E-02  0.1099479E+00
         21   -1    0    0  504  503  0.00000000000E+00  0.00000000000E+00  0.53806141330E+03  0.53806141330E+03  0.00000000000E+00 0. -1.
         21   -1    0    0  503  504 -0.00000000000E+00 -0.00000000000E+00 -0.34671733755E+02  0.34671733755E+02  0.00000000000E+00 0. -1.
         25    2    1    2    0    0  0.49233080345E+02  0.24558455605E+02  0.25166383472E+03  0.28633758684E+03  0.12501005555E+03 0.  0.
         25    2    1    2    0    0 -0.49233080345E+02 -0.24558455605E+02  0.25172584482E+03  0.28639556021E+03  0.12501800677E+03 0.  0.
          5    1    3    3  501    0  0.35893917951E+02  0.13790535970E+02  0.26261674677E+03  0.26545846739E+03  0.47000000000E+01 0.  1.
         -5    1    3    3    0  501  0.13339162394E+02  0.10767919636E+02 -0.10952912044E+02  0.20879119447E+02  0.47000000000E+01 0.  1.
          5    1    4    4  502    0 -0.10708152217E+02  0.11602129557E+02 -0.10051630792E+02  0.19297647933E+02  0.47000000000E+01 0. -1.
         -5    1    4    4    0  502 -0.38524928127E+02 -0.36160585162E+02  0.26177747561E+03  0.26709791228E+03  0.47000000000E+01 0. -1.
<mgrwt>
<rscale>  0 0.27317044E+03</rscale>
<asrwt>0</asrwt>
<pdfrwt beam="1">  1       21 0.82778673E-01 0.27317044E+03</pdfrwt>
<pdfrwt beam="2">  1       21 0.53341133E-02 0.27317044E+03</pdfrwt>
<totfact> 0.30034982E+05</totfact>
</mgrwt>
</event>
<event>
 8    1  0.9400004E-006  0.2732211E+03  0.7546771E-02  0.1099450E+00
         21   -1    0    0  504  503  0.00000000000E+00  0.00000000000E+00  0.25747860057E+02  0.25747860057E+02  0.00000000000E+00 0.  1.
         21   -1    0    0  503  504 -0.00000000000E+00 -0.00000000000E+00 -0.72481547875E+03  0.72481547875E+03  0.00000000000E+00 0.  1.
         25    2    1    2    0    0 -0.25243819696E+02  0.13307352020E+02 -0.21996495443E+03  0.25460236262E+03  0.12499378313E+03 0.  0.
         25    2    1    2    0    0  0.25243819696E+02 -0.13307352020E+02 -0.47910266426E+03  0.49596097619E+03  0.12499436367E+03 0.  0.
          5    1    3    3  501    0 -0.64339644851E+01 -0.49645975172E+02 -0.15136241055E+03  0.15949541710E+03  0.47000000000E+01 0.  1.
         -5    1    3    3    0  501 -0.18809855211E+02  0.62953327192E+02 -0.68602543883E+02  0.95106945513E+02  0.47000000000E+01 0.  1.
          5    1    4    4  502    0  0.55811971244E+02  0.37512118689E+01 -0.43878218118E+03  0.44235838440E+03  0.47000000000E+01 0.  1.
         -5    1    4    4    0  502 -0.30568151548E+02 -0.17058563889E+02 -0.40320483078E+02  0.53602591790E+02  0.47000000000E+01 0.  1.
<mgrwt>
<rscale>  0 0.27322114E+03</rscale>
<asrwt>0</asrwt>
<pdfrwt beam="1">  1       21 0.39612100E-02 0.27322114E+03</pdfrwt>
<pdfrwt beam="2">  1       21 0.11151005E+00 0.27322114E+03</pdfrwt>
<totfact> 0.24557972E+05</totfact>
</mgrwt>
</event>
<event>
 8    1  0.9400004E-006  0.3523868E+03  0.7546771E-02  0.1061640E+00
         21   -1    0    0  504  503  0.00000000000E+00  0.00000000000E+00  0.42302246889E+03  0.42302246889E+03  0.00000000000E+00 0.  1.
         21   -1    0    0  503  504 -0.00000000000E+00 -0.00000000000E+00 -0.73386461677E+02  0.73386461677E+02  0.00000000000E+00 0.  1.
         25    2    1    2    0    0  0.83936009762E+02 -0.78456797596E+02  0.24113426040E+03  0.29491040959E+03  0.12500278125E+03 0.  0.
         25    2    1    2    0    0 -0.83936009762E+02  0.78456797596E+02  0.10850174682E+03  0.20149852098E+03  0.12501320759E+03 0.  0.
          5    1    3    3  501    0  0.65557450168E+02 -0.96124756521E+02  0.24243880247E+03  0.26895429171E+03  0.47000000000E+01 0.  1.
         -5    1    3    3    0  501  0.18378559594E+02  0.17667958925E+02 -0.13045420635E+01  0.25956117879E+02  0.47000000000E+01 0.  1.
          5    1    4    4  502    0 -0.55405293276E+02  0.36375843330E+02  0.13008020522E+03  0.14606812894E+03  0.47000000000E+01 0.  1.
         -5    1    4    4    0  502 -0.28530716486E+02  0.42080954265E+02 -0.21578458404E+02  0.55430392045E+02  0.47000000000E+01 0.  1.
<mgrwt>
<rscale>  0 0.35238685E+03</rscale>
<asrwt>0</asrwt>
<pdfrwt beam="1">  1       21 0.65080379E-01 0.35238685E+03</pdfrwt>
<pdfrwt beam="2">  1       21 0.11290225E-01 0.35238685E+03</pdfrwt>
<totfact> 0.13581921E+05</totfact>
</mgrwt>
</event>
<event>
 8    1  0.9400004E-006  0.3197177E+03  0.7546771E-02  0.1075779E+00
         21   -1    0    0  504  503  0.00000000000E+00  0.00000000000E+00  0.70040284181E+02  0.70040284181E+02  0.00000000000E+00 0.  1.
         21   -1    0    0  503  504 -0.00000000000E+00 -0.00000000000E+00 -0.36485940456E+03  0.36485940456E+03  0.00000000000E+00 0.  1.
         25    2    1    2    0    0  0.92626838704E+02  0.30048516589E+02 -0.17616856112E+03  0.23694643598E+03  0.12500242798E+03 0.  0.
         25    2    1    2    0    0 -0.92626838704E+02 -0.30048516589E+02 -0.11865055926E+03  0.19795325276E+03  0.12499956186E+03 0.  0.
          5    1    3    3  501    0  0.60120255698E+02 -0.40723761077E+02 -0.12169025063E+03  0.14178673055E+03  0.47000000000E+01 0. -1.
         -5    1    3    3    0  501  0.32506583007E+02  0.70772277666E+02 -0.54478310485E+02  0.95159705433E+02  0.47000000000E+01 0. -1.
          5    1    4    4  502    0 -0.27682947825E+02 -0.70384123955E+02 -0.86186427644E+02  0.11476262813E+03  0.47000000000E+01 0.  1.
         -5    1    4    4    0  502 -0.64943890879E+02  0.40335607366E+02 -0.32464131618E+02  0.83190624627E+02  0.47000000000E+01 0.  1.
<mgrwt>
<rscale>  0 0.31971773E+03</rscale>
<asrwt>0</asrwt>
<pdfrwt beam="1">  1       21 0.10775429E-01 0.31971773E+03</pdfrwt>
<pdfrwt beam="2">  1       21 0.56132214E-01 0.31971773E+03</pdfrwt>
<totfact> 0.20537776E+05</totfact>
</mgrwt>
</event>
<event>
 8    1  0.9400004E-006  0.3056605E+03  0.7546771E-02  0.1082445E+00
         21   -1    0    0  504  503  0.00000000000E+00  0.00000000000E+00  0.34791296419E+03  0.34791296419E+03  0.00000000000E+00 0. -1.
         21   -1    0    0  503  504 -0.00000000000E+00 -0.00000000000E+00 -0.67134830630E+02  0.67134830630E+02  0.00000000000E+00 0. -1.
         25    2    1    2    0    0  0.10069158351E+02 -0.65312611118E+02  0.21914266069E+03  0.26080006380E+03  0.12500416961E+03 0.  0.
         25    2    1    2    0    0 -0.10069158351E+02  0.65312611118E+02  0.61635472868E+02  0.15424773102E+03  0.12500522345E+03 0.  0.
          5    1    3    3  501    0 -0.25408316876E+02  0.22021999807E+02  0.11656079630E+03  0.12140453153E+03  0.47000000000E+01 0. -1.
         -5    1    3    3    0  501  0.35477475227E+02 -0.87334610924E+02  0.10258186439E+03  0.13939553226E+03  0.47000000000E+01 0. -1.
          5    1    4    4  502    0  0.51271326814E+02  0.93625462490E+01  0.45913527472E+02  0.69617154714E+02  0.47000000000E+01 0.  1.
         -5    1    4    4    0  502 -0.61340485165E+02  0.55950064869E+02  0.15721945396E+02  0.84630576308E+02  0.47000000000E+01 0.  1.
<mgrwt>
<rscale>  0 0.30566045E+03</rscale>
<asrwt>0</asrwt>
<pdfrwt beam="1">  1       21 0.53525071E-01 0.30566045E+03</pdfrwt>
<pdfrwt beam="2">  1       21 0.10328436E-01 0.30566045E+03</pdfrwt>
<totfact> 0.24604321E+05</totfact>
</mgrwt>
</event>
<event>
 8    1  0.9400004E-006  0.3296609E+03  0.7546771E-02  0.1071287E+00
         21   -1    0    0  504  503  0.00000000000E+00  0.00000000000E+00  0.24060301827E+02  0.24060301827E+02  0.00000000000E+00 0. -1.
         21   -1    0    0  503  504 -0.00000000000E+00 -0.00000000000E+00 -0.11292077154E+04  0.11292077154E+04  0.00000000000E+00 0. -1.
         25    2    1    2    0    0  0.53873124011E+02  0.44153911422E+02 -0.83876201567E+03  0.85088062085E+03  0.12499692239E+03 0.  0.
         25    2    1    2    0    0 -0.53873124011E+02 -0.44153911422E+02 -0.26638539790E+03  0.30238739638E+03  0.12500030357E+03 0.  0.
          5    1    3    3  501    0  0.92467095337E+02  0.22691184027E+02 -0.47947015145E+03  0.48885454860E+03  0.47000000000E+01 0. -1.
         -5    1    3    3    0  501 -0.38593971326E+02  0.21462727394E+02 -0.35929186422E+03  0.36202607224E+03  0.47000000000E+01 0. -1.
          5    1    4    4  502    0  0.14081606462E+02 -0.47778591411E+02 -0.20366989937E+03  0.20972506610E+03  0.47000000000E+01 0. -1.
         -5    1    4    4    0  502 -0.67954730473E+02  0.36246799891E+01 -0.62715498523E+02  0.92662330284E+02  0.47000000000E+01 0. -1.
<mgrwt>
<rscale>  0 0.32966091E+03</rscale>
<asrwt>0</asrwt>
<pdfrwt beam="1">  1       21 0.37015846E-02 0.32966091E+03</pdfrwt>
<pdfrwt beam="2">  1       21 0.17372428E+00 0.32966091E+03</pdfrwt>
<totfact> 0.84515863E+04</totfact>
</mgrwt>
</event>
<event>
 8    1  0.9400004E-006  0.2692112E+03  0.7546771E-02  0.1101732E+00
         21   -1    0    0  504  503  0.00000000000E+00  0.00000000000E+00  0.10497352032E+03  0.10497352032E+03  0.00000000000E+00 0. -1.
         21   -1    0    0  503  504 -0.00000000000E+00 -0.00000000000E+00 -0.17260225936E+03  0.17260225936E+03  0.00000000000E+00 0. -1.
         25    2    1    2    0    0  0.11882211124E+02 -0.20259458892E+02  0.11621882373E+02  0.12771673243E+03  0.12499945191E+03 0.  0.
         25    2    1    2    0    0 -0.11882211124E+02  0.20259458892E+02 -0.79250621412E+02  0.14985904725E+03  0.12500176172E+03 0.  0.
          5    1    3    3  501    0  0.33431906394E+02 -0.17725780165E+02  0.61929969071E+02  0.72727620041E+02  0.47000000000E+01 0.  1.
         -5    1    3    3    0  501 -0.21549695269E+02 -0.25336787268E+01 -0.50308086699E+02  0.54989112389E+02  0.47000000000E+01 0.  1.
          5    1    4    4  502    0  0.88623579682E+01 -0.48692954299E+02 -0.54023400017E+02  0.73417729034E+02  0.47000000000E+01 0.  1.
         -5    1    4    4    0  502 -0.20744569093E+02  0.68952413191E+02 -0.25227221395E+02  0.76441318219E+02  0.47000000000E+01 0.  1.
<mgrwt>
<rscale>  0 0.26921119E+03</rscale>
<asrwt>0</asrwt>
<pdfrwt beam="1">  1       21 0.16149772E-01 0.26921119E+03</pdfrwt>
<pdfrwt beam="2">  1       21 0.26554194E-01 0.26921119E+03</pdfrwt>
<totfact> 0.45556486E+05</totfact>
</mgrwt>
</event>
<event>
 8    1  0.9400004E-006  0.2876392E+03  0.7546771E-02  0.1091588E+00
         21   -1    0    0  504  503  0.00000000000E+00  0.00000000000E+00  0.15036219603E+03  0.15036219603E+03  0.00000000000E+00 0.  1.
         21   -1    0    0  503  504 -0.00000000000E+00 -0.00000000000E+00 -0.13756166918E+03  0.13756166918E+03  0.00000000000E+00 0.  1.
         25    2    1    2    0    0 -0.32756630788E+02 -0.36368774029E+02  0.58037669465E+02  0.14625012504E+03  0.12500017365E+03 0.  0.
         25    2    1    2    0    0  0.32756630788E+02  0.36368774029E+02 -0.45237142612E+02  0.14167374017E+03  0.12501745876E+03 0.  0.
          5    1    3    3  501    0  0.33678495536E+02  0.18350291817E+02  0.44602961717E+02  0.59012612764E+02  0.47000000000E+01 0. -1.
         -5    1    3    3    0  501 -0.66435126324E+02 -0.54719065845E+02  0.13434707748E+02  0.87237512281E+02  0.47000000000E+01 0. -1.
          5    1    4    4  502    0 -0.14458111992E+02 -0.37398263088E+02  0.48664634270E+01  0.40662507924E+02  0.47000000000E+01 0.  1.
         -5    1    4    4    0  502  0.47214742780E+02  0.73767037117E+02 -0.50103606039E+02  0.10101123224E+03  0.47000000000E+01 0.  1.
<mgrwt>
<rscale>  0 0.28763918E+03</rscale>
<asrwt>0</asrwt>
<pdfrwt beam="1">  1       21 0.23132646E-01 0.28763918E+03</pdfrwt>
<pdfrwt beam="2">  1       21 0.21163334E-01 0.28763918E+03</pdfrwt>
<totfact> 0.35710377E+05</totfact>
</mgrwt>
</event>
<event>
 8    1  0.9400004E-006  0.4750453E+03  0.7546771E-02  0.1020506E+00
         21   -1    0    0  504  503  0.00000000000E+00  0.00000000000E+00  0.11644987195E+04  0.11644987195E+04  0.00000000000E+00 0.  1.
         21   -1    0    0  503  504 -0.00000000000E+00 -0.00000000000E+00 -0.48447457465E+02  0.48447457465E+02  0.00000000000E+00 0.  1.
         25    2    1    2    0    0  0.20077961862E+02  0.95427606806E+02  0.10642197122E+03  0.19094509641E+03  0.12499936477E+03 0.  0.
         25    2    1    2    0    0 -0.20077961862E+02 -0.95427606806E+02  0.10096292909E+04  0.10220010806E+04  0.12500140436E+03 0.  0.
          5    1    3    3  501    0 -0.44063400408E+02  0.69604506169E+02  0.84864570496E+02  0.11836577149E+03  0.47000000000E+01 0. -1.
         -5    1    3    3    0  501  0.64141362270E+02  0.25823100637E+02  0.21557400727E+02  0.72579324924E+02  0.47000000000E+01 0. -1.
          5    1    4    4  502    0  0.40122498658E+01 -0.11209228785E+03  0.93461835116E+03  0.94133646028E+03  0.47000000000E+01 0. -1.
         -5    1    4    4    0  502 -0.24090211728E+02  0.16664681041E+02  0.75010939702E+02  0.80664620313E+02  0.47000000000E+01 0. -1.
<mgrwt>
<rscale>  0 0.47504527E+03</rscale>
<asrwt>0</asrwt>
<pdfrwt beam="1">  1       21 0.17915363E+00 0.47504527E+03</pdfrwt>
<pdfrwt beam="2">  1       21 0.74534558E-02 0.47504527E+03</pdfrwt>
<totfact> 0.22076790E+04</totfact>
</mgrwt>
</event>
<event>
 8    1  0.9400004E-006  0.2699605E+03  0.7546771E-02  0.1101302E+00
         21   -1    0    0  504  503  0.00000000000E+00  0.00000000000E+00  0.26970993320E+03  0.26970993320E+03  0.00000000000E+00 0.  1.
         21   -1    0    0  503  504 -0.00000000000E+00 -0.00000000000E+00 -0.67552817965E+02  0.67552817965E+02  0.00000000000E+00 0.  1.
         25    2    1    2    0    0  0.40812550743E+02 -0.20473242389E+02  0.12927478613E+03  0.18553113701E+03  0.12500005809E+03 0.  0.
         25    2    1    2    0    0 -0.40812550743E+02  0.20473242389E+02  0.72882329111E+02  0.15173161415E+03  0.12500332350E+03 0.  0.
          5    1    3    3  501    0 -0.12678629671E+02 -0.62943652743E+02  0.57138204298E+02  0.86078542399E+02  0.47000000000E+01 0. -1.
         -5    1    3    3    0  501  0.53491180414E+02  0.42470410354E+02  0.72136581829E+02  0.99452594616E+02  0.47000000000E+01 0. -1.
          5    1    4    4  502    0 -0.46176338718E+02 -0.45686586395E+02  0.47073878758E+02  0.80358935378E+02  0.47000000000E+01 0.  1.
         -5    1    4    4    0  502  0.53637879748E+01  0.66159828784E+02  0.25808450353E+02  0.71372678776E+02  0.47000000000E+01 0.  1.
<mgrwt>
<rscale>  0 0.26996049E+03</rscale>
<asrwt>0</asrwt>
<pdfrwt beam="1">  1       21 0.41493835E-01 0.26996049E+03</pdfrwt>
<pdfrwt beam="2">  1       21 0.10392741E-01 0.26996049E+03</pdfrwt>
<totfact> 0.41701035E+05</totfact>
</mgrwt>
</event>
<event>
 8    1  0.9400004E-006  0.3356853E+03  0.7546771E-02  0.1068649E+00
         21   -1    0    0  504  503  0.00000000000E+00  0.00000000000E+00  0.90115711778E+03  0.90115711778E+03  0.00000000000E+00 0. -1.
         21   -1    0    0  503  504 -0.00000000000E+00 -0.00000000000E+00 -0.31261099915E+02  0.31261099915E+02  0.00000000000E+00 0. -1.
         25    2    1    2    0    0 -0.57402656265E+02 -0.36191561844E+02  0.68240219160E+03  0.69706751186E+03  0.12500188361E+03 0.  0.
         25    2    1    2    0    0  0.57402656265E+02  0.36191561844E+02  0.18749382627E+03  0.23535070583E+03  0.12502450060E+03 0.  0.
          5    1    3    3  501    0 -0.84254593468E+02 -0.47117958046E+02  0.34180611504E+03  0.35520761362E+03  0.47000000000E+01 0.  1.
         -5    1    3    3    0  501  0.26851937202E+02  0.10926396202E+02  0.34059607655E+03  0.34185989825E+03  0.47000000000E+01 0.  1.
          5    1    4    4  502    0  0.95887452352E+02  0.27498469730E+02  0.11211826923E+03  0.15014381656E+03  0.47000000000E+01 0.  1.
         -5    1    4    4    0  502 -0.38484796087E+02  0.86930921136E+01  0.75375557041E+02  0.85206889273E+02  0.47000000000E+01 0.  1.
<mgrwt>
<rscale>  0 0.33568534E+03</rscale>
<asrwt>0</asrwt>
<pdfrwt beam="1">  1       21 0.13863954E+00 0.33568534E+03</pdfrwt>
<pdfrwt beam="2">  1       21 0.48094007E-02 0.33568534E+03</pdfrwt>
<totfact> 0.99955131E+04</totfact>
</mgrwt>
</event>
<event>
 8    1  0.9400004E-006  0.4139254E+03  0.7546771E-02  0.1039062E+00
         21   -1    0    0  504  503  0.00000000000E+00  0.00000000000E+00  0.48021076895E+03  0.48021076895E+03  0.00000000000E+00 0.  1.
         21   -1    0    0  503  504 -0.00000000000E+00 -0.00000000000E+00 -0.89197424822E+02  0.89197424822E+02  0.00000000000E+00 0.  1.
         25    2    1    2    0    0 -0.14166650609E+03  0.82951915315E+02  0.17353639603E+03  0.26962103051E+03  0.12502079884E+03 0.  0.
         25    2    1    2    0    0  0.14166650609E+03 -0.82951915315E+02  0.21747694810E+03  0.29978716327E+03  0.12500280437E+03 0.  0.
          5    1    3    3  501    0 -0.45547876241E+02 -0.17421724867E+02  0.10220266959E+03  0.11333843655E+03  0.47000000000E+01 0.  1.
         -5    1    3    3    0  501 -0.96118629849E+02  0.10037364018E+03  0.71333726437E+02  0.15628259396E+03  0.47000000000E+01 0.  1.
          5    1    4    4  502    0  0.97421074775E+02  0.68387329501E+01  0.65285846970E+02  0.11756685712E+03  0.47000000000E+01 0.  1.
         -5    1    4    4    0  502  0.44245431316E+02 -0.89790648266E+02  0.15219110113E+03  0.18222030615E+03  0.47000000000E+01 0.  1.
<mgrwt>
<rscale>  0 0.41392542E+03</rscale>
<asrwt>0</asrwt>
<pdfrwt beam="1">  1       21 0.73878578E-01 0.41392542E+03</pdfrwt>
<pdfrwt beam="2">  1       21 0.13722681E-01 0.41392542E+03</pdfrwt>
<totfact> 0.70683949E+04</totfact>
</mgrwt>
</event>
<event>
 8    1  0.9400004E-006  0.3207126E+03  0.7546771E-02  0.1075322E+00
         21   -1    0    0  504  503  0.00000000000E+00  0.00000000000E+00  0.33737946414E+03  0.33737946414E+03  0.00000000000E+00 0. -1.
         21   -1    0    0  503  504 -0.00000000000E+00 -0.00000000000E+00 -0.76217261388E+02  0.76217261388E+02  0.00000000000E+00 0. -1.
         25    2    1    2    0    0  0.88828162766E+02  0.14669350928E+02  0.18796078666E+03  0.24302759924E+03  0.12501009684E+03 0.  0.
         25    2    1    2    0    0 -0.88828162766E+02 -0.14669350928E+02  0.73201416088E+02  0.17056912629E+03  0.12501898723E+03 0.  0.
          5    1    3    3  501    0  0.19471025881E+02  0.63694339408E+02  0.62563933756E+02  0.91500959167E+02  0.47000000000E+01 0.  1.
         -5    1    3    3    0  501  0.69357136884E+02 -0.49024988481E+02  0.12539685291E+03  0.15152664007E+03  0.47000000000E+01 0.  1.
          5    1    4    4  502    0 -0.10666808083E+03  0.21402477524E+02  0.33717479830E+02  0.11399606992E+03  0.47000000000E+01 0. -1.
         -5    1    4    4    0  502  0.17839918061E+02 -0.36071828452E+02  0.39483936258E+02  0.56573056367E+02  0.47000000000E+01 0. -1.
<mgrwt>
<rscale>  0 0.32071257E+03</rscale>
<asrwt>0</asrwt>
<pdfrwt beam="1">  1       21 0.51904532E-01 0.32071257E+03</pdfrwt>
<pdfrwt beam="2">  1       21 0.11725733E-01 0.32071257E+03</pdfrwt>
<totfact> 0.20844264E+05</totfact>
</mgrwt>
</event>
<event>
 8    1  0.9400004E-006  0.3318276E+03  0.7546771E-02  0.1070331E+00
         21   -1    0    0  504  503  0.00000000000E+00  0.00000000000E+00  0.29081682031E+03  0.29081682031E+03  0.00000000000E+00 0.  1.
         21   -1    0    0  503  504 -0.00000000000E+00 -0.00000000000E+00 -0.94655439880E+02  0.94655439880E+02  0.00000000000E+00 0.  1.
         25    2    1    2    0    0 -0.22640230777E+02  0.98682248051E+02  0.14531006783E+03  0.21677444344E+03  0.12500150953E+03 0.  0.
         25    2    1    2    0    0  0.22640230777E+02 -0.98682248051E+02  0.50851312601E+02  0.16869781675E+03  0.12498932456E+03 0.  0.
          5    1    3    3  501    0 -0.28012296169E+02  0.31986730486E+02 -0.13108024203E+02  0.44740920446E+02  0.47000000000E+01 0.  1.
         -5    1    3    3    0  501  0.53720653917E+01  0.66695517565E+02  0.15841809204E+03  0.17203352300E+03  0.47000000000E+01 0.  1.
          5    1    4    4  502    0  0.61809788120E+02 -0.30070104396E+02 -0.89836568235E+01  0.69479904834E+02  0.47000000000E+01 0.  1.
         -5    1    4    4    0  502 -0.39169557343E+02 -0.68612143655E+02  0.59834969425E+02  0.99217911918E+02  0.47000000000E+01 0.  1.
<mgrwt>
<rscale>  0 0.33182763E+03</rscale>
<asrwt>0</asrwt>
<pdfrwt beam="1">  1       21 0.44741049E-01 0.33182763E+03</pdfrwt>
<pdfrwt beam="2">  1       21 0.14562375E-01 0.33182763E+03</pdfrwt>
<totfact> 0.19141963E+05</totfact>
</mgrwt>
</event>
<event>
 8    1  0.9400004E-006  0.3222492E+03  0.7546771E-02  0.1074619E+00
         21   -1    0    0  504  503  0.00000000000E+00  0.00000000000E+00  0.23023182885E+02  0.23023182885E+02  0.00000000000E+00 0.  1.
         21   -1    0    0  503  504 -0.00000000000E+00 -0.00000000000E+00 -0.11276087295E+04  0.11276087295E+04  0.00000000000E+00 0.  1.
         25    2    1    2    0    0  0.40814832646E+02  0.86992410231E+01 -0.22126841071E+03  0.25753921803E+03  0.12500084754E+03 0.  0.
         25    2    1    2    0    0 -0.40814832646E+02 -0.86992410231E+01 -0.88331713595E+03  0.89309269440E+03  0.12499548299E+03 0.  0.
          5    1    3    3  501    0  0.18946015630E+02 -0.35538356780E+02 -0.19918779915E+03  0.20327271249E+03  0.47000000000E+01 0.  1.
         -5    1    3    3    0  501  0.21868817015E+02  0.44237597803E+02 -0.22080611558E+02  0.54266505543E+02  0.47000000000E+01 0.  1.
          5    1    4    4  502    0  0.15983181699E+02 -0.48660795061E+02 -0.21084432046E+03  0.21702707791E+03  0.47000000000E+01 0.  1.
         -5    1    4    4    0  502 -0.56798014344E+02  0.39961554038E+02 -0.67247281549E+03  0.67606561649E+03  0.47000000000E+01 0.  1.
<mgrwt>
<rscale>  0 0.32224923E+03</rscale>
<asrwt>0</asrwt>
<pdfrwt beam="1">  1       21 0.35420295E-02 0.32224923E+03</pdfrwt>
<pdfrwt beam="2">  1       21 0.17347820E+00 0.32224923E+03</pdfrwt>
<totfact> 0.91637555E+04</totfact>
</mgrwt>
</event>
<event>
 8    1  0.9400004E-006  0.3807232E+03  0.7546771E-02  0.1050667E+00
         21   -1    0    0  504  503  0.00000000000E+00  0.00000000000E+00  0.13069960668E+04  0.13069960668E+04  0.00000000000E+00 0. -1.
         21   -1    0    0  503  504 -0.00000000000E+00 -0.00000000000E+00 -0.27725825251E+02  0.27725825251E+02  0.00000000000E+00 0. -1.
         25    2    1    2    0    0 -0.84750799485E+02  0.47242817833E+02  0.10106133844E+04  0.10229263339E+04  0.12499715968E+03 0.  0.
         25    2    1    2    0    0  0.84750799485E+02 -0.47242817833E+02  0.26865685712E+03  0.31179555816E+03  0.12500152544E+03 0.  0.
          5    1    3    3  501    0 -0.53742013582E+02 -0.37798940064E+02  0.35269414384E+03  0.35879271591E+03  0.47000000000E+01 0.  1.
         -5    1    3    3    0  501 -0.31008785904E+02  0.85041757897E+02  0.65791924056E+03  0.66413361795E+03  0.47000000000E+01 0.  1.
          5    1    4    4  502    0  0.66277060253E+02 -0.39237709594E+02  0.27843159677E+03  0.28892644505E+03  0.47000000000E+01 0.  1.
         -5    1    4    4    0  502  0.18473739232E+02 -0.80051082392E+01 -0.97747396512E+01  0.22869113109E+02  0.47000000000E+01 0.  1.
<mgrwt>
<rscale>  0 0.38072323E+03</rscale>
<asrwt>0</asrwt>
<pdfrwt beam="1">  1       21 0.20107627E+00 0.38072323E+03</pdfrwt>
<pdfrwt beam="2">  1       21 0.42655126E-02 0.38072323E+03</pdfrwt>
<totfact> 0.42438758E+04</totfact>
</mgrwt>
</event>
<event>
 8    1  0.9400004E-006  0.3192356E+03  0.7546771E-02  0.1076002E+00
         21   -1    0    0  504  503  0.00000000000E+00  0.00000000000E+00  0.77775698089E+03  0.77775698089E+03  0.00000000000E+00 0. -1.
         21   -1    0    0  503  504 -0.00000000000E+00 -0.00000000000E+00 -0.32758110731E+02  0.32758110731E+02  0.00000000000E+00 0. -1.
         25    2    1    2    0    0  0.71321014661E+02  0.68119235980E+02  0.34295878084E+03  0.37811890920E+03  0.12500506670E+03 0.  0.
         25    2    1    2    0    0 -0.71321014661E+02 -0.68119235980E+02  0.40204008932E+03  0.43239618242E+03  0.12491320069E+03 0.  0.
          5    1    3    3  501    0  0.26382626323E+02  0.98449443192E+02  0.18832076406E+03  0.21418481742E+03  0.47000000000E+01 0.  1.
         -5    1    3    3    0  501  0.44938388338E+02 -0.30330207212E+02  0.15463801678E+03  0.16393409178E+03  0.47000000000E+01 0.  1.
          5    1    4    4  502    0  0.33591598092E+02 -0.11146771997E+02  0.57026817197E+02  0.67281452630E+02  0.47000000000E+01 0.  1.
         -5    1    4    4    0  502 -0.10491261275E+03 -0.56972463983E+02  0.34501327212E+03  0.36511472979E+03  0.47000000000E+01 0.  1.
<mgrwt>
<rscale>  0 0.31923565E+03</rscale>
<asrwt>0</asrwt>
<pdfrwt beam="1">  1       21 0.11965491E+00 0.31923565E+03</pdfrwt>
<pdfrwt beam="2">  1       21 0.50397099E-02 0.31923565E+03</pdfrwt>
<totfact> 0.13524075E+05</totfact>
</mgrwt>
</event>
<event>
 8    1  0.9400004E-006  0.2885601E+03  0.7546771E-02  0.1091103E+00
         21   -1    0    0  504  503  0.00000000000E+00  0.00000000000E+00  0.69646924994E+02  0.69646924994E+02  0.00000000000E+00 0. -1.
         21   -1    0    0  503  504 -0.00000000000E+00 -0.00000000000E+00 -0.29888952708E+03  0.29888952708E+03  0.00000000000E+00 0. -1.
         25    2    1    2    0    0 -0.47809433081E+01 -0.59327141362E+02 -0.16635124922E+03  0.21644174247E+03  0.12502688769E+03 0.  0.
         25    2    1    2    0    0  0.47809433081E+01  0.59327141362E+02 -0.62891352871E+02  0.15209470961E+03  0.12503963893E+03 0.  0.
          5    1    3    3  501    0 -0.46817648714E+01 -0.77007024894E+02 -0.17847649276E+03  0.19449408544E+03  0.47000000000E+01 0. -1.
         -5    1    3    3    0  501 -0.99178436753E-01  0.17679883532E+02  0.12125243538E+02  0.21947657026E+02  0.47000000000E+01 0. -1.
          5    1    4    4  502    0  0.37180990144E+02  0.81383231929E+02 -0.16368183212E+02  0.91080535181E+02  0.47000000000E+01 0.  1.
         -5    1    4    4    0  502 -0.32400046835E+02 -0.22056090567E+02 -0.46523169660E+02  0.61014174429E+02  0.47000000000E+01 0.  1.
<mgrwt>
<rscale>  0 0.28856013E+03</rscale>
<asrwt>0</asrwt>
<pdfrwt beam="1">  1       21 0.10714912E-01 0.28856013E+03</pdfrwt>
<pdfrwt beam="2">  1       21 0.45983004E-01 0.28856013E+03</pdfrwt>
<totfact> 0.31828614E+05</totfact>
</mgrwt>
</event>
<event>
 8    1  0.9400004E-006  0.2771589E+03  0.7546771E-02  0.1097251E+00
         21   -1    0    0  504  503  0.00000000000E+00  0.00000000000E+00  0.16851090725E+03  0.16851090725E+03  0.00000000000E+00 0. -1.
         21   -1    0    0  503  504 -0.00000000000E+00 -0.00000000000E+00 -0.11396452697E+03  0.11396452697E+03  0.00000000000E+00 0. -1.
         25    2    1    2    0    0  0.20891403508E+02  0.48277459174E+02 -0.17453025563E+01  0.13563277794E+03  0.12500416219E+03 0.  0.
         25    2    1    2    0    0 -0.20891403508E+02 -0.48277459174E+02  0.56291682839E+02  0.14684265629E+03  0.12500739316E+03 0.  0.
          5    1    3    3  501    0  0.30017279865E+02  0.86692908291E+02 -0.16283903994E+02  0.93294978256E+02  0.47000000000E+01 0.  1.
         -5    1    3    3    0  501 -0.91258763574E+01 -0.38415449117E+02  0.14538601437E+02  0.42337799682E+02  0.47000000000E+01 0.  1.
          5    1    4    4  502    0 -0.67531614119E+02 -0.31596645378E+01  0.13872080181E+02  0.69173889540E+02  0.47000000000E+01 0.  1.
         -5    1    4    4    0  502  0.46640210611E+02 -0.45117794636E+02  0.42419602658E+02  0.77668766749E+02  0.47000000000E+01 0.  1.
<mgrwt>
<rscale>  0 0.27715891E+03</rscale>
<asrwt>0</asrwt>
<pdfrwt beam="1">  1       21 0.25924755E-01 0.27715891E+03</pdfrwt>
<pdfrwt beam="2">  1       21 0.17533004E-01 0.27715891E+03</pdfrwt>
<totfact> 0.40922270E+05</totfact>
</mgrwt>
</event>
<event>
 8    1  0.9400004E-006  0.3656929E+03  0.7546771E-02  0.1056352E+00
         21   -1    0    0  504  503  0.00000000000E+00  0.00000000000E+00  0.18428305062E+03  0.18428305062E+03  0.00000000000E+00 0.  1.
         21   -1    0    0  503  504 -0.00000000000E+00 -0.00000000000E+00 -0.18142101293E+03  0.18142101293E+03  0.00000000000E+00 0.  1.
         25    2    1    2    0    0 -0.55742554066E+02 -0.90908294896E+02 -0.78796019794E+02  0.18222307968E+03  0.12499955047E+03 0.  0.
         25    2    1    2    0    0  0.55742554066E+02  0.90908294896E+02  0.81658057490E+02  0.18348098387E+03  0.12500273067E+03 0.  0.
          5    1    3    3  501    0 -0.53362738717E+02 -0.11908436500E+03 -0.45477817161E+02  0.13827143495E+03  0.47000000000E+01 0. -1.
         -5    1    3    3    0  501 -0.23798153489E+01  0.28176070103E+02 -0.33318202633E+02  0.43951644727E+02  0.47000000000E+01 0. -1.
          5    1    4    4  502    0  0.39499064231E+02  0.98668318137E+02  0.70831552638E+01  0.10662023339E+03  0.47000000000E+01 0.  1.
         -5    1    4    4    0  502  0.16243489835E+02 -0.77600232412E+01  0.74574902226E+02  0.76860750483E+02  0.47000000000E+01 0.  1.
<mgrwt>
<rscale>  0 0.36569286E+03</rscale>
<asrwt>0</asrwt>
<pdfrwt beam="1">  1       21 0.28351238E-01 0.36569286E+03</pdfrwt>
<pdfrwt beam="2">  1       21 0.27910925E-01 0.36569286E+03</pdfrwt>
<totfact> 0.13907537E+05</totfact>
</mgrwt>
</event>
<event>
 8    1  0.9400004E-006  0.2808349E+03  0.7546771E-02  0.1095234E+00
         21   -1    0    0  504  503  0.00000000000E+00  0.00000000000E+00  0.68604822841E+02  0.68604822841E+02  0.00000000000E+00 0. -1.
         21   -1    0    0  503  504 -0.00000000000E+00 -0.00000000000E+00 -0.28740040947E+03  0.28740040947E+03  0.00000000000E+00 0. -1.
         25    2    1    2    0    0  0.63316719165E+01 -0.89544023923E+01 -0.18928708405E+03  0.22709997595E+03  0.12499810997E+03 0.  0.
         25    2    1    2    0    0 -0.63316719165E+01  0.89544023923E+01 -0.29508502581E+02  0.12890525637E+03  0.12500216799E+03 0.  0.
          5    1    3    3  501    0  0.16479049469E+02  0.39018186808E+02 -0.13744323993E+02  0.44776940664E+02  0.47000000000E+01 0. -1.
         -5    1    3    3    0  501 -0.10147377552E+02 -0.47972589200E+02 -0.17554276006E+03  0.18232303528E+03  0.47000000000E+01 0. -1.
          5    1    4    4  502    0  0.52009746639E+02  0.25947399888E+02  0.55799530389E+01  0.58579067783E+02  0.47000000000E+01 0.  1.
         -5    1    4    4    0  502 -0.58341418556E+02 -0.16992997496E+02 -0.35088455620E+02  0.70326188584E+02  0.47000000000E+01 0.  1.
<mgrwt>
<rscale>  0 0.28083486E+03</rscale>
<asrwt>0</asrwt>
<pdfrwt beam="1">  1       21 0.10554588E-01 0.28083486E+03</pdfrwt>
<pdfrwt beam="2">  1       21 0.44215447E-01 0.28083486E+03</pdfrwt>
<totfact> 0.35522260E+05</totfact>
</mgrwt>
</event>
<event>
 8    1  0.9400004E-006  0.2937642E+03  0.7546771E-02  0.1088400E+00
         21   -1    0    0  504  503  0.00000000000E+00  0.00000000000E+00  0.62874866716E+03  0.62874866716E+03  0.00000000000E+00 0. -1.
         21   -1    0    0  503  504 -0.00000000000E+00 -0.00000000000E+00 -0.34313148327E+02  0.34313148327E+02  0.00000000000E+00 0. -1.
         25    2    1    2    0    0 -0.14651762920E+02 -0.63790606701E+02  0.38927172280E+03  0.41406071645E+03  0.12501954679E+03 0.  0.
         25    2    1    2    0    0  0.14651762920E+02  0.63790606701E+02  0.20516379604E+03  0.24900109903E+03  0.12500179381E+03 0.  0.
          5    1    3    3  501    0 -0.41220911796E+02 -0.93662511997E+01  0.31615213610E+03  0.31900024043E+03  0.47000000000E+01 0. -1.
         -5    1    3    3    0  501  0.26569148876E+02 -0.54424355501E+02  0.73119586697E+02  0.95060476027E+02  0.47000000000E+01 0. -1.
          5    1    4    4  502    0  0.15236648253E+02 -0.34734051091E+02  0.32593851674E+02  0.50230059946E+02  0.47000000000E+01 0. -1.
         -5    1    4    4    0  502 -0.58488533257E+00  0.98524657792E+02  0.17256994436E+03  0.19877103909E+03  0.47000000000E+01 0. -1.
<mgrwt>
<rscale>  0 0.29376417E+03</rscale>
<asrwt>0</asrwt>
<pdfrwt beam="1">  1       21 0.96730555E-01 0.29376417E+03</pdfrwt>
<pdfrwt beam="2">  1       21 0.52789464E-02 0.29376417E+03</pdfrwt>
<totfact> 0.21141344E+05</totfact>
</mgrwt>
</event>
<event>
 8    1  0.9400004E-006  0.3272023E+03  0.7546771E-02  0.1072382E+00
         21   -1    0    0  504  503  0.00000000000E+00  0.00000000000E+00  0.26802480244E+02  0.26802480244E+02  0.00000000000E+00 0.  1.
         21   -1    0    0  503  504 -0.00000000000E+00 -0.00000000000E+00 -0.99861426701E+03  0.99861426701E+03  0.00000000000E+00 0.  1.
         25    2    1    2    0    0 -0.19940229902E+02 -0.18557336500E+02 -0.16632671141E+03  0.20983522068E+03  0.12499702958E+03 0.  0.
         25    2    1    2    0    0  0.19940229902E+02  0.18557336500E+02 -0.80548507536E+03  0.81558152657E+03  0.12500012942E+03 0.  0.
          5    1    3    3  501    0 -0.61085769221E+01 -0.51449639238E+02 -0.16587516416E+03  0.17384199773E+03  0.47000000000E+01 0. -1.
         -5    1    3    3    0  501 -0.13831652980E+02  0.32892302738E+02 -0.45154724734E+00  0.35993222952E+02  0.47000000000E+01 0. -1.
          5    1    4    4  502    0  0.16726476861E+02 -0.60632334657E+01 -0.77810352263E+03  0.77832109040E+03  0.47000000000E+01 0. -1.
         -5    1    4    4    0  502  0.32137530410E+01  0.24620569966E+02 -0.27381552725E+02  0.37260436171E+02  0.47000000000E+01 0. -1.
<mgrwt>
<rscale>  0 0.32720232E+03</rscale>
<asrwt>0</asrwt>
<pdfrwt beam="1">  1       21 0.41234591E-02 0.32720232E+03</pdfrwt>
<pdfrwt beam="2">  1       21 0.15363294E+00 0.32720232E+03</pdfrwt>
<totfact> 0.99076805E+04</totfact>
</mgrwt>
</event>
<event>
 8    1  0.9400004E-006  0.4147626E+03  0.7546771E-02  0.1038784E+00
         21   -1    0    0  504  503  0.00000000000E+00  0.00000000000E+00  0.49546271284E+03  0.49546271284E+03  0.00000000000E+00 0. -1.
         21   -1    0    0  503  504 -0.00000000000E+00 -0.00000000000E+00 -0.86801692010E+02  0.86801692010E+02  0.00000000000E+00 0. -1.
         25    2    1    2    0    0 -0.13442042134E+03 -0.73680358904E+02  0.11678376744E+03  0.22969797332E+03  0.12500026261E+03 0.  0.
         25    2    1    2    0    0  0.13442042134E+03  0.73680358904E+02  0.29187725340E+03  0.35256643153E+03  0.12495244148E+03 0.  0.
          5    1    3    3  501    0 -0.10817583390E+03 -0.10780035834E+03  0.10295749859E+03  0.18424240775E+03  0.47000000000E+01 0.  1.
         -5    1    3    3    0  501 -0.26244587436E+02  0.34119999436E+02  0.13826268846E+02  0.45455565571E+02  0.47000000000E+01 0.  1.
          5    1    4    4  502    0  0.42811387238E+02  0.85340578583E+02  0.93595146635E+02  0.13378329755E+03  0.47000000000E+01 0. -1.
         -5    1    4    4    0  502  0.91609034097E+02 -0.11660219679E+02  0.19828210676E+03  0.21878313398E+03  0.47000000000E+01 0. -1.
<mgrwt>
<rscale>  0 0.41476259E+03</rscale>
<asrwt>0</asrwt>
<pdfrwt beam="1">  1       21 0.76225031E-01 0.41476259E+03</pdfrwt>
<pdfrwt beam="2">  1       21 0.13354107E-01 0.41476259E+03</pdfrwt>
<totfact> 0.69189680E+04</totfact>
</mgrwt>
</event>
<event>
 8    1  0.9400004E-006  0.4215252E+03  0.7546771E-02  0.1036571E+00
         21   -1    0    0  504  503  0.00000000000E+00  0.00000000000E+00  0.82542930740E+03  0.82542930740E+03  0.00000000000E+00 0. -1.
         21   -1    0    0  503  504 -0.00000000000E+00 -0.00000000000E+00 -0.53815490213E+02  0.53815490213E+02  0.00000000000E+00 0. -1.
         25    2    1    2    0    0  0.12783094569E+03  0.97028557482E+02  0.27079603919E+03  0.33869078292E+03  0.12500263978E+03 0.  0.
         25    2    1    2    0    0 -0.12783094569E+03 -0.97028557482E+02  0.50081777800E+03  0.54055401469E+03  0.12499961759E+03 0.  0.
          5    1    3    3  501    0 -0.10240691463E+02 -0.19572860827E+02  0.27598341517E+02  0.35661282886E+02  0.47000000000E+01 0.  1.
         -5    1    3    3    0  501  0.13807163716E+03  0.11660141831E+03  0.24319769767E+03  0.30302950004E+03  0.47000000000E+01 0.  1.
          5    1    4    4  502    0 -0.28539896131E+02 -0.84436334788E+02  0.33615747593E+03  0.34780448376E+03  0.47000000000E+01 0.  1.
         -5    1    4    4    0  502 -0.99291049562E+02 -0.12592222694E+02  0.16466030207E+03  0.19274953093E+03  0.47000000000E+01 0.  1.
<mgrwt>
<rscale>  0 0.42152524E+03</rscale>
<asrwt>0</asrwt>
<pdfrwt beam="1">  1       21 0.12698911E+00 0.42152524E+03</pdfrwt>
<pdfrwt beam="2">  1       21 0.82793068E-02 0.42152524E+03</pdfrwt>
<totfact> 0.47605094E+04</totfact>
</mgrwt>
</event>
<event>
 8    1  0.9400004E-006  0.2873925E+03  0.7546771E-02  0.1091718E+00
         21   -1    0    0  504  503  0.00000000000E+00  0.00000000000E+00  0.67392005438E+03  0.67392005438E+03  0.00000000000E+00 0. -1.
         21   -1    0    0  503  504 -0.00000000000E+00 -0.00000000000E+00 -0.30639547821E+02  0.30639547821E+02  0.00000000000E+00 0. -1.
         25    2    1    2    0    0  0.48951769833E+02 -0.17706912082E+02  0.20363530165E+03  0.24453479491E+03  0.12498047582E+03 0.  0.
         25    2    1    2    0    0 -0.48951769833E+02  0.17706912082E+02  0.43964520491E+03  0.46002480730E+03  0.12500042649E+03 0.  0.
          5    1    3    3  501    0 -0.98848613840E+01 -0.24322663459E+02  0.17775934520E+03  0.17974920653E+03  0.47000000000E+01 0. -1.
         -5    1    3    3    0  501  0.58836631216E+02  0.66157513768E+01  0.25875956453E+02  0.64785588379E+02  0.47000000000E+01 0. -1.
          5    1    4    4  502    0 -0.76160467854E+02 -0.21880211711E+02  0.19274339387E+03  0.20844967356E+03  0.47000000000E+01 0. -1.
         -5    1    4    4    0  502  0.27208698022E+02  0.39587123793E+02  0.24690181104E+03  0.25157513374E+03  0.47000000000E+01 0. -1.
<mgrwt>
<rscale>  0 0.28739245E+03</rscale>
<asrwt>0</asrwt>
<pdfrwt beam="1">  1       21 0.10368000E+00 0.28739245E+03</pdfrwt>
<pdfrwt beam="2">  1       21 0.47137771E-02 0.28739245E+03</pdfrwt>
<totfact> 0.21753995E+05</totfact>
</mgrwt>
</event>
<event>
 8    1  0.9400004E-006  0.4931550E+03  0.7546771E-02  0.1015581E+00
         21   -1    0    0  504  503  0.00000000000E+00  0.00000000000E+00  0.91284022857E+02  0.91284022857E+02  0.00000000000E+00 0.  1.
         21   -1    0    0  503  504 -0.00000000000E+00 -0.00000000000E+00 -0.66605801798E+03  0.66605801798E+03  0.00000000000E+00 0.  1.
         25    2    1    2    0    0  0.10600856602E+03 -0.13265090521E+03 -0.91087950575E+02  0.22969377789E+03  0.12501255194E+03 0.  0.
         25    2    1    2    0    0 -0.10600856602E+03  0.13265090521E+03 -0.48368604455E+03  0.52764826294E+03  0.12500568377E+03 0.  0.
          5    1    3    3  501    0  0.94421472630E+02 -0.60049946225E+02 -0.10636433449E+03  0.15445670004E+03  0.47000000000E+01 0. -1.
         -5    1    3    3    0  501  0.11587093389E+02 -0.72600958983E+02  0.15276383917E+02  0.75237077854E+02  0.47000000000E+01 0. -1.
          5    1    4    4  502    0 -0.21979906952E+02  0.12338213835E+03 -0.26623004495E+03  0.29429032469E+03  0.47000000000E+01 0.  1.
         -5    1    4    4    0  502 -0.84028659067E+02  0.92687668578E+01 -0.21745599960E+03  0.23335793825E+03  0.47000000000E+01 0.  1.
<mgrwt>
<rscale>  0 0.49315497E+03</rscale>
<asrwt>0</asrwt>
<pdfrwt beam="1">  1       21 0.14043695E-01 0.49315497E+03</pdfrwt>
<pdfrwt beam="2">  1       21 0.10247047E+00 0.49315497E+03</pdfrwt>
<totfact> 0.30798306E+04</totfact>
</mgrwt>
</event>
<event>
 8    1  0.9400004E-006  0.3377629E+03  0.7546771E-02  0.1067753E+00
         21   -1    0    0  504  503  0.00000000000E+00  0.00000000000E+00  0.15949793277E+03  0.15949793277E+03  0.00000000000E+00 0. -1.
         21   -1    0    0  503  504 -0.00000000000E+00 -0.00000000000E+00 -0.17881699743E+03  0.17881699743E+03  0.00000000000E+00 0. -1.
         25    2    1    2    0    0  0.10760247509E+03  0.32068769280E+02 -0.26712863700E+02  0.17013397459E+03  0.12500117446E+03 0.  0.
         25    2    1    2    0    0 -0.10760247509E+03 -0.32068769280E+02  0.73937990396E+01  0.16818095560E+03  0.12499386767E+03 0.  0.
          5    1    3    3  501    0 -0.95122605824E+01  0.45181615523E+02  0.82114512986E+01  0.47131511912E+02  0.47000000000E+01 0.  1.
         -5    1    3    3    0  501  0.11711473567E+03 -0.13112846244E+02 -0.34924314999E+02  0.12300246268E+03  0.47000000000E+01 0.  1.
          5    1    4    4  502    0 -0.10495648442E+02 -0.21100596030E+02  0.54523109112E+02  0.59584001345E+02  0.47000000000E+01 0. -1.
         -5    1    4    4    0  502 -0.97106826646E+02 -0.10968173250E+02 -0.47129310072E+02  0.10859695426E+03  0.47000000000E+01 0. -1.
<mgrwt>
<rscale>  0 0.33776288E+03</rscale>
<asrwt>0</asrwt>
<pdfrwt beam="1">  1       21 0.24538144E-01 0.33776288E+03</pdfrwt>
<pdfrwt beam="2">  1       21 0.27510307E-01 0.33776288E+03</pdfrwt>
<totfact> 0.19062359E+05</totfact>
</mgrwt>
</event>
<event>
 8    1  0.9400004E-006  0.2969461E+03  0.7546771E-02  0.1086777E+00
         21   -1    0    0  504  503  0.00000000000E+00  0.00000000000E+00  0.68050383786E+02  0.68050383786E+02  0.00000000000E+00 0.  1.
         21   -1    0    0  503  504 -0.00000000000E+00 -0.00000000000E+00 -0.32394000265E+03  0.32394000265E+03  0.00000000000E+00 0.  1.
         25    2    1    2    0    0  0.59551911743E+02  0.33564797039E+02 -0.72773120808E+02  0.15997679268E+03  0.12499448504E+03 0.  0.
         25    2    1    2    0    0 -0.59551911743E+02 -0.33564797039E+02 -0.18311649805E+03  0.23201359375E+03  0.12500252011E+03 0.  0.
          5    1    3    3  501    0  0.89098584918E+02  0.14260225383E+02 -0.14247541255E+02  0.91471275787E+02  0.47000000000E+01 0.  1.
         -5    1    3    3    0  501 -0.29546673175E+02  0.19304571655E+02 -0.58525579554E+02  0.68505516892E+02  0.47000000000E+01 0.  1.
          5    1    4    4  502    0 -0.82512333963E+02 -0.37849722443E+02 -0.18695386996E+03  0.20788151971E+03  0.47000000000E+01 0. -1.
         -5    1    4    4    0  502  0.22960422220E+02  0.42849254039E+01  0.38373719101E+01  0.24132074039E+02  0.47000000000E+01 0. -1.
<mgrwt>
<rscale>  0 0.29694607E+03</rscale>
<asrwt>0</asrwt>
<pdfrwt beam="1">  1       21 0.10469290E-01 0.29694607E+03</pdfrwt>
<pdfrwt beam="2">  1       21 0.49836922E-01 0.29694607E+03</pdfrwt>
<totfact> 0.27986528E+05</totfact>
</mgrwt>
</event>
<event>
 8    1  0.9400004E-006  0.2547758E+03  0.7546771E-02  0.1110323E+00
         21   -1    0    0  504  503  0.00000000000E+00  0.00000000000E+00  0.73587770403E+02  0.73587770403E+02  0.00000000000E+00 0.  1.
         21   -1    0    0  503  504 -0.00000000000E+00 -0.00000000000E+00 -0.22052144273E+03  0.22052144273E+03  0.00000000000E+00 0.  1.
         25    2    1    2    0    0 -0.14773340676E+02 -0.18864362968E+02 -0.67234762721E+02  0.14393942658E+03  0.12499571761E+03 0.  0.
         25    2    1    2    0    0  0.14773340676E+02  0.18864362968E+02 -0.79698909607E+02  0.15016978656E+03  0.12499973127E+03 0.  0.
          5    1    3    3  501    0 -0.69588599083E+02 -0.14393065774E+02 -0.46091838618E+02  0.84830896800E+02  0.47000000000E+01 0.  1.
         -5    1    3    3    0  501  0.54815258407E+02 -0.44712971947E+01 -0.21142924104E+02  0.59108529777E+02  0.47000000000E+01 0.  1.
          5    1    4    4  502    0  0.61122607169E+02 -0.20025733796E+02 -0.54593625326E+02  0.84495899589E+02  0.47000000000E+01 0. -1.
         -5    1    4    4    0  502 -0.46349266493E+02  0.38890096764E+02 -0.25105284281E+02  0.65673886969E+02  0.47000000000E+01 0. -1.
<mgrwt>
<rscale>  0 0.25477583E+03</rscale>
<asrwt>0</asrwt>
<pdfrwt beam="1">  1       21 0.11321195E-01 0.25477583E+03</pdfrwt>
<pdfrwt beam="2">  1       21 0.33926376E-01 0.25477583E+03</pdfrwt>
<totfact> 0.53865010E+05</totfact>
</mgrwt>
</event>
<event>
 8    1  0.9400004E-006  0.2958798E+03  0.7546771E-02  0.1087319E+00
         21   -1    0    0  504  503  0.00000000000E+00  0.00000000000E+00  0.73537846902E+03  0.73537846902E+03  0.00000000000E+00 0. -1.
         21   -1    0    0  503  504 -0.00000000000E+00 -0.00000000000E+00 -0.29761836127E+02  0.29761836127E+02  0.00000000000E+00 0. -1.
         25    2    1    2    0    0 -0.49909652594E+02  0.19454347119E+01  0.51152803783E+03  0.52894230101E+03  0.12499706466E+03 0.  0.
         25    2    1    2    0    0  0.49909652594E+02 -0.19454347119E+01  0.19408859506E+03  0.23619800414E+03  0.12499742512E+03 0.  0.
          5    1    3    3  501    0  0.28019726471E+02 -0.30590946282E+02  0.92818333268E+02  0.10177545901E+03  0.47000000000E+01 0.  1.
         -5    1    3    3    0  501 -0.77929379066E+02  0.32536380993E+02  0.41870970456E+03  0.42716684200E+03  0.47000000000E+01 0.  1.
          5    1    4    4  502    0  0.46826655483E+02 -0.51563022423E+02  0.16314222453E+03  0.17745127886E+03  0.47000000000E+01 0.  1.
         -5    1    4    4    0  502  0.30829971110E+01  0.49617587711E+02  0.30946370533E+02  0.58746725276E+02  0.47000000000E+01 0.  1.
<mgrwt>
<rscale>  0 0.29587980E+03</rscale>
<asrwt>0</asrwt>
<pdfrwt beam="1">  1       21 0.11313514E+00 0.29587980E+03</pdfrwt>
<pdfrwt beam="2">  1       21 0.45787446E-02 0.29587980E+03</pdfrwt>
<totfact> 0.18426945E+05</totfact>
</mgrwt>
</event>
<event>
 8    1  0.9400004E-006  0.2994563E+03  0.7546771E-02  0.1085513E+00
         21   -1    0    0  504  503  0.00000000000E+00  0.00000000000E+00  0.14343698966E+03  0.14343698966E+03  0.00000000000E+00 0. -1.
         21   -1    0    0  503  504 -0.00000000000E+00 -0.00000000000E+00 -0.15629529267E+03  0.15629529267E+03  0.00000000000E+00 0. -1.
         25    2    1    2    0    0 -0.23061878880E+02 -0.21281384534E+02 -0.82756276878E+02  0.15312068675E+03  0.12495037320E+03 0.  0.
         25    2    1    2    0    0  0.23061878880E+02  0.21281384534E+02  0.69897973867E+02  0.14661159559E+03  0.12499794248E+03 0.  0.
          5    1    3    3  501    0  0.28139404783E+02  0.37185905074E+02 -0.50344873023E+02  0.68784546792E+02  0.47000000000E+01 0. -1.
         -5    1    3    3    0  501 -0.51201283663E+02 -0.58467289607E+02 -0.32411403855E+02  0.84336139955E+02  0.47000000000E+01 0. -1.
          5    1    4    4  502    0 -0.47880256691E+02  0.25946358829E+02  0.46058283136E+02  0.71478583945E+02  0.47000000000E+01 0. -1.
         -5    1    4    4    0  502  0.70942135570E+02 -0.46649742951E+01  0.23839690730E+02  0.75133011643E+02  0.47000000000E+01 0. -1.
<mgrwt>
<rscale>  0 0.29945635E+03</rscale>
<asrwt>0</asrwt>
<pdfrwt beam="1">  1       21 0.22067229E-01 0.29945635E+03</pdfrwt>
<pdfrwt beam="2">  1       21 0.24045430E-01 0.29945635E+03</pdfrwt>
<totfact> 0.30556006E+05</totfact>
</mgrwt>
</event>
<event>
 8    1  0.9400004E-006  0.4220748E+03  0.7546771E-02  0.1036393E+00
         21   -1    0    0  504  503  0.00000000000E+00  0.00000000000E+00  0.13742827403E+04  0.13742827403E+04  0.00000000000E+00 0.  1.
         21   -1    0    0  503  504 -0.00000000000E+00 -0.00000000000E+00 -0.32407291292E+02  0.32407291292E+02  0.00000000000E+00 0.  1.
         25    2    1    2    0    0  0.14680827374E+03  0.33042410910E+02  0.93478268556E+03  0.95503312474E+03  0.12500051987E+03 0.  0.
         25    2    1    2    0    0 -0.14680827374E+03 -0.33042410910E+02  0.40709276344E+03  0.45165690684E+03  0.12499989320E+03 0.  0.
          5    1    3    3  501    0  0.61933310542E+02 -0.25301775293E+02  0.16097909726E+03  0.17439115385E+03  0.47000000000E+01 0. -1.
         -5    1    3    3    0  501  0.84874963197E+02  0.58344186203E+02  0.77380358830E+03  0.78064197088E+03  0.47000000000E+01 0. -1.
          5    1    4    4  502    0 -0.15758692026E+02  0.40016421130E+02  0.65042555761E+02  0.78117055720E+02  0.47000000000E+01 0. -1.
         -5    1    4    4    0  502 -0.13104958171E+03 -0.73058832040E+02  0.34205020768E+03  0.37353985112E+03  0.47000000000E+01 0. -1.
<mgrwt>
<rscale>  0 0.42207479E+03</rscale>
<asrwt>0</asrwt>
<pdfrwt beam="1">  1       21 0.21142807E+00 0.42207479E+03</pdfrwt>
<pdfrwt beam="2">  1       21 0.49857382E-02 0.42207479E+03</pdfrwt>
<totfact> 0.27393374E+04</totfact>
</mgrwt>
</event>
<event>
 8    1  0.9400004E-006  0.2565527E+03  0.7546771E-02  0.1109232E+00
         21   -1    0    0  504  503  0.00000000000E+00  0.00000000000E+00  0.12378964464E+04  0.12378964464E+04  0.00000000000E+00 0.  1.
         21   -1    0    0  503  504 -0.00000000000E+00 -0.00000000000E+00 -0.13292567118E+02  0.13292567118E+02  0.00000000000E+00 0.  1.
         25    2    1    2    0    0 -0.26214335051E+02 -0.21082812382E+01  0.55489482836E+03  0.56940704725E+03  0.12499791481E+03 0.  0.
         25    2    1    2    0    0  0.26214335051E+02  0.21082812382E+01  0.66970905090E+03  0.68178196625E+03  0.12499920171E+03 0.  0.
          5    1    3    3  501    0  0.28213256972E+02 -0.46684040691E+02  0.18851366223E+03  0.19630302690E+03  0.47000000000E+01 0.  1.
         -5    1    3    3    0  501 -0.54427592023E+02  0.44575759453E+02  0.36638116613E+03  0.37310402035E+03  0.47000000000E+01 0.  1.
          5    1    4    4  502    0 -0.28030726001E+02 -0.13611507932E+02  0.47534451046E+02  0.57031647220E+02  0.47000000000E+01 0.  1.
         -5    1    4    4    0  502  0.54245061052E+02  0.15719789170E+02  0.62217459986E+03  0.62475031903E+03  0.47000000000E+01 0.  1.
<mgrwt>
<rscale>  0 0.25655270E+03</rscale>
<asrwt>0</asrwt>
<pdfrwt beam="1">  1       21 0.19044552E+00 0.25655270E+03</pdfrwt>
<pdfrwt beam="2">  1       21 0.20450113E-02 0.25655270E+03</pdfrwt>
<totfact> 0.17868121E+05</totfact>
</mgrwt>
</event>
<event>
 8    1  0.9400004E-006  0.4217164E+03  0.7546771E-02  0.1036509E+00
         21   -1    0    0  504  503  0.00000000000E+00  0.00000000000E+00  0.23193528861E+04  0.23193528861E+04  0.00000000000E+00 0. -1.
         21   -1    0    0  503  504 -0.00000000000E+00 -0.00000000000E+00 -0.19169644650E+02  0.19169644650E+02  0.00000000000E+00 0. -1.
         25    2    1    2    0    0 -0.14806564482E+02  0.16842692088E+02  0.21660506039E+03  0.25107795270E+03  0.12497790011E+03 0.  0.
         25    2    1    2    0    0  0.14806564482E+02 -0.16842692088E+02  0.20835781811E+04  0.20874445780E+04  0.12499567680E+03 0.  0.
          5    1    3    3  501    0 -0.97708720134E+01  0.30164938890E+02  0.22923830231E+03  0.23146853506E+03  0.47000000000E+01 0.  1.
         -5    1    3    3    0  501 -0.50356924684E+01 -0.13322246802E+02 -0.12633241922E+02  0.19609417634E+02  0.47000000000E+01 0.  1.
          5    1    4    4  502    0  0.99225127267E+01 -0.66669894471E+02  0.78822924889E+03  0.79111994659E+03  0.47000000000E+01 0.  1.
         -5    1    4    4    0  502  0.48840517551E+01  0.49827202383E+02  0.12953489322E+04  0.12963246315E+04  0.47000000000E+01 0.  1.
<mgrwt>
<rscale>  0 0.42171635E+03</rscale>
<asrwt>0</asrwt>
<pdfrwt beam="1">  1       21 0.35682330E+00 0.42171635E+03</pdfrwt>
<pdfrwt beam="2">  1       21 0.29491779E-02 0.42171635E+03</pdfrwt>
<totfact> 0.86650732E+03</totfact>
</mgrwt>
</event>
<event>
 8    1  0.9400004E-006  0.2815638E+03  0.7546771E-02  0.1094838E+00
         21   -1    0    0  504  503  0.00000000000E+00  0.00000000000E+00  0.10183098330E+03  0.10183098330E+03  0.00000000000E+00 0.  1.
         21   -1    0    0  503  504 -0.00000000000E+00 -0.00000000000E+00 -0.19463170076E+03  0.19463170076E+03  0.00000000000E+00 0.  1.
         25    2    1    2    0    0 -0.56516779479E+02  0.45580366209E+01 -0.79353685612E+02  0.15854714317E+03  0.12500106851E+03 0.  0.
         25    2    1    2    0    0  0.56516779479E+02 -0.45580366209E+01 -0.13447031847E+02  0.13791554089E+03  0.12499980677E+03 0.  0.
          5    1    3    3  501    0 -0.93944442649E+02 -0.37252785103E+01 -0.73616868680E+02  0.11950300983E+03  0.47000000000E+01 0.  1.
         -5    1    3    3    0  501  0.37427663170E+02  0.82833151312E+01 -0.57368169325E+01  0.39044133342E+02  0.47000000000E+01 0.  1.
          5    1    4    4  502    0  0.31114628489E+02 -0.85953418340E+01 -0.69107585246E+02  0.76419554734E+02  0.47000000000E+01 0.  1.
         -5    1    4    4    0  502  0.25402150990E+02  0.40373052131E+01  0.55660553399E+02  0.61495986153E+02  0.47000000000E+01 0.  1.
<mgrwt>
<rscale>  0 0.28156376E+03</rscale>
<asrwt>0</asrwt>
<pdfrwt beam="1">  1       21 0.15666305E-01 0.28156376E+03</pdfrwt>
<pdfrwt beam="2">  1       21 0.29943338E-01 0.28156376E+03</pdfrwt>
<totfact> 0.38030198E+05</totfact>
</mgrwt>
</event>
<event>
 8    1  0.9400004E-006  0.4645631E+03  0.7546771E-02  0.1023466E+00
         21   -1    0    0  504  503  0.00000000000E+00  0.00000000000E+00  0.19956753836E+03  0.19956753836E+03  0.00000000000E+00 0. -1.
         21   -1    0    0  503  504 -0.00000000000E+00 -0.00000000000E+00 -0.27035815367E+03  0.27035815367E+03  0.00000000000E+00 0. -1.
         25    2    1    2    0    0 -0.37301197024E+02 -0.55904909184E+02  0.15061096341E+03  0.20694180425E+03  0.12499803950E+03 0.  0.
         25    2    1    2    0    0  0.37301197024E+02  0.55904909184E+02 -0.22140157872E+03  0.26298388778E+03  0.12500051202E+03 0.  0.
          5    1    3    3  501    0 -0.12756646963E+02  0.13103098216E+02 -0.16084983436E+02  0.24804030252E+02  0.47000000000E+01 0.  1.
         -5    1    3    3    0  501 -0.24544550060E+02 -0.69008007400E+02  0.16669594684E+03  0.18213777400E+03  0.47000000000E+01 0.  1.
          5    1    4    4  502    0 -0.66868596555E+01  0.67836369464E+02 -0.47672288841E+02  0.83314009851E+02  0.47000000000E+01 0. -1.
         -5    1    4    4    0  502  0.43988056679E+02 -0.11931460280E+02 -0.17372928988E+03  0.17966987793E+03  0.47000000000E+01 0. -1.
<mgrwt>
<rscale>  0 0.46456307E+03</rscale>
<asrwt>0</asrwt>
<pdfrwt beam="1">  1       21 0.30702698E-01 0.46456307E+03</pdfrwt>
<pdfrwt beam="2">  1       21 0.41593562E-01 0.46456307E+03</pdfrwt>
<totfact> 0.52093833E+04</totfact>
</mgrwt>
</event>
<event>
 8    1  0.9400004E-006  0.2564562E+03  0.7546771E-02  0.1109291E+00
         21   -1    0    0  504  503  0.00000000000E+00  0.00000000000E+00  0.16802255785E+03  0.16802255785E+03  0.00000000000E+00 0.  1.
         21   -1    0    0  503  504 -0.00000000000E+00 -0.00000000000E+00 -0.97858571757E+02  0.97858571757E+02  0.00000000000E+00 0.  1.
         25    2    1    2    0    0 -0.69761184290E+01 -0.27489299332E+02  0.38866720708E+02  0.13393849623E+03  0.12499828394E+03 0.  0.
         25    2    1    2    0    0  0.69761184290E+01  0.27489299332E+02  0.31297265385E+02  0.13194263338E+03  0.12500004751E+03 0.  0.
          5    1    3    3  501    0 -0.41985158704E+02 -0.53232958667E+02  0.54917523095E+02  0.87375773431E+02  0.47000000000E+01 0. -1.
         -5    1    3    3    0  501  0.35009040275E+02  0.25743659335E+02 -0.16050802388E+02  0.46562722796E+02  0.47000000000E+01 0. -1.
          5    1    4    4  502    0 -0.48952724153E+02  0.22609557949E+01 -0.18694467565E+02  0.52659797195E+02  0.47000000000E+01 0.  1.
         -5    1    4    4    0  502  0.55928842582E+02  0.25228343537E+02  0.49991732950E+02  0.79282836185E+02  0.47000000000E+01 0.  1.
<mgrwt>
<rscale>  0 0.25645621E+03</rscale>
<asrwt>0</asrwt>
<pdfrwt beam="1">  1       21 0.25849624E-01 0.25645621E+03</pdfrwt>
<pdfrwt beam="2">  1       21 0.15055165E-01 0.25645621E+03</pdfrwt>
<totfact> 0.54720029E+05</totfact>
</mgrwt>
</event>
<event>
 8    1  0.9400004E-006  0.3512574E+03  0.7546771E-02  0.1062100E+00
         21   -1    0    0  504  503  0.00000000000E+00  0.00000000000E+00  0.32996145899E+03  0.32996145899E+03  0.00000000000E+00 0. -1.
         21   -1    0    0  503  504 -0.00000000000E+00 -0.00000000000E+00 -0.93481941897E+02  0.93481941897E+02  0.00000000000E+00 0. -1.
         25    2    1    2    0    0 -0.41413940344E+02 -0.50238943640E+02  0.24456765702E+03  0.28227143571E+03  0.12499903459E+03 0.  0.
         25    2    1    2    0    0  0.41413940344E+02  0.50238943640E+02 -0.80881399203E+01  0.14117196518E+03  0.12500015933E+03 0.  0.
          5    1    3    3  501    0 -0.71871919171E+02 -0.40015315177E+02  0.23406714870E+03  0.24814576022E+03  0.47000000000E+01 0. -1.
         -5    1    3    3    0  501  0.30457978827E+02 -0.10223628463E+02  0.10500508317E+02  0.34125675497E+02  0.47000000000E+01 0. -1.
          5    1    4    4  502    0  0.86460527108E+01 -0.25580859868E+02 -0.43310807436E+02  0.51254762313E+02  0.47000000000E+01 0.  1.
         -5    1    4    4    0  502  0.32767887633E+02  0.75819803508E+02  0.35222667515E+02  0.89917202863E+02  0.47000000000E+01 0.  1.
<mgrwt>
<rscale>  0 0.35125739E+03</rscale>
<asrwt>0</asrwt>
<pdfrwt beam="1">  1       21 0.50763301E-01 0.35125739E+03</pdfrwt>
<pdfrwt beam="2">  1       21 0.14381837E-01 0.35125739E+03</pdfrwt>
<totfact> 0.14963864E+05</totfact>
</mgrwt>
</event>
<event>
 8    1  0.9400004E-006  0.2972042E+03  0.7546771E-02  0.1086647E+00
         21   -1    0    0  504  503  0.00000000000E+00  0.00000000000E+00  0.29265228622E+02  0.29265228622E+02  0.00000000000E+00 0.  1.
         21   -1    0    0  503  504 -0.00000000000E+00 -0.00000000000E+00 -0.75456720322E+03  0.75456720322E+03  0.00000000000E+00 0.  1.
         25    2    1    2    0    0 -0.33436660924E+02  0.72909343102E+02 -0.37689449598E+03  0.40510420658E+03  0.12500469785E+03 0.  0.
         25    2    1    2    0    0  0.33436660924E+02 -0.72909343102E+02 -0.34840747861E+03  0.37872822526E+03  0.12495405094E+03 0.  0.
          5    1    3    3  501    0 -0.29594296012E+02  0.67385371542E+01 -0.10088400954E+02  0.32327945701E+02  0.47000000000E+01 0.  1.
         -5    1    3    3    0  501 -0.38423649122E+01  0.66170805948E+02 -0.36680609503E+03  0.37277626088E+03  0.47000000000E+01 0.  1.
          5    1    4    4  502    0 -0.33410733911E+02 -0.69526559687E+02 -0.14170631004E+03  0.16140937998E+03  0.47000000000E+01 0. -1.
         -5    1    4    4    0  502  0.66847394836E+02 -0.33827834153E+01 -0.20670116858E+03  0.21731884527E+03  0.47000000000E+01 0. -1.
<mgrwt>
<rscale>  0 0.29720418E+03</rscale>
<asrwt>0</asrwt>
<pdfrwt beam="1">  1       21 0.45023436E-02 0.29720418E+03</pdfrwt>
<pdfrwt beam="2">  1       21 0.11608724E+00 0.29720418E+03</pdfrwt>
<totfact> 0.17787731E+05</totfact>
</mgrwt>
</event>
<event>
 8    1  0.9400004E-006  0.3157994E+03  0.7546771E-02  0.1077599E+00
         21   -1    0    0  504  503  0.00000000000E+00  0.00000000000E+00  0.36809607974E+02  0.36809607974E+02  0.00000000000E+00 0.  1.
         21   -1    0    0  503  504 -0.00000000000E+00 -0.00000000000E+00 -0.67733178360E+03  0.67733178360E+03  0.00000000000E+00 0.  1.
         25    2    1    2    0    0 -0.53249863701E+02 -0.77365329139E+02 -0.37007120741E+03  0.40174727146E+03  0.12500891742E+03 0.  0.
         25    2    1    2    0    0  0.53249863701E+02  0.77365329139E+02 -0.27045096821E+03  0.31239412011E+03  0.12500167173E+03 0.  0.
          5    1    3    3  501    0 -0.12083224425E+02 -0.99638358001E+02 -0.30727250428E+03  0.32328360395E+03  0.47000000000E+01 0. -1.
         -5    1    3    3    0  501 -0.41166639276E+02  0.22273028861E+02 -0.62798703133E+02  0.78463667510E+02  0.47000000000E+01 0. -1.
          5    1    4    4  502    0 -0.15888026019E+02  0.79564617650E+02 -0.18701724425E+03  0.20391296525E+03  0.47000000000E+01 0. -1.
         -5    1    4    4    0  502  0.69137889719E+02 -0.21992885106E+01 -0.83433723965E+02  0.10848115486E+03  0.47000000000E+01 0. -1.
<mgrwt>
<rscale>  0 0.31579941E+03</rscale>
<asrwt>0</asrwt>
<pdfrwt beam="1">  1       21 0.56630167E-02 0.31579941E+03</pdfrwt>
<pdfrwt beam="2">  1       21 0.10420489E+00 0.31579941E+03</pdfrwt>
<totfact> 0.15576089E+05</totfact>
</mgrwt>
</event>
<event>
 8    1  0.9400004E-006  0.4373721E+03  0.7546771E-02  0.1031556E+00
         21   -1    0    0  504  503  0.00000000000E+00  0.00000000000E+00  0.18114082076E+03  0.18114082076E+03  0.00000000000E+00 0. -1.
         21   -1    0    0  503  504 -0.00000000000E+00 -0.00000000000E+00 -0.26401334718E+03  0.26401334718E+03  0.00000000000E+00 0. -1.
         25    2    1    2    0    0  0.11159576637E+03  0.58375707902E+02  0.88653994636E+02  0.19835934148E+03  0.12500223696E+03 0.  0.
         25    2    1    2    0    0 -0.11159576637E+03 -0.58375707902E+02 -0.17152652106E+03  0.24679482646E+03  0.12500000239E+03 0.  0.
          5    1    3    3  501    0 -0.24844239025E+02  0.20362547050E+01  0.30407983449E+02  0.39599469737E+02  0.47000000000E+01 0. -1.
         -5    1    3    3    0  501  0.13644000539E+03  0.56339453197E+02  0.58246011187E+02  0.15875987175E+03  0.47000000000E+01 0. -1.
          5    1    4    4  502    0 -0.86101648435E+02 -0.97662571777E+02 -0.12244857853E+03  0.17879378114E+03  0.47000000000E+01 0.  1.
         -5    1    4    4    0  502 -0.25494117931E+02  0.39286863875E+02 -0.49077942528E+02  0.68001045322E+02  0.47000000000E+01 0.  1.
<mgrwt>
<rscale>  0 0.43737213E+03</rscale>
<asrwt>0</asrwt>
<pdfrwt beam="1">  1       21 0.27867819E-01 0.43737213E+03</pdfrwt>
<pdfrwt beam="2">  1       21 0.40617438E-01 0.43737213E+03</pdfrwt>
<totfact> 0.66671292E+04</totfact>
</mgrwt>
</event>
<event>
 8    1  0.9400004E-006  0.3066149E+03  0.7546771E-02  0.1081980E+00
         21   -1    0    0  504  503  0.00000000000E+00  0.00000000000E+00  0.44076843172E+03  0.44076843172E+03  0.00000000000E+00 0.  1.
         21   -1    0    0  503  504 -0.00000000000E+00 -0.00000000000E+00 -0.53323180299E+02  0.53323180299E+02  0.00000000000E+00 0.  1.
         25    2    1    2    0    0 -0.57197506548E+02 -0.52488595176E+02  0.26307651606E+03  0.30143194844E+03  0.12500143543E+03 0.  0.
         25    2    1    2    0    0  0.57197506548E+02  0.52488595176E+02  0.12436873537E+03  0.19265966358E+03  0.12499422489E+03 0.  0.
          5    1    3    3  501    0 -0.40691496918E+02 -0.87694419861E+02  0.23217844909E+03  0.25154528702E+03  0.47000000000E+01 0.  1.
         -5    1    3    3    0  501 -0.16506009630E+02  0.35205824685E+02  0.30898066963E+02  0.49886661420E+02  0.47000000000E+01 0.  1.
          5    1    4    4  502    0 -0.29644593250E+02  0.50897447485E+02  0.61854763133E+02  0.85542117063E+02  0.47000000000E+01 0.  1.
         -5    1    4    4    0  502  0.86842099798E+02  0.15911476905E+01  0.62513972234E+02  0.10711754652E+03  0.47000000000E+01 0.  1.
<mgrwt>
<rscale>  0 0.30661490E+03</rscale>
<asrwt>0</asrwt>
<pdfrwt beam="1">  1       21 0.67810526E-01 0.30661490E+03</pdfrwt>
<pdfrwt beam="2">  1       21 0.82035665E-02 0.30661490E+03</pdfrwt>
<totfact> 0.22137849E+05</totfact>
</mgrwt>
</event>
<event>
 8    1  0.9400004E-006  0.3688155E+03  0.7546771E-02  0.1055147E+00
         21   -1    0    0  504  503  0.00000000000E+00  0.00000000000E+00  0.84977330135E+02  0.84977330135E+02  0.00000000000E+00 0.  1.
         21   -1    0    0  503  504 -0.00000000000E+00 -0.00000000000E+00 -0.40017997126E+03  0.40017997126E+03  0.00000000000E+00 0.  1.
         25    2    1    2    0    0  0.51359520905E+02 -0.87599624119E+02 -0.27577579379E+03  0.31935693081E+03  0.12500026512E+03 0.  0.
         25    2    1    2    0    0 -0.51359520905E+02  0.87599624119E+02 -0.39426847327E+02  0.16580037058E+03  0.12499516815E+03 0.  0.
          5    1    3    3  501    0 -0.41416697982E+02 -0.30924139131E+02 -0.98781120974E+02  0.11158604354E+03  0.47000000000E+01 0.  1.
         -5    1    3    3    0  501  0.92776218887E+02 -0.56675484988E+02 -0.17699467282E+03  0.20777088727E+03  0.47000000000E+01 0.  1.
          5    1    4    4  502    0 -0.77839722199E+02  0.57169170973E+02 -0.66177307889E+02  0.11717022890E+03  0.47000000000E+01 0. -1.
         -5    1    4    4    0  502  0.26480201294E+02  0.30430453145E+02  0.26750460562E+02  0.48630141677E+02  0.47000000000E+01 0. -1.
<mgrwt>
<rscale>  0 0.36881554E+03</rscale>
<asrwt>0</asrwt>
<pdfrwt beam="1">  1       21 0.13073435E-01 0.36881554E+03</pdfrwt>
<pdfrwt beam="2">  1       21 0.61566150E-01 0.36881554E+03</pdfrwt>
<totfact> 0.11716732E+05</totfact>
</mgrwt>
</event>
<event>
 8    1  0.9400004E-006  0.2802019E+03  0.7546771E-02  0.1095579E+00
         21   -1    0    0  504  503  0.00000000000E+00  0.00000000000E+00  0.20637707853E+03  0.20637707853E+03  0.00000000000E+00 0. -1.
         21   -1    0    0  503  504 -0.00000000000E+00 -0.00000000000E+00 -0.95108780720E+02  0.95108780720E+02  0.00000000000E+00 0. -1.
         25    2    1    2    0    0 -0.14668075071E+02  0.25885874149E+02 -0.44501966018E+01  0.12856667926E+03  0.12499742341E+03 0.  0.
         25    2    1    2    0    0  0.14668075071E+02 -0.25885874149E+02  0.11571849442E+03  0.17291918000E+03  0.12500016782E+03 0.  0.
          5    1    3    3  501    0 -0.44730183639E+02  0.46056143026E+02 -0.41469661301E+02  0.76575325316E+02  0.47000000000E+01 0.  1.
         -5    1    3    3    0  501  0.30062108569E+02 -0.20170268877E+02  0.37019464699E+02  0.51991353942E+02  0.47000000000E+01 0.  1.
          5    1    4    4  502    0 -0.49001491567E+02  0.49741463001E+00  0.82957945745E+02  0.96465042163E+02  0.47000000000E+01 0. -1.
         -5    1    4    4    0  502  0.63669566638E+02 -0.26383288779E+02  0.32760548671E+02  0.76454137834E+02  0.47000000000E+01 0. -1.
<mgrwt>
<rscale>  0 0.28020187E+03</rscale>
<asrwt>0</asrwt>
<pdfrwt beam="1">  1       21 0.31750320E-01 0.28020187E+03</pdfrwt>
<pdfrwt beam="2">  1       21 0.14632120E-01 0.28020187E+03</pdfrwt>
<totfact> 0.38419488E+05</totfact>
</mgrwt>
</event>
<event>
 8    1  0.9400004E-006  0.2715975E+03  0.7546771E-02  0.1100369E+00
         21   -1    0    0  504  503  0.00000000000E+00  0.00000000000E+00  0.11922208485E+03  0.11922208485E+03  0.00000000000E+00 0.  1.
         21   -1    0    0  503  504 -0.00000000000E+00 -0.00000000000E+00 -0.15468018570E+03  0.15468018570E+03  0.00000000000E+00 0.  1.
         25    2    1    2    0    0 -0.61433730139E+01  0.27003324027E+02 -0.63391310810E+02  0.14286266739E+03  0.12499745160E+03 0.  0.
         25    2    1    2    0    0  0.61433730139E+01 -0.27003324027E+02  0.27933209959E+02  0.13103960316E+03  0.12499677131E+03 0.  0.
          5    1    3    3  501    0 -0.83492597813E+01 -0.31459085577E+02  0.21767431474E+02  0.39437232119E+02  0.47000000000E+01 0. -1.
         -5    1    3    3    0  501  0.22058867674E+01  0.58462409604E+02 -0.85158742283E+02  0.10342543527E+03  0.47000000000E+01 0. -1.
          5    1    4    4  502    0 -0.41032806641E+02 -0.27307175729E+02  0.56942501856E+02  0.75458012065E+02  0.47000000000E+01 0. -1.
         -5    1    4    4    0  502  0.47176179655E+02  0.30385170175E+00 -0.29009291898E+02  0.55581591099E+02  0.47000000000E+01 0. -1.
<mgrwt>
<rscale>  0 0.27159745E+03</rscale>
<asrwt>0</asrwt>
<pdfrwt beam="1">  1       21 0.18341859E-01 0.27159745E+03</pdfrwt>
<pdfrwt beam="2">  1       21 0.23796952E-01 0.27159745E+03</pdfrwt>
<totfact> 0.44405791E+05</totfact>
</mgrwt>
</event>
<event>
 8    1  0.9400004E-006  0.3352262E+03  0.7546771E-02  0.1068848E+00
         21   -1    0    0  504  503  0.00000000000E+00  0.00000000000E+00  0.10034006264E+04  0.10034006264E+04  0.00000000000E+00 0.  1.
         21   -1    0    0  503  504 -0.00000000000E+00 -0.00000000000E+00 -0.27998933157E+02  0.27998933157E+02  0.00000000000E+00 0.  1.
         25    2    1    2    0    0  0.10873527487E+03  0.60520429475E+01  0.41167927520E+03  0.44380771253E+03  0.12500189141E+03 0.  0.
         25    2    1    2    0    0 -0.10873527487E+03 -0.60520429475E+01  0.56372241806E+03  0.58759184703E+03  0.12498490651E+03 0.  0.
          5    1    3    3  501    0 -0.17309501734E+02  0.31636102613E+02  0.74543347631E+02  0.82941319708E+02  0.47000000000E+01 0.  1.
         -5    1    3    3    0  501  0.12604477660E+03 -0.25584059666E+02  0.33713592756E+03  0.36086639283E+03  0.47000000000E+01 0.  1.
          5    1    4    4  502    0 -0.18634354330E+02 -0.58353486661E+02  0.20196653467E+03  0.21110409682E+03  0.47000000000E+01 0. -1.
         -5    1    4    4    0  502 -0.90100920535E+02  0.52301443714E+02  0.36175588339E+03  0.37648775022E+03  0.47000000000E+01 0. -1.
<mgrwt>
<rscale>  0 0.33522617E+03</rscale>
<asrwt>0</asrwt>
<pdfrwt beam="1">  1       21 0.15436930E+00 0.33522617E+03</pdfrwt>
<pdfrwt beam="2">  1       21 0.43075290E-02 0.33522617E+03</pdfrwt>
<totfact> 0.90576278E+04</totfact>
</mgrwt>
</event>
<event>
 8    1  0.9400004E-006  0.2950964E+03  0.7546771E-02  0.1087718E+00
         21   -1    0    0  504  503  0.00000000000E+00  0.00000000000E+00  0.19176301385E+02  0.19176301385E+02  0.00000000000E+00 0. -1.
         21   -1    0    0  503  504 -0.00000000000E+00 -0.00000000000E+00 -0.11352799090E+04  0.11352799090E+04  0.00000000000E+00 0. -1.
         25    2    1    2    0    0 -0.59435910363E+02  0.30134538077E+02 -0.39633154741E+03  0.42087754232E+03  0.12497396660E+03 0.  0.
         25    2    1    2    0    0  0.59435910363E+02 -0.30134538077E+02 -0.71977206024E+03  0.73357866810E+03  0.12500050307E+03 0.  0.
          5    1    3    3  501    0 -0.18842908194E+02 -0.21307422333E+02 -0.12430070448E+02  0.31395192101E+02  0.47000000000E+01 0.  1.
         -5    1    3    3    0  501 -0.40593002168E+02  0.51441960410E+02 -0.38390147696E+03  0.38948235022E+03  0.47000000000E+01 0.  1.
          5    1    4    4  502    0  0.51333788798E+02 -0.59296611866E+02 -0.67362525803E+03  0.67819195240E+03  0.47000000000E+01 0.  1.
         -5    1    4    4    0  502  0.81021215649E+01  0.29162073789E+02 -0.46146802212E+02  0.55386715699E+02  0.47000000000E+01 0.  1.
<mgrwt>
<rscale>  0 0.29509639E+03</rscale>
<asrwt>0</asrwt>
<pdfrwt beam="1">  1       21 0.29501997E-02 0.29509639E+03</pdfrwt>
<pdfrwt beam="2">  1       21 0.17465848E+00 0.29509639E+03</pdfrwt>
<totfact> 0.12328848E+05</totfact>
</mgrwt>
</event>
<event>
 8    1  0.9400004E-006  0.3530824E+03  0.7546771E-02  0.1061357E+00
         21   -1    0    0  504  503  0.00000000000E+00  0.00000000000E+00  0.81510989347E+02  0.81510989347E+02  0.00000000000E+00 0. -1.
         21   -1    0    0  503  504 -0.00000000000E+00 -0.00000000000E+00 -0.38236315900E+03  0.38236315900E+03  0.00000000000E+00 0. -1.
         25    2    1    2    0    0 -0.77095606786E+01 -0.12426526221E+03 -0.14232488509E+03  0.22665998863E+03  0.12496833523E+03 0.  0.
         25    2    1    2    0    0  0.77095606786E+01  0.12426526221E+03 -0.15852728456E+03  0.23721415972E+03  0.12505344818E+03 0.  0.
          5    1    3    3  501    0 -0.20153621600E+02 -0.13148213307E+03 -0.15682999970E+03  0.20569749290E+03  0.47000000000E+01 0.  1.
         -5    1    3    3    0  501  0.12444060922E+02  0.72168708579E+01  0.14505114612E+02  0.20962495727E+02  0.47000000000E+01 0.  1.
          5    1    4    4  502    0  0.24140441876E+02  0.82430441507E+01  0.13324548566E+02  0.29160629371E+02  0.47000000000E+01 0.  1.
         -5    1    4    4    0  502 -0.16430881198E+02  0.11602221806E+03 -0.17185183313E+03  0.20805353035E+03  0.47000000000E+01 0.  1.
<mgrwt>
<rscale>  0 0.35308242E+03</rscale>
<asrwt>0</asrwt>
<pdfrwt beam="1">  1       21 0.12540152E-01 0.35308242E+03</pdfrwt>
<pdfrwt beam="2">  1       21 0.58825103E-01 0.35308242E+03</pdfrwt>
<totfact> 0.14009558E+05</totfact>
</mgrwt>
</event>
<event>
 8    1  0.9400004E-006  0.3497479E+03  0.7546771E-02  0.1062719E+00
         21   -1    0    0  504  503  0.00000000000E+00  0.00000000000E+00  0.80535293880E+03  0.80535293880E+03  0.00000000000E+00 0. -1.
         21   -1    0    0  503  504 -0.00000000000E+00 -0.00000000000E+00 -0.37972034788E+02  0.37972034788E+02  0.00000000000E+00 0. -1.
         25    2    1    2    0    0  0.10207075922E+03 -0.53780686879E+02  0.48141106961E+03  0.51057991912E+03  0.12499773477E+03 0.  0.
         25    2    1    2    0    0 -0.10207075922E+03  0.53780686879E+02  0.28596983440E+03  0.33274505446E+03  0.12501889023E+03 0.  0.
          5    1    3    3  501    0  0.87385560137E+02 -0.93027557388E+02  0.35048940570E+03  0.37303522095E+03  0.47000000000E+01 0. -1.
         -5    1    3    3    0  501  0.14685199087E+02  0.39246870509E+02  0.13092166390E+03  0.13754469818E+03  0.47000000000E+01 0. -1.
          5    1    4    4  502    0 -0.66508241692E+02  0.84935706457E+02  0.12635075827E+03  0.16620476696E+03  0.47000000000E+01 0. -1.
         -5    1    4    4    0  502 -0.35562517532E+02 -0.31155019577E+02  0.15961907613E+03  0.16654028750E+03  0.47000000000E+01 0. -1.
<mgrwt>
<rscale>  0 0.34974785E+03</rscale>
<asrwt>0</asrwt>
<pdfrwt beam="1">  1       21 0.12390044E+00 0.34974785E+03</pdfrwt>
<pdfrwt beam="2">  1       21 0.58418521E-02 0.34974785E+03</pdfrwt>
<totfact> 0.95204385E+04</totfact>
</mgrwt>
</event>
<event>
 8    1  0.9400004E-006  0.3163081E+03  0.7546771E-02  0.1077361E+00
         21   -1    0    0  504  503  0.00000000000E+00  0.00000000000E+00  0.19781038694E+03  0.19781038694E+03  0.00000000000E+00 0.  1.
         21   -1    0    0  503  504 -0.00000000000E+00 -0.00000000000E+00 -0.12644783740E+03  0.12644783740E+03  0.00000000000E+00 0.  1.
         25    2    1    2    0    0 -0.12545764137E+02 -0.37788459472E+02  0.12623207999E+03  0.18205374020E+03  0.12499464963E+03 0.  0.
         25    2    1    2    0    0  0.12545764137E+02  0.37788459472E+02 -0.54869530448E+02  0.14220448414E+03  0.12500434420E+03 0.  0.
          5    1    3    3  501    0 -0.45964022015E+02  0.62298747237E+01  0.27692305640E+01  0.46703975171E+02  0.47000000000E+01 0. -1.
         -5    1    3    3    0  501  0.33418257878E+02 -0.44018334195E+02  0.12346284943E+03  0.13534976503E+03  0.47000000000E+01 0. -1.
          5    1    4    4  502    0  0.58345506481E+02  0.52104041255E+02 -0.15330318315E+02  0.79850722609E+02  0.47000000000E+01 0.  1.
         -5    1    4    4    0  502 -0.45799742344E+02 -0.14315581783E+02 -0.39539212134E+02  0.62353761528E+02  0.47000000000E+01 0.  1.
<mgrwt>
<rscale>  0 0.31630805E+03</rscale>
<asrwt>0</asrwt>
<pdfrwt beam="1">  1       21 0.30432367E-01 0.31630805E+03</pdfrwt>
<pdfrwt beam="2">  1       21 0.19453513E-01 0.31630805E+03</pdfrwt>
<totfact> 0.24444383E+05</totfact>
</mgrwt>
</event>
<event>
 8    1  0.9400004E-006  0.3271564E+03  0.7546771E-02  0.1072402E+00
         21   -1    0    0  504  503  0.00000000000E+00  0.00000000000E+00  0.19018230040E+03  0.19018230040E+03  0.00000000000E+00 0.  1.
         21   -1    0    0  503  504 -0.00000000000E+00 -0.00000000000E+00 -0.14069564228E+03  0.14069564228E+03  0.00000000000E+00 0.  1.
         25    2    1    2    0    0 -0.45652416050E+02  0.93523600674E+02  0.42341859159E+02  0.16807407710E+03  0.12500102152E+03 0.  0.
         25    2    1    2    0    0  0.45652416050E+02 -0.93523600674E+02  0.71447989561E+01  0.16280386559E+03  0.12499297390E+03 0.  0.
          5    1    3    3  501    0  0.15141934558E+01 -0.24177717080E+02  0.32498463759E+02  0.40805574763E+02  0.47000000000E+01 0. -1.
         -5    1    3    3    0  501 -0.47166609506E+02  0.11770131775E+03  0.98433953994E+01  0.12726850233E+03  0.47000000000E+01 0. -1.
          5    1    4    4  502    0  0.46670774355E+02 -0.10293294560E+03  0.46316423750E+02  0.12223196627E+03  0.47000000000E+01 0. -1.
         -5    1    4    4    0  502 -0.10183583055E+01  0.94093449229E+01 -0.39171624793E+02  0.40571899321E+02  0.47000000000E+01 0. -1.
<mgrwt>
<rscale>  0 0.32715636E+03</rscale>
<asrwt>0</asrwt>
<pdfrwt beam="1">  1       21 0.29258816E-01 0.32715636E+03</pdfrwt>
<pdfrwt beam="2">  1       21 0.21645483E-01 0.32715636E+03</pdfrwt>
<totfact> 0.21530762E+05</totfact>
</mgrwt>
</event>
<event>
 8    1  0.9400004E-006  0.2636515E+03  0.7546771E-02  0.1104969E+00
         21   -1    0    0  504  503  0.00000000000E+00  0.00000000000E+00  0.34505607542E+02  0.34505607542E+02  0.00000000000E+00 0.  1.
         21   -1    0    0  503  504 -0.00000000000E+00 -0.00000000000E+00 -0.50362918752E+03  0.50362918752E+03  0.00000000000E+00 0.  1.
         25    2    1    2    0    0 -0.40096877076E+02  0.11985888296E+02 -0.23728109445E+03  0.27143834531E+03  0.12500014581E+03 0.  0.
         25    2    1    2    0    0  0.40096877076E+02 -0.11985888296E+02 -0.23184248552E+03  0.26669644975E+03  0.12499854857E+03 0.  0.
          5    1    3    3  501    0 -0.57590615365E+02 -0.32553202423E+02 -0.19966235930E+03  0.21038901513E+03  0.47000000000E+01 0.  1.
         -5    1    3    3    0  501  0.17493738289E+02  0.44539090718E+02 -0.37618735157E+02  0.61049330186E+02  0.47000000000E+01 0.  1.
          5    1    4    4  502    0  0.73345748868E+02 -0.41336359577E+02 -0.12357861426E+03  0.14960634145E+03  0.47000000000E+01 0. -1.
         -5    1    4    4    0  502 -0.33248871792E+02  0.29350471281E+02 -0.10826387127E+03  0.11709010830E+03  0.47000000000E+01 0. -1.
<mgrwt>
<rscale>  0 0.26365152E+03</rscale>
<asrwt>0</asrwt>
<pdfrwt beam="1">  1       21 0.53085550E-02 0.26365152E+03</pdfrwt>
<pdfrwt beam="2">  1       21 0.77481414E-01 0.26365152E+03</pdfrwt>
<totfact> 0.35288879E+05</totfact>
</mgrwt>
</event>
<event>
 8    1  0.9400004E-006  0.2777737E+03  0.7546771E-02  0.1096911E+00
         21   -1    0    0  504  503  0.00000000000E+00  0.00000000000E+00  0.22336643849E+02  0.22336643849E+02  0.00000000000E+00 0. -1.
         21   -1    0    0  503  504 -0.00000000000E+00 -0.00000000000E+00 -0.86358337067E+03  0.86358337067E+03  0.00000000000E+00 0. -1.
         25    2    1    2    0    0 -0.46482779555E+02  0.36568220087E+02 -0.46213525722E+03  0.48237609164E+03  0.12497925549E+03 0.  0.
         25    2    1    2    0    0  0.46482779555E+02 -0.36568220087E+02 -0.37911146960E+03  0.40354392288E+03  0.12499723115E+03 0.  0.
          5    1    3    3  501    0  0.19381111082E+02  0.10938429878E+02 -0.10207133556E+02  0.24930950451E+02  0.47000000000E+01 0.  1.
         -5    1    3    3    0  501 -0.65863890637E+02  0.25629790208E+02 -0.45192812366E+03  0.45744514118E+03  0.47000000000E+01 0.  1.
          5    1    4    4  502    0  0.68481934336E+02  0.18904689566E+02 -0.26843025329E+03  0.27771217745E+03  0.47000000000E+01 0.  1.
         -5    1    4    4    0  502 -0.21999154781E+02 -0.55472909653E+02 -0.11068121631E+03  0.12583174544E+03  0.47000000000E+01 0.  1.
<mgrwt>
<rscale>  0 0.27777368E+03</rscale>
<asrwt>0</asrwt>
<pdfrwt beam="1">  1       21 0.34364071E-02 0.27777368E+03</pdfrwt>
<pdfrwt beam="2">  1       21 0.13285897E+00 0.27777368E+03</pdfrwt>
<totfact> 0.20068069E+05</totfact>
</mgrwt>
</event>
<event>
 8    1  0.9400004E-006  0.2687426E+03  0.7546771E-02  0.1102001E+00
         21   -1    0    0  504  503  0.00000000000E+00  0.00000000000E+00  0.47779661457E+03  0.47779661457E+03  0.00000000000E+00 0. -1.
         21   -1    0    0  503  504 -0.00000000000E+00 -0.00000000000E+00 -0.37789387476E+02  0.37789387476E+02  0.00000000000E+00 0. -1.
         25    2    1    2    0    0  0.35477747818E+02 -0.28198829826E+02  0.25715397615E+03  0.28949995637E+03  0.12501285012E+03 0.  0.
         25    2    1    2    0    0 -0.35477747818E+02  0.28198829826E+02  0.18285325094E+03  0.22608604567E+03  0.12500297626E+03 0.  0.
          5    1    3    3  501    0  0.51502838679E+02  0.36063507600E+02  0.92315575970E+02  0.11179165684E+03  0.47000000000E+01 0.  1.
         -5    1    3    3    0  501 -0.16025090861E+02 -0.64262337427E+02  0.16483840018E+03  0.17770829953E+03  0.47000000000E+01 0.  1.
          5    1    4    4  502    0 -0.93934558124E+01  0.17043735390E+02  0.19415810428E+03  0.19518756463E+03  0.47000000000E+01 0. -1.
         -5    1    4    4    0  502 -0.26084292005E+02  0.11155094436E+02 -0.11304853344E+02  0.30898481038E+02  0.47000000000E+01 0. -1.
<mgrwt>
<rscale>  0 0.26874256E+03</rscale>
<asrwt>0</asrwt>
<pdfrwt beam="1">  1       21 0.73507167E-01 0.26874256E+03</pdfrwt>
<pdfrwt beam="2">  1       21 0.58137523E-02 0.26874256E+03</pdfrwt>
<totfact> 0.33957708E+05</totfact>
</mgrwt>
</event>
<event>
 8    1  0.9400004E-006  0.3560757E+03  0.7546771E-02  0.1060149E+00
         21   -1    0    0  504  503  0.00000000000E+00  0.00000000000E+00  0.90429630044E+02  0.90429630044E+02  0.00000000000E+00 0. -1.
         21   -1    0    0  503  504 -0.00000000000E+00 -0.00000000000E+00 -0.35052082515E+03  0.35052082515E+03  0.00000000000E+00 0. -1.
         25    2    1    2    0    0 -0.79221834035E+01 -0.12469542636E+03 -0.10359302710E+03  0.20487337703E+03  0.12501949850E+03 0.  0.
         25    2    1    2    0    0  0.79221834035E+01  0.12469542636E+03 -0.15649816800E+03  0.23607707816E+03  0.12501599858E+03 0.  0.
          5    1    3    3  501    0  0.10375004278E+02 -0.57311500817E+01  0.25377267478E+02  0.28400396118E+02  0.47000000000E+01 0. -1.
         -5    1    3    3    0  501 -0.18297187681E+02 -0.11896427628E+03 -0.12897029458E+03  0.17647298091E+03  0.47000000000E+01 0. -1.
          5    1    4    4  502    0 -0.47940474317E+02  0.10111907193E+03 -0.12409437171E+03  0.16716715849E+03  0.47000000000E+01 0.  1.
         -5    1    4    4    0  502  0.55862657720E+02  0.23576354432E+02 -0.32403796293E+02  0.68909919678E+02  0.47000000000E+01 0.  1.
<mgrwt>
<rscale>  0 0.35607566E+03</rscale>
<asrwt>0</asrwt>
<pdfrwt beam="1">  1       21 0.13912251E-01 0.35607566E+03</pdfrwt>
<pdfrwt beam="2">  1       21 0.53926280E-01 0.35607566E+03</pdfrwt>
<totfact> 0.13968835E+05</totfact>
</mgrwt>
</event>
<event>
 8    1  0.9400004E-006  0.3048288E+03  0.7546771E-02  0.1082851E+00
         21   -1    0    0  504  503  0.00000000000E+00  0.00000000000E+00  0.23411398407E+03  0.23411398407E+03  0.00000000000E+00 0.  1.
         21   -1    0    0  503  504 -0.00000000000E+00 -0.00000000000E+00 -0.99225799673E+02  0.99225799673E+02  0.00000000000E+00 0.  1.
         25    2    1    2    0    0 -0.20144395278E+02  0.95335668028E+01 -0.24758359551E+02  0.12935778214E+03  0.12499509540E+03 0.  0.
         25    2    1    2    0    0  0.20144395278E+02 -0.95335668028E+01  0.15964654395E+03  0.20398200161E+03  0.12499980971E+03 0.  0.
          5    1    3    3  501    0 -0.65947020002E+02 -0.22385225053E+02 -0.51118930735E+01  0.69988064687E+02  0.47000000000E+01 0.  1.
         -5    1    3    3    0  501  0.45802624724E+02  0.31918791856E+02 -0.19646466477E+02  0.59369717450E+02  0.47000000000E+01 0.  1.
          5    1    4    4  502    0 -0.31313157486E+02  0.72647844397E+01  0.14374336049E+03  0.14736870295E+03  0.47000000000E+01 0. -1.
         -5    1    4    4    0  502  0.51457552764E+02 -0.16798351243E+02  0.15903183465E+02  0.56613298661E+02  0.47000000000E+01 0. -1.
<mgrwt>
<rscale>  0 0.30482879E+03</rscale>
<asrwt>0</asrwt>
<pdfrwt beam="1">  1       21 0.36017536E-01 0.30482879E+03</pdfrwt>
<pdfrwt beam="2">  1       21 0.15265508E-01 0.30482879E+03</pdfrwt>
<totfact> 0.27500602E+05</totfact>
</mgrwt>
</event>
<event>
 8    1  0.9400004E-006  0.2808288E+03  0.7546771E-02  0.1095237E+00
         21   -1    0    0  504  503  0.00000000000E+00  0.00000000000E+00  0.38492993958E+02  0.38492993958E+02  0.00000000000E+00 0. -1.
         21   -1    0    0  503  504 -0.00000000000E+00 -0.00000000000E+00 -0.51220235142E+03  0.51220235142E+03  0.00000000000E+00 0. -1.
         25    2    1    2    0    0  0.29579708199E+02  0.13898203636E+02 -0.34468072590E+03  0.36809470703E+03  0.12498316421E+03 0.  0.
         25    2    1    2    0    0 -0.29579708199E+02 -0.13898203636E+02 -0.12902863157E+03  0.18260063835E+03  0.12500594450E+03 0.  0.
          5    1    3    3  501    0  0.78741551786E+02  0.71097347452E+01 -0.21960909809E+03  0.23345454861E+03  0.47000000000E+01 0.  1.
         -5    1    3    3    0  501 -0.49161843587E+02  0.67884688911E+01 -0.12507162781E+03  0.13464015842E+03  0.47000000000E+01 0.  1.
          5    1    4    4  502    0  0.11402382069E+02  0.24293013471E+02 -0.12309368928E+03  0.12607264240E+03  0.47000000000E+01 0.  1.
         -5    1    4    4    0  502 -0.40982090268E+02 -0.38191217107E+02 -0.59349422867E+01  0.56527995956E+02  0.47000000000E+01 0.  1.
<mgrwt>
<rscale>  0 0.28082879E+03</rscale>
<asrwt>0</asrwt>
<pdfrwt beam="1">  1       21 0.59219990E-02 0.28082879E+03</pdfrwt>
<pdfrwt beam="2">  1       21 0.78800362E-01 0.28082879E+03</pdfrwt>
<totfact> 0.28036490E+05</totfact>
</mgrwt>
</event>
<event>
 8    1  0.9400004E-006  0.2648290E+03  0.7546771E-02  0.1104276E+00
         21   -1    0    0  504  503  0.00000000000E+00  0.00000000000E+00  0.20160749481E+03  0.20160749481E+03  0.00000000000E+00 0. -1.
         21   -1    0    0  503  504 -0.00000000000E+00 -0.00000000000E+00 -0.86968980135E+02  0.86968980135E+02  0.00000000000E+00 0. -1.
         25    2    1    2    0    0  0.33921234809E+02 -0.27636492808E+02  0.57538470679E+02  0.14435631748E+03  0.12495457127E+03 0.  0.
         25    2    1    2    0    0 -0.33921234809E+02  0.27636492808E+02  0.57100043991E+02  0.14422015747E+03  0.12499845155E+03 0.  0.
          5    1    3    3  501    0  0.14780277889E+02 -0.12541142194E+01  0.93968352502E+02  0.95247943226E+02  0.47000000000E+01 0.  1.
         -5    1    3    3    0  501  0.19140956920E+02 -0.26382378589E+02 -0.36429881823E+02  0.49108374249E+02  0.47000000000E+01 0.  1.
          5    1    4    4  502    0 -0.45387437898E+02  0.66904412662E+02  0.63026562465E+02  0.10261899205E+03  0.47000000000E+01 0. -1.
         -5    1    4    4    0  502  0.11466203089E+02 -0.39267919854E+02 -0.59265184744E+01  0.41601165418E+02  0.47000000000E+01 0. -1.
<mgrwt>
<rscale>  0 0.26482899E+03</rscale>
<asrwt>0</asrwt>
<pdfrwt beam="1">  1       21 0.31016538E-01 0.26482899E+03</pdfrwt>
<pdfrwt beam="2">  1       21 0.13379843E-01 0.26482899E+03</pdfrwt>
<totfact> 0.47504385E+05</totfact>
</mgrwt>
</event>
<event>
 8    1  0.9400004E-006  0.3249189E+03  0.7546771E-02  0.1073407E+00
         21   -1    0    0  504  503  0.00000000000E+00  0.00000000000E+00  0.10623027397E+04  0.10623027397E+04  0.00000000000E+00 0.  1.
         21   -1    0    0  503  504 -0.00000000000E+00 -0.00000000000E+00 -0.24845156348E+02  0.24845156348E+02  0.00000000000E+00 0.  1.
         25    2    1    2    0    0 -0.70434889163E+02 -0.55455980870E+02  0.69357642003E+03  0.71043057170E+03  0.12500762920E+03 0.  0.
         25    2    1    2    0    0  0.70434889163E+02  0.55455980870E+02  0.34388116331E+03  0.37671732434E+03  0.12500099420E+03 0.  0.
          5    1    3    3  501    0 -0.10031943327E+03 -0.15327148565E+02  0.51461469196E+03  0.52454673896E+03  0.47000000000E+01 0. -1.
         -5    1    3    3    0  501  0.29884544112E+02 -0.40128832305E+02  0.17896172807E+03  0.18588383273E+03  0.47000000000E+01 0. -1.
          5    1    4    4  502    0 -0.59727450292E+01 -0.19361717857E+02  0.17856472188E+03  0.17977207709E+03  0.47000000000E+01 0. -1.
         -5    1    4    4    0  502  0.76407634192E+02  0.74817698726E+02  0.16531644143E+03  0.19694524725E+03  0.47000000000E+01 0. -1.
<mgrwt>
<rscale>  0 0.32491893E+03</rscale>
<asrwt>0</asrwt>
<pdfrwt beam="1">  1       21 0.16343116E+00 0.32491893E+03</pdfrwt>
<pdfrwt beam="2">  1       21 0.38223326E-02 0.32491893E+03</pdfrwt>
<totfact> 0.95156972E+04</totfact>
</mgrwt>
</event>
<event>
 8    1  0.9400004E-006  0.2542821E+03  0.7546771E-02  0.1110628E+00
         21   -1    0    0  504  503  0.00000000000E+00  0.00000000000E+00  0.11037710177E+02  0.11037710177E+02  0.00000000000E+00 0.  1.
         21   -1    0    0  503  504 -0.00000000000E+00 -0.00000000000E+00 -0.14645112927E+04  0.14645112927E+04  0.00000000000E+00 0.  1.
         25    2    1    2    0    0 -0.13101962067E+02 -0.11079192405E+01 -0.61441965034E+03  0.62713368428E+03  0.12494903897E+03 0.  0.
         25    2    1    2    0    0  0.13101962067E+02  0.11079192405E+01 -0.83905393220E+03  0.84841531862E+03  0.12499665124E+03 0.  0.
          5    1    3    3  501    0 -0.15872189259E+02  0.57770413989E+02 -0.21054899065E+03  0.21895733509E+03  0.47000000000E+01 0. -1.
         -5    1    3    3    0  501  0.27702271917E+01 -0.58878333230E+02 -0.40387065969E+03  0.40817634920E+03  0.47000000000E+01 0. -1.
          5    1    4    4  502    0  0.54412619167E+01  0.40768326910E+02 -0.99821524970E+02  0.10806521484E+03  0.47000000000E+01 0.  1.
         -5    1    4    4    0  502  0.76607001504E+01 -0.39660407670E+02 -0.73923240723E+03  0.74035010378E+03  0.47000000000E+01 0.  1.
<mgrwt>
<rscale>  0 0.25428214E+03</rscale>
<asrwt>0</asrwt>
<pdfrwt beam="1">  1       21 0.16981096E-02 0.25428214E+03</pdfrwt>
<pdfrwt beam="2">  1       21 0.22530938E+00 0.25428214E+03</pdfrwt>
<totfact> 0.14498606E+05</totfact>
</mgrwt>
</event>
<event>
 8    1  0.9400004E-006  0.3671638E+03  0.7546771E-02  0.1055783E+00
         21   -1    0    0  504  503  0.00000000000E+00  0.00000000000E+00  0.31239342833E+03  0.31239342833E+03  0.00000000000E+00 0.  1.
         21   -1    0    0  503  504 -0.00000000000E+00 -0.00000000000E+00 -0.10788419918E+03  0.10788419918E+03  0.00000000000E+00 0.  1.
         25    2    1    2    0    0  0.27347757064E+01 -0.92590616120E+02  0.21380396376E+03  0.26441815424E+03  0.12499729669E+03 0.  0.
         25    2    1    2    0    0 -0.27347757064E+01  0.92590616120E+02 -0.92947346052E+01  0.15585947328E+03  0.12500112851E+03 0.  0.
          5    1    3    3  501    0 -0.50542196086E+02 -0.88008907890E+02  0.13194177494E+03  0.16652568398E+03  0.47000000000E+01 0. -1.
         -5    1    3    3    0  501  0.53276971792E+02 -0.45817082296E+01  0.81862188820E+02  0.97892470252E+02  0.47000000000E+01 0. -1.
          5    1    4    4  502    0  0.32783890753E+02  0.10687080113E+03 -0.24266485993E+02  0.11448626105E+03  0.47000000000E+01 0.  1.
         -5    1    4    4    0  502 -0.35518666459E+02 -0.14280185006E+02  0.14971751388E+02  0.41373212233E+02  0.47000000000E+01 0.  1.
<mgrwt>
<rscale>  0 0.36716380E+03</rscale>
<asrwt>0</asrwt>
<pdfrwt beam="1">  1       21 0.48060527E-01 0.36716380E+03</pdfrwt>
<pdfrwt beam="2">  1       21 0.16597569E-01 0.36716380E+03</pdfrwt>
<totfact> 0.12840859E+05</totfact>
</mgrwt>
</event>
<event>
 8    1  0.9400004E-006  0.3458180E+03  0.7546771E-02  0.1064345E+00
         21   -1    0    0  504  503  0.00000000000E+00  0.00000000000E+00  0.27933648976E+03  0.27933648976E+03  0.00000000000E+00 0.  1.
         21   -1    0    0  503  504 -0.00000000000E+00 -0.00000000000E+00 -0.10703046986E+03  0.10703046986E+03  0.00000000000E+00 0.  1.
         25    2    1    2    0    0 -0.10032342154E+02 -0.86694813886E+02 -0.49988437229E+01  0.15253257512E+03  0.12499823754E+03 0.  0.
         25    2    1    2    0    0  0.10032342154E+02  0.86694813886E+02  0.17730486362E+03  0.23383438450E+03  0.12499946426E+03 0.  0.
          5    1    3    3  501    0 -0.36460873078E+02 -0.65810642255E+01  0.41712545300E+02  0.55988678386E+02  0.47000000000E+01 0.  1.
         -5    1    3    3    0  501  0.26428530924E+02 -0.80113749660E+02 -0.46711389023E+02  0.96543896730E+02  0.47000000000E+01 0.  1.
          5    1    4    4  502    0  0.17663148894E+02  0.10441691774E+03  0.18443981315E+03  0.21273225946E+03  0.47000000000E+01 0. -1.
         -5    1    4    4    0  502 -0.76308067401E+01 -0.17722103852E+02 -0.71349495263E+01  0.21102125040E+02  0.47000000000E+01 0. -1.
<mgrwt>
<rscale>  0 0.34581796E+03</rscale>
<asrwt>0</asrwt>
<pdfrwt beam="1">  1       21 0.42974844E-01 0.34581796E+03</pdfrwt>
<pdfrwt beam="2">  1       21 0.16466226E-01 0.34581796E+03</pdfrwt>
<totfact> 0.16532460E+05</totfact>
</mgrwt>
</event>
<event>
 8    1  0.9400004E-006  0.2744729E+03  0.7546771E-02  0.1098747E+00
         21   -1    0    0  504  503  0.00000000000E+00  0.00000000000E+00  0.12052972220E+03  0.12052972220E+03  0.00000000000E+00 0. -1.
         21   -1    0    0  503  504 -0.00000000000E+00 -0.00000000000E+00 -0.15625889782E+03  0.15625889782E+03  0.00000000000E+00 0. -1.
         25    2    1    2    0    0  0.19908353798E+01 -0.56040636424E+02 -0.25915406977E+02  0.13943525990E+03  0.12500426804E+03 0.  0.
         25    2    1    2    0    0 -0.19908353798E+01  0.56040636424E+02 -0.98137686468E+01  0.13735336012E+03  0.12500047650E+03 0.  0.
          5    1    3    3  501    0 -0.26550313399E+02  0.28794693401E+02  0.13259911224E+02  0.41616928710E+02  0.47000000000E+01 0. -1.
         -5    1    3    3    0  501  0.28541148779E+02 -0.84835329825E+02 -0.39175318200E+02  0.97818331187E+02  0.47000000000E+01 0. -1.
          5    1    4    4  502    0  0.13479476564E+02  0.58409480832E+02  0.48212053532E+02  0.77070460264E+02  0.47000000000E+01 0.  1.
         -5    1    4    4    0  502 -0.15470311944E+02 -0.23688444087E+01 -0.58025822179E+02  0.60282899856E+02  0.47000000000E+01 0.  1.
<mgrwt>
<rscale>  0 0.27447289E+03</rscale>
<asrwt>0</asrwt>
<pdfrwt beam="1">  1       21 0.18543034E-01 0.27447289E+03</pdfrwt>
<pdfrwt beam="2">  1       21 0.24039830E-01 0.27447289E+03</pdfrwt>
<totfact> 0.42650168E+05</totfact>
</mgrwt>
</event>
<event>
 8    1  0.9400004E-006  0.3026808E+03  0.7546771E-02  0.1083908E+00
         21   -1    0    0  504  503  0.00000000000E+00  0.00000000000E+00  0.86384543009E+02  0.86384543009E+02  0.00000000000E+00 0. -1.
         21   -1    0    0  503  504 -0.00000000000E+00 -0.00000000000E+00 -0.26513906801E+03  0.26513906801E+03  0.00000000000E+00 0. -1.
         25    2    1    2    0    0  0.49508156054E+02  0.24106242325E+02 -0.13668432481E+02  0.13725094439E+03  0.12497530658E+03 0.  0.
         25    2    1    2    0    0 -0.49508156054E+02 -0.24106242325E+02 -0.16508609252E+03  0.21427266663E+03  0.12500875683E+03 0.  0.
          5    1    3    3  501    0  0.33207831337E+02 -0.25070372381E+02  0.43210549437E+02  0.60170800361E+02  0.47000000000E+01 0.  1.
         -5    1    3    3    0  501  0.16300324717E+02  0.49176614705E+02 -0.56878981919E+02  0.77080144031E+02  0.47000000000E+01 0.  1.
          5    1    4    4  502    0 -0.19714985960E+02  0.51413889791E+02 -0.65273847401E+02  0.85526802170E+02  0.47000000000E+01 0.  1.
         -5    1    4    4    0  502 -0.29793170094E+02 -0.75520132116E+02 -0.99812245120E+02  0.12874586446E+03  0.47000000000E+01 0.  1.
<mgrwt>
<rscale>  0 0.30268080E+03</rscale>
<asrwt>0</asrwt>
<pdfrwt beam="1">  1       21 0.13289930E-01 0.30268080E+03</pdfrwt>
<pdfrwt beam="2">  1       21 0.40790625E-01 0.30268080E+03</pdfrwt>
<totfact> 0.27547819E+05</totfact>
</mgrwt>
</event>
<event>
 8    1  0.9400004E-006  0.3422934E+03  0.7546771E-02  0.1065823E+00
         21   -1    0    0  504  503  0.00000000000E+00  0.00000000000E+00  0.95738261771E+02  0.95738261771E+02  0.00000000000E+00 0. -1.
         21   -1    0    0  503  504 -0.00000000000E+00 -0.00000000000E+00 -0.30595069836E+03  0.30595069836E+03  0.00000000000E+00 0. -1.
         25    2    1    2    0    0  0.24927945938E+02  0.11313118860E+03 -0.12352018724E+03  0.21048095753E+03  0.12499971402E+03 0.  0.
         25    2    1    2    0    0 -0.24927945938E+02 -0.11313118860E+03 -0.86692249353E+02  0.19120800261E+03  0.12499954336E+03 0.  0.
          5    1    3    3  501    0  0.64967886703E+02  0.18816380154E+02 -0.51784528265E+02  0.85314769134E+02  0.47000000000E+01 0.  1.
         -5    1    3    3    0  501 -0.40039940766E+02  0.94314808446E+02 -0.71735658975E+02  0.12516618840E+03  0.47000000000E+01 0.  1.
          5    1    4    4  502    0  0.24416767690E+01  0.17618689588E+02 -0.48983287001E+02  0.52324300412E+02  0.47000000000E+01 0.  1.
         -5    1    4    4    0  502 -0.27369622706E+02 -0.13074987819E+03 -0.37708962352E+02  0.13888370219E+03  0.47000000000E+01 0.  1.
<mgrwt>
<rscale>  0 0.34229337E+03</rscale>
<asrwt>0</asrwt>
<pdfrwt beam="1">  1       21 0.14728963E-01 0.34229337E+03</pdfrwt>
<pdfrwt beam="2">  1       21 0.47069339E-01 0.34229337E+03</pdfrwt>
<totfact> 0.16825286E+05</totfact>
</mgrwt>
</event>
<event>
 8    1  0.9400004E-006  0.5912727E+03  0.7546771E-02  0.9923680E-01
         21   -1    0    0  504  503  0.00000000000E+00  0.00000000000E+00  0.51735622247E+02  0.51735622247E+02  0.00000000000E+00 0. -1.
         21   -1    0    0  503  504 -0.00000000000E+00 -0.00000000000E+00 -0.16893747282E+04  0.16893747282E+04  0.00000000000E+00 0. -1.
         25    2    1    2    0    0  0.17972176469E+03  0.19448455209E+03 -0.93850771490E+03  0.98313059765E+03  0.12499954964E+03 0.  0.
         25    2    1    2    0    0 -0.17972176469E+03 -0.19448455209E+03 -0.69913139109E+03  0.75797975283E+03  0.12499779994E+03 0.  0.
          5    1    3    3  501    0  0.16177235319E+02 -0.17347771281E+02 -0.10281638944E+03  0.10562172148E+03  0.47000000000E+01 0.  1.
         -5    1    3    3    0  501  0.16354452937E+03  0.21183232337E+03 -0.83569132545E+03  0.87750887617E+03  0.47000000000E+01 0.  1.
          5    1    4    4  502    0 -0.10837661016E+03 -0.33210159687E+02 -0.22260647235E+03  0.24984822566E+03  0.47000000000E+01 0.  1.
         -5    1    4    4    0  502 -0.71345154528E+02 -0.16127439240E+03 -0.47652491874E+03  0.50813152717E+03  0.47000000000E+01 0.  1.
<mgrwt>
<rscale>  0 0.59127270E+03</rscale>
<asrwt>0</asrwt>
<pdfrwt beam="1">  1       21 0.79593260E-02 0.59127270E+03</pdfrwt>
<pdfrwt beam="2">  1       21 0.25990382E+00 0.59127270E+03</pdfrwt>
<totfact> 0.56559038E+03</totfact>
</mgrwt>
</event>
<event>
 8    1  0.9400004E-006  0.2755313E+03  0.7546771E-02  0.1098155E+00
         21   -1    0    0  504  503  0.00000000000E+00  0.00000000000E+00  0.83584525514E+02  0.83584525514E+02  0.00000000000E+00 0.  1.
         21   -1    0    0  503  504 -0.00000000000E+00 -0.00000000000E+00 -0.22706806389E+03  0.22706806389E+03  0.00000000000E+00 0.  1.
         25    2    1    2    0    0 -0.42773319025E+02  0.31166834952E+02 -0.45251806694E+02  0.14309266386E+03  0.12500742386E+03 0.  0.
         25    2    1    2    0    0  0.42773319025E+02 -0.31166834952E+02 -0.98231731686E+02  0.16755992555E+03  0.12500370841E+03 0.  0.
          5    1    3    3  501    0 -0.32838451964E+02 -0.51379684910E+01 -0.83028967745E+02  0.89558149447E+02  0.47000000000E+01 0.  1.
         -5    1    3    3    0  501 -0.99348670617E+01  0.36304803443E+02  0.37777161051E+02  0.53534514415E+02  0.47000000000E+01 0.  1.
          5    1    4    4  502    0  0.19836413191E+02  0.17547209012E+02 -0.10915365407E+03  0.11241885086E+03  0.47000000000E+01 0. -1.
         -5    1    4    4    0  502  0.22936905834E+02 -0.48714043964E+02  0.10921922384E+02  0.55141074683E+02  0.47000000000E+01 0. -1.
<mgrwt>
<rscale>  0 0.27553131E+03</rscale>
<asrwt>0</asrwt>
<pdfrwt beam="1">  1       21 0.12859158E-01 0.27553131E+03</pdfrwt>
<pdfrwt beam="2">  1       21 0.34933549E-01 0.27553131E+03</pdfrwt>
<totfact> 0.40235933E+05</totfact>
</mgrwt>
</event>
<event>
 8    1  0.9400004E-006  0.3347717E+03  0.7546771E-02  0.1069045E+00
         21   -1    0    0  504  503  0.00000000000E+00  0.00000000000E+00  0.67317396080E+02  0.67317396080E+02  0.00000000000E+00 0.  1.
         21   -1    0    0  503  504 -0.00000000000E+00 -0.00000000000E+00 -0.41620767498E+03  0.41620767498E+03  0.00000000000E+00 0.  1.
         25    2    1    2    0    0  0.77151688862E+02 -0.79442331632E+02 -0.19067642073E+03  0.25347741624E+03  0.12501934238E+03 0.  0.
         25    2    1    2    0    0 -0.77151688862E+02  0.79442331632E+02 -0.15821385817E+03  0.23004765483E+03  0.12500732548E+03 0.  0.
          5    1    3    3  501    0  0.58713553575E+01 -0.70757593065E+02 -0.29618566812E+02  0.77074375054E+02  0.47000000000E+01 0. -1.
         -5    1    3    3    0  501  0.71280333505E+02 -0.86847385669E+01 -0.16105785392E+03  0.17640304118E+03  0.47000000000E+01 0. -1.
          5    1    4    4  502    0 -0.10868042740E+03  0.78361641840E+02 -0.11705909367E+03  0.17798006524E+03  0.47000000000E+01 0. -1.
         -5    1    4    4    0  502  0.31528738539E+02  0.10806897912E+01 -0.41154764505E+02  0.52067589590E+02  0.47000000000E+01 0. -1.
<mgrwt>
<rscale>  0 0.33477166E+03</rscale>
<asrwt>0</asrwt>
<pdfrwt beam="1">  1       21 0.10356523E-01 0.33477166E+03</pdfrwt>
<pdfrwt beam="2">  1       21 0.64031949E-01 0.33477166E+03</pdfrwt>
<totfact> 0.16505905E+05</totfact>
</mgrwt>
</event>
<event>
 8    1  0.9400004E-006  0.2579558E+03  0.7546771E-02  0.1108378E+00
         21   -1    0    0  504  503  0.00000000000E+00  0.00000000000E+00  0.11589173269E+02  0.11589173269E+02  0.00000000000E+00 0. -1.
         21   -1    0    0  503  504 -0.00000000000E+00 -0.00000000000E+00 -0.14354171324E+04  0.14354171324E+04  0.00000000000E+00 0. -1.
         25    2    1    2    0    0 -0.17605883729E+02 -0.21556594900E+01 -0.85909598634E+03  0.86832323803E+03  0.12499887181E+03 0.  0.
         25    2    1    2    0    0  0.17605883729E+02  0.21556594900E+01 -0.56473197281E+03  0.57868306765E+03  0.12504910102E+03 0.  0.
          5    1    3    3  501    0  0.52377967562E+02  0.12446726988E+02 -0.41052687867E+03  0.41406856993E+03  0.47000000000E+01 0. -1.
         -5    1    3    3    0  501 -0.69983851291E+02 -0.14602386478E+02 -0.44856910767E+03  0.45425466810E+03  0.47000000000E+01 0. -1.
          5    1    4    4  502    0 -0.14114677794E+01 -0.95955771114E+01  0.24407060450E+01  0.11050537878E+02  0.47000000000E+01 0. -1.
         -5    1    4    4    0  502  0.19017351508E+02  0.11751236601E+02 -0.56717267885E+03  0.56763252977E+03  0.47000000000E+01 0. -1.
<mgrwt>
<rscale>  0 0.25795579E+03</rscale>
<asrwt>0</asrwt>
<pdfrwt beam="1">  1       21 0.17829498E-02 0.25795579E+03</pdfrwt>
<pdfrwt beam="2">  1       21 0.22083340E+00 0.25795579E+03</pdfrwt>
<totfact> 0.14249624E+05</totfact>
</mgrwt>
</event>
<event>
 8    1  0.9400004E-006  0.4168954E+03  0.7546771E-02  0.1038082E+00
         21   -1    0    0  504  503  0.00000000000E+00  0.00000000000E+00  0.44087988178E+03  0.44087988178E+03  0.00000000000E+00 0.  1.
         21   -1    0    0  503  504 -0.00000000000E+00 -0.00000000000E+00 -0.98553907600E+02  0.98553907600E+02  0.00000000000E+00 0.  1.
         25    2    1    2    0    0 -0.74523363891E+02 -0.14920588065E+03  0.17590005007E+03  0.27271667377E+03  0.12496971614E+03 0.  0.
         25    2    1    2    0    0  0.74523363891E+02  0.14920588065E+03  0.16642592410E+03  0.26671711560E+03  0.12499721980E+03 0.  0.
          5    1    3    3  501    0 -0.31802243937E+02 -0.14477329548E+03  0.17515429010E+03  0.22950338809E+03  0.47000000000E+01 0. -1.
         -5    1    3    3    0  501 -0.42721119953E+02 -0.44325851652E+01  0.74575997105E+00  0.43213285680E+02  0.47000000000E+01 0. -1.
          5    1    4    4  502    0 -0.22836057179E+02  0.32475875789E+02 -0.17027500939E+01  0.40014464555E+02  0.47000000000E+01 0.  1.
         -5    1    4    4    0  502  0.97359421070E+02  0.11673000486E+03  0.16812867420E+03  0.22670265105E+03  0.47000000000E+01 0.  1.
<mgrwt>
<rscale>  0 0.41689536E+03</rscale>
<asrwt>0</asrwt>
<pdfrwt beam="1">  1       21 0.67827673E-01 0.41689536E+03</pdfrwt>
<pdfrwt beam="2">  1       21 0.15162140E-01 0.41689536E+03</pdfrwt>
<totfact> 0.71226835E+04</totfact>
</mgrwt>
</event>
<event>
 8    1  0.9400004E-006  0.4173228E+03  0.7546771E-02  0.1037941E+00
         21   -1    0    0  504  503  0.00000000000E+00  0.00000000000E+00  0.49311017144E+03  0.49311017144E+03  0.00000000000E+00 0.  1.
         21   -1    0    0  503  504 -0.00000000000E+00 -0.00000000000E+00 -0.88295826787E+02  0.88295826787E+02  0.00000000000E+00 0.  1.
         25    2    1    2    0    0 -0.28518618747E+02 -0.78189425524E+02  0.57421737073E+00  0.15017375364E+03  0.12499971471E+03 0.  0.
         25    2    1    2    0    0  0.28518618747E+02  0.78189425524E+02  0.40424012729E+03  0.43123224459E+03  0.12499708152E+03 0.  0.
          5    1    3    3  501    0 -0.39408914159E+02  0.23804712455E+02 -0.86410449029E+01  0.47079555088E+02  0.47000000000E+01 0. -1.
         -5    1    3    3    0  501  0.10890295412E+02 -0.10199413798E+03  0.92152622736E+01  0.10309419855E+03  0.47000000000E+01 0. -1.
          5    1    4    4  502    0 -0.76102386256E+01 -0.32463045738E+02  0.89829925767E+02  0.95933678309E+02  0.47000000000E+01 0. -1.
         -5    1    4    4    0  502  0.36128857373E+02  0.11065247126E+03  0.31441020152E+03  0.33529856628E+03  0.47000000000E+01 0. -1.
<mgrwt>
<rscale>  0 0.41732275E+03</rscale>
<asrwt>0</asrwt>
<pdfrwt beam="1">  1       21 0.75863102E-01 0.41732275E+03</pdfrwt>
<pdfrwt beam="2">  1       21 0.13583974E-01 0.41732275E+03</pdfrwt>
<totfact> 0.67748683E+04</totfact>
</mgrwt>
</event>
<event>
 8    1  0.9400004E-006  0.2952764E+03  0.7546771E-02  0.1087626E+00
         21   -1    0    0  504  503  0.00000000000E+00  0.00000000000E+00  0.18299135042E+02  0.18299135042E+02  0.00000000000E+00 0.  1.
         21   -1    0    0  503  504 -0.00000000000E+00 -0.00000000000E+00 -0.11911509255E+04  0.11911509255E+04  0.00000000000E+00 0.  1.
         25    2    1    2    0    0  0.76845586300E+02  0.15569910256E+02 -0.56608691322E+03  0.58500227870E+03  0.12500242608E+03 0.  0.
         25    2    1    2    0    0 -0.76845586300E+02 -0.15569910256E+02 -0.60676487725E+03  0.62444778185E+03  0.12499499893E+03 0.  0.
          5    1    3    3  501    0  0.44405306827E-01 -0.36981972535E+02 -0.61754258241E+02  0.72134226795E+02  0.47000000000E+01 0.  1.
         -5    1    3    3    0  501  0.76801180994E+02  0.52551882791E+02 -0.50433265498E+03  0.51286805191E+03  0.47000000000E+01 0.  1.
          5    1    4    4  502    0 -0.29637299044E+02  0.54820494266E+02 -0.27221416275E+03  0.27929607317E+03  0.47000000000E+01 0.  1.
         -5    1    4    4    0  502 -0.47208287256E+02 -0.70390404522E+02 -0.33455071449E+03  0.34515170868E+03  0.47000000000E+01 0.  1.
<mgrwt>
<rscale>  0 0.29527636E+03</rscale>
<asrwt>0</asrwt>
<pdfrwt beam="1">  1       21 0.28152523E-02 0.29527636E+03</pdfrwt>
<pdfrwt beam="2">  1       21 0.18325394E+00 0.29527636E+03</pdfrwt>
<totfact> 0.11613885E+05</totfact>
</mgrwt>
</event>
<event>
 8    1  0.9400004E-006  0.3148276E+03  0.7546771E-02  0.1078055E+00
         21   -1    0    0  504  503  0.00000000000E+00  0.00000000000E+00  0.14259202713E+03  0.14259202713E+03  0.00000000000E+00 0.  1.
         21   -1    0    0  503  504 -0.00000000000E+00 -0.00000000000E+00 -0.17377620233E+03  0.17377620233E+03  0.00000000000E+00 0.  1.
         25    2    1    2    0    0  0.51938427470E+02  0.78911256575E+02 -0.31208799596E+02  0.15968672928E+03  0.12490506665E+03 0.  0.
         25    2    1    2    0    0 -0.51938427470E+02 -0.78911256575E+02  0.24624400010E-01  0.15668150017E+03  0.12499802089E+03 0.  0.
          5    1    3    3  501    0  0.64784275634E+02  0.21135390716E+02 -0.62488896574E+02  0.92577855372E+02  0.47000000000E+01 0.  1.
         -5    1    3    3    0  501 -0.12845848164E+02  0.57775865859E+02  0.31280096978E+02  0.67108873912E+02  0.47000000000E+01 0.  1.
          5    1    4    4  502    0 -0.18950673844E+01 -0.10027076103E+03 -0.10890686034E+02  0.10098769153E+03  0.47000000000E+01 0. -1.
         -5    1    4    4    0  502 -0.50043360085E+02  0.21359504456E+02  0.10915310434E+02  0.55693808643E+02  0.47000000000E+01 0. -1.
<mgrwt>
<rscale>  0 0.31482758E+03</rscale>
<asrwt>0</asrwt>
<pdfrwt beam="1">  1       21 0.21937235E-01 0.31482758E+03</pdfrwt>
<pdfrwt beam="2">  1       21 0.26734800E-01 0.31482758E+03</pdfrwt>
<totfact> 0.25101384E+05</totfact>
</mgrwt>
</event>
<event>
 8    1  0.9400004E-006  0.3535067E+03  0.7546771E-02  0.1061185E+00
         21   -1    0    0  504  503  0.00000000000E+00  0.00000000000E+00  0.11082941338E+04  0.11082941338E+04  0.00000000000E+00 0.  1.
         21   -1    0    0  503  504 -0.00000000000E+00 -0.00000000000E+00 -0.28189036595E+02  0.28189036595E+02  0.00000000000E+00 0.  1.
         25    2    1    2    0    0  0.11864978793E+03  0.36217358323E+02  0.58792872568E+03  0.61373816529E+03  0.12499951930E+03 0.  0.
         25    2    1    2    0    0 -0.11864978793E+03 -0.36217358323E+02  0.49217637152E+03  0.52274500511E+03  0.12504115507E+03 0.  0.
          5    1    3    3  501    0  0.80434228535E+02  0.17823178385E+02  0.55147789114E+03  0.55761750800E+03  0.47000000000E+01 0. -1.
         -5    1    3    3    0  501  0.38215559400E+02  0.18394179937E+02  0.36450834543E+02  0.56120657290E+02  0.47000000000E+01 0. -1.
          5    1    4    4  502    0 -0.44321293478E+02  0.87205456018E+01  0.36994709519E+03  0.37272425225E+03  0.47000000000E+01 0. -1.
         -5    1    4    4    0  502 -0.74328494456E+02 -0.44937903924E+02  0.12222927632E+03  0.15002075286E+03  0.47000000000E+01 0. -1.
<mgrwt>
<rscale>  0 0.35350668E+03</rscale>
<asrwt>0</asrwt>
<pdfrwt beam="1">  1       21 0.17050676E+00 0.35350668E+03</pdfrwt>
<pdfrwt beam="2">  1       21 0.43367757E-02 0.35350668E+03</pdfrwt>
<totfact> 0.67578376E+04</totfact>
</mgrwt>
</event>
<event>
 8    1  0.9400004E-006  0.5081410E+03  0.7546771E-02  0.1011676E+00
         21   -1    0    0  504  503  0.00000000000E+00  0.00000000000E+00  0.56255805620E+02  0.56255805620E+02  0.00000000000E+00 0. -1.
         21   -1    0    0  503  504 -0.00000000000E+00 -0.00000000000E+00 -0.11474696137E+04  0.11474696137E+04  0.00000000000E+00 0. -1.
         25    2    1    2    0    0  0.56317275072E+01 -0.22090744201E+03 -0.56872922183E+03  0.62282330134E+03  0.12499649053E+03 0.  0.
         25    2    1    2    0    0 -0.56317275072E+01  0.22090744201E+03 -0.52248458627E+03  0.58090211799E+03  0.12500125402E+03 0.  0.
          5    1    3    3  501    0  0.22779469910E+02 -0.21914080714E+03 -0.56211786751E+03  0.60377163280E+03  0.47000000000E+01 0.  1.
         -5    1    3    3    0  501 -0.17147742403E+02 -0.17666348778E+01 -0.66113543143E+01  0.19051668540E+02  0.47000000000E+01 0.  1.
          5    1    4    4  502    0 -0.48618108605E+02  0.56866226178E+02 -0.23955522147E+03  0.25101052228E+03  0.47000000000E+01 0. -1.
         -5    1    4    4    0  502  0.42986381098E+02  0.16404121584E+03 -0.28292936481E+03  0.32989159571E+03  0.47000000000E+01 0. -1.
<mgrwt>
<rscale>  0 0.50814103E+03</rscale>
<asrwt>0</asrwt>
<pdfrwt beam="1">  1       21 0.86547393E-02 0.50814103E+03</pdfrwt>
<pdfrwt beam="2">  1       21 0.17653379E+00 0.50814103E+03</pdfrwt>
<totfact> 0.17510272E+04</totfact>
</mgrwt>
</event>
<event>
 8    1  0.9400004E-006  0.3587614E+03  0.7546771E-02  0.1059075E+00
         21   -1    0    0  504  503  0.00000000000E+00  0.00000000000E+00  0.10840376283E+03  0.10840376283E+03  0.00000000000E+00 0.  1.
         21   -1    0    0  503  504 -0.00000000000E+00 -0.00000000000E+00 -0.29682951691E+03  0.29682951691E+03  0.00000000000E+00 0.  1.
         25    2    1    2    0    0  0.66658153735E+02  0.10922440901E+03 -0.79082312136E+02  0.19557980104E+03  0.12499666195E+03 0.  0.
         25    2    1    2    0    0 -0.66658153735E+02 -0.10922440901E+03 -0.10934344194E+03  0.20965347870E+03  0.12500124740E+03 0.  0.
          5    1    3    3  501    0  0.89626244701E+02  0.59895770967E+02 -0.11238739439E+02  0.10848394528E+03  0.47000000000E+01 0. -1.
         -5    1    3    3    0  501 -0.22968090966E+02  0.49328638044E+02 -0.67843572698E+02  0.87095855759E+02  0.47000000000E+01 0. -1.
          5    1    4    4  502    0 -0.73016558958E+02 -0.81216360682E+02 -0.14289667134E+02  0.11024427292E+03  0.47000000000E+01 0.  1.
         -5    1    4    4    0  502  0.63584052229E+01 -0.28008048329E+02 -0.95053774808E+02  0.99409205778E+02  0.47000000000E+01 0.  1.
<mgrwt>
<rscale>  0 0.35876141E+03</rscale>
<asrwt>0</asrwt>
<pdfrwt beam="1">  1       21 0.16677502E-01 0.35876141E+03</pdfrwt>
<pdfrwt beam="2">  1       21 0.45666079E-01 0.35876141E+03</pdfrwt>
<totfact> 0.14191167E+05</totfact>
</mgrwt>
</event>
<event>
 8    1  0.9400004E-006  0.2554520E+03  0.7546771E-02  0.1109907E+00
         21   -1    0    0  504  503  0.00000000000E+00  0.00000000000E+00  0.15253680767E+03  0.15253680767E+03  0.00000000000E+00 0.  1.
         21   -1    0    0  503  504 -0.00000000000E+00 -0.00000000000E+00 -0.10695080127E+03  0.10695080127E+03  0.00000000000E+00 0.  1.
         25    2    1    2    0    0  0.20151367747E+02  0.16696072055E+02  0.21732071608E+02  0.12955833594E+03  0.12501297145E+03 0.  0.
         25    2    1    2    0    0 -0.20151367747E+02 -0.16696072055E+02  0.23853934800E+02  0.12992927300E+03  0.12501107684E+03 0.  0.
          5    1    3    3  501    0  0.14404991187E+02 -0.41806273081E+02  0.47620817253E+02  0.65154435581E+02  0.47000000000E+01 0.  1.
         -5    1    3    3    0  501  0.57463765601E+01  0.58502345136E+02 -0.25888745645E+02  0.64403900356E+02  0.47000000000E+01 0.  1.
          5    1    4    4  502    0  0.20868195533E+02 -0.62496110704E+02  0.12714914303E+02  0.67268153562E+02  0.47000000000E+01 0. -1.
         -5    1    4    4    0  502 -0.41019563280E+02  0.45800038649E+02  0.11139020497E+02  0.62661119440E+02  0.47000000000E+01 0. -1.
<mgrwt>
<rscale>  0 0.25545202E+03</rscale>
<asrwt>0</asrwt>
<pdfrwt beam="1">  1       21 0.23467201E-01 0.25545202E+03</pdfrwt>
<pdfrwt beam="2">  1       21 0.16453969E-01 0.25545202E+03</pdfrwt>
<totfact> 0.55950791E+05</totfact>
</mgrwt>
</event>
<event>
 8    1  0.9400004E-006  0.2558060E+03  0.7546771E-02  0.1109690E+00
         21   -1    0    0  504  503  0.00000000000E+00  0.00000000000E+00  0.53957865925E+02  0.53957865925E+02  0.00000000000E+00 0. -1.
         21   -1    0    0  503  504 -0.00000000000E+00 -0.00000000000E+00 -0.30318424074E+03  0.30318424074E+03  0.00000000000E+00 0. -1.
         25    2    1    2    0    0  0.71894937596E+01  0.37358070466E+01 -0.88506941519E+02  0.15337675387E+03  0.12500121942E+03 0.  0.
         25    2    1    2    0    0 -0.71894937596E+01 -0.37358070466E+01 -0.16071943330E+03  0.20376535280E+03  0.12499575067E+03 0.  0.
          5    1    3    3  501    0 -0.21590821107E+02 -0.14623490677E+02  0.23975599767E+02  0.35734149211E+02  0.47000000000E+01 0. -1.
         -5    1    3    3    0  501  0.28780314866E+02  0.18359297723E+02 -0.11248254129E+03  0.11764260466E+03  0.47000000000E+01 0. -1.
          5    1    4    4  502    0  0.33306105271E+02  0.37403207277E+02 -0.12734538788E+03  0.13692054037E+03  0.47000000000E+01 0.  1.
         -5    1    4    4    0  502 -0.40495599030E+02 -0.41139014323E+02 -0.33374045426E+02  0.66844812427E+02  0.47000000000E+01 0.  1.
<mgrwt>
<rscale>  0 0.25580598E+03</rscale>
<asrwt>0</asrwt>
<pdfrwt beam="1">  1       21 0.83012101E-02 0.25580598E+03</pdfrwt>
<pdfrwt beam="2">  1       21 0.46643729E-01 0.25580598E+03</pdfrwt>
<totfact> 0.48890009E+05</totfact>
</mgrwt>
</event>
<event>
 8    1  0.9400004E-006  0.4359917E+03  0.7546771E-02  0.1031984E+00
         21   -1    0    0  504  503  0.00000000000E+00  0.00000000000E+00  0.31050975940E+03  0.31050975940E+03  0.00000000000E+00 0. -1.
         21   -1    0    0  503  504 -0.00000000000E+00 -0.00000000000E+00 -0.15304575297E+03  0.15304575297E+03  0.00000000000E+00 0. -1.
         25    2    1    2    0    0  0.88652003792E+02  0.15488104167E+03  0.86312141359E+02  0.23434819737E+03  0.12498790750E+03 0.  0.
         25    2    1    2    0    0 -0.88652003792E+02 -0.15488104167E+03  0.71151865072E+02  0.22920731499E+03  0.12500436191E+03 0.  0.
          5    1    3    3  501    0  0.11872304343E+03  0.11319767097E+03  0.51138405290E+02  0.17188979100E+03  0.47000000000E+01 0. -1.
         -5    1    3    3    0  501 -0.30071039636E+02  0.41683370701E+02  0.35173736069E+02  0.62458406374E+02  0.47000000000E+01 0. -1.
          5    1    4    4  502    0  0.11783655591E+02 -0.10427650799E+03  0.28582699159E+02  0.10886461936E+03  0.47000000000E+01 0.  1.
         -5    1    4    4    0  502 -0.10043565938E+03 -0.50604533685E+02  0.42569165913E+02  0.12034269563E+03  0.47000000000E+01 0.  1.
<mgrwt>
<rscale>  0 0.43599174E+03</rscale>
<asrwt>0</asrwt>
<pdfrwt beam="1">  1       21 0.47770732E-01 0.43599174E+03</pdfrwt>
<pdfrwt beam="2">  1       21 0.23545501E-01 0.43599174E+03</pdfrwt>
<totfact> 0.66030410E+04</totfact>
</mgrwt>
</event>
<event>
 8    1  0.9400004E-006  0.2523230E+03  0.7546771E-02  0.1111845E+00
         21   -1    0    0  504  503  0.00000000000E+00  0.00000000000E+00  0.39005848556E+02  0.39005848556E+02  0.00000000000E+00 0.  1.
         21   -1    0    0  503  504 -0.00000000000E+00 -0.00000000000E+00 -0.40805997126E+03  0.40805997126E+03  0.00000000000E+00 0.  1.
         25    2    1    2    0    0 -0.74760363404E+01  0.11502424051E+02 -0.20235438946E+03  0.23825681213E+03  0.12502324869E+03 0.  0.
         25    2    1    2    0    0  0.74760363404E+01 -0.11502424051E+02 -0.16669973324E+03  0.20880900769E+03  0.12499681496E+03 0.  0.
          5    1    3    3  501    0 -0.28570120291E+02 -0.42706881253E+02 -0.38667284524E+02  0.64477735477E+02  0.47000000000E+01 0. -1.
         -5    1    3    3    0  501  0.21094083950E+02  0.54209305304E+02 -0.16368710494E+03  0.17377907665E+03  0.47000000000E+01 0. -1.
          5    1    4    4  502    0  0.37256499229E+02 -0.43451550819E+02 -0.29128421502E+02  0.64394401485E+02  0.47000000000E+01 0.  1.
         -5    1    4    4    0  502 -0.29780462888E+02  0.31949126768E+02 -0.13757131174E+03  0.14441460620E+03  0.47000000000E+01 0.  1.
<mgrwt>
<rscale>  0 0.25232301E+03</rscale>
<asrwt>0</asrwt>
<pdfrwt beam="1">  1       21 0.60009002E-02 0.25232301E+03</pdfrwt>
<pdfrwt beam="2">  1       21 0.62778452E-01 0.25232301E+03</pdfrwt>
<totfact> 0.45730335E+05</totfact>
</mgrwt>
</event>
<event>
 8    1  0.9400004E-006  0.3827887E+03  0.7546771E-02  0.1049908E+00
         21   -1    0    0  504  503  0.00000000000E+00  0.00000000000E+00  0.51814178055E+03  0.51814178055E+03  0.00000000000E+00 0. -1.
         21   -1    0    0  503  504 -0.00000000000E+00 -0.00000000000E+00 -0.70698414902E+02  0.70698414902E+02  0.00000000000E+00 0. -1.
         25    2    1    2    0    0  0.98878630239E+02 -0.43501788645E+02  0.75076893596E+02  0.18146877573E+03  0.12499994992E+03 0.  0.
         25    2    1    2    0    0 -0.98878630239E+02  0.43501788645E+02  0.37236647205E+03  0.40737141972E+03  0.12500117984E+03 0.  0.
          5    1    3    3  501    0  0.71285691576E+02  0.22875962004E+02 -0.32086474788E+01  0.75082254093E+02  0.47000000000E+01 0. -1.
         -5    1    3    3    0  501  0.27592938663E+02 -0.66377750649E+02  0.78285541075E+02  0.10638652164E+03  0.47000000000E+01 0. -1.
          5    1    4    4  502    0 -0.28944812975E+02  0.63906832079E+02  0.28487552785E+03  0.29342467816E+03  0.47000000000E+01 0.  1.
         -5    1    4    4    0  502 -0.69933817264E+02 -0.20405043435E+02  0.87490944198E+02  0.11394674156E+03  0.47000000000E+01 0.  1.
<mgrwt>
<rscale>  0 0.38278873E+03</rscale>
<asrwt>0</asrwt>
<pdfrwt beam="1">  1       21 0.79714118E-01 0.38278873E+03</pdfrwt>
<pdfrwt beam="2">  1       21 0.10876680E-01 0.38278873E+03</pdfrwt>
<totfact> 0.91354303E+04</totfact>
</mgrwt>
</event>
<event>
 8    1  0.9400004E-006  0.9178998E+03  0.7546771E-02  0.9403478E-01
         21   -1    0    0  504  503  0.00000000000E+00  0.00000000000E+00  0.26719049943E+04  0.26719049943E+04  0.00000000000E+00 0. -1.
         21   -1    0    0  503  504 -0.00000000000E+00 -0.00000000000E+00 -0.78833274265E+02  0.78833274265E+02  0.00000000000E+00 0. -1.
         25    2    1    2    0    0 -0.29035257076E+03  0.62640799339E+02  0.31720042563E+03  0.45216412329E+03  0.12493117819E+03 0.  0.
         25    2    1    2    0    0  0.29035257076E+03 -0.62640799339E+02  0.22758712944E+04  0.22985741452E+04  0.12499787002E+03 0.  0.
          5    1    3    3  501    0 -0.19920797439E+03 -0.21493483895E+01  0.25658590897E+03  0.32487975536E+03  0.47000000000E+01 0. -1.
         -5    1    3    3    0  501 -0.91144596372E+02  0.64790147728E+02  0.60614516654E+02  0.12728436793E+03  0.47000000000E+01 0. -1.
          5    1    4    4  502    0  0.22345132357E+03  0.95213069055E+01  0.15973504600E+04  0.16129388493E+04  0.47000000000E+01 0.  1.
         -5    1    4    4    0  502  0.66901247194E+02 -0.72162106244E+02  0.67852083436E+03  0.68563529600E+03  0.47000000000E+01 0.  1.
<mgrwt>
<rscale>  0 0.91789982E+03</rscale>
<asrwt>0</asrwt>
<pdfrwt beam="1">  1       21 0.41106224E+00 0.91789982E+03</pdfrwt>
<pdfrwt beam="2">  1       21 0.12128198E-01 0.91789982E+03</pdfrwt>
<totfact> 0.26886137E+02</totfact>
</mgrwt>
</event>
<event>
 8    1  0.9400004E-006  0.2734074E+03  0.7546771E-02  0.1099345E+00
         21   -1    0    0  504  503  0.00000000000E+00  0.00000000000E+00  0.10718544232E+04  0.10718544232E+04  0.00000000000E+00 0. -1.
         21   -1    0    0  503  504 -0.00000000000E+00 -0.00000000000E+00 -0.17435111282E+02  0.17435111282E+02  0.00000000000E+00 0. -1.
         25    2    1    2    0    0  0.52480080967E+02  0.16294646187E+01  0.59689928062E+03  0.61210408413E+03  0.12500337813E+03 0.  0.
         25    2    1    2    0    0 -0.52480080967E+02 -0.16294646187E+01  0.45752003134E+03  0.47718545039E+03  0.12499824375E+03 0.  0.
          5    1    3    3  501    0  0.59952968103E+02  0.54472627728E+02  0.32490229895E+03  0.33488090334E+03  0.47000000000E+01 0. -1.
         -5    1    3    3    0  501 -0.74728871360E+01 -0.52843163109E+02  0.27199698167E+03  0.27722318079E+03  0.47000000000E+01 0. -1.
          5    1    4    4  502    0  0.20869286701E+02 -0.40677104243E+02  0.99240671725E+02  0.10936615044E+03  0.47000000000E+01 0.  1.
         -5    1    4    4    0  502 -0.73349367668E+02  0.39047639624E+02  0.35827935961E+03  0.36781929996E+03  0.47000000000E+01 0.  1.
<mgrwt>
<rscale>  0 0.27340740E+03</rscale>
<asrwt>0</asrwt>
<pdfrwt beam="1">  1       21 0.16490063E+00 0.27340740E+03</pdfrwt>
<pdfrwt beam="2">  1       21 0.26823257E-02 0.27340740E+03</pdfrwt>
<totfact> 0.17091291E+05</totfact>
</mgrwt>
</event>
<event>
 8    1  0.9400004E-006  0.2726079E+03  0.7546771E-02  0.1099796E+00
         21   -1    0    0  504  503  0.00000000000E+00  0.00000000000E+00  0.24699049621E+02  0.24699049621E+02  0.00000000000E+00 0. -1.
         21   -1    0    0  503  504 -0.00000000000E+00 -0.00000000000E+00 -0.75220570723E+03  0.75220570723E+03  0.00000000000E+00 0. -1.
         25    2    1    2    0    0  0.14800917374E+02 -0.28314442164E+02 -0.48912706689E+03  0.50585769615E+03  0.12500378555E+03 0.  0.
         25    2    1    2    0    0 -0.14800917374E+02  0.28314442164E+02 -0.23837959072E+03  0.27104706070E+03  0.12498361914E+03 0.  0.
          5    1    3    3  501    0  0.29292414452E+02  0.43531370490E+02 -0.15346458468E+03  0.16225441292E+03  0.47000000000E+01 0. -1.
         -5    1    3    3    0  501 -0.14491497079E+02 -0.71845812654E+02 -0.33566248221E+03  0.34360328323E+03  0.47000000000E+01 0. -1.
          5    1    4    4  502    0 -0.49078935161E+02 -0.30724305732E+02 -0.13618181345E+03  0.14805506123E+03  0.47000000000E+01 0.  1.
         -5    1    4    4    0  502  0.34278017787E+02  0.59038747897E+02 -0.10219777726E+03  0.12299199947E+03  0.47000000000E+01 0.  1.
<mgrwt>
<rscale>  0 0.27260789E+03</rscale>
<asrwt>0</asrwt>
<pdfrwt beam="1">  1       21 0.37998544E-02 0.27260789E+03</pdfrwt>
<pdfrwt beam="2">  1       21 0.11572394E+00 0.27260789E+03</pdfrwt>
<totfact> 0.24049386E+05</totfact>
</mgrwt>
</event>
<event>
 8    1  0.9400004E-006  0.3322826E+03  0.7546771E-02  0.1070131E+00
         21   -1    0    0  504  503  0.00000000000E+00  0.00000000000E+00  0.24574267307E+03  0.24574267307E+03  0.00000000000E+00 0.  1.
         21   -1    0    0  503  504 -0.00000000000E+00 -0.00000000000E+00 -0.11232456450E+03  0.11232456450E+03  0.00000000000E+00 0.  1.
         25    2    1    2    0    0 -0.21310954285E+02  0.10723614721E+03  0.71970450304E+02  0.18099352753E+03  0.12500065300E+03 0.  0.
         25    2    1    2    0    0  0.21310954285E+02 -0.10723614721E+03  0.61447658264E+02  0.17707371004E+03  0.12500214414E+03 0.  0.
          5    1    3    3  501    0  0.96742571045E+01  0.11272511738E+03  0.12991396477E+02  0.11397986543E+03  0.47000000000E+01 0. -1.
         -5    1    3    3    0  501 -0.30985211389E+02 -0.54889701731E+01  0.58979053827E+02  0.67013662105E+02  0.47000000000E+01 0. -1.
          5    1    4    4  502    0  0.15242781229E+02 -0.10354274512E+03 -0.98894169837E+01  0.10522990552E+03  0.47000000000E+01 0. -1.
         -5    1    4    4    0  502  0.60681730557E+01 -0.36934020921E+01  0.71337075248E+02  0.71843804522E+02  0.47000000000E+01 0. -1.
<mgrwt>
<rscale>  0 0.33228264E+03</rscale>
<asrwt>0</asrwt>
<pdfrwt beam="1">  1       21 0.37806565E-01 0.33228264E+03</pdfrwt>
<pdfrwt beam="2">  1       21 0.17280702E-01 0.33228264E+03</pdfrwt>
<totfact> 0.19704231E+05</totfact>
</mgrwt>
</event>
<event>
 8    1  0.9400004E-006  0.6162560E+03  0.7546771E-02  0.9872242E-01
         21   -1    0    0  504  503  0.00000000000E+00  0.00000000000E+00  0.16466021581E+03  0.16466021581E+03  0.00000000000E+00 0.  1.
         21   -1    0    0  503  504 -0.00000000000E+00 -0.00000000000E+00 -0.57659871473E+03  0.57659871473E+03  0.00000000000E+00 0.  1.
         25    2    1    2    0    0  0.18188310656E+03 -0.38641428567E+02  0.48462860428E+02  0.22923486442E+03  0.12500139907E+03 0.  0.
         25    2    1    2    0    0 -0.18188310656E+03  0.38641428567E+02 -0.46040135935E+03  0.51202406612E+03  0.12499843258E+03 0.  0.
          5    1    3    3  501    0 -0.38711200991E+01  0.10665949790E+02  0.34342479526E+02  0.36472509589E+02  0.47000000000E+01 0. -1.
         -5    1    3    3    0  501  0.18575422666E+03 -0.49307378356E+02  0.14120380902E+02  0.19276235483E+03  0.47000000000E+01 0. -1.
          5    1    4    4  502    0 -0.73536972058E+02 -0.45664269686E+02 -0.17769314513E+03  0.19771154648E+03  0.47000000000E+01 0.  1.
         -5    1    4    4    0  502 -0.10834613450E+03  0.84305698253E+02 -0.28270821421E+03  0.31431251964E+03  0.47000000000E+01 0.  1.
<mgrwt>
<rscale>  0 0.61625601E+03</rscale>
<asrwt>0</asrwt>
<pdfrwt beam="1">  1       21 0.25332341E-01 0.61625601E+03</pdfrwt>
<pdfrwt beam="2">  1       21 0.88707494E-01 0.61625601E+03</pdfrwt>
<totfact> 0.13835607E+04</totfact>
</mgrwt>
</event>
<event>
 8    1  0.9400004E-006  0.2792806E+03  0.7546771E-02  0.1096082E+00
         21   -1    0    0  504  503  0.00000000000E+00  0.00000000000E+00  0.23341095941E+02  0.23341095941E+02  0.00000000000E+00 0. -1.
         21   -1    0    0  503  504 -0.00000000000E+00 -0.00000000000E+00 -0.83541133816E+03  0.83541133816E+03  0.00000000000E+00 0. -1.
         25    2    1    2    0    0  0.35710062129E+02  0.24930319619E+02 -0.26931113248E+03  0.30008447623E+03  0.12500190968E+03 0.  0.
         25    2    1    2    0    0 -0.35710062129E+02 -0.24930319619E+02 -0.54275910974E+03  0.55866795787E+03  0.12500282625E+03 0.  0.
          5    1    3    3  501    0 -0.20380980744E+02  0.15533678100E+02 -0.13219987179E+01  0.26086724824E+02  0.47000000000E+01 0.  1.
         -5    1    3    3    0  501  0.56091042873E+02  0.93966415185E+01 -0.26798913376E+03  0.27399775141E+03  0.47000000000E+01 0.  1.
          5    1    4    4  502    0 -0.75336166704E+02 -0.23530352962E+02 -0.22660284785E+03  0.24000032537E+03  0.47000000000E+01 0.  1.
         -5    1    4    4    0  502  0.39626104576E+02 -0.13999666571E+01 -0.31615626188E+03  0.31866763249E+03  0.47000000000E+01 0.  1.
<mgrwt>
<rscale>  0 0.27928062E+03</rscale>
<asrwt>0</asrwt>
<pdfrwt beam="1">  1       21 0.35909376E-02 0.27928062E+03</pdfrwt>
<pdfrwt beam="2">  1       21 0.12852483E+00 0.27928062E+03</pdfrwt>
<totfact> 0.20280297E+05</totfact>
</mgrwt>
</event>
<event>
 8    1  0.9400004E-006  0.2739943E+03  0.7546771E-02  0.1099015E+00
         21   -1    0    0  504  503  0.00000000000E+00  0.00000000000E+00  0.88985701927E+02  0.88985701927E+02  0.00000000000E+00 0. -1.
         21   -1    0    0  503  504 -0.00000000000E+00 -0.00000000000E+00 -0.21091269743E+03  0.21091269743E+03  0.00000000000E+00 0. -1.
         25    2    1    2    0    0 -0.97474231850E+01 -0.55028952659E+02 -0.65754641660E+02  0.15189800866E+03  0.12500453690E+03 0.  0.
         25    2    1    2    0    0  0.97474231850E+01  0.55028952659E+02 -0.56172353848E+02  0.14800039070E+03  0.12500233767E+03 0.  0.
          5    1    3    3  501    0 -0.44497966075E+02  0.12721986599E+02  0.63213793194E+01  0.46946435055E+02  0.47000000000E+01 0. -1.
         -5    1    3    3    0  501  0.34750542890E+02 -0.67750939258E+02 -0.72076020980E+02  0.10495157360E+03  0.47000000000E+01 0. -1.
          5    1    4    4  502    0 -0.13849821891E+02 -0.29696210510E+02  0.13449834589E+02  0.35730526662E+02  0.47000000000E+01 0.  1.
         -5    1    4    4    0  502  0.23597245076E+02  0.84725163169E+02 -0.69622188437E+02  0.11226986404E+03  0.47000000000E+01 0.  1.
<mgrwt>
<rscale>  0 0.27399427E+03</rscale>
<asrwt>0</asrwt>
<pdfrwt beam="1">  1       21 0.13690108E-01 0.27399427E+03</pdfrwt>
<pdfrwt beam="2">  1       21 0.32448107E-01 0.27399427E+03</pdfrwt>
<totfact> 0.41605954E+05</totfact>
</mgrwt>
</event>
<event>
 8    1  0.9400004E-006  0.2726674E+03  0.7546771E-02  0.1099763E+00
         21   -1    0    0  504  503  0.00000000000E+00  0.00000000000E+00  0.15075260128E+02  0.15075260128E+02  0.00000000000E+00 0. -1.
         21   -1    0    0  503  504 -0.00000000000E+00 -0.00000000000E+00 -0.12329387775E+04  0.12329387775E+04  0.00000000000E+00 0. -1.
         25    2    1    2    0    0  0.19218610822E+02  0.92549823038E+01 -0.83811408118E+03  0.84765252523E+03  0.12499832300E+03 0.  0.
         25    2    1    2    0    0 -0.19218610822E+02 -0.92549823038E+01 -0.37974943619E+03  0.40036151239E+03  0.12499878649E+03 0.  0.
          5    1    3    3  501    0  0.62693545098E+02  0.42623344257E+01 -0.69679392230E+03  0.69963741198E+03  0.47000000000E+01 0.  1.
         -5    1    3    3    0  501 -0.43474934276E+02  0.49926478782E+01 -0.14132015888E+03  0.14801511324E+03  0.47000000000E+01 0.  1.
          5    1    4    4  502    0 -0.68206483340E+02 -0.23353090083E+02 -0.17537802703E+03  0.18967612805E+03  0.47000000000E+01 0. -1.
         -5    1    4    4    0  502  0.48987872517E+02  0.14098107779E+02 -0.20437140916E+03  0.21068538435E+03  0.47000000000E+01 0. -1.
<mgrwt>
<rscale>  0 0.27266736E+03</rscale>
<asrwt>0</asrwt>
<pdfrwt beam="1">  1       21 0.23192709E-02 0.27266736E+03</pdfrwt>
<pdfrwt beam="2">  1       21 0.18968288E+00 0.27266736E+03</pdfrwt>
<totfact> 0.14606421E+05</totfact>
</mgrwt>
</event>
<event>
 8    1  0.9400004E-006  0.2796540E+03  0.7546771E-02  0.1095878E+00
         21   -1    0    0  504  503  0.00000000000E+00  0.00000000000E+00  0.10303618828E+03  0.10303618828E+03  0.00000000000E+00 0. -1.
         21   -1    0    0  503  504 -0.00000000000E+00 -0.00000000000E+00 -0.18975462728E+03  0.18975462728E+03  0.00000000000E+00 0. -1.
         25    2    1    2    0    0 -0.64492960209E+01  0.43122976179E+02 -0.90473815297E+02  0.16034583277E+03  0.12499636130E+03 0.  0.
         25    2    1    2    0    0  0.64492960209E+01 -0.43122976179E+02  0.37553763008E+01  0.13244498280E+03  0.12500554437E+03 0.  0.
          5    1    3    3  501    0  0.50527624730E+02 -0.10625954847E+02 -0.22455820572E+02  0.56500492518E+02  0.47000000000E+01 0.  1.
         -5    1    3    3    0  501 -0.56976920751E+02  0.53748931026E+02 -0.68017994725E+02  0.10384534025E+03  0.47000000000E+01 0.  1.
          5    1    4    4  502    0  0.50981402962E+02  0.12748990875E+02 -0.20852341331E+02  0.56732269083E+02  0.47000000000E+01 0. -1.
         -5    1    4    4    0  502 -0.44532106941E+02 -0.55871967054E+02  0.24607717632E+02  0.75712713715E+02  0.47000000000E+01 0. -1.
<mgrwt>
<rscale>  0 0.27965403E+03</rscale>
<asrwt>0</asrwt>
<pdfrwt beam="1">  1       21 0.15851721E-01 0.27965403E+03</pdfrwt>
<pdfrwt beam="2">  1       21 0.29193019E-01 0.27965403E+03</pdfrwt>
<totfact> 0.39128599E+05</totfact>
</mgrwt>
</event>
<event>
 8    1  0.9400004E-006  0.4600055E+03  0.7546771E-02  0.1024780E+00
         21   -1    0    0  504  503  0.00000000000E+00  0.00000000000E+00  0.11366525082E+03  0.11366525082E+03  0.00000000000E+00 0. -1.
         21   -1    0    0  503  504 -0.00000000000E+00 -0.00000000000E+00 -0.46541281660E+03  0.46541281660E+03  0.00000000000E+00 0. -1.
         25    2    1    2    0    0  0.38714778212E+02  0.39896795221E+02  0.56879548028E+02  0.14815734075E+03  0.12499890525E+03 0.  0.
         25    2    1    2    0    0 -0.38714778212E+02 -0.39896795221E+02 -0.40862711381E+03  0.43092072666E+03  0.12500386477E+03 0.  0.
          5    1    3    3  501    0  0.38692907665E+01  0.85543073124E+01 -0.39506406932E+02  0.40877790710E+02  0.47000000000E+01 0.  1.
         -5    1    3    3    0  501  0.34845487446E+02  0.31342487909E+02  0.96385954960E+02  0.10727955004E+03  0.47000000000E+01 0.  1.
          5    1    4    4  502    0  0.28737953144E+02 -0.15244328145E+02 -0.29221477516E+03  0.29405751871E+03  0.47000000000E+01 0.  1.
         -5    1    4    4    0  502 -0.67452731356E+02 -0.24652467076E+02 -0.11641233865E+03  0.13686320795E+03  0.47000000000E+01 0.  1.
<mgrwt>
<rscale>  0 0.46000550E+03</rscale>
<asrwt>0</asrwt>
<pdfrwt beam="1">  1       21 0.17486962E-01 0.46000550E+03</pdfrwt>
<pdfrwt beam="2">  1       21 0.71601972E-01 0.46000550E+03</pdfrwt>
<totfact> 0.47865435E+04</totfact>
</mgrwt>
</event>
<event>
 8    1  0.9400004E-006  0.5579915E+03  0.7546771E-02  0.9996609E-01
         21   -1    0    0  504  503  0.00000000000E+00  0.00000000000E+00  0.51006161010E+03  0.51006161010E+03  0.00000000000E+00 0. -1.
         21   -1    0    0  503  504 -0.00000000000E+00 -0.00000000000E+00 -0.15260634429E+03  0.15260634429E+03  0.00000000000E+00 0. -1.
         25    2    1    2    0    0  0.21158423073E+03  0.12984724949E+03  0.14999881521E+03  0.31583853748E+03  0.12500456912E+03 0.  0.
         25    2    1    2    0    0 -0.21158423073E+03 -0.12984724949E+03  0.20745645060E+03  0.34682941690E+03  0.12499708253E+03 0.  0.
          5    1    3    3  501    0  0.12250577981E+03  0.13697159837E+03  0.73009491151E+02  0.19779120467E+03  0.47000000000E+01 0. -1.
         -5    1    3    3    0  501  0.89078450918E+02 -0.71243488794E+01  0.76989324061E+02  0.11804733281E+03  0.47000000000E+01 0. -1.
          5    1    4    4  502    0 -0.20604714718E+03 -0.14000043067E+03  0.15618513042E+03  0.29406025303E+03  0.47000000000E+01 0. -1.
         -5    1    4    4    0  502 -0.55370835499E+01  0.10153181183E+02  0.51271320185E+02  0.52769163873E+02  0.47000000000E+01 0. -1.
<mgrwt>
<rscale>  0 0.55799153E+03</rscale>
<asrwt>0</asrwt>
<pdfrwt beam="1">  1       21 0.78471016E-01 0.55799153E+03</pdfrwt>
<pdfrwt beam="2">  1       21 0.23477899E-01 0.55799153E+03</pdfrwt>
<totfact> 0.21653837E+04</totfact>
</mgrwt>
</event>
<event>
 8    1  0.9400004E-006  0.2906539E+03  0.7546771E-02  0.1090008E+00
         21   -1    0    0  504  503  0.00000000000E+00  0.00000000000E+00  0.18848361079E+04  0.18848361079E+04  0.00000000000E+00 0.  1.
         21   -1    0    0  503  504 -0.00000000000E+00 -0.00000000000E+00 -0.11205176802E+02  0.11205176802E+02  0.00000000000E+00 0.  1.
         25    2    1    2    0    0 -0.40421004499E+02 -0.50865936586E+02  0.70400125245E+03  0.71795816221E+03  0.12499983251E+03 0.  0.
         25    2    1    2    0    0  0.40421004499E+02  0.50865936586E+02  0.11696296786E+04  0.11780831225E+04  0.12500022884E+03 0.  0.
          5    1    3    3  501    0  0.17421059399E+02  0.20440268045E+02  0.45302683199E+02  0.52874577761E+02  0.47000000000E+01 0. -1.
         -5    1    3    3    0  501 -0.57842063898E+02 -0.71306204631E+02  0.65869856925E+03  0.66508358445E+03  0.47000000000E+01 0. -1.
          5    1    4    4  502    0  0.39011335105E+02  0.77985400354E+01  0.10513190503E+04  0.10520820011E+04  0.47000000000E+01 0.  1.
         -5    1    4    4    0  502  0.14096693937E+01  0.43067396551E+02  0.11831062832E+03  0.12600112137E+03  0.47000000000E+01 0.  1.
<mgrwt>
<rscale>  0 0.29065390E+03</rscale>
<asrwt>0</asrwt>
<pdfrwt beam="1">  1       21 0.28997453E+00 0.29065390E+03</pdfrwt>
<pdfrwt beam="2">  1       21 0.17238748E-02 0.29065390E+03</pdfrwt>
<totfact> 0.56995194E+04</totfact>
</mgrwt>
</event>
<event>
 8    1  0.9400004E-006  0.3470650E+03  0.7546771E-02  0.1063826E+00
         21   -1    0    0  504  503  0.00000000000E+00  0.00000000000E+00  0.49636926500E+03  0.49636926500E+03  0.00000000000E+00 0.  1.
         21   -1    0    0  503  504 -0.00000000000E+00 -0.00000000000E+00 -0.60667605163E+02  0.60667605163E+02  0.00000000000E+00 0.  1.
         25    2    1    2    0    0  0.15078194005E+02  0.11420870086E+03  0.27388476729E+03  0.32234330838E+03  0.12498545281E+03 0.  0.
         25    2    1    2    0    0 -0.15078194005E+02 -0.11420870086E+03  0.16181689255E+03  0.23469356179E+03  0.12500152776E+03 0.  0.
          5    1    3    3  501    0 -0.47666799426E+02  0.20248808124E+02  0.53320185633E+02  0.74479998616E+02  0.47000000000E+01 0. -1.
         -5    1    3    3    0  501  0.62744993430E+02  0.93959892738E+02  0.22056458166E+03  0.24786330976E+03  0.47000000000E+01 0. -1.
          5    1    4    4  502    0 -0.50193299143E+02 -0.89644246774E+02  0.49006570960E+02  0.11392625797E+03  0.47000000000E+01 0. -1.
         -5    1    4    4    0  502  0.35115105138E+02 -0.24564454087E+02  0.11281032159E+03  0.12076730381E+03  0.47000000000E+01 0. -1.
<mgrwt>
<rscale>  0 0.34706503E+03</rscale>
<asrwt>0</asrwt>
<pdfrwt beam="1">  1       21 0.76364500E-01 0.34706503E+03</pdfrwt>
<pdfrwt beam="2">  1       21 0.93334781E-02 0.34706503E+03</pdfrwt>
<totfact> 0.13366936E+05</totfact>
</mgrwt>
</event>
<event>
 8    1  0.9400004E-006  0.3374791E+03  0.7546771E-02  0.1067875E+00
         21   -1    0    0  504  503  0.00000000000E+00  0.00000000000E+00  0.21913750130E+03  0.21913750130E+03  0.00000000000E+00 0. -1.
         21   -1    0    0  503  504 -0.00000000000E+00 -0.00000000000E+00 -0.12993225344E+03  0.12993225344E+03  0.00000000000E+00 0. -1.
         25    2    1    2    0    0  0.64885844687E+02  0.63013944126E+02  0.11525450116E+03  0.19259407544E+03  0.12501179088E+03 0.  0.
         25    2    1    2    0    0 -0.64885844687E+02 -0.63013944126E+02 -0.26049253301E+02  0.15647567931E+03  0.12500057849E+03 0.  0.
          5    1    3    3  501    0  0.14472941540E+02 -0.30501471233E+02  0.68327498175E+02  0.76357991009E+02  0.47000000000E+01 0. -1.
         -5    1    3    3    0  501  0.50412903148E+02  0.93515415359E+02  0.46927002988E+02  0.11623608443E+03  0.47000000000E+01 0. -1.
          5    1    4    4  502    0 -0.18623825551E+02 -0.83423821585E+01 -0.69492742504E+02  0.72579428759E+02  0.47000000000E+01 0.  1.
         -5    1    4    4    0  502 -0.46262019136E+02 -0.54671561968E+02  0.43443489203E+02  0.83896250552E+02  0.47000000000E+01 0.  1.
<mgrwt>
<rscale>  0 0.33747906E+03</rscale>
<asrwt>0</asrwt>
<pdfrwt beam="1">  1       21 0.33713462E-01 0.33747906E+03</pdfrwt>
<pdfrwt beam="2">  1       21 0.19989577E-01 0.33747906E+03</pdfrwt>
<totfact> 0.18863839E+05</totfact>
</mgrwt>
</event>
<event>
 8    1  0.9400004E-006  0.2769746E+03  0.7546771E-02  0.1097353E+00
         21   -1    0    0  504  503  0.00000000000E+00  0.00000000000E+00  0.16315022814E+02  0.16315022814E+02  0.00000000000E+00 0.  1.
         21   -1    0    0  503  504 -0.00000000000E+00 -0.00000000000E+00 -0.11755261418E+04  0.11755261418E+04  0.00000000000E+00 0.  1.
         25    2    1    2    0    0  0.18751532196E+02  0.55953402469E+02 -0.54341586364E+03  0.56072340376E+03  0.12501012547E+03 0.  0.
         25    2    1    2    0    0 -0.18751532196E+02 -0.55953402469E+02 -0.61579525539E+03  0.63111776089E+03  0.12499371322E+03 0.  0.
          5    1    3    3  501    0  0.18494179822E+02  0.74575749768E+02 -0.16777489415E+03  0.18459166354E+03  0.47000000000E+01 0.  1.
         -5    1    3    3    0  501  0.25735237362E+00 -0.18622347298E+02 -0.37564096948E+03  0.37613174022E+03  0.47000000000E+01 0.  1.
          5    1    4    4  502    0 -0.47474374796E+01 -0.95466313867E+02 -0.44721463041E+03  0.45733944822E+03  0.47000000000E+01 0.  1.
         -5    1    4    4    0  502 -0.14004094716E+02  0.39512911398E+02 -0.16858062498E+03  0.17377831267E+03  0.47000000000E+01 0.  1.
<mgrwt>
<rscale>  0 0.27697463E+03</rscale>
<asrwt>0</asrwt>
<pdfrwt beam="1">  1       21 0.25100032E-02 0.27697463E+03</pdfrwt>
<pdfrwt beam="2">  1       21 0.18085020E+00 0.27697463E+03</pdfrwt>
<totfact> 0.14693849E+05</totfact>
</mgrwt>
</event>
<event>
 8    1  0.9400004E-006  0.2773722E+03  0.7546771E-02  0.1097133E+00
         21   -1    0    0  504  503  0.00000000000E+00  0.00000000000E+00  0.74712199047E+03  0.74712199047E+03  0.00000000000E+00 0.  1.
         21   -1    0    0  503  504 -0.00000000000E+00 -0.00000000000E+00 -0.25743893789E+02  0.25743893789E+02  0.00000000000E+00 0.  1.
         25    2    1    2    0    0 -0.51606373857E+02 -0.67477733121E+01  0.27701961934E+03  0.30833783644E+03  0.12499440633E+03 0.  0.
         25    2    1    2    0    0  0.51606373857E+02  0.67477733121E+01  0.44435847735E+03  0.46452804783E+03  0.12499240201E+03 0.  0.
          5    1    3    3  501    0 -0.19097147325E+02 -0.48304603497E+02  0.40704743516E+02  0.66158913985E+02  0.47000000000E+01 0. -1.
         -5    1    3    3    0  501 -0.32509226532E+02  0.41556830185E+02  0.23631487582E+03  0.24217892245E+03  0.47000000000E+01 0. -1.
          5    1    4    4  502    0 -0.51270362166E+01 -0.17255830845E+02  0.29743945360E+01  0.18841104569E+02  0.47000000000E+01 0. -1.
         -5    1    4    4    0  502  0.56733410074E+02  0.24003604157E+02  0.44138408281E+03  0.44568694326E+03  0.47000000000E+01 0. -1.
<mgrwt>
<rscale>  0 0.27737216E+03</rscale>
<asrwt>0</asrwt>
<pdfrwt beam="1">  1       21 0.11494183E+00 0.27737216E+03</pdfrwt>
<pdfrwt beam="2">  1       21 0.39605996E-02 0.27737216E+03</pdfrwt>
<totfact> 0.22774958E+05</totfact>
</mgrwt>
</event>
<event>
 8    1  0.9400004E-006  0.2743787E+03  0.7546771E-02  0.1098799E+00
         21   -1    0    0  504  503  0.00000000000E+00  0.00000000000E+00  0.64681988409E+02  0.64681988409E+02  0.00000000000E+00 0.  1.
         21   -1    0    0  503  504 -0.00000000000E+00 -0.00000000000E+00 -0.29097623953E+03  0.29097623953E+03  0.00000000000E+00 0.  1.
         25    2    1    2    0    0  0.19218062641E+02  0.48939205853E+02 -0.14007206322E+03  0.19495990524E+03  0.12499920781E+03 0.  0.
         25    2    1    2    0    0 -0.19218062641E+02 -0.48939205853E+02 -0.86222187905E+02  0.16069832271E+03  0.12500122172E+03 0.  0.
          5    1    3    3  501    0  0.50602494552E+00  0.67546058399E+02 -0.18115673577E+02  0.70092750664E+02  0.47000000000E+01 0.  1.
         -5    1    3    3    0  501  0.18712037696E+02 -0.18606852546E+02 -0.12195638964E+03  0.12486715457E+03  0.47000000000E+01 0.  1.
          5    1    4    4  502    0  0.12166992849E+02 -0.79436831733E+02 -0.84417450720E+02  0.11664751149E+03  0.47000000000E+01 0.  1.
         -5    1    4    4    0  502 -0.31385055491E+02  0.30497625880E+02 -0.18047371846E+01  0.44050811216E+02  0.47000000000E+01 0.  1.
<mgrwt>
<rscale>  0 0.27437873E+03</rscale>
<asrwt>0</asrwt>
<pdfrwt beam="1">  1       21 0.99510752E-02 0.27437873E+03</pdfrwt>
<pdfrwt beam="2">  1       21 0.44765575E-01 0.27437873E+03</pdfrwt>
<totfact> 0.38507952E+05</totfact>
</mgrwt>
</event>
<event>
 8    1  0.9400004E-006  0.2685805E+03  0.7546771E-02  0.1102095E+00
         21   -1    0    0  504  503  0.00000000000E+00  0.00000000000E+00  0.22611050608E+02  0.22611050608E+02  0.00000000000E+00 0.  1.
         21   -1    0    0  503  504 -0.00000000000E+00 -0.00000000000E+00 -0.79756911492E+03  0.79756911492E+03  0.00000000000E+00 0.  1.
         25    2    1    2    0    0  0.15102098006E+02 -0.15628315063E+02 -0.25310823579E+03  0.28312899467E+03  0.12500372395E+03 0.  0.
         25    2    1    2    0    0 -0.15102098006E+02  0.15628315063E+02 -0.52184982852E+03  0.53705117086E+03  0.12499759596E+03 0.  0.
          5    1    3    3  501    0  0.23241068367E+02 -0.13168541870E+02  0.25900524474E+01  0.27246213049E+02  0.47000000000E+01 0.  1.
         -5    1    3    3    0  501 -0.81389703613E+01 -0.24597731928E+01 -0.25569828824E+03  0.25588278163E+03  0.47000000000E+01 0.  1.
          5    1    4    4  502    0 -0.54634174013E+02 -0.72299459546E+01 -0.43781623447E+03  0.44129617068E+03  0.47000000000E+01 0. -1.
         -5    1    4    4    0  502  0.39532076007E+02  0.22858261017E+02 -0.84033594047E+02  0.95755000176E+02  0.47000000000E+01 0. -1.
<mgrwt>
<rscale>  0 0.26858053E+03</rscale>
<asrwt>0</asrwt>
<pdfrwt beam="1">  1       21 0.34786231E-02 0.26858053E+03</pdfrwt>
<pdfrwt beam="2">  1       21 0.12270294E+00 0.26858053E+03</pdfrwt>
<totfact> 0.24132580E+05</totfact>
</mgrwt>
</event>
<event>
 8    1  0.9400004E-006  0.2887751E+03  0.7546771E-02  0.1090990E+00
         21   -1    0    0  504  503  0.00000000000E+00  0.00000000000E+00  0.74970412594E+03  0.74970412594E+03  0.00000000000E+00 0.  1.
         21   -1    0    0  503  504 -0.00000000000E+00 -0.00000000000E+00 -0.27807995684E+02  0.27807995684E+02  0.00000000000E+00 0.  1.
         25    2    1    2    0    0 -0.65825123961E+02 -0.28745360871E+02  0.33956381441E+03  0.36889776723E+03  0.12499094324E+03 0.  0.
         25    2    1    2    0    0  0.65825123961E+02  0.28745360871E+02  0.38233231585E+03  0.40861435440E+03  0.12501379190E+03 0.  0.
          5    1    3    3  501    0 -0.17728663449E+02 -0.72310891193E+02  0.13506317283E+03  0.15429621236E+03  0.47000000000E+01 0. -1.
         -5    1    3    3    0  501 -0.48096460511E+02  0.43565530322E+02  0.20450064158E+03  0.21460155487E+03  0.47000000000E+01 0. -1.
          5    1    4    4  502    0  0.92128114338E+02  0.13676944148E+02  0.16843112296E+03  0.19252475538E+03  0.47000000000E+01 0.  1.
         -5    1    4    4    0  502 -0.26302990378E+02  0.15068416723E+02  0.21390119289E+03  0.21608959902E+03  0.47000000000E+01 0.  1.
<mgrwt>
<rscale>  0 0.28877513E+03</rscale>
<asrwt>0</asrwt>
<pdfrwt beam="1">  1       21 0.11533908E+00 0.28877513E+03</pdfrwt>
<pdfrwt beam="2">  1       21 0.42781537E-02 0.28877513E+03</pdfrwt>
<totfact> 0.19757988E+05</totfact>
</mgrwt>
</event>
<event>
 8    1  0.9400004E-006  0.3017256E+03  0.7546771E-02  0.1084381E+00
         21   -1    0    0  504  503  0.00000000000E+00  0.00000000000E+00  0.47781158946E+02  0.47781158946E+02  0.00000000000E+00 0.  1.
         21   -1    0    0  503  504 -0.00000000000E+00 -0.00000000000E+00 -0.47632956292E+03  0.47632956292E+03  0.00000000000E+00 0.  1.
         25    2    1    2    0    0 -0.64623430890E+02  0.39172056550E+02 -0.14872514091E+03  0.20845840215E+03  0.12500040022E+03 0.  0.
         25    2    1    2    0    0  0.64623430890E+02 -0.39172056550E+02 -0.27982326306E+03  0.31565231971E+03  0.12499876221E+03 0.  0.
          5    1    3    3  501    0 -0.11451697620E+02  0.67703882424E+02 -0.12644276112E+03  0.14396117155E+03  0.47000000000E+01 0.  1.
         -5    1    3    3    0  501 -0.53171733270E+02 -0.28531825874E+02 -0.22282379789E+02  0.64497230605E+02  0.47000000000E+01 0.  1.
          5    1    4    4  502    0  0.72092043133E+02 -0.77805764690E+02 -0.19511716302E+03  0.22213463711E+03  0.47000000000E+01 0.  1.
         -5    1    4    4    0  502 -0.74686122429E+01  0.38633708141E+02 -0.84706100044E+02  0.93517682597E+02  0.47000000000E+01 0.  1.
<mgrwt>
<rscale>  0 0.30172556E+03</rscale>
<asrwt>0</asrwt>
<pdfrwt beam="1">  1       21 0.73509476E-02 0.30172556E+03</pdfrwt>
<pdfrwt beam="2">  1       21 0.73281471E-01 0.30172556E+03</pdfrwt>
<totfact> 0.22593575E+05</totfact>
</mgrwt>
</event>
<event>
 8    1  0.9400004E-006  0.4042507E+03  0.7546771E-02  0.1042318E+00
         21   -1    0    0  504  503  0.00000000000E+00  0.00000000000E+00  0.16432086239E+03  0.16432086239E+03  0.00000000000E+00 0. -1.
         21   -1    0    0  503  504 -0.00000000000E+00 -0.00000000000E+00 -0.24862729237E+03  0.24862729237E+03  0.00000000000E+00 0. -1.
         25    2    1    2    0    0  0.36627669853E+02  0.20849660861E+02 -0.19859400313E+03  0.23841306603E+03  0.12499966967E+03 0.  0.
         25    2    1    2    0    0 -0.36627669853E+02 -0.20849660861E+02  0.11428757314E+03  0.17453508873E+03  0.12499821306E+03 0.  0.
          5    1    3    3  501    0 -0.18757440302E+02  0.16664724387E+01 -0.17333137783E+03  0.17441466463E+03  0.47000000000E+01 0. -1.
         -5    1    3    3    0  501  0.55385110155E+02  0.19183188423E+02 -0.25262625300E+02  0.63998401402E+02  0.47000000000E+01 0. -1.
          5    1    4    4  502    0 -0.34687902145E+02  0.49622261803E+02  0.60657618489E+02  0.85831556566E+02  0.47000000000E+01 0.  1.
         -5    1    4    4    0  502 -0.19397677075E+01 -0.70471922664E+02  0.53629954652E+02  0.88703532166E+02  0.47000000000E+01 0.  1.
<mgrwt>
<rscale>  0 0.40425067E+03</rscale>
<asrwt>0</asrwt>
<pdfrwt beam="1">  1       21 0.25280133E-01 0.40425067E+03</pdfrwt>
<pdfrwt beam="2">  1       21 0.38250352E-01 0.40425067E+03</pdfrwt>
<totfact> 0.91886204E+04</totfact>
</mgrwt>
</event>
<event>
 8    1  0.9400004E-006  0.3262282E+03  0.7546771E-02  0.1072818E+00
         21   -1    0    0  504  503  0.00000000000E+00  0.00000000000E+00  0.10754740928E+03  0.10754740928E+03  0.00000000000E+00 0. -1.
         21   -1    0    0  503  504 -0.00000000000E+00 -0.00000000000E+00 -0.24739056340E+03  0.24739056340E+03  0.00000000000E+00 0. -1.
         25    2    1    2    0    0  0.18594898811E+01 -0.98453163486E+02 -0.10892151518E+03  0.19283435438E+03  0.12499883463E+03 0.  0.
         25    2    1    2    0    0 -0.18594898811E+01  0.98453163486E+02 -0.30921638940E+02  0.16210361830E+03  0.12499980883E+03 0.  0.
          5    1    3    3  501    0  0.34939037344E+02 -0.97295081667E+01 -0.88632725523E+02  0.95881435603E+02  0.47000000000E+01 0.  1.
         -5    1    3    3    0  501 -0.33079547463E+02 -0.88723655320E+02 -0.20288789654E+02  0.96952918776E+02  0.47000000000E+01 0.  1.
          5    1    4    4  502    0  0.36028320895E+02 -0.12588857877E+02  0.62093337927E+01  0.38950803269E+02  0.47000000000E+01 0.  1.
         -5    1    4    4    0  502 -0.37887810776E+02  0.11104202136E+03 -0.37130972732E+02  0.12315281503E+03  0.47000000000E+01 0.  1.
<mgrwt>
<rscale>  0 0.32622823E+03</rscale>
<asrwt>0</asrwt>
<pdfrwt beam="1">  1       21 0.16545755E-01 0.32622823E+03</pdfrwt>
<pdfrwt beam="2">  1       21 0.38060087E-01 0.32622823E+03</pdfrwt>
<totfact> 0.21102463E+05</totfact>
</mgrwt>
</event>
<event>
 8    1  0.9400004E-006  0.3503916E+03  0.7546771E-02  0.1062454E+00
         21   -1    0    0  504  503  0.00000000000E+00  0.00000000000E+00  0.12444780123E+03  0.12444780123E+03  0.00000000000E+00 0.  1.
         21   -1    0    0  503  504 -0.00000000000E+00 -0.00000000000E+00 -0.24663812315E+03  0.24663812315E+03  0.00000000000E+00 0.  1.
         25    2    1    2    0    0 -0.11526751216E+03 -0.30403352604E+02 -0.30086697696E+02  0.17533249410E+03  0.12500124359E+03 0.  0.
         25    2    1    2    0    0  0.11526751216E+03  0.30403352604E+02 -0.92103624219E+02  0.19575343028E+03  0.12500145865E+03 0.  0.
          5    1    3    3  501    0  0.89462944600E+01  0.31223274540E+02  0.21756780711E+01  0.32890008097E+02  0.47000000000E+01 0.  1.
         -5    1    3    3    0  501 -0.12421380662E+03 -0.61626627144E+02 -0.32262375767E+02  0.14244248600E+03  0.47000000000E+01 0.  1.
          5    1    4    4  502    0  0.83442497013E+02  0.73809741940E+02 -0.87110519635E+02  0.14149509159E+03  0.47000000000E+01 0. -1.
         -5    1    4    4    0  502  0.31825015144E+02 -0.43406389335E+02 -0.49931045840E+01  0.54258338690E+02  0.47000000000E+01 0. -1.
<mgrwt>
<rscale>  0 0.35039162E+03</rscale>
<asrwt>0</asrwt>
<pdfrwt beam="1">  1       21 0.19145816E-01 0.35039162E+03</pdfrwt>
<pdfrwt beam="2">  1       21 0.37944327E-01 0.35039162E+03</pdfrwt>
<totfact> 0.16079536E+05</totfact>
</mgrwt>
</event>
<event>
 8    1  0.9400004E-006  0.2519292E+03  0.7546771E-02  0.1112092E+00
         21   -1    0    0  504  503  0.00000000000E+00  0.00000000000E+00  0.43203973907E+03  0.43203973907E+03  0.00000000000E+00 0. -1.
         21   -1    0    0  503  504 -0.00000000000E+00 -0.00000000000E+00 -0.36725980619E+02  0.36725980619E+02  0.00000000000E+00 0. -1.
         25    2    1    2    0    0  0.55652644189E+01  0.14142483535E+02  0.19161812544E+03  0.22928946411E+03  0.12500068138E+03 0.  0.
         25    2    1    2    0    0 -0.55652644189E+01 -0.14142483535E+02  0.20369563301E+03  0.23947625558E+03  0.12500393622E+03 0.  0.
          5    1    3    3  501    0 -0.23768616561E+02 -0.48850492066E+02  0.65581298098E+02  0.85289591209E+02  0.47000000000E+01 0.  1.
         -5    1    3    3    0  501  0.29333880980E+02  0.62992975601E+02  0.12603682734E+03  0.14399987290E+03  0.47000000000E+01 0.  1.
          5    1    4    4  502    0  0.11838688737E+02 -0.55080276074E+02  0.18038267427E+03  0.18903436338E+03  0.47000000000E+01 0.  1.
         -5    1    4    4    0  502 -0.17403953156E+02  0.40937792539E+02  0.23312958747E+02  0.50441892202E+02  0.47000000000E+01 0.  1.
<mgrwt>
<rscale>  0 0.25192922E+03</rscale>
<asrwt>0</asrwt>
<pdfrwt beam="1">  1       21 0.66467649E-01 0.25192922E+03</pdfrwt>
<pdfrwt beam="2">  1       21 0.56501512E-02 0.25192922E+03</pdfrwt>
<totfact> 0.44761828E+05</totfact>
</mgrwt>
</event>
<event>
 8    1  0.9400004E-006  0.3816467E+03  0.7546771E-02  0.1050327E+00
         21   -1    0    0  504  503  0.00000000000E+00  0.00000000000E+00  0.41877233986E+03  0.41877233986E+03  0.00000000000E+00 0. -1.
         21   -1    0    0  503  504 -0.00000000000E+00 -0.00000000000E+00 -0.86953076948E+02  0.86953076948E+02  0.00000000000E+00 0. -1.
         25    2    1    2    0    0 -0.17804601029E+02 -0.14022986048E+03  0.20362135971E+03  0.27759915039E+03  0.12497284736E+03 0.  0.
         25    2    1    2    0    0  0.17804601029E+02  0.14022986048E+03  0.12819790320E+03  0.22812626642E+03  0.12500189381E+03 0.  0.
          5    1    3    3  501    0 -0.16751479793E+02 -0.50809178271E+01  0.11384262840E+03  0.11527645832E+03  0.47000000000E+01 0.  1.
         -5    1    3    3    0  501 -0.10531212364E+01 -0.13514894266E+03  0.89778731307E+02  0.16232269207E+03  0.47000000000E+01 0.  1.
          5    1    4    4  502    0  0.20084020706E+02 -0.17057836579E+02  0.28203478610E+01  0.26914346333E+02  0.47000000000E+01 0. -1.
         -5    1    4    4    0  502 -0.22794196766E+01  0.15728769706E+03  0.12537755534E+03  0.20121192009E+03  0.47000000000E+01 0. -1.
<mgrwt>
<rscale>  0 0.38164666E+03</rscale>
<asrwt>0</asrwt>
<pdfrwt beam="1">  1       21 0.64426512E-01 0.38164666E+03</pdfrwt>
<pdfrwt beam="2">  1       21 0.13377397E-01 0.38164666E+03</pdfrwt>
<totfact> 0.10137055E+05</totfact>
</mgrwt>
</event>
<event>
 8    1  0.9400004E-006  0.2533406E+03  0.7546771E-02  0.1111212E+00
         21   -1    0    0  504  503  0.00000000000E+00  0.00000000000E+00  0.28031784373E+03  0.28031784373E+03  0.00000000000E+00 0. -1.
         21   -1    0    0  503  504 -0.00000000000E+00 -0.00000000000E+00 -0.57239909611E+02  0.57239909611E+02  0.00000000000E+00 0. -1.
         25    2    1    2    0    0  0.67810604773E+01 -0.25977797200E+01  0.85989758336E+02  0.15189275502E+03  0.12499775698E+03 0.  0.
         25    2    1    2    0    0 -0.67810604773E+01  0.25977797200E+01  0.13708817579E+03  0.18566499832E+03  0.12500236966E+03 0.  0.
          5    1    3    3  501    0  0.60959476962E+02  0.22094295273E+02  0.51394500680E+02  0.82871589917E+02  0.47000000000E+01 0. -1.
         -5    1    3    3    0  501 -0.54178416485E+02 -0.24692074993E+02  0.34595257655E+02  0.69021165106E+02  0.47000000000E+01 0. -1.
          5    1    4    4  502    0  0.14265947823E+02 -0.47064938936E+02  0.11855703228E+03  0.12843864545E+03  0.47000000000E+01 0. -1.
         -5    1    4    4    0  502 -0.21047008300E+02  0.49662718656E+02  0.18531143512E+02  0.57226352868E+02  0.47000000000E+01 0. -1.
<mgrwt>
<rscale>  0 0.25334062E+03</rscale>
<asrwt>0</asrwt>
<pdfrwt beam="1">  1       21 0.43125821E-01 0.25334062E+03</pdfrwt>
<pdfrwt beam="2">  1       21 0.88061401E-02 0.25334062E+03</pdfrwt>
<totfact> 0.51843838E+05</totfact>
</mgrwt>
</event>
<event>
 8    1  0.9400004E-006  0.2833502E+03  0.7546771E-02  0.1093873E+00
         21   -1    0    0  504  503  0.00000000000E+00  0.00000000000E+00  0.18915965697E+03  0.18915965697E+03  0.00000000000E+00 0. -1.
         21   -1    0    0  503  504 -0.00000000000E+00 -0.00000000000E+00 -0.10611055681E+03  0.10611055681E+03  0.00000000000E+00 0. -1.
         25    2    1    2    0    0  0.54409111960E+02  0.27961057101E+02  0.69185182693E+02  0.15541768014E+03  0.12500357442E+03 0.  0.
         25    2    1    2    0    0 -0.54409111960E+02 -0.27961057101E+02  0.13863917461E+02  0.13985253364E+03  0.12499740310E+03 0.  0.
          5    1    3    3  501    0  0.63833845552E+02 -0.32251843915E+02  0.13921324029E+02  0.73012564238E+02  0.47000000000E+01 0.  1.
         -5    1    3    3    0  501 -0.94247335917E+01  0.60212901016E+02  0.55263858664E+02  0.82405115900E+02  0.47000000000E+01 0.  1.
          5    1    4    4  502    0  0.17333701767E+02  0.34535553680E+02  0.21169558975E+02  0.44310291267E+02  0.47000000000E+01 0.  1.
         -5    1    4    4    0  502 -0.71742813727E+02 -0.62496610781E+02 -0.73056415149E+01  0.95542242378E+02  0.47000000000E+01 0.  1.
<mgrwt>
<rscale>  0 0.28335022E+03</rscale>
<asrwt>0</asrwt>
<pdfrwt beam="1">  1       21 0.29101486E-01 0.28335022E+03</pdfrwt>
<pdfrwt beam="2">  1       21 0.16324701E-01 0.28335022E+03</pdfrwt>
<totfact> 0.37263456E+05</totfact>
</mgrwt>
</event>
<event>
 8    1  0.9400004E-006  0.3294689E+03  0.7546771E-02  0.1071372E+00
         21   -1    0    0  504  503  0.00000000000E+00  0.00000000000E+00  0.37494895058E+03  0.37494895058E+03  0.00000000000E+00 0. -1.
         21   -1    0    0  503  504 -0.00000000000E+00 -0.00000000000E+00 -0.72376364374E+02  0.72376364374E+02  0.00000000000E+00 0. -1.
         25    2    1    2    0    0  0.51588946981E+02  0.50512989224E+02  0.25904806894E+03  0.29655302570E+03  0.12499925400E+03 0.  0.
         25    2    1    2    0    0 -0.51588946981E+02 -0.50512989224E+02  0.43524517262E+02  0.15077228925E+03  0.12499967229E+03 0.  0.
          5    1    3    3  501    0  0.53669884517E+02  0.88952111791E+02  0.16790332316E+03  0.19750076108E+03  0.47000000000E+01 0.  1.
         -5    1    3    3    0  501 -0.20809375355E+01 -0.38439122568E+02  0.91144745777E+02  0.99052264626E+02  0.47000000000E+01 0.  1.
          5    1    4    4  502    0 -0.53353382122E+02 -0.51188588082E+02 -0.27901290292E+02  0.79167082386E+02  0.47000000000E+01 0. -1.
         -5    1    4    4    0  502  0.17644351405E+01  0.67559885806E+00  0.71425807554E+02  0.71605206863E+02  0.47000000000E+01 0. -1.
<mgrwt>
<rscale>  0 0.32946892E+03</rscale>
<asrwt>0</asrwt>
<pdfrwt beam="1">  1       21 0.57684453E-01 0.32946892E+03</pdfrwt>
<pdfrwt beam="2">  1       21 0.11134825E-01 0.32946892E+03</pdfrwt>
<totfact> 0.18217781E+05</totfact>
</mgrwt>
</event>
<event>
 8    1  0.9400004E-006  0.2689019E+03  0.7546771E-02  0.1101910E+00
         21   -1    0    0  504  503  0.00000000000E+00  0.00000000000E+00  0.40712545916E+02  0.40712545916E+02  0.00000000000E+00 0.  1.
         21   -1    0    0  503  504 -0.00000000000E+00 -0.00000000000E+00 -0.44401681027E+03  0.44401681027E+03  0.00000000000E+00 0.  1.
         25    2    1    2    0    0  0.39772996155E+00  0.15031434468E+02 -0.11660607735E+03  0.17160406039E+03  0.12499949623E+03 0.  0.
         25    2    1    2    0    0 -0.39772996155E+00 -0.15031434468E+02 -0.28669818701E+03  0.31312529580E+03  0.12500199287E+03 0.  0.
          5    1    3    3  501    0  0.50442542356E+02  0.20265754984E+02 -0.10707529851E+03  0.12017637229E+03  0.47000000000E+01 0.  1.
         -5    1    3    3    0  501 -0.50044812395E+02 -0.52343205160E+01 -0.95307788365E+01  0.51427688108E+02  0.47000000000E+01 0.  1.
          5    1    4    4  502    0  0.86007745208E+01  0.52766782003E+02 -0.89585849130E+02  0.10443189632E+03  0.47000000000E+01 0. -1.
         -5    1    4    4    0  502 -0.89985044823E+01 -0.67798216471E+02 -0.19711233788E+03  0.20869339947E+03  0.47000000000E+01 0. -1.
<mgrwt>
<rscale>  0 0.26890188E+03</rscale>
<asrwt>0</asrwt>
<pdfrwt beam="1">  1       21 0.62634681E-02 0.26890188E+03</pdfrwt>
<pdfrwt beam="2">  1       21 0.68310284E-01 0.26890188E+03</pdfrwt>
<totfact> 0.35163349E+05</totfact>
</mgrwt>
</event>
<event>
 8    1  0.9400004E-006  0.7044288E+03  0.7546771E-02  0.9709688E-01
         21   -1    0    0  504  503  0.00000000000E+00  0.00000000000E+00  0.57015229888E+03  0.57015229888E+03  0.00000000000E+00 0. -1.
         21   -1    0    0  503  504 -0.00000000000E+00 -0.00000000000E+00 -0.21758216097E+03  0.21758216097E+03  0.00000000000E+00 0. -1.
         25    2    1    2    0    0  0.24390080798E+03 -0.10407184581E+03 -0.42021648574E+02  0.29615890542E+03  0.12500290032E+03 0.  0.
         25    2    1    2    0    0 -0.24390080798E+03  0.10407184581E+03  0.39459178648E+03  0.49157555442E+03  0.12500117809E+03 0.  0.
          5    1    3    3  501    0  0.14567337834E+03 -0.16544556399E+02  0.24401850369E+02  0.14870102826E+03  0.47000000000E+01 0.  1.
         -5    1    3    3    0  501  0.98227429632E+02 -0.87527289414E+02 -0.66423498942E+02  0.14745787716E+03  0.47000000000E+01 0.  1.
          5    1    4    4  502    0 -0.15934781484E+03  0.23400576050E+02  0.14856830479E+03  0.21916647609E+03  0.47000000000E+01 0.  1.
         -5    1    4    4    0  502 -0.84552993136E+02  0.80671269763E+02  0.24602348170E+03  0.27240907834E+03  0.47000000000E+01 0.  1.
<mgrwt>
<rscale>  0 0.70442876E+03</rscale>
<asrwt>0</asrwt>
<pdfrwt beam="1">  1       21 0.87715738E-01 0.70442876E+03</pdfrwt>
<pdfrwt beam="2">  1       21 0.33474179E-01 0.70442876E+03</pdfrwt>
<totfact> 0.80083747E+03</totfact>
</mgrwt>
</event>
<event>
 8    1  0.9400004E-006  0.2572544E+03  0.7546771E-02  0.1108804E+00
         21   -1    0    0  504  503  0.00000000000E+00  0.00000000000E+00  0.29137654392E+03  0.29137654392E+03  0.00000000000E+00 0.  1.
         21   -1    0    0  503  504 -0.00000000000E+00 -0.00000000000E+00 -0.56782048692E+02  0.56782048692E+02  0.00000000000E+00 0.  1.
         25    2    1    2    0    0  0.12791282525E+02  0.20313922686E+02  0.92020674278E+02  0.15706813349E+03  0.12500528668E+03 0.  0.
         25    2    1    2    0    0 -0.12791282525E+02 -0.20313922686E+02  0.14257382095E+03  0.19109045912E+03  0.12494797631E+03 0.  0.
          5    1    3    3  501    0 -0.16898676015E+02 -0.44899999864E+02  0.12247545745E+02  0.49735979086E+02  0.47000000000E+01 0. -1.
         -5    1    3    3    0  501  0.29689958540E+02  0.65213922550E+02  0.79773128534E+02  0.10733215440E+03  0.47000000000E+01 0. -1.
          5    1    4    4  502    0 -0.16344580210E+02 -0.20156147345E+02 -0.17020104771E+02  0.31387729202E+02  0.47000000000E+01 0.  1.
         -5    1    4    4    0  502  0.35532976853E+01 -0.15777534114E+00  0.15959392572E+03  0.15970272992E+03  0.47000000000E+01 0.  1.
<mgrwt>
<rscale>  0 0.25725440E+03</rscale>
<asrwt>0</asrwt>
<pdfrwt beam="1">  1       21 0.44827160E-01 0.25725440E+03</pdfrwt>
<pdfrwt beam="2">  1       21 0.87357000E-02 0.25725440E+03</pdfrwt>
<totfact> 0.48517633E+05</totfact>
</mgrwt>
</event>
<event>
 8    1  0.9400004E-006  0.5099787E+03  0.7546771E-02  0.1011207E+00
         21   -1    0    0  504  503  0.00000000000E+00  0.00000000000E+00  0.10346986693E+03  0.10346986693E+03  0.00000000000E+00 0.  1.
         21   -1    0    0  503  504 -0.00000000000E+00 -0.00000000000E+00 -0.62839129533E+03  0.62839129533E+03  0.00000000000E+00 0.  1.
         25    2    1    2    0    0  0.14572325129E+03  0.13174137314E+03 -0.41160170283E+03  0.47290830857E+03  0.12504099801E+03 0.  0.
         25    2    1    2    0    0 -0.14572325129E+03 -0.13174137314E+03 -0.11331972557E+03  0.25895285369E+03  0.12499665943E+03 0.  0.
          5    1    3    3  501    0  0.10814361577E+03  0.20073774544E+02 -0.15100615980E+03  0.18687682669E+03  0.47000000000E+01 0. -1.
         -5    1    3    3    0  501  0.37579635515E+02  0.11166759859E+03 -0.26059554303E+03  0.28603148188E+03  0.47000000000E+01 0. -1.
          5    1    4    4  502    0 -0.15935272733E+03 -0.87304987318E+02 -0.68584379560E+02  0.19427135568E+03  0.47000000000E+01 0.  1.
         -5    1    4    4    0  502  0.13629476043E+02 -0.44436385820E+02 -0.44735346013E+02  0.64681498011E+02  0.47000000000E+01 0.  1.
<mgrwt>
<rscale>  0 0.50997868E+03</rscale>
<asrwt>0</asrwt>
<pdfrwt beam="1">  1       21 0.15918441E-01 0.50997868E+03</pdfrwt>
<pdfrwt beam="2">  1       21 0.96675583E-01 0.50997868E+03</pdfrwt>
<totfact> 0.28008238E+04</totfact>
</mgrwt>
</event>
<event>
 8    1  0.9400004E-006  0.3620431E+03  0.7546771E-02  0.1057778E+00
         21   -1    0    0  504  503  0.00000000000E+00  0.00000000000E+00  0.18610341374E+03  0.18610341374E+03  0.00000000000E+00 0.  1.
         21   -1    0    0  503  504 -0.00000000000E+00 -0.00000000000E+00 -0.17607841518E+03  0.17607841518E+03  0.00000000000E+00 0.  1.
         25    2    1    2    0    0  0.60939563362E+02 -0.95488379265E+02 -0.60669084495E+02  0.17927100816E+03  0.12500278235E+03 0.  0.
         25    2    1    2    0    0 -0.60939563362E+02  0.95488379265E+02  0.70694083051E+02  0.18291082076E+03  0.12500821579E+03 0.  0.
          5    1    3    3  501    0  0.93498844115E+02 -0.46946301214E+02 -0.16866359509E+02  0.10607805207E+03  0.47000000000E+01 0. -1.
         -5    1    3    3    0  501 -0.32559280753E+02 -0.48542078051E+02 -0.43802724987E+02  0.73192956088E+02  0.47000000000E+01 0. -1.
          5    1    4    4  502    0 -0.25578428406E+02 -0.88229678422E+01 -0.24842879380E+02  0.37031870290E+02  0.47000000000E+01 0. -1.
         -5    1    4    4    0  502 -0.35361134956E+02  0.10431134711E+03  0.95536962430E+02  0.14587895047E+03  0.47000000000E+01 0. -1.
<mgrwt>
<rscale>  0 0.36204306E+03</rscale>
<asrwt>0</asrwt>
<pdfrwt beam="1">  1       21 0.28631295E-01 0.36204306E+03</pdfrwt>
<pdfrwt beam="2">  1       21 0.27088987E-01 0.36204306E+03</pdfrwt>
<totfact> 0.14474530E+05</totfact>
</mgrwt>
</event>
<event>
 8    1  0.9400004E-006  0.2972166E+03  0.7546771E-02  0.1086640E+00
         21   -1    0    0  504  503  0.00000000000E+00  0.00000000000E+00  0.28944395485E+03  0.28944395485E+03  0.00000000000E+00 0.  1.
         21   -1    0    0  503  504 -0.00000000000E+00 -0.00000000000E+00 -0.76299468660E+02  0.76299468660E+02  0.00000000000E+00 0.  1.
         25    2    1    2    0    0 -0.62548640167E+01 -0.37145173388E+02  0.19216983181E+02  0.13196487558E+03  0.12500619471E+03 0.  0.
         25    2    1    2    0    0  0.62548640167E+01  0.37145173388E+02  0.19392750301E+03  0.23377854793E+03  0.12500258324E+03 0.  0.
          5    1    3    3  501    0  0.17465077406E+02  0.39160786434E+02  0.28018627831E+02  0.51436656467E+02  0.47000000000E+01 0.  1.
         -5    1    3    3    0  501 -0.23719941423E+02 -0.76305959822E+02 -0.88016446501E+01  0.80528219116E+02  0.47000000000E+01 0.  1.
          5    1    4    4  502    0  0.15717382674E+02  0.38483711379E+02  0.21020452764E+03  0.21432700624E+03  0.47000000000E+01 0.  1.
         -5    1    4    4    0  502 -0.94625186571E+01 -0.13385379914E+01 -0.16277024634E+02  0.19451541693E+02  0.47000000000E+01 0.  1.
<mgrwt>
<rscale>  0 0.29721655E+03</rscale>
<asrwt>0</asrwt>
<pdfrwt beam="1">  1       21 0.44529839E-01 0.29721655E+03</pdfrwt>
<pdfrwt beam="2">  1       21 0.11738380E-01 0.29721655E+03</pdfrwt>
<totfact> 0.28827921E+05</totfact>
</mgrwt>
</event>
<event>
 8    1  0.9400004E-006  0.4020413E+03  0.7546771E-02  0.1043075E+00
         21   -1    0    0  504  503  0.00000000000E+00  0.00000000000E+00  0.71586886904E+02  0.71586886904E+02  0.00000000000E+00 0.  1.
         21   -1    0    0  503  504 -0.00000000000E+00 -0.00000000000E+00 -0.56447900952E+03  0.56447900952E+03  0.00000000000E+00 0.  1.
         25    2    1    2    0    0 -0.80522499125E+02  0.11264747424E+03 -0.12793968043E+03  0.22620311713E+03  0.12500384815E+03 0.  0.
         25    2    1    2    0    0  0.80522499125E+02 -0.11264747424E+03 -0.36495244219E+03  0.40986277929E+03  0.12499554582E+03 0.  0.
          5    1    3    3  501    0 -0.67642164022E+02  0.10769684801E+03 -0.34809378780E+02  0.13193883536E+03  0.47000000000E+01 0. -1.
         -5    1    3    3    0  501 -0.12880335104E+02  0.49506262362E+01 -0.93130301651E+02  0.94264281773E+02  0.47000000000E+01 0. -1.
          5    1    4    4  502    0 -0.20393528638E+02 -0.41282511247E+02 -0.36665273998E+02  0.59047218923E+02  0.47000000000E+01 0. -1.
         -5    1    4    4    0  502  0.10091602776E+03 -0.71364962996E+02 -0.32828716819E+03  0.35081556037E+03  0.47000000000E+01 0. -1.
<mgrwt>
<rscale>  0 0.40204127E+03</rscale>
<asrwt>0</asrwt>
<pdfrwt beam="1">  1       21 0.11013368E-01 0.40204127E+03</pdfrwt>
<pdfrwt beam="2">  1       21 0.86842921E-01 0.40204127E+03</pdfrwt>
<totfact> 0.72886586E+04</totfact>
</mgrwt>
</event>
<event>
 8    1  0.9400004E-006  0.2698524E+03  0.7546771E-02  0.1101364E+00
         21   -1    0    0  504  503  0.00000000000E+00  0.00000000000E+00  0.22397309172E+02  0.22397309172E+02  0.00000000000E+00 0.  1.
         21   -1    0    0  503  504 -0.00000000000E+00 -0.00000000000E+00 -0.81282423381E+03  0.81282423381E+03  0.00000000000E+00 0.  1.
         25    2    1    2    0    0 -0.17830955888E+01  0.25458971394E+02 -0.25929269944E+03  0.28897941716E+03  0.12500024363E+03 0.  0.
         25    2    1    2    0    0  0.17830955888E+01 -0.25458971394E+02 -0.53113422520E+03  0.54624212582E+03  0.12500222472E+03 0.  0.
          5    1    3    3  501    0  0.44329112177E+02  0.26951189646E+02 -0.42347708789E+02  0.67133115892E+02  0.47000000000E+01 0.  1.
         -5    1    3    3    0  501 -0.46112207766E+02 -0.14922182515E+01 -0.21694499065E+03  0.22184630127E+03  0.47000000000E+01 0.  1.
          5    1    4    4  502    0  0.33548524347E+02  0.17733794269E+02 -0.54482756708E+02  0.66561638528E+02  0.47000000000E+01 0.  1.
         -5    1    4    4    0  502 -0.31765428759E+02 -0.43192765664E+02 -0.47665146849E+03  0.47968048729E+03  0.47000000000E+01 0.  1.
<mgrwt>
<rscale>  0 0.26985237E+03</rscale>
<asrwt>0</asrwt>
<pdfrwt beam="1">  1       21 0.34457397E-02 0.26985237E+03</pdfrwt>
<pdfrwt beam="2">  1       21 0.12504989E+00 0.26985237E+03</pdfrwt>
<totfact> 0.23365996E+05</totfact>
</mgrwt>
</event>
<event>
 8    1  0.9400004E-006  0.2850710E+03  0.7546771E-02  0.1092951E+00
         21   -1    0    0  504  503  0.00000000000E+00  0.00000000000E+00  0.81863035022E+03  0.81863035022E+03  0.00000000000E+00 0. -1.
         21   -1    0    0  503  504 -0.00000000000E+00 -0.00000000000E+00 -0.24817508106E+02  0.24817508106E+02  0.00000000000E+00 0. -1.
         25    2    1    2    0    0 -0.27151936635E+02  0.39503946545E+02  0.25216976135E+03  0.28550465993E+03  0.12500213137E+03 0.  0.
         25    2    1    2    0    0  0.27151936635E+02 -0.39503946545E+02  0.54164308076E+03  0.55794319840E+03  0.12500238495E+03 0.  0.
          5    1    3    3  501    0  0.32793418251E+02  0.53954726264E+02  0.17806356123E+03  0.18898476818E+03  0.47000000000E+01 0. -1.
         -5    1    3    3    0  501 -0.59945354885E+02 -0.14450779719E+02  0.74106200126E+02  0.96519891753E+02  0.47000000000E+01 0. -1.
          5    1    4    4  502    0  0.69713097413E+02 -0.46354438756E+02  0.43149336926E+03  0.43956486172E+03  0.47000000000E+01 0.  1.
         -5    1    4    4    0  502 -0.42561160778E+02  0.68504922114E+01  0.11014971150E+03  0.11837833668E+03  0.47000000000E+01 0.  1.
<mgrwt>
<rscale>  0 0.28507098E+03</rscale>
<asrwt>0</asrwt>
<pdfrwt beam="1">  1       21 0.12594311E+00 0.28507098E+03</pdfrwt>
<pdfrwt beam="2">  1       21 0.38180788E-02 0.28507098E+03</pdfrwt>
<totfact> 0.19227726E+05</totfact>
</mgrwt>
</event>
<event>
 8    1  0.9400004E-006  0.2893874E+03  0.7546771E-02  0.1090669E+00
         21   -1    0    0  504  503  0.00000000000E+00  0.00000000000E+00  0.72824382725E+03  0.72824382725E+03  0.00000000000E+00 0.  1.
         21   -1    0    0  503  504 -0.00000000000E+00 -0.00000000000E+00 -0.28748973426E+02  0.28748973426E+02  0.00000000000E+00 0.  1.
         25    2    1    2    0    0 -0.49408895597E+02  0.16384309960E+02  0.21632804482E+03  0.25521103733E+03  0.12500066409E+03 0.  0.
         25    2    1    2    0    0  0.49408895597E+02 -0.16384309960E+02  0.48316680900E+03  0.50178176334E+03  0.12500035251E+03 0.  0.
          5    1    3    3  501    0  0.21417931269E+02 -0.37985689428E+02  0.93595953266E+02  0.10336311164E+03  0.47000000000E+01 0. -1.
         -5    1    3    3    0  501 -0.70826826866E+02  0.54369999388E+02  0.12273209156E+03  0.15184792569E+03  0.47000000000E+01 0. -1.
          5    1    4    4  502    0  0.32351210463E+02  0.30411779813E+01  0.47214994219E+03  0.47329008810E+03  0.47000000000E+01 0. -1.
         -5    1    4    4    0  502  0.17057685134E+02 -0.19425487941E+02  0.11016866809E+02  0.28491675244E+02  0.47000000000E+01 0. -1.
<mgrwt>
<rscale>  0 0.28938737E+03</rscale>
<asrwt>0</asrwt>
<pdfrwt beam="1">  1       21 0.11203750E+00 0.28938737E+03</pdfrwt>
<pdfrwt beam="2">  1       21 0.44229195E-02 0.28938737E+03</pdfrwt>
<totfact> 0.20054130E+05</totfact>
</mgrwt>
</event>
<event>
 8    1  0.9400004E-006  0.2734649E+03  0.7546771E-02  0.1099313E+00
         21   -1    0    0  504  503  0.00000000000E+00  0.00000000000E+00  0.66291013906E+03  0.66291013906E+03  0.00000000000E+00 0. -1.
         21   -1    0    0  503  504 -0.00000000000E+00 -0.00000000000E+00 -0.28202563474E+02  0.28202563474E+02  0.00000000000E+00 0. -1.
         25    2    1    2    0    0 -0.10836015169E+02 -0.45246068647E+02  0.39340456948E+03  0.41540060103E+03  0.12500351232E+03 0.  0.
         25    2    1    2    0    0  0.10836015169E+02  0.45246068647E+02  0.24130300611E+03  0.27571210151E+03  0.12500158483E+03 0.  0.
          5    1    3    3  501    0 -0.68221729787E+01  0.40081711748E+02  0.19644303665E+03  0.20066151178E+03  0.47000000000E+01 0.  1.
         -5    1    3    3    0  501 -0.40138421899E+01 -0.85327780395E+02  0.19696153283E+03  0.21473908925E+03  0.47000000000E+01 0.  1.
          5    1    4    4  502    0  0.13427076790E+02  0.30315905228E+02 -0.39880349668E+00  0.33490141015E+02  0.47000000000E+01 0. -1.
         -5    1    4    4    0  502 -0.25910616219E+01  0.14930163418E+02  0.24170180960E+03  0.24222196050E+03  0.47000000000E+01 0. -1.
<mgrwt>
<rscale>  0 0.27346492E+03</rscale>
<asrwt>0</asrwt>
<pdfrwt beam="1">  1       21 0.10198616E+00 0.27346492E+03</pdfrwt>
<pdfrwt beam="2">  1       21 0.43388564E-02 0.27346492E+03</pdfrwt>
<totfact> 0.26156757E+05</totfact>
</mgrwt>
</event>
<event>
 8    1  0.9400004E-006  0.3188590E+03  0.7546771E-02  0.1076176E+00
         21   -1    0    0  504  503  0.00000000000E+00  0.00000000000E+00  0.50026470927E+03  0.50026470927E+03  0.00000000000E+00 0.  1.
         21   -1    0    0  503  504 -0.00000000000E+00 -0.00000000000E+00 -0.50808625398E+02  0.50808625398E+02  0.00000000000E+00 0.  1.
         25    2    1    2    0    0 -0.10996152046E+01  0.97427177934E+02  0.25464846145E+03  0.29994093662E+03  0.12500184953E+03 0.  0.
         25    2    1    2    0    0  0.10996152046E+01 -0.97427177934E+02  0.19480762242E+03  0.25113239805E+03  0.12499682973E+03 0.  0.
          5    1    3    3  501    0  0.18393201414E+02  0.31780421078E+02  0.85468433390E+00  0.37028711933E+02  0.47000000000E+01 0.  1.
         -5    1    3    3    0  501 -0.19492816619E+02  0.65646756856E+02  0.25379377712E+03  0.26291222469E+03  0.47000000000E+01 0.  1.
          5    1    4    4  502    0 -0.22346279918E+02 -0.73594114578E+02  0.29655929786E+02  0.82565211186E+02  0.47000000000E+01 0.  1.
         -5    1    4    4    0  502  0.23445895122E+02 -0.23833063356E+02  0.16515169263E+03  0.16856718686E+03  0.47000000000E+01 0.  1.
<mgrwt>
<rscale>  0 0.31885898E+03</rscale>
<asrwt>0</asrwt>
<pdfrwt beam="1">  1       21 0.76963798E-01 0.31885898E+03</pdfrwt>
<pdfrwt beam="2">  1       21 0.78167119E-02 0.31885898E+03</pdfrwt>
<totfact> 0.18087247E+05</totfact>
</mgrwt>
</event>
<event>
 8    1  0.9400004E-006  0.3831340E+03  0.7546771E-02  0.1049781E+00
         21   -1    0    0  504  503  0.00000000000E+00  0.00000000000E+00  0.59736394293E+03  0.59736394293E+03  0.00000000000E+00 0. -1.
         21   -1    0    0  503  504 -0.00000000000E+00 -0.00000000000E+00 -0.61433106412E+02  0.61433106412E+02  0.00000000000E+00 0. -1.
         25    2    1    2    0    0  0.14245018400E+03  0.20024916834E+02  0.30146462369E+03  0.35665019849E+03  0.12500157010E+03 0.  0.
         25    2    1    2    0    0 -0.14245018400E+03 -0.20024916834E+02  0.23446621283E+03  0.30214685086E+03  0.12500104922E+03 0.  0.
          5    1    3    3  501    0  0.12346061434E+03  0.46990970926E+02  0.14305569057E+03  0.19477601301E+03  0.47000000000E+01 0.  1.
         -5    1    3    3    0  501  0.18989569663E+02 -0.26966054092E+02  0.15840893312E+03  0.16187418547E+03  0.47000000000E+01 0.  1.
          5    1    4    4  502    0 -0.67264502652E+02  0.49555596388E+02  0.13780414939E+03  0.16122141309E+03  0.47000000000E+01 0. -1.
         -5    1    4    4    0  502 -0.75185681352E+02 -0.69580513222E+02  0.96662063438E+02  0.14092543776E+03  0.47000000000E+01 0. -1.
<mgrwt>
<rscale>  0 0.38313404E+03</rscale>
<asrwt>0</asrwt>
<pdfrwt beam="1">  1       21 0.91902141E-01 0.38313404E+03</pdfrwt>
<pdfrwt beam="2">  1       21 0.94512475E-02 0.38313404E+03</pdfrwt>
<totfact> 0.84331439E+04</totfact>
</mgrwt>
</event>
<event>
 8    1  0.9400004E-006  0.3433559E+03  0.7546771E-02  0.1065376E+00
         21   -1    0    0  504  503  0.00000000000E+00  0.00000000000E+00  0.19815834935E+02  0.19815834935E+02  0.00000000000E+00 0. -1.
         21   -1    0    0  503  504 -0.00000000000E+00 -0.00000000000E+00 -0.14873620889E+04  0.14873620889E+04  0.00000000000E+00 0. -1.
         25    2    1    2    0    0 -0.84853587875E+02 -0.58384196181E+02 -0.48398766888E+03  0.51037226684E+03  0.12500776533E+03 0.  0.
         25    2    1    2    0    0  0.84853587875E+02  0.58384196181E+02 -0.98355858510E+03  0.99680565701E+03  0.12500072713E+03 0.  0.
          5    1    3    3  501    0  0.94183004403E+01 -0.32451778159E+02 -0.28407692889E+02  0.44394924306E+02  0.47000000000E+01 0.  1.
         -5    1    3    3    0  501 -0.94271888316E+02 -0.25932418021E+02 -0.45557997599E+03  0.46597734254E+03  0.47000000000E+01 0.  1.
          5    1    4    4  502    0  0.23519117708E+02  0.78983470340E+02 -0.74586185537E+03  0.75041557472E+03  0.47000000000E+01 0.  1.
         -5    1    4    4    0  502  0.61334470168E+02 -0.20599274159E+02 -0.23769672973E+03  0.24639008229E+03  0.47000000000E+01 0.  1.
<mgrwt>
<rscale>  0 0.34335592E+03</rscale>
<asrwt>0</asrwt>
<pdfrwt beam="1">  1       21 0.30485897E-02 0.34335592E+03</pdfrwt>
<pdfrwt beam="2">  1       21 0.22882496E+00 0.34335592E+03</pdfrwt>
<totfact> 0.50454815E+04</totfact>
</mgrwt>
</event>
<event>
 8    1  0.9400004E-006  0.4174050E+03  0.7546771E-02  0.1037914E+00
         21   -1    0    0  504  503  0.00000000000E+00  0.00000000000E+00  0.36679989033E+02  0.36679989033E+02  0.00000000000E+00 0.  1.
         21   -1    0    0  503  504 -0.00000000000E+00 -0.00000000000E+00 -0.11874794985E+04  0.11874794985E+04  0.00000000000E+00 0.  1.
         25    2    1    2    0    0  0.47212606801E+02  0.49011586768E+02 -0.12772749505E+03  0.19123517313E+03  0.12500165028E+03 0.  0.
         25    2    1    2    0    0 -0.47212606801E+02 -0.49011586768E+02 -0.10230720144E+04  0.10329243144E+04  0.12500050686E+03 0.  0.
          5    1    3    3  501    0  0.82223292236E+02  0.55258178264E+02 -0.11784722340E+03  0.15402660197E+03  0.47000000000E+01 0.  1.
         -5    1    3    3    0  501 -0.35010685436E+02 -0.62465914960E+01 -0.98802716462E+01  0.37208571160E+02  0.47000000000E+01 0.  1.
          5    1    4    4  502    0 -0.62738650423E-01 -0.82178767704E+02 -0.68672945859E+03  0.69164499065E+03  0.47000000000E+01 0. -1.
         -5    1    4    4    0  502 -0.47149868150E+02  0.33167180936E+02 -0.33634255582E+03  0.34127932374E+03  0.47000000000E+01 0. -1.
<mgrwt>
<rscale>  0 0.41740501E+03</rscale>
<asrwt>0</asrwt>
<pdfrwt beam="1">  1       21 0.56430760E-02 0.41740501E+03</pdfrwt>
<pdfrwt beam="2">  1       21 0.18268913E+00 0.41740501E+03</pdfrwt>
<totfact> 0.34520472E+04</totfact>
</mgrwt>
</event>
<event>
 8    1  0.9400004E-006  0.3554110E+03  0.7546771E-02  0.1060416E+00
         21   -1    0    0  504  503  0.00000000000E+00  0.00000000000E+00  0.55888243267E+02  0.55888243267E+02  0.00000000000E+00 0.  1.
         21   -1    0    0  503  504 -0.00000000000E+00 -0.00000000000E+00 -0.56504286457E+03  0.56504286457E+03  0.00000000000E+00 0.  1.
         25    2    1    2    0    0 -0.33556599340E+02 -0.59116338035E+02 -0.68585957187E+02  0.15795748701E+03  0.12500298955E+03 0.  0.
         25    2    1    2    0    0  0.33556599340E+02  0.59116338035E+02 -0.44056866412E+03  0.46297362083E+03  0.12499215576E+03 0.  0.
          5    1    3    3  501    0 -0.17247794072E+02 -0.73599311324E+02  0.98800079185E+01  0.76380950401E+02  0.47000000000E+01 0. -1.
         -5    1    3    3    0  501 -0.16308805268E+02  0.14482973288E+02 -0.78465965105E+02  0.81576536605E+02  0.47000000000E+01 0. -1.
          5    1    4    4  502    0  0.42935297959E+02 -0.23019901153E+02 -0.86840699566E+02  0.99683262191E+02  0.47000000000E+01 0. -1.
         -5    1    4    4    0  502 -0.93786986188E+01  0.82136239188E+02 -0.35372796455E+03  0.36329035864E+03  0.47000000000E+01 0. -1.
<mgrwt>
<rscale>  0 0.35541105E+03</rscale>
<asrwt>0</asrwt>
<pdfrwt beam="1">  1       21 0.85981917E-02 0.35541105E+03</pdfrwt>
<pdfrwt beam="2">  1       21 0.86929667E-01 0.35541105E+03</pdfrwt>
<totfact> 0.11449408E+05</totfact>
</mgrwt>
</event>
<event>
 8    1  0.9400004E-006  0.2618206E+03  0.7546771E-02  0.1106054E+00
         21   -1    0    0  504  503  0.00000000000E+00  0.00000000000E+00  0.10017163484E+02  0.10017163484E+02  0.00000000000E+00 0.  1.
         21   -1    0    0  503  504 -0.00000000000E+00 -0.00000000000E+00 -0.17108137605E+04  0.17108137605E+04  0.00000000000E+00 0.  1.
         25    2    1    2    0    0  0.36229854812E+02  0.37964821750E+01 -0.76067979210E+03  0.77174101052E+03  0.12499370208E+03 0.  0.
         25    2    1    2    0    0 -0.36229854812E+02 -0.37964821750E+01 -0.94011680488E+03  0.94908991342E+03  0.12500016515E+03 0.  0.
          5    1    3    3  501    0 -0.45793322951E+02  0.30645824919E+01 -0.21356192804E+03  0.21848846010E+03  0.47000000000E+01 0. -1.
         -5    1    3    3    0  501  0.82023177763E+02  0.73189968307E+00 -0.54711786406E+03  0.55325255042E+03  0.47000000000E+01 0. -1.
          5    1    4    4  502    0 -0.32866074436E+01 -0.14697548892E+02 -0.10813206390E+02  0.19126817936E+02  0.47000000000E+01 0.  1.
         -5    1    4    4    0  502 -0.32943247368E+02  0.10901066717E+02 -0.92930359848E+03  0.92996309548E+03  0.47000000000E+01 0.  1.
<mgrwt>
<rscale>  0 0.26182056E+03</rscale>
<asrwt>0</asrwt>
<pdfrwt beam="1">  1       21 0.15411034E-02 0.26182056E+03</pdfrwt>
<pdfrwt beam="2">  1       21 0.26320190E+00 0.26182056E+03</pdfrwt>
<totfact> 0.99991865E+04</totfact>
</mgrwt>
</event>
<event>
 8    1  0.9400004E-006  0.3941382E+03  0.7546771E-02  0.1045829E+00
         21   -1    0    0  504  503  0.00000000000E+00  0.00000000000E+00  0.29229953872E+03  0.29229953872E+03  0.00000000000E+00 0.  1.
         21   -1    0    0  503  504 -0.00000000000E+00 -0.00000000000E+00 -0.13286449093E+03  0.13286449093E+03  0.00000000000E+00 0.  1.
         25    2    1    2    0    0  0.32654099383E+02 -0.10510458180E+02  0.23984329701E+03  0.27262841900E+03  0.12499875116E+03 0.  0.
         25    2    1    2    0    0 -0.32654099383E+02  0.10510458180E+02 -0.80408249212E+02  0.15253561065E+03  0.12499946414E+03 0.  0.
          5    1    3    3  501    0  0.20586711316E+01  0.17881049025E+02  0.22831573207E+03  0.22907233258E+03  0.47000000000E+01 0. -1.
         -5    1    3    3    0  501  0.30595428252E+02 -0.28391507205E+02  0.11527564932E+02  0.43556086424E+02  0.47000000000E+01 0. -1.
          5    1    4    4  502    0 -0.27786909131E+02 -0.63782281109E+01  0.29404983582E+02  0.41225443265E+02  0.47000000000E+01 0.  1.
         -5    1    4    4    0  502 -0.48671902520E+01  0.16888686291E+02 -0.10981323279E+03  0.11131016738E+03  0.47000000000E+01 0.  1.
<mgrwt>
<rscale>  0 0.39413820E+03</rscale>
<asrwt>0</asrwt>
<pdfrwt beam="1">  1       21 0.44969160E-01 0.39413820E+03</pdfrwt>
<pdfrwt beam="2">  1       21 0.20440691E-01 0.39413820E+03</pdfrwt>
<totfact> 0.99182538E+04</totfact>
</mgrwt>
</event>
<event>
 8    1  0.9400004E-006  0.3507714E+03  0.7546771E-02  0.1062299E+00
         21   -1    0    0  504  503  0.00000000000E+00  0.00000000000E+00  0.11218634099E+04  0.11218634099E+04  0.00000000000E+00 0. -1.
         21   -1    0    0  503  504 -0.00000000000E+00 -0.00000000000E+00 -0.27418798140E+02  0.27418798140E+02  0.00000000000E+00 0. -1.
         25    2    1    2    0    0 -0.53550916165E+02  0.10023265868E+03  0.39283916047E+03  0.42762486301E+03  0.12500452385E+03 0.  0.
         25    2    1    2    0    0  0.53550916165E+02 -0.10023265868E+03  0.70160545130E+03  0.72165734503E+03  0.12499931142E+03 0.  0.
          5    1    3    3  501    0 -0.24711084046E+02  0.89076760470E+02  0.38417704857E+03  0.39517009196E+03  0.47000000000E+01 0.  1.
         -5    1    3    3    0  501 -0.28839832119E+02  0.11155898211E+02  0.86621118911E+01  0.32454771051E+02  0.47000000000E+01 0.  1.
          5    1    4    4  502    0  0.20547007905E+02 -0.88408135595E+02  0.66338056388E+03  0.66957750897E+03  0.47000000000E+01 0. -1.
         -5    1    4    4    0  502  0.33003908260E+02 -0.11824523086E+02  0.38224887415E+02  0.52079836065E+02  0.47000000000E+01 0. -1.
<mgrwt>
<rscale>  0 0.35077141E+03</rscale>
<asrwt>0</asrwt>
<pdfrwt beam="1">  1       21 0.17259433E+00 0.35077141E+03</pdfrwt>
<pdfrwt beam="2">  1       21 0.42182775E-02 0.35077141E+03</pdfrwt>
<totfact> 0.68506683E+04</totfact>
</mgrwt>
</event>
<event>
 8    1  0.9400004E-006  0.2570437E+03  0.7546771E-02  0.1108933E+00
         21   -1    0    0  504  503  0.00000000000E+00  0.00000000000E+00  0.22871045412E+03  0.22871045412E+03  0.00000000000E+00 0. -1.
         21   -1    0    0  503  504 -0.00000000000E+00 -0.00000000000E+00 -0.72221718623E+02  0.72221718623E+02  0.00000000000E+00 0. -1.
         25    2    1    2    0    0  0.13558291171E+02 -0.26517240976E+02  0.81062030002E+02  0.15193369622E+03  0.12500321600E+03 0.  0.
         25    2    1    2    0    0 -0.13558291171E+02  0.26517240976E+02  0.75426705495E+02  0.14899847652E+03  0.12499746707E+03 0.  0.
          5    1    3    3  501    0  0.28546369447E+02 -0.69814946440E+02  0.73195458760E+02  0.10520782831E+03  0.47000000000E+01 0. -1.
         -5    1    3    3    0  501 -0.14988078276E+02  0.43297705464E+02  0.78665712416E+01  0.46725867910E+02  0.47000000000E+01 0. -1.
          5    1    4    4  502    0  0.12484753033E+02  0.73266347381E+02  0.48859255916E+02  0.89068196375E+02  0.47000000000E+01 0. -1.
         -5    1    4    4    0  502 -0.26043044204E+02 -0.46749106405E+02  0.26567449579E+02  0.59930280145E+02  0.47000000000E+01 0. -1.
<mgrwt>
<rscale>  0 0.25704367E+03</rscale>
<asrwt>0</asrwt>
<pdfrwt beam="1">  1       21 0.35186223E-01 0.25704367E+03</pdfrwt>
<pdfrwt beam="2">  1       21 0.11111034E-01 0.25704367E+03</pdfrwt>
<totfact> 0.51775438E+05</totfact>
</mgrwt>
</event>
<event>
 8    1  0.9400004E-006  0.4271458E+03  0.7546771E-02  0.1034765E+00
         21   -1    0    0  504  503  0.00000000000E+00  0.00000000000E+00  0.27081409779E+03  0.27081409779E+03  0.00000000000E+00 0.  1.
         21   -1    0    0  503  504 -0.00000000000E+00 -0.00000000000E+00 -0.16843058908E+03  0.16843058908E+03  0.00000000000E+00 0.  1.
         25    2    1    2    0    0 -0.11863651430E+03 -0.90877168095E+02  0.14116450222E+03  0.24059322964E+03  0.12499761301E+03 0.  0.
         25    2    1    2    0    0  0.11863651430E+03  0.90877168095E+02 -0.38780993514E+02  0.19865145722E+03  0.12500061517E+03 0.  0.
          5    1    3    3  501    0 -0.48864846302E+02 -0.30928928455E+02  0.13655415375E+03  0.14836946696E+03  0.47000000000E+01 0. -1.
         -5    1    3    3    0  501 -0.69771667996E+02 -0.59948239640E+02  0.46103484727E+01  0.92223762686E+02  0.47000000000E+01 0. -1.
          5    1    4    4  502    0 -0.14127117781E+02  0.19041319079E+02 -0.41017439413E+02  0.47609532922E+02  0.47000000000E+01 0. -1.
         -5    1    4    4    0  502  0.13276363208E+03  0.71835849016E+02  0.22364458990E+01  0.15104192430E+03  0.47000000000E+01 0. -1.
<mgrwt>
<rscale>  0 0.42714577E+03</rscale>
<asrwt>0</asrwt>
<pdfrwt beam="1">  1       21 0.41663707E-01 0.42714577E+03</pdfrwt>
<pdfrwt beam="2">  1       21 0.25912398E-01 0.42714577E+03</pdfrwt>
<totfact> 0.73106183E+04</totfact>
</mgrwt>
</event>
<event>
 8    1  0.9400004E-006  0.3100780E+03  0.7546771E-02  0.1080308E+00
         21   -1    0    0  504  503  0.00000000000E+00  0.00000000000E+00  0.15791115154E+03  0.15791115154E+03  0.00000000000E+00 0.  1.
         21   -1    0    0  503  504 -0.00000000000E+00 -0.00000000000E+00 -0.15221912593E+03  0.15221912593E+03  0.00000000000E+00 0.  1.
         25    2    1    2    0    0 -0.10634486203E+02 -0.74047722495E+01  0.93646017486E+02  0.15672150986E+03  0.12499652841E+03 0.  0.
         25    2    1    2    0    0  0.10634486203E+02  0.74047722495E+01 -0.87953991881E+02  0.15340876761E+03  0.12502168749E+03 0.  0.
          5    1    3    3  501    0  0.44203474419E+02  0.11957801492E+02  0.86439380549E+02  0.97932592516E+02  0.47000000000E+01 0. -1.
         -5    1    3    3    0  501 -0.54837960622E+02 -0.19362573741E+02  0.72066369373E+01  0.58788917348E+02  0.47000000000E+01 0. -1.
          5    1    4    4  502    0 -0.13300785597E+02  0.41091574942E+02 -0.10089491392E+03  0.10985127256E+03  0.47000000000E+01 0. -1.
         -5    1    4    4    0  502  0.23935271801E+02 -0.33686802692E+02  0.12940922036E+02  0.43557495049E+02  0.47000000000E+01 0. -1.
<mgrwt>
<rscale>  0 0.31007804E+03</rscale>
<asrwt>0</asrwt>
<pdfrwt beam="1">  1       21 0.24294023E-01 0.31007804E+03</pdfrwt>
<pdfrwt beam="2">  1       21 0.23418327E-01 0.31007804E+03</pdfrwt>
<totfact> 0.26686620E+05</totfact>
</mgrwt>
</event>
<event>
 8    1  0.9400004E-006  0.5426583E+03  0.7546771E-02  0.1003208E+00
         21   -1    0    0  504  503  0.00000000000E+00  0.00000000000E+00  0.12310743580E+04  0.12310743580E+04  0.00000000000E+00 0.  1.
         21   -1    0    0  503  504 -0.00000000000E+00 -0.00000000000E+00 -0.59801025169E+02  0.59801025169E+02  0.00000000000E+00 0.  1.
         25    2    1    2    0    0  0.19294475540E+03 -0.83628188855E+02  0.30645565983E+03  0.39212292302E+03  0.12499585077E+03 0.  0.
         25    2    1    2    0    0 -0.19294475540E+03  0.83628188855E+02  0.86481767300E+03  0.89875246015E+03  0.12500009794E+03 0.  0.
          5    1    3    3  501    0  0.24442759100E+02 -0.60802068284E+02  0.13739293128E+03  0.15229329449E+03  0.47000000000E+01 0. -1.
         -5    1    3    3    0  501  0.16850199630E+03 -0.22826120571E+02  0.16906272855E+03  0.23982962853E+03  0.47000000000E+01 0. -1.
          5    1    4    4  502    0 -0.16635648502E+03  0.10582426460E+03  0.59864132739E+03  0.63029103115E+03  0.47000000000E+01 0.  1.
         -5    1    4    4    0  502 -0.26588270379E+02 -0.22196075743E+02  0.26617634561E+03  0.26846142900E+03  0.47000000000E+01 0.  1.
<mgrwt>
<rscale>  0 0.54265830E+03</rscale>
<asrwt>0</asrwt>
<pdfrwt beam="1">  1       21 0.18939604E+00 0.54265830E+03</pdfrwt>
<pdfrwt beam="2">  1       21 0.92001586E-02 0.54265830E+03</pdfrwt>
<totfact> 0.12625986E+04</totfact>
</mgrwt>
</event>
<event>
 8    1  0.9400004E-006  0.2531478E+03  0.7546771E-02  0.1111331E+00
         21   -1    0    0  504  503  0.00000000000E+00  0.00000000000E+00  0.14187254212E+03  0.14187254212E+03  0.00000000000E+00 0. -1.
         21   -1    0    0  503  504 -0.00000000000E+00 -0.00000000000E+00 -0.11292501128E+03  0.11292501128E+03  0.00000000000E+00 0. -1.
         25    2    1    2    0    0  0.49209264307E+01  0.15901608731E+02  0.31417809759E+01  0.12614518806E+03  0.12500264400E+03 0.  0.
         25    2    1    2    0    0 -0.49209264307E+01 -0.15901608731E+02  0.25805749865E+02  0.12865236534E+03  0.12493365321E+03 0.  0.
          5    1    3    3  501    0  0.57952845113E+02 -0.20161306921E+02 -0.25307944726E+01  0.61591439942E+02  0.47000000000E+01 0. -1.
         -5    1    3    3    0  501 -0.53031918683E+02  0.36062915651E+02  0.56725754484E+01  0.64553748122E+02  0.47000000000E+01 0. -1.
          5    1    4    4  502    0  0.28052229430E+02 -0.11649250230E+02 -0.42552919036E+02  0.52492604483E+02  0.47000000000E+01 0.  1.
         -5    1    4    4    0  502 -0.32973155861E+02 -0.42523585003E+01  0.68358668900E+02  0.76159760859E+02  0.47000000000E+01 0.  1.
<mgrwt>
<rscale>  0 0.25314785E+03</rscale>
<asrwt>0</asrwt>
<pdfrwt beam="1">  1       21 0.21826545E-01 0.25314785E+03</pdfrwt>
<pdfrwt beam="2">  1       21 0.17373079E-01 0.25314785E+03</pdfrwt>
<totfact> 0.58098481E+05</totfact>
</mgrwt>
</event>
<event>
 8    1  0.9400004E-006  0.2806014E+03  0.7546771E-02  0.1095361E+00
         21   -1    0    0  504  503  0.00000000000E+00  0.00000000000E+00  0.31246723627E+03  0.31246723627E+03  0.00000000000E+00 0. -1.
         21   -1    0    0  503  504 -0.00000000000E+00 -0.00000000000E+00 -0.62996327357E+02  0.62996327357E+02  0.00000000000E+00 0. -1.
         25    2    1    2    0    0  0.62184622556E+02  0.40314946557E+01  0.14272453678E+03  0.19967393732E+03  0.12496482550E+03 0.  0.
         25    2    1    2    0    0 -0.62184622556E+02 -0.40314946557E+01  0.10674637213E+03  0.17578962631E+03  0.12499609803E+03 0.  0.
          5    1    3    3  501    0  0.95095796412E+02 -0.21125381905E+02  0.92699711329E+02  0.13455414797E+03  0.47000000000E+01 0.  1.
         -5    1    3    3    0  501 -0.32911173857E+02  0.25156876560E+02  0.50024825455E+02  0.65119789347E+02  0.47000000000E+01 0.  1.
          5    1    4    4  502    0  0.36698481289E+02 -0.63011811746E+01  0.46977912796E+02  0.60129008837E+02  0.47000000000E+01 0. -1.
         -5    1    4    4    0  502 -0.98883103844E+02  0.22696865188E+01  0.59768459335E+02  0.11566061747E+03  0.47000000000E+01 0. -1.
<mgrwt>
<rscale>  0 0.28060141E+03</rscale>
<asrwt>0</asrwt>
<pdfrwt beam="1">  1       21 0.48071882E-01 0.28060141E+03</pdfrwt>
<pdfrwt beam="2">  1       21 0.96917428E-02 0.28060141E+03</pdfrwt>
<totfact> 0.34755940E+05</totfact>
</mgrwt>
</event>
<event>
 8    1  0.9400004E-006  0.2749015E+03  0.7546771E-02  0.1098507E+00
         21   -1    0    0  504  503  0.00000000000E+00  0.00000000000E+00  0.26415194370E+02  0.26415194370E+02  0.00000000000E+00 0. -1.
         21   -1    0    0  503  504 -0.00000000000E+00 -0.00000000000E+00 -0.71522116844E+03  0.71522116844E+03  0.00000000000E+00 0. -1.
         25    2    1    2    0    0  0.24930664954E+01  0.13324621198E+02 -0.19458296030E+03  0.23167108648E+03  0.12500081184E+03 0.  0.
         25    2    1    2    0    0 -0.24930664954E+01 -0.13324621198E+02 -0.49422301377E+03  0.50996527633E+03  0.12499773923E+03 0.  0.
          5    1    3    3  501    0 -0.14241579242E+02  0.42419434033E+02 -0.12831106990E+02  0.46786304295E+02  0.47000000000E+01 0.  1.
         -5    1    3    3    0  501  0.16734645737E+02 -0.29094812835E+02 -0.18175185331E+03  0.18488478219E+03  0.47000000000E+01 0.  1.
          5    1    4    4  502    0  0.47606876453E+02  0.20835681757E+02 -0.12030462746E+03  0.13113288568E+03  0.47000000000E+01 0. -1.
         -5    1    4    4    0  502 -0.50099942949E+02 -0.34160302955E+02 -0.37391838631E+03  0.37883239065E+03  0.47000000000E+01 0. -1.
<mgrwt>
<rscale>  0 0.27490148E+03</rscale>
<asrwt>0</asrwt>
<pdfrwt beam="1">  1       21 0.40638767E-02 0.27490148E+03</pdfrwt>
<pdfrwt beam="2">  1       21 0.11003401E+00 0.27490148E+03</pdfrwt>
<totfact> 0.24288533E+05</totfact>
</mgrwt>
</event>
<event>
 8    1  0.9400004E-006  0.2778204E+03  0.7546771E-02  0.1096885E+00
         21   -1    0    0  504  503  0.00000000000E+00  0.00000000000E+00  0.29312367266E+03  0.29312367266E+03  0.00000000000E+00 0. -1.
         21   -1    0    0  503  504 -0.00000000000E+00 -0.00000000000E+00 -0.65829035825E+02  0.65829035825E+02  0.00000000000E+00 0. -1.
         25    2    1    2    0    0  0.26528863629E+02  0.46777432915E+02  0.77573066885E+02  0.15663466048E+03  0.12499970929E+03 0.  0.
         25    2    1    2    0    0 -0.26528863629E+02 -0.46777432915E+02  0.14972156995E+03  0.20231804800E+03  0.12499654076E+03 0.  0.
          5    1    3    3  501    0  0.11075882461E+02  0.67467622077E+02 -0.62323380185E+01  0.68814876577E+02  0.47000000000E+01 0.  1.
         -5    1    3    3    0  501  0.15452981167E+02 -0.20690189162E+02  0.83805404903E+02  0.87819783907E+02  0.47000000000E+01 0.  1.
          5    1    4    4  502    0 -0.63864301974E+02  0.10787219197E+02  0.54031253426E+02  0.84477686470E+02  0.47000000000E+01 0.  1.
         -5    1    4    4    0  502  0.37335438345E+02 -0.57564652112E+02  0.95690316526E+02  0.11784036153E+03  0.47000000000E+01 0.  1.
<mgrwt>
<rscale>  0 0.27782044E+03</rscale>
<asrwt>0</asrwt>
<pdfrwt beam="1">  1       21 0.45095949E-01 0.27782044E+03</pdfrwt>
<pdfrwt beam="2">  1       21 0.10127544E-01 0.27782044E+03</pdfrwt>
<totfact> 0.36732510E+05</totfact>
</mgrwt>
</event>
<event>
 8    1  0.9400004E-006  0.2632884E+03  0.7546771E-02  0.1105183E+00
         21   -1    0    0  504  503  0.00000000000E+00  0.00000000000E+00  0.25504893194E+03  0.25504893194E+03  0.00000000000E+00 0.  1.
         21   -1    0    0  503  504 -0.00000000000E+00 -0.00000000000E+00 -0.67948493920E+02  0.67948493920E+02  0.00000000000E+00 0.  1.
         25    2    1    2    0    0 -0.18865578135E+02  0.31939201355E+02  0.11582694766E+03  0.17440104432E+03  0.12499527924E+03 0.  0.
         25    2    1    2    0    0  0.18865578135E+02 -0.31939201355E+02  0.71273490361E+02  0.14859638154E+03  0.12499980623E+03 0.  0.
          5    1    3    3  501    0  0.11462473893E+02  0.72588846323E+02  0.92898216811E+02  0.11854407453E+03  0.47000000000E+01 0.  1.
         -5    1    3    3    0  501 -0.30328052028E+02 -0.40649644968E+02  0.22928730847E+02  0.55856969790E+02  0.47000000000E+01 0.  1.
          5    1    4    4  502    0  0.45859641267E+02  0.35113808988E+02  0.32152003747E+02  0.66271620048E+02  0.47000000000E+01 0.  1.
         -5    1    4    4    0  502 -0.26994063133E+02 -0.67053010343E+02  0.39121486614E+02  0.82324761496E+02  0.47000000000E+01 0.  1.
<mgrwt>
<rscale>  0 0.26328837E+03</rscale>
<asrwt>0</asrwt>
<pdfrwt beam="1">  1       21 0.39238297E-01 0.26328837E+03</pdfrwt>
<pdfrwt beam="2">  1       21 0.10453615E-01 0.26328837E+03</pdfrwt>
<totfact> 0.46306583E+05</totfact>
</mgrwt>
</event>
<event>
 8    1  0.9400004E-006  0.3222738E+03  0.7546771E-02  0.1074608E+00
         21   -1    0    0  504  503  0.00000000000E+00  0.00000000000E+00  0.18293427656E+03  0.18293427656E+03  0.00000000000E+00 0. -1.
         21   -1    0    0  503  504 -0.00000000000E+00 -0.00000000000E+00 -0.14193673058E+03  0.14193673058E+03  0.00000000000E+00 0. -1.
         25    2    1    2    0    0 -0.61103798374E+02  0.34056797296E+02 -0.53902686741E+02  0.15305178984E+03  0.12500324443E+03 0.  0.
         25    2    1    2    0    0  0.61103798374E+02 -0.34056797296E+02  0.94900232723E+02  0.17181921730E+03  0.12498899810E+03 0.  0.
          5    1    3    3  501    0 -0.96476620888E+02  0.34436683846E+02 -0.56839856373E+02  0.11724539584E+03  0.47000000000E+01 0. -1.
         -5    1    3    3    0  501  0.35372822514E+02 -0.37988655062E+00  0.29371696317E+01  0.35806394008E+02  0.47000000000E+01 0. -1.
          5    1    4    4  502    0  0.11849940356E+01 -0.71346357509E+02  0.57797863464E+02  0.91947756697E+02  0.47000000000E+01 0.  1.
         -5    1    4    4    0  502  0.59918804338E+02  0.37289560214E+02  0.37102369259E+02  0.79871460603E+02  0.47000000000E+01 0.  1.
<mgrwt>
<rscale>  0 0.32227375E+03</rscale>
<asrwt>0</asrwt>
<pdfrwt beam="1">  1       21 0.28143735E-01 0.32227375E+03</pdfrwt>
<pdfrwt beam="2">  1       21 0.21836420E-01 0.32227375E+03</pdfrwt>
<totfact> 0.22873828E+05</totfact>
</mgrwt>
</event>
<event>
 8    1  0.9400004E-006  0.3108229E+03  0.7546771E-02  0.1079952E+00
         21   -1    0    0  504  503  0.00000000000E+00  0.00000000000E+00  0.18796287527E+02  0.18796287527E+02  0.00000000000E+00 0. -1.
         21   -1    0    0  503  504 -0.00000000000E+00 -0.00000000000E+00 -0.12849730154E+04  0.12849730154E+04  0.00000000000E+00 0. -1.
         25    2    1    2    0    0 -0.28217685025E+02  0.67496371441E+02 -0.86945503771E+03  0.88143652818E+03  0.12500517069E+03 0.  0.
         25    2    1    2    0    0  0.28217685025E+02 -0.67496371441E+02 -0.39672169012E+03  0.42233277471E+03  0.12499950109E+03 0.  0.
          5    1    3    3  501    0  0.14477091795E+02  0.92567342056E+02 -0.62183643836E+03  0.62887275746E+03  0.47000000000E+01 0.  1.
         -5    1    3    3    0  501 -0.42694776820E+02 -0.25070970615E+02 -0.24761859935E+03  0.25256377072E+03  0.47000000000E+01 0.  1.
          5    1    4    4  502    0  0.51297338498E+02  0.18792501335E+02 -0.13320125273E+03  0.14404596062E+03  0.47000000000E+01 0.  1.
         -5    1    4    4    0  502 -0.23079653473E+02 -0.86288872777E+02 -0.26352043739E+03  0.27828681408E+03  0.47000000000E+01 0.  1.
<mgrwt>
<rscale>  0 0.31082292E+03</rscale>
<asrwt>0</asrwt>
<pdfrwt beam="1">  1       21 0.28917366E-02 0.31082292E+03</pdfrwt>
<pdfrwt beam="2">  1       21 0.19768816E+00 0.31082292E+03</pdfrwt>
<totfact> 0.88309151E+04</totfact>
</mgrwt>
</event>
<event>
 8    1  0.9400004E-006  0.2886022E+03  0.7546771E-02  0.1091081E+00
         21   -1    0    0  504  503  0.00000000000E+00  0.00000000000E+00  0.53054634041E+02  0.53054634041E+02  0.00000000000E+00 0.  1.
         21   -1    0    0  503  504 -0.00000000000E+00 -0.00000000000E+00 -0.39247849051E+03  0.39247849051E+03  0.00000000000E+00 0.  1.
         25    2    1    2    0    0 -0.54732588620E+02  0.16086181409E+02 -0.10164796941E+03  0.17091257112E+03  0.12499750314E+03 0.  0.
         25    2    1    2    0    0  0.54732588620E+02 -0.16086181409E+02 -0.23777588706E+03  0.27462055344E+03  0.12499861764E+03 0.  0.
          5    1    3    3  501    0 -0.70406863798E+02 -0.22311124282E+02 -0.10563950772E+03  0.12898336454E+03  0.47000000000E+01 0.  1.
         -5    1    3    3    0  501  0.15674275179E+02  0.38397305691E+02  0.39915383048E+01  0.41929206584E+02  0.47000000000E+01 0.  1.
          5    1    4    4  502    0  0.65428553605E+01  0.13958741964E+02  0.10928026058E+02  0.19472215770E+02  0.47000000000E+01 0. -1.
         -5    1    4    4    0  502  0.48189733259E+02 -0.30044923373E+02 -0.24870391312E+03  0.25514833767E+03  0.47000000000E+01 0. -1.
<mgrwt>
<rscale>  0 0.28860217E+03</rscale>
<asrwt>0</asrwt>
<pdfrwt beam="1">  1       21 0.81622514E-02 0.28860217E+03</pdfrwt>
<pdfrwt beam="2">  1       21 0.60381306E-01 0.28860217E+03</pdfrwt>
<totfact> 0.28925562E+05</totfact>
</mgrwt>
</event>
<event>
 8    1  0.9400004E-006  0.2658018E+03  0.7546771E-02  0.1103707E+00
         21   -1    0    0  504  503  0.00000000000E+00  0.00000000000E+00  0.30810169583E+03  0.30810169583E+03  0.00000000000E+00 0.  1.
         21   -1    0    0  503  504 -0.00000000000E+00 -0.00000000000E+00 -0.57327354001E+02  0.57327354001E+02  0.00000000000E+00 0.  1.
         25    2    1    2    0    0  0.40050786892E+02  0.20014305485E+02  0.13323097745E+03  0.18809736353E+03  0.12500194743E+03 0.  0.
         25    2    1    2    0    0 -0.40050786892E+02 -0.20014305485E+02  0.11754336438E+03  0.17733168630E+03  0.12500178600E+03 0.  0.
          5    1    3    3  501    0  0.56804754340E+02 -0.36474588567E+02  0.42822915969E+02  0.80081632468E+02  0.47000000000E+01 0. -1.
         -5    1    3    3    0  501 -0.16753967447E+02  0.56488894052E+02  0.90408061484E+02  0.10801573107E+03  0.47000000000E+01 0. -1.
          5    1    4    4  502    0 -0.19422626078E+02  0.35204937119E+02  0.11061989751E+03  0.11779421771E+03  0.47000000000E+01 0.  1.
         -5    1    4    4    0  502 -0.20628160814E+02 -0.55219242605E+02  0.69234668692E+01  0.59537468588E+02  0.47000000000E+01 0.  1.
<mgrwt>
<rscale>  0 0.26580184E+03</rscale>
<asrwt>0</asrwt>
<pdfrwt beam="1">  1       21 0.47400260E-01 0.26580184E+03</pdfrwt>
<pdfrwt beam="2">  1       21 0.88195931E-02 0.26580184E+03</pdfrwt>
<totfact> 0.42419677E+05</totfact>
</mgrwt>
</event>
<event>
 8    1  0.9400004E-006  0.2662676E+03  0.7546771E-02  0.1103435E+00
         21   -1    0    0  504  503  0.00000000000E+00  0.00000000000E+00  0.21008195267E+02  0.21008195267E+02  0.00000000000E+00 0. -1.
         21   -1    0    0  503  504 -0.00000000000E+00 -0.00000000000E+00 -0.84369995474E+03  0.84369995474E+03  0.00000000000E+00 0. -1.
         25    2    1    2    0    0  0.69791270377E+01 -0.35809184200E+02 -0.32166669175E+03  0.34703769767E+03  0.12503878253E+03 0.  0.
         25    2    1    2    0    0 -0.69791270377E+01  0.35809184200E+02 -0.50102506772E+03  0.51767045234E+03  0.12500229137E+03 0.  0.
          5    1    3    3  501    0 -0.25201057876E+02 -0.72013768069E+02 -0.24095166875E+03  0.25278621953E+03  0.47000000000E+01 0.  1.
         -5    1    3    3    0  501  0.32180184914E+02  0.36204583869E+02 -0.80715022998E+02  0.94251478141E+02  0.47000000000E+01 0.  1.
          5    1    4    4  502    0  0.16974597283E+02  0.69997140475E+02 -0.18037947810E+03  0.19428479804E+03  0.47000000000E+01 0.  1.
         -5    1    4    4    0  502 -0.23953724321E+02 -0.34187956275E+02 -0.32064558962E+03  0.32338565430E+03  0.47000000000E+01 0.  1.
<mgrwt>
<rscale>  0 0.26626764E+03</rscale>
<asrwt>0</asrwt>
<pdfrwt beam="1">  1       21 0.32320304E-02 0.26626764E+03</pdfrwt>
<pdfrwt beam="2">  1       21 0.12979998E+00 0.26626764E+03</pdfrwt>
<totfact> 0.23683932E+05</totfact>
</mgrwt>
</event>
<event>
 8    1  0.9400004E-006  0.4689173E+03  0.7546771E-02  0.1022226E+00
         21   -1    0    0  504  503  0.00000000000E+00  0.00000000000E+00  0.45800532503E+02  0.45800532503E+02  0.00000000000E+00 0. -1.
         21   -1    0    0  503  504 -0.00000000000E+00 -0.00000000000E+00 -0.12002230144E+04  0.12002230144E+04  0.00000000000E+00 0. -1.
         25    2    1    2    0    0 -0.18240399657E+03  0.52868515399E+02 -0.72943448033E+03  0.76404586512E+03  0.12500050012E+03 0.  0.
         25    2    1    2    0    0  0.18240399657E+03 -0.52868515399E+02 -0.42498800153E+03  0.48197768174E+03  0.12498554464E+03 0.  0.
          5    1    3    3  501    0 -0.34829900465E+02  0.49532541394E+02 -0.37788354300E+03  0.38273314032E+03  0.47000000000E+01 0. -1.
         -5    1    3    3    0  501 -0.14757409610E+03  0.33359740041E+01 -0.35155093732E+03  0.38131272480E+03  0.47000000000E+01 0. -1.
          5    1    4    4  502    0  0.13574523701E+01  0.27307340438E+02 -0.35800499032E+02  0.45291271231E+02  0.47000000000E+01 0.  1.
         -5    1    4    4    0  502  0.18104654420E+03 -0.80175855837E+02 -0.38918750250E+03  0.43668641051E+03  0.47000000000E+01 0.  1.
<mgrwt>
<rscale>  0 0.46891728E+03</rscale>
<asrwt>0</asrwt>
<pdfrwt beam="1">  1       21 0.70462353E-02 0.46891728E+03</pdfrwt>
<pdfrwt beam="2">  1       21 0.18464971E+00 0.46891728E+03</pdfrwt>
<totfact> 0.22344088E+04</totfact>
</mgrwt>
</event>
<event>
 8    1  0.9400004E-006  0.3715486E+03  0.7546771E-02  0.1054102E+00
         21   -1    0    0  504  503  0.00000000000E+00  0.00000000000E+00  0.75331611814E+02  0.75331611814E+02  0.00000000000E+00 0. -1.
         21   -1    0    0  503  504 -0.00000000000E+00 -0.00000000000E+00 -0.45813548208E+03  0.45813548208E+03  0.00000000000E+00 0. -1.
         25    2    1    2    0    0 -0.72774851909E+02 -0.11811639666E+02 -0.35793041585E+03  0.38622664537E+03  0.12498457945E+03 0.  0.
         25    2    1    2    0    0  0.72774851909E+02  0.11811639666E+02 -0.24873454408E+02  0.14724044852E+03  0.12500146817E+03 0.  0.
          5    1    3    3  501    0 -0.75224099438E+02  0.19876654390E+02 -0.10243822889E+03  0.12872228736E+03  0.47000000000E+01 0.  1.
         -5    1    3    3    0  501  0.24492475294E+01 -0.31688294056E+02 -0.25549218697E+03  0.25750435801E+03  0.47000000000E+01 0.  1.
          5    1    4    4  502    0  0.47969610638E+02 -0.14103068670E+02  0.45720796305E+02  0.67915103662E+02  0.47000000000E+01 0.  1.
         -5    1    4    4    0  502  0.24805241270E+02  0.25914708336E+02 -0.70594250713E+02  0.79325344855E+02  0.47000000000E+01 0.  1.
<mgrwt>
<rscale>  0 0.37154857E+03</rscale>
<asrwt>0</asrwt>
<pdfrwt beam="1">  1       21 0.11589479E-01 0.37154857E+03</pdfrwt>
<pdfrwt beam="2">  1       21 0.70482380E-01 0.37154857E+03</pdfrwt>
<totfact> 0.10800483E+05</totfact>
</mgrwt>
</event>
<event>
 8    1  0.9400004E-006  0.3200099E+03  0.7546771E-02  0.1075645E+00
         21   -1    0    0  504  503  0.00000000000E+00  0.00000000000E+00  0.52844264715E+03  0.52844264715E+03  0.00000000000E+00 0. -1.
         21   -1    0    0  503  504 -0.00000000000E+00 -0.00000000000E+00 -0.48447245304E+02  0.48447245304E+02  0.00000000000E+00 0. -1.
         25    2    1    2    0    0  0.10533374947E+02  0.17351584711E+02  0.63701538259E+02  0.14175924329E+03  0.12500307037E+03 0.  0.
         25    2    1    2    0    0 -0.10533374947E+02 -0.17351584711E+02  0.41629386359E+03  0.43513064917E+03  0.12500428594E+03 0.  0.
          5    1    3    3  501    0  0.21536010339E+02 -0.26458261357E+02  0.84916806110E+02  0.91634018220E+02  0.47000000000E+01 0.  1.
         -5    1    3    3    0  501 -0.11002635393E+02  0.43809846068E+02 -0.21215267850E+02  0.50125225067E+02  0.47000000000E+01 0.  1.
          5    1    4    4  502    0  0.20075665047E+02 -0.52669432768E+02  0.96098925415E+02  0.11150872137E+03  0.47000000000E+01 0.  1.
         -5    1    4    4    0  502 -0.30609039993E+02  0.35317848057E+02  0.32019493817E+03  0.32362192780E+03  0.47000000000E+01 0.  1.
<mgrwt>
<rscale>  0 0.32000994E+03</rscale>
<asrwt>0</asrwt>
<pdfrwt beam="1">  1       21 0.81298865E-01 0.32000994E+03</pdfrwt>
<pdfrwt beam="2">  1       21 0.74534227E-02 0.32000994E+03</pdfrwt>
<totfact> 0.17343636E+05</totfact>
</mgrwt>
</event>
<event>
 8    1  0.9400004E-006  0.3532030E+03  0.7546771E-02  0.1061308E+00
         21   -1    0    0  504  503  0.00000000000E+00  0.00000000000E+00  0.80189971096E+02  0.80189971096E+02  0.00000000000E+00 0. -1.
         21   -1    0    0  503  504 -0.00000000000E+00 -0.00000000000E+00 -0.38892756154E+03  0.38892756154E+03  0.00000000000E+00 0. -1.
         25    2    1    2    0    0  0.58518702521E+02 -0.10398999862E+03 -0.10602396700E+03  0.20274280208E+03  0.12500081544E+03 0.  0.
         25    2    1    2    0    0 -0.58518702521E+02  0.10398999862E+03 -0.20271362345E+03  0.26637473056E+03  0.12499730232E+03 0.  0.
          5    1    3    3  501    0  0.25826490919E+02 -0.10403770545E+03 -0.12493259106E+03  0.16468483263E+03  0.47000000000E+01 0.  1.
         -5    1    3    3    0  501  0.32692211602E+02  0.47706825787E-01  0.18908624061E+02  0.38057969458E+02  0.47000000000E+01 0.  1.
          5    1    4    4  502    0 -0.66921362559E+02  0.10781265519E+03 -0.21537173811E+03  0.25001822526E+03  0.47000000000E+01 0.  1.
         -5    1    4    4    0  502  0.84026600385E+01 -0.38226565636E+01  0.12658114656E+02  0.16356505298E+02  0.47000000000E+01 0.  1.
<mgrwt>
<rscale>  0 0.35320300E+03</rscale>
<asrwt>0</asrwt>
<pdfrwt beam="1">  1       21 0.12336919E-01 0.35320300E+03</pdfrwt>
<pdfrwt beam="2">  1       21 0.59835009E-01 0.35320300E+03</pdfrwt>
<totfact> 0.13906898E+05</totfact>
</mgrwt>
</event>
<event>
 8    1  0.9400004E-006  0.2812706E+03  0.7546771E-02  0.1094997E+00
         21   -1    0    0  504  503  0.00000000000E+00  0.00000000000E+00  0.36803874291E+02  0.36803874291E+02  0.00000000000E+00 0. -1.
         21   -1    0    0  503  504 -0.00000000000E+00 -0.00000000000E+00 -0.53739703428E+03  0.53739703428E+03  0.00000000000E+00 0. -1.
         25    2    1    2    0    0  0.12722302012E+02 -0.34491353300E+02 -0.14224056798E+03  0.19289630864E+03  0.12500038514E+03 0.  0.
         25    2    1    2    0    0 -0.12722302012E+02  0.34491353300E+02 -0.35835259201E+03  0.38130459994E+03  0.12500042924E+03 0.  0.
          5    1    3    3  501    0 -0.22652298680E+02  0.26331485966E+02 -0.10982785892E+03  0.11528539537E+03  0.47000000000E+01 0. -1.
         -5    1    3    3    0  501  0.35374600692E+02 -0.60822839266E+02 -0.32412709055E+02  0.77610913271E+02  0.47000000000E+01 0. -1.
          5    1    4    4  502    0 -0.25551012583E+02  0.18807112966E+02 -0.11870701864E+02  0.34198907949E+02  0.47000000000E+01 0. -1.
         -5    1    4    4    0  502  0.12828710571E+02  0.15684240334E+02 -0.34648189015E+03  0.34710569199E+03  0.47000000000E+01 0. -1.
<mgrwt>
<rscale>  0 0.28127064E+03</rscale>
<asrwt>0</asrwt>
<pdfrwt beam="1">  1       21 0.56621346E-02 0.28127064E+03</pdfrwt>
<pdfrwt beam="2">  1       21 0.82676466E-01 0.28127064E+03</pdfrwt>
<totfact> 0.27136178E+05</totfact>
</mgrwt>
</event>
<event>
 8    1  0.9400004E-006  0.3630341E+03  0.7546771E-02  0.1057389E+00
         21   -1    0    0  504  503  0.00000000000E+00  0.00000000000E+00  0.89799925250E+02  0.89799925250E+02  0.00000000000E+00 0.  1.
         21   -1    0    0  503  504 -0.00000000000E+00 -0.00000000000E+00 -0.36690935260E+03  0.36690935260E+03  0.00000000000E+00 0.  1.
         25    2    1    2    0    0 -0.45479140220E+02  0.48330780174E+01  0.16708781044E+02  0.13415266518E+03  0.12500417343E+03 0.  0.
         25    2    1    2    0    0  0.45479140220E+02 -0.48330780174E+01 -0.29381820839E+03  0.32255661266E+03  0.12498767120E+03 0.  0.
          5    1    3    3  501    0  0.19908717252E+02  0.19546281536E+02  0.51298956714E+02  0.58584017483E+02  0.47000000000E+01 0. -1.
         -5    1    3    3    0  501 -0.65387857472E+02 -0.14713203518E+02 -0.34590175670E+02  0.75568647701E+02  0.47000000000E+01 0. -1.
          5    1    4    4  502    0  0.64679924631E+02 -0.50703480501E+02 -0.19980961399E+03  0.21610253915E+03  0.47000000000E+01 0. -1.
         -5    1    4    4    0  502 -0.19200784411E+02  0.45870402483E+02 -0.94008594404E+02  0.10645407351E+03  0.47000000000E+01 0. -1.
<mgrwt>
<rscale>  0 0.36303406E+03</rscale>
<asrwt>0</asrwt>
<pdfrwt beam="1">  1       21 0.13815373E-01 0.36303406E+03</pdfrwt>
<pdfrwt beam="2">  1       21 0.56447593E-01 0.36303406E+03</pdfrwt>
<totfact> 0.12806624E+05</totfact>
</mgrwt>
</event>
<event>
 8    1  0.9400004E-006  0.2904963E+03  0.7546771E-02  0.1090090E+00
         21   -1    0    0  504  503  0.00000000000E+00  0.00000000000E+00  0.72999546293E+02  0.72999546293E+02  0.00000000000E+00 0.  1.
         21   -1    0    0  503  504 -0.00000000000E+00 -0.00000000000E+00 -0.28900221528E+03  0.28900221528E+03  0.00000000000E+00 0.  1.
         25    2    1    2    0    0  0.61305988834E+02  0.18423124806E+02 -0.15420684068E+03  0.20856568152E+03  0.12498823145E+03 0.  0.
         25    2    1    2    0    0 -0.61305988834E+02 -0.18423124806E+02 -0.61795828305E+02  0.15343608005E+03  0.12500428181E+03 0.  0.
          5    1    3    3  501    0 -0.11582339904E+02  0.41162518217E+02 -0.11463094531E+03  0.12243711499E+03  0.47000000000E+01 0. -1.
         -5    1    3    3    0  501  0.72888328737E+02 -0.22739393411E+02 -0.39575895365E+02  0.86128566531E+02  0.47000000000E+01 0. -1.
          5    1    4    4  502    0 -0.34071794291E+02 -0.40815533708E+02  0.25513420846E+02  0.59159273165E+02  0.47000000000E+01 0. -1.
         -5    1    4    4    0  502 -0.27234194542E+02  0.22392408902E+02 -0.87309249151E+02  0.94276806883E+02  0.47000000000E+01 0. -1.
<mgrwt>
<rscale>  0 0.29049634E+03</rscale>
<asrwt>0</asrwt>
<pdfrwt beam="1">  1       21 0.11230700E-01 0.29049634E+03</pdfrwt>
<pdfrwt beam="2">  1       21 0.44461879E-01 0.29049634E+03</pdfrwt>
<totfact> 0.31357399E+05</totfact>
</mgrwt>
</event>
<event>
 8    1  0.9400004E-006  0.4585377E+03  0.7546771E-02  0.1025206E+00
         21   -1    0    0  504  503  0.00000000000E+00  0.00000000000E+00  0.12279653010E+04  0.12279653010E+04  0.00000000000E+00 0. -1.
         21   -1    0    0  503  504 -0.00000000000E+00 -0.00000000000E+00 -0.42805929868E+02  0.42805929868E+02  0.00000000000E+00 0. -1.
         25    2    1    2    0    0 -0.14284384616E+03  0.95626943097E+02  0.83081303177E+03  0.85756894986E+03  0.12500133348E+03 0.  0.
         25    2    1    2    0    0  0.14284384616E+03 -0.95626943097E+02  0.35434633937E+03  0.41320228102E+03  0.12500368067E+03 0.  0.
          5    1    3    3  501    0 -0.10789426631E+03  0.12380989284E+03  0.70536725038E+03  0.72424796180E+03  0.47000000000E+01 0. -1.
         -5    1    3    3    0  501 -0.34949579854E+02 -0.28182949739E+02  0.12544578138E+03  0.13332098805E+03  0.47000000000E+01 0. -1.
          5    1    4    4  502    0 -0.66211543710E+01  0.19778144989E+02  0.20487986328E+02  0.29611860600E+02  0.47000000000E+01 0.  1.
         -5    1    4    4    0  502  0.14946500053E+03 -0.11540508809E+03  0.33385835305E+03  0.38359042042E+03  0.47000000000E+01 0.  1.
<mgrwt>
<rscale>  0 0.45853766E+03</rscale>
<asrwt>0</asrwt>
<pdfrwt beam="1">  1       21 0.18891771E+00 0.45853766E+03</pdfrwt>
<pdfrwt beam="2">  1       21 0.65855286E-02 0.45853766E+03</pdfrwt>
<totfact> 0.23584028E+04</totfact>
</mgrwt>
</event>
<event>
 8    1  0.9400004E-006  0.3498548E+03  0.7546771E-02  0.1062675E+00
         21   -1    0    0  504  503  0.00000000000E+00  0.00000000000E+00  0.84633546752E+02  0.84633546752E+02  0.00000000000E+00 0. -1.
         21   -1    0    0  503  504 -0.00000000000E+00 -0.00000000000E+00 -0.36155388446E+03  0.36155388446E+03  0.00000000000E+00 0. -1.
         25    2    1    2    0    0 -0.89760156335E+02  0.74783545957E+01 -0.24414479514E+03  0.28868213175E+03  0.12497151972E+03 0.  0.
         25    2    1    2    0    0  0.89760156335E+02 -0.74783545957E+01 -0.32775542566E+02  0.15750529947E+03  0.12498348578E+03 0.  0.
          5    1    3    3  501    0 -0.25044981837E+02 -0.33734528968E+02 -0.19003117794E+03  0.19467718960E+03  0.47000000000E+01 0. -1.
         -5    1    3    3    0  501 -0.64715174498E+02  0.41212883563E+02 -0.54113617202E+02  0.94004942150E+02  0.47000000000E+01 0. -1.
          5    1    4    4  502    0  0.56738374869E+02 -0.53721648767E+02  0.18931272467E+02  0.80534103374E+02  0.47000000000E+01 0. -1.
         -5    1    4    4    0  502  0.33021781466E+02  0.46243294171E+02 -0.51706815033E+02  0.76971196092E+02  0.47000000000E+01 0. -1.
<mgrwt>
<rscale>  0 0.34985476E+03</rscale>
<asrwt>0</asrwt>
<pdfrwt beam="1">  1       21 0.13020546E-01 0.34985476E+03</pdfrwt>
<pdfrwt beam="2">  1       21 0.55623674E-01 0.34985476E+03</pdfrwt>
<totfact> 0.14774431E+05</totfact>
</mgrwt>
</event>
<event>
 8    1  0.9400004E-006  0.3576726E+03  0.7546771E-02  0.1059509E+00
         21   -1    0    0  504  503  0.00000000000E+00  0.00000000000E+00  0.29058429486E+03  0.29058429486E+03  0.00000000000E+00 0. -1.
         21   -1    0    0  503  504 -0.00000000000E+00 -0.00000000000E+00 -0.11006244646E+03  0.11006244646E+03  0.00000000000E+00 0. -1.
         25    2    1    2    0    0 -0.61013947338E+02  0.11038840819E+03  0.11396497406E+03  0.21100079559E+03  0.12500007197E+03 0.  0.
         25    2    1    2    0    0  0.61013947338E+02 -0.11038840819E+03  0.66556874340E+02  0.18964594574E+03  0.12500985873E+03 0.  0.
          5    1    3    3  501    0 -0.60807736410E+02  0.73473616746E+02  0.13717861491E+03  0.16714070586E+03  0.47000000000E+01 0. -1.
         -5    1    3    3    0  501 -0.20621092787E+00  0.36914791439E+02 -0.23213640846E+02  0.43860089732E+02  0.47000000000E+01 0. -1.
          5    1    4    4  502    0  0.31018059690E+02 -0.30966006961E+02 -0.35651732922E+02  0.56693471179E+02  0.47000000000E+01 0. -1.
         -5    1    4    4    0  502  0.29995887648E+02 -0.79422401225E+02  0.10220860726E+03  0.13295247456E+03  0.47000000000E+01 0. -1.
<mgrwt>
<rscale>  0 0.35767258E+03</rscale>
<asrwt>0</asrwt>
<pdfrwt beam="1">  1       21 0.44705276E-01 0.35767258E+03</pdfrwt>
<pdfrwt beam="2">  1       21 0.16932684E-01 0.35767258E+03</pdfrwt>
<totfact> 0.14423977E+05</totfact>
</mgrwt>
</event>
<event>
 8    1  0.9400004E-006  0.4679161E+03  0.7546771E-02  0.1022510E+00
         21   -1    0    0  504  503  0.00000000000E+00  0.00000000000E+00  0.47672030641E+03  0.47672030641E+03  0.00000000000E+00 0.  1.
         21   -1    0    0  503  504 -0.00000000000E+00 -0.00000000000E+00 -0.11481862370E+03  0.11481862370E+03  0.00000000000E+00 0.  1.
         25    2    1    2    0    0  0.13513765771E+03 -0.12271904472E+03  0.27713409870E+03  0.35461260892E+03  0.12499857311E+03 0.  0.
         25    2    1    2    0    0 -0.13513765771E+03  0.12271904472E+03  0.84767584009E+02  0.23692632119E+03  0.12500555152E+03 0.  0.
          5    1    3    3  501    0  0.68384557508E+02 -0.34762411229E+01  0.36234374821E+02  0.77611544738E+02  0.47000000000E+01 0. -1.
         -5    1    3    3    0  501  0.66753100199E+02 -0.11924280359E+03  0.24089972388E+03  0.27700106418E+03  0.47000000000E+01 0. -1.
          5    1    4    4  502    0 -0.41930120649E+02 -0.13177706559E+02  0.53040327481E+02  0.69044574784E+02  0.47000000000E+01 0.  1.
         -5    1    4    4    0  502 -0.93207537058E+02  0.13589675127E+03  0.31727256528E+02  0.16788174641E+03  0.47000000000E+01 0.  1.
<mgrwt>
<rscale>  0 0.46791610E+03</rscale>
<asrwt>0</asrwt>
<pdfrwt beam="1">  1       21 0.73341584E-01 0.46791610E+03</pdfrwt>
<pdfrwt beam="2">  1       21 0.17664404E-01 0.46791610E+03</pdfrwt>
<totfact> 0.44399896E+04</totfact>
</mgrwt>
</event>
<event>
 8    1  0.9400004E-006  0.2996679E+03  0.7546771E-02  0.1085407E+00
         21   -1    0    0  504  503  0.00000000000E+00  0.00000000000E+00  0.29337204503E+03  0.29337204503E+03  0.00000000000E+00 0. -1.
         21   -1    0    0  503  504 -0.00000000000E+00 -0.00000000000E+00 -0.76524730433E+02  0.76524730433E+02  0.00000000000E+00 0. -1.
         25    2    1    2    0    0 -0.61836335271E+02  0.19022962571E+02  0.17185016683E+03  0.22213173332E+03  0.12499768655E+03 0.  0.
         25    2    1    2    0    0  0.61836335271E+02 -0.19022962571E+02  0.44997147772E+02  0.14776504215E+03  0.12499663559E+03 0.  0.
          5    1    3    3  501    0 -0.80073829468E+02 -0.31780172729E+02  0.98559601217E+02  0.13098810074E+03  0.47000000000E+01 0. -1.
         -5    1    3    3    0  501  0.18237494197E+02  0.50803135300E+02  0.73290565610E+02  0.91143632572E+02  0.47000000000E+01 0. -1.
          5    1    4    4  502    0  0.45203380121E+02  0.47558985528E+02  0.39788173786E+00  0.65783364072E+02  0.47000000000E+01 0.  1.
         -5    1    4    4    0  502  0.16632955150E+02 -0.66581948099E+02  0.44599266034E+02  0.81981678078E+02  0.47000000000E+01 0.  1.
<mgrwt>
<rscale>  0 0.29966793E+03</rscale>
<asrwt>0</asrwt>
<pdfrwt beam="1">  1       21 0.45134160E-01 0.29966793E+03</pdfrwt>
<pdfrwt beam="2">  1       21 0.11773036E-01 0.29966793E+03</pdfrwt>
<totfact> 0.27870559E+05</totfact>
</mgrwt>
</event>
<event>
 8    1  0.9400004E-006  0.2917297E+03  0.7546771E-02  0.1089449E+00
         21   -1    0    0  504  503  0.00000000000E+00  0.00000000000E+00  0.44310108664E+02  0.44310108664E+02  0.00000000000E+00 0.  1.
         21   -1    0    0  503  504 -0.00000000000E+00 -0.00000000000E+00 -0.48017397638E+03  0.48017397638E+03  0.00000000000E+00 0.  1.
         25    2    1    2    0    0 -0.65036586001E+02  0.32174658084E+02 -0.25328410959E+03  0.29161807675E+03  0.12499318532E+03 0.  0.
         25    2    1    2    0    0  0.65036586001E+02 -0.32174658084E+02 -0.18257975813E+03  0.23286600830E+03  0.12500497430E+03 0.  0.
          5    1    3    3  501    0 -0.82379171759E+01  0.24959124958E+01 -0.21817390359E+03  0.21839421940E+03  0.47000000000E+01 0.  1.
         -5    1    3    3    0  501 -0.56798668825E+02  0.29678745588E+02 -0.35110205995E+02  0.73223857348E+02  0.47000000000E+01 0.  1.
          5    1    4    4  502    0  0.51582881197E+02 -0.55178717095E+02 -0.19024094793E+03  0.20474177083E+03  0.47000000000E+01 0. -1.
         -5    1    4    4    0  502  0.13453704804E+02  0.23004059011E+02  0.76611898008E+01  0.28124237467E+02  0.47000000000E+01 0. -1.
<mgrwt>
<rscale>  0 0.29172975E+03</rscale>
<asrwt>0</asrwt>
<pdfrwt beam="1">  1       21 0.68169400E-02 0.29172975E+03</pdfrwt>
<pdfrwt beam="2">  1       21 0.73872917E-01 0.29172975E+03</pdfrwt>
<totfact> 0.25365617E+05</totfact>
</mgrwt>
</event>
<event>
 8    1  0.9400004E-006  0.4388743E+03  0.7546771E-02  0.1031093E+00
         21   -1    0    0  504  503  0.00000000000E+00  0.00000000000E+00  0.45413410329E+02  0.45413410329E+02  0.00000000000E+00 0.  1.
         21   -1    0    0  503  504 -0.00000000000E+00 -0.00000000000E+00 -0.10603182909E+04  0.10603182909E+04  0.00000000000E+00 0.  1.
         25    2    1    2    0    0  0.89352413652E+02 -0.15525936954E+03 -0.45471144874E+03  0.50445654910E+03  0.12499833062E+03 0.  0.
         25    2    1    2    0    0 -0.89352413652E+02  0.15525936954E+03 -0.56019343184E+03  0.60127515214E+03  0.12500320736E+03 0.  0.
          5    1    3    3  501    0  0.11374850317E+03 -0.12391668940E+03 -0.41621492812E+03  0.44894434429E+03  0.47000000000E+01 0. -1.
         -5    1    3    3    0  501 -0.24396089520E+02 -0.31342680141E+02 -0.38496520625E+02  0.55512204807E+02  0.47000000000E+01 0. -1.
          5    1    4    4  502    0 -0.32017628144E+02  0.13758540585E+03 -0.26840264201E+03  0.30334294232E+03  0.47000000000E+01 0. -1.
         -5    1    4    4    0  502 -0.57334785508E+02  0.17673963689E+02 -0.29179078983E+03  0.29793220983E+03  0.47000000000E+01 0. -1.
<mgrwt>
<rscale>  0 0.43887433E+03</rscale>
<asrwt>0</asrwt>
<pdfrwt beam="1">  1       21 0.69866789E-02 0.43887433E+03</pdfrwt>
<pdfrwt beam="2">  1       21 0.16312588E+00 0.43887433E+03</pdfrwt>
<totfact> 0.32682567E+04</totfact>
</mgrwt>
</event>
<event>
 8    1  0.9400004E-006  0.3018735E+03  0.7546771E-02  0.1084308E+00
         21   -1    0    0  504  503  0.00000000000E+00  0.00000000000E+00  0.20265143275E+02  0.20265143275E+02  0.00000000000E+00 0.  1.
         21   -1    0    0  503  504 -0.00000000000E+00 -0.00000000000E+00 -0.11241915667E+04  0.11241915667E+04  0.00000000000E+00 0.  1.
         25    2    1    2    0    0  0.83571108479E+02  0.51559095065E+01 -0.59722626510E+03  0.61589117639E+03  0.12502806024E+03 0.  0.
         25    2    1    2    0    0 -0.83571108479E+02 -0.51559095065E+01 -0.50670015832E+03  0.52856553359E+03  0.12500303708E+03 0.  0.
          5    1    3    3  501    0  0.20369337285E+02 -0.56552212008E+02 -0.19766672157E+03  0.20665741071E+03  0.47000000000E+01 0. -1.
         -5    1    3    3    0  501  0.63201771194E+02  0.61708121514E+02 -0.39955954353E+03  0.40923376568E+03  0.47000000000E+01 0. -1.
          5    1    4    4  502    0 -0.16514241496E+02 -0.22553804751E+02 -0.15159840745E+02  0.32145062643E+02  0.47000000000E+01 0.  1.
         -5    1    4    4    0  502 -0.67056866983E+02  0.17397895245E+02 -0.49154031758E+03  0.49642047095E+03  0.47000000000E+01 0.  1.
<mgrwt>
<rscale>  0 0.30187350E+03</rscale>
<asrwt>0</asrwt>
<pdfrwt beam="1">  1       21 0.31177132E-02 0.30187350E+03</pdfrwt>
<pdfrwt beam="2">  1       21 0.17295261E+00 0.30187350E+03</pdfrwt>
<totfact> 0.11531731E+05</totfact>
</mgrwt>
</event>
<event>
 8    1  0.9400004E-006  0.2849011E+03  0.7546771E-02  0.1093042E+00
         21   -1    0    0  504  503  0.00000000000E+00  0.00000000000E+00  0.20455940022E+03  0.20455940022E+03  0.00000000000E+00 0.  1.
         21   -1    0    0  503  504 -0.00000000000E+00 -0.00000000000E+00 -0.99199368985E+02  0.99199368985E+02  0.00000000000E+00 0.  1.
         25    2    1    2    0    0  0.63596760710E+02  0.46044087208E+01  0.78801758839E+02  0.16094588556E+03  0.12501244870E+03 0.  0.
         25    2    1    2    0    0 -0.63596760710E+02 -0.46044087208E+01  0.26558272399E+02  0.14281288365E+03  0.12499771738E+03 0.  0.
          5    1    3    3  501    0  0.25881514033E+02 -0.55506773353E+02  0.10451866019E+02  0.62307191880E+02  0.47000000000E+01 0. -1.
         -5    1    3    3    0  501  0.37715246676E+02  0.60111182074E+02  0.68349892820E+02  0.98638693679E+02  0.47000000000E+01 0. -1.
          5    1    4    4  502    0 -0.24300609992E+02 -0.52775105558E+02 -0.23510026813E+02  0.62853343375E+02  0.47000000000E+01 0.  1.
         -5    1    4    4    0  502 -0.39296150718E+02  0.48170696837E+02  0.50068299212E+02  0.79959540275E+02  0.47000000000E+01 0.  1.
<mgrwt>
<rscale>  0 0.28490113E+03</rscale>
<asrwt>0</asrwt>
<pdfrwt beam="1">  1       21 0.31470677E-01 0.28490113E+03</pdfrwt>
<pdfrwt beam="2">  1       21 0.15261441E-01 0.28490113E+03</pdfrwt>
<totfact> 0.36156572E+05</totfact>
</mgrwt>
</event>
<event>
 8    1  0.9400004E-006  0.3063460E+03  0.7546771E-02  0.1082111E+00
         21   -1    0    0  504  503  0.00000000000E+00  0.00000000000E+00  0.57378565535E+03  0.57378565535E+03  0.00000000000E+00 0. -1.
         21   -1    0    0  503  504 -0.00000000000E+00 -0.00000000000E+00 -0.40889778456E+02  0.40889778456E+02  0.00000000000E+00 0. -1.
         25    2    1    2    0    0 -0.62205074388E+02  0.53605359329E+02  0.33283834230E+03  0.36489612323E+03  0.12499925125E+03 0.  0.
         25    2    1    2    0    0  0.62205074388E+02 -0.53605359329E+02  0.20005753460E+03  0.24977931058E+03  0.12499472396E+03 0.  0.
          5    1    3    3  501    0 -0.93257510282E+02  0.65615597865E+02  0.23106275362E+03  0.25771002312E+03  0.47000000000E+01 0.  1.
         -5    1    3    3    0  501  0.31052435894E+02 -0.12010238536E+02  0.10177558868E+03  0.10718610011E+03  0.47000000000E+01 0.  1.
          5    1    4    4  502    0  0.97462989933E+02 -0.53919293490E+02  0.13035608590E+03  0.17152586904E+03  0.47000000000E+01 0. -1.
         -5    1    4    4    0  502 -0.35257915545E+02  0.31393416056E+00  0.69701448699E+02  0.78253441547E+02  0.47000000000E+01 0. -1.
<mgrwt>
<rscale>  0 0.30634600E+03</rscale>
<asrwt>0</asrwt>
<pdfrwt beam="1">  1       21 0.88274711E-01 0.30634600E+03</pdfrwt>
<pdfrwt beam="2">  1       21 0.62907355E-02 0.30634600E+03</pdfrwt>
<totfact> 0.19324990E+05</totfact>
</mgrwt>
</event>
<event>
 8    1  0.9400004E-006  0.2567225E+03  0.7546771E-02  0.1109129E+00
         21   -1    0    0  504  503  0.00000000000E+00  0.00000000000E+00  0.76110511388E+02  0.76110511388E+02  0.00000000000E+00 0. -1.
         21   -1    0    0  503  504 -0.00000000000E+00 -0.00000000000E+00 -0.21648272975E+03  0.21648272975E+03  0.00000000000E+00 0. -1.
         25    2    1    2    0    0  0.98842801371E+01  0.92707198930E+01 -0.99373779498E+02  0.16026084592E+03  0.12499898176E+03 0.  0.
         25    2    1    2    0    0 -0.98842801371E+01 -0.92707198930E+01 -0.40998438860E+02  0.13233239522E+03  0.12508935044E+03 0.  0.
          5    1    3    3  501    0 -0.54294437390E+02  0.14254282176E+02 -0.24556554445E+02  0.61450670119E+02  0.47000000000E+01 0.  1.
         -5    1    3    3    0  501  0.64178717527E+02 -0.49835622829E+01 -0.74817225053E+02  0.98810175797E+02  0.47000000000E+01 0.  1.
          5    1    4    4  502    0  0.35304263194E+02  0.25825775366E+02 -0.57685312468E+02  0.72546860356E+02  0.47000000000E+01 0.  1.
         -5    1    4    4    0  502 -0.45188543331E+02 -0.35096495259E+02  0.16686873609E+02  0.59785534862E+02  0.47000000000E+01 0.  1.
<mgrwt>
<rscale>  0 0.25672251E+03</rscale>
<asrwt>0</asrwt>
<pdfrwt beam="1">  1       21 0.11709310E-01 0.25672251E+03</pdfrwt>
<pdfrwt beam="2">  1       21 0.33305035E-01 0.25672251E+03</pdfrwt>
<totfact> 0.52582786E+05</totfact>
</mgrwt>
</event>
<event>
 8    1  0.9400004E-006  0.3162946E+03  0.7546771E-02  0.1077367E+00
         21   -1    0    0  504  503  0.00000000000E+00  0.00000000000E+00  0.45963702504E+02  0.45963702504E+02  0.00000000000E+00 0. -1.
         21   -1    0    0  503  504 -0.00000000000E+00 -0.00000000000E+00 -0.54413741631E+03  0.54413741631E+03  0.00000000000E+00 0. -1.
         25    2    1    2    0    0 -0.24200871806E+02  0.87678925220E+02 -0.18690262104E+03  0.24255624181E+03  0.12501065781E+03 0.  0.
         25    2    1    2    0    0  0.24200871806E+02 -0.87678925220E+02 -0.31127109277E+03  0.34754487700E+03  0.12499788884E+03 0.  0.
          5    1    3    3  501    0 -0.56299536327E+02  0.56206428610E+02 -0.40615337108E+02  0.89445491871E+02  0.47000000000E+01 0.  1.
         -5    1    3    3    0  501  0.32098664521E+02  0.31472496610E+02 -0.14628728393E+03  0.15311074994E+03  0.47000000000E+01 0.  1.
          5    1    4    4  502    0 -0.23444622522E+02 -0.69406617766E+02 -0.27533994739E+03  0.28495807682E+03  0.47000000000E+01 0. -1.
         -5    1    4    4    0  502  0.47645494328E+02 -0.18272307454E+02 -0.35931145379E+02  0.62586800187E+02  0.47000000000E+01 0. -1.
<mgrwt>
<rscale>  0 0.31629461E+03</rscale>
<asrwt>0</asrwt>
<pdfrwt beam="1">  1       21 0.70713393E-02 0.31629461E+03</pdfrwt>
<pdfrwt beam="2">  1       21 0.83713443E-01 0.31629461E+03</pdfrwt>
<totfact> 0.17791518E+05</totfact>
</mgrwt>
</event>
<event>
 8    1  0.9400004E-006  0.2709671E+03  0.7546771E-02  0.1100727E+00
         21   -1    0    0  504  503  0.00000000000E+00  0.00000000000E+00  0.16423497777E+03  0.16423497777E+03  0.00000000000E+00 0. -1.
         21   -1    0    0  503  504 -0.00000000000E+00 -0.00000000000E+00 -0.11176542873E+03  0.11176542873E+03  0.00000000000E+00 0. -1.
         25    2    1    2    0    0  0.14314113834E+02  0.24663654577E+02  0.70867739464E+02  0.14647321220E+03  0.12497590041E+03 0.  0.
         25    2    1    2    0    0 -0.14314113834E+02 -0.24663654577E+02 -0.18398190425E+02  0.12952719430E+03  0.12500244374E+03 0.  0.
          5    1    3    3  501    0  0.38010206658E+02 -0.40972385203E+02  0.44983415703E+02  0.71896521805E+02  0.47000000000E+01 0. -1.
         -5    1    3    3    0  501 -0.23696092824E+02  0.65636039780E+02  0.25884323761E+02  0.74576690391E+02  0.47000000000E+01 0. -1.
          5    1    4    4  502    0 -0.30129153706E+02  0.22536219413E+02  0.38325221902E+02  0.53912519161E+02  0.47000000000E+01 0. -1.
         -5    1    4    4    0  502  0.15815039872E+02 -0.47199873990E+02 -0.56723412327E+02  0.75614675142E+02  0.47000000000E+01 0. -1.
<mgrwt>
<rscale>  0 0.27096710E+03</rscale>
<asrwt>0</asrwt>
<pdfrwt beam="1">  1       21 0.25266920E-01 0.27096710E+03</pdfrwt>
<pdfrwt beam="2">  1       21 0.17194681E-01 0.27096710E+03</pdfrwt>
<totfact> 0.44637490E+05</totfact>
</mgrwt>
</event>
<event>
 8    1  0.9400004E-006  0.2884599E+03  0.7546771E-02  0.1091156E+00
         21   -1    0    0  504  503  0.00000000000E+00  0.00000000000E+00  0.11537651996E+03  0.11537651996E+03  0.00000000000E+00 0.  1.
         21   -1    0    0  503  504 -0.00000000000E+00 -0.00000000000E+00 -0.18029907952E+03  0.18029907952E+03  0.00000000000E+00 0.  1.
         25    2    1    2    0    0  0.40777510802E+02  0.19405699076E+02  0.24953522647E+02  0.13523065582E+03  0.12500106174E+03 0.  0.
         25    2    1    2    0    0 -0.40777510802E+02 -0.19405699076E+02 -0.89876082211E+02  0.16044494366E+03  0.12500193299E+03 0.  0.
          5    1    3    3  501    0  0.15738994868E+02  0.64373359445E+02  0.44513988674E+02  0.79970185403E+02  0.47000000000E+01 0.  1.
         -5    1    3    3    0  501  0.25038515934E+02 -0.44967660368E+02 -0.19560466027E+02  0.55260470414E+02  0.47000000000E+01 0.  1.
          5    1    4    4  502    0 -0.52601574644E+02  0.35363928070E+02 -0.81876878347E+02  0.10365059706E+03  0.47000000000E+01 0.  1.
         -5    1    4    4    0  502  0.11824063843E+02 -0.54769627146E+02 -0.79992038634E+01  0.56794346602E+02  0.47000000000E+01 0.  1.
<mgrwt>
<rscale>  0 0.28845991E+03</rscale>
<asrwt>0</asrwt>
<pdfrwt beam="1">  1       21 0.17750234E-01 0.28845991E+03</pdfrwt>
<pdfrwt beam="2">  1       21 0.27738320E-01 0.28845991E+03</pdfrwt>
<totfact> 0.35001989E+05</totfact>
</mgrwt>
</event>
<event>
 8    1  0.9400004E-006  0.3287160E+03  0.7546771E-02  0.1071706E+00
         21   -1    0    0  504  503  0.00000000000E+00  0.00000000000E+00  0.96870481321E+02  0.96870481321E+02  0.00000000000E+00 0.  1.
         21   -1    0    0  503  504 -0.00000000000E+00 -0.00000000000E+00 -0.27886249628E+03  0.27886249628E+03  0.00000000000E+00 0.  1.
         25    2    1    2    0    0 -0.39731241631E+01  0.72960657869E+02 -0.20952068932E+01  0.14480558649E+03  0.12500089869E+03 0.  0.
         25    2    1    2    0    0  0.39731241631E+01 -0.72960657869E+02 -0.17989680806E+03  0.23092739111E+03  0.12500222039E+03 0.  0.
          5    1    3    3  501    0  0.54825594299E+02  0.61140864322E+02 -0.14111957980E+02  0.83458303591E+02  0.47000000000E+01 0. -1.
         -5    1    3    3    0  501 -0.58798718462E+02  0.11819793547E+02  0.12016751087E+02  0.61347282898E+02  0.47000000000E+01 0. -1.
          5    1    4    4  502    0 -0.33040834786E+02 -0.72058286680E+02 -0.17638929233E+03  0.19344085890E+03  0.47000000000E+01 0. -1.
         -5    1    4    4    0  502  0.37013958949E+02 -0.90237118961E+00 -0.35075157358E+01  0.37486532215E+02  0.47000000000E+01 0. -1.
<mgrwt>
<rscale>  0 0.32871595E+03</rscale>
<asrwt>0</asrwt>
<pdfrwt beam="1">  1       21 0.14903151E-01 0.32871595E+03</pdfrwt>
<pdfrwt beam="2">  1       21 0.42901922E-01 0.32871595E+03</pdfrwt>
<totfact> 0.20024300E+05</totfact>
</mgrwt>
</event>
<event>
 8    1  0.9400004E-006  0.2775153E+03  0.7546771E-02  0.1097054E+00
         21   -1    0    0  504  503  0.00000000000E+00  0.00000000000E+00  0.52210054739E+03  0.52210054739E+03  0.00000000000E+00 0. -1.
         21   -1    0    0  503  504 -0.00000000000E+00 -0.00000000000E+00 -0.36877345087E+02  0.36877345087E+02  0.00000000000E+00 0. -1.
         25    2    1    2    0    0 -0.26952117950E+02 -0.53830033769E+02  0.23823711249E+03  0.27569047448E+03  0.12499690698E+03 0.  0.
         25    2    1    2    0    0  0.26952117950E+02  0.53830033769E+02  0.24698608982E+03  0.28328741800E+03  0.12500217373E+03 0.  0.
          5    1    3    3  501    0 -0.22525486356E+02 -0.33736174753E+02  0.45917704783E+01  0.41093811927E+02  0.47000000000E+01 0. -1.
         -5    1    3    3    0  501 -0.44266315940E+01 -0.20093859016E+02  0.23364534201E+03  0.23459666256E+03  0.47000000000E+01 0. -1.
          5    1    4    4  502    0  0.19079996769E+02 -0.39805482595E+02  0.71130572479E+02  0.83846115369E+02  0.47000000000E+01 0. -1.
         -5    1    4    4    0  502  0.78721211802E+01  0.93635516364E+02  0.17585551734E+03  0.19944130263E+03  0.47000000000E+01 0. -1.
<mgrwt>
<rscale>  0 0.27751528E+03</rscale>
<asrwt>0</asrwt>
<pdfrwt beam="1">  1       21 0.80323156E-01 0.27751528E+03</pdfrwt>
<pdfrwt beam="2">  1       21 0.56734381E-02 0.27751528E+03</pdfrwt>
<totfact> 0.28917829E+05</totfact>
</mgrwt>
</event>
<event>
 8    1  0.9400004E-006  0.2938934E+03  0.7546771E-02  0.1088334E+00
         21   -1    0    0  504  503  0.00000000000E+00  0.00000000000E+00  0.16601441171E+02  0.16601441171E+02  0.00000000000E+00 0. -1.
         21   -1    0    0  503  504 -0.00000000000E+00 -0.00000000000E+00 -0.13006905700E+04  0.13006905700E+04  0.00000000000E+00 0. -1.
         25    2    1    2    0    0  0.45065312345E+02 -0.54113521103E+02 -0.78451784209E+03  0.79752836281E+03  0.12499635748E+03 0.  0.
         25    2    1    2    0    0 -0.45065312345E+02  0.54113521103E+02 -0.49957128675E+03  0.51976364837E+03  0.12499449621E+03 0.  0.
          5    1    3    3  501    0  0.27176899562E+02 -0.13111081646E+02 -0.34146413698E+02  0.45809954160E+02  0.47000000000E+01 0.  1.
         -5    1    3    3    0  501  0.17888412783E+02 -0.41002439457E+02 -0.75037142839E+03  0.75171840865E+03  0.47000000000E+01 0.  1.
          5    1    4    4  502    0 -0.87710596500E+02  0.39584308051E+02 -0.29890251427E+03  0.31404596673E+03  0.47000000000E+01 0.  1.
         -5    1    4    4    0  502  0.42645284155E+02  0.14529213052E+02 -0.20066877248E+03  0.20571768164E+03  0.47000000000E+01 0.  1.
<mgrwt>
<rscale>  0 0.29389344E+03</rscale>
<asrwt>0</asrwt>
<pdfrwt beam="1">  1       21 0.25540682E-02 0.29389344E+03</pdfrwt>
<pdfrwt beam="2">  1       21 0.20010621E+00 0.29389344E+03</pdfrwt>
<totfact> 0.10534846E+05</totfact>
</mgrwt>
</event>
<event>
 8    1  0.9400004E-006  0.2902104E+03  0.7546771E-02  0.1090239E+00
         21   -1    0    0  504  503  0.00000000000E+00  0.00000000000E+00  0.15013599361E+03  0.15013599361E+03  0.00000000000E+00 0.  1.
         21   -1    0    0  503  504 -0.00000000000E+00 -0.00000000000E+00 -0.14024297122E+03  0.14024297122E+03  0.00000000000E+00 0.  1.
         25    2    1    2    0    0 -0.32720014878E+02  0.47402687672E+02  0.50963814689E+02  0.14675262726E+03  0.12498563529E+03 0.  0.
         25    2    1    2    0    0  0.32720014878E+02 -0.47402687672E+02 -0.41070792306E+02  0.14362633757E+03  0.12499640271E+03 0.  0.
          5    1    3    3  501    0  0.37928979216E+02  0.54384188197E+02  0.24663810746E+02  0.70898807823E+02  0.47000000000E+01 0. -1.
         -5    1    3    3    0  501 -0.70648994094E+02 -0.69815005256E+01  0.26300003943E+02  0.75853819439E+02  0.47000000000E+01 0. -1.
          5    1    4    4  502    0 -0.43539017540E+02 -0.32231822592E+02 -0.36714434648E+02  0.65609268762E+02  0.47000000000E+01 0.  1.
         -5    1    4    4    0  502  0.76259032418E+02 -0.15170865080E+02 -0.43563576584E+01  0.78017068804E+02  0.47000000000E+01 0.  1.
<mgrwt>
<rscale>  0 0.29021039E+03</rscale>
<asrwt>0</asrwt>
<pdfrwt beam="1">  1       21 0.23097845E-01 0.29021039E+03</pdfrwt>
<pdfrwt beam="2">  1       21 0.21575842E-01 0.29021039E+03</pdfrwt>
<totfact> 0.34508615E+05</totfact>
</mgrwt>
</event>
<event>
 8    1  0.9400004E-006  0.3072237E+03  0.7546771E-02  0.1081684E+00
         21   -1    0    0  504  503  0.00000000000E+00  0.00000000000E+00  0.80904265231E+02  0.80904265231E+02  0.00000000000E+00 0. -1.
         21   -1    0    0  503  504 -0.00000000000E+00 -0.00000000000E+00 -0.29166081710E+03  0.29166081710E+03  0.00000000000E+00 0. -1.
         25    2    1    2    0    0  0.65037597605E+02  0.16213957767E+02 -0.33705887376E+02  0.14570749690E+03  0.12490719066E+03 0.  0.
         25    2    1    2    0    0 -0.65037597605E+02 -0.16213957767E+02 -0.17705066449E+03  0.22685758544E+03  0.12499857897E+03 0.  0.
          5    1    3    3  501    0  0.84451891460E+02  0.26150551701E+02  0.17145056006E+02  0.90177692757E+02  0.47000000000E+01 0.  1.
         -5    1    3    3    0  501 -0.19414293855E+02 -0.99365939341E+01 -0.50850943382E+02  0.55529804140E+02  0.47000000000E+01 0.  1.
          5    1    4    4  502    0 -0.76728721286E+01  0.14794735457E+02  0.15667311340E+02  0.23351912311E+02  0.47000000000E+01 0.  1.
         -5    1    4    4    0  502 -0.57364725477E+02 -0.31008693224E+02 -0.19271797583E+03  0.20350567312E+03  0.47000000000E+01 0.  1.
<mgrwt>
<rscale>  0 0.30722372E+03</rscale>
<asrwt>0</asrwt>
<pdfrwt beam="1">  1       21 0.12446810E-01 0.30722372E+03</pdfrwt>
<pdfrwt beam="2">  1       21 0.44870895E-01 0.30722372E+03</pdfrwt>
<totfact> 0.25471034E+05</totfact>
</mgrwt>
</event>
<event>
 8    1  0.9400004E-006  0.4779156E+03  0.7546771E-02  0.1019710E+00
         21   -1    0    0  504  503  0.00000000000E+00  0.00000000000E+00  0.18788923079E+03  0.18788923079E+03  0.00000000000E+00 0. -1.
         21   -1    0    0  503  504 -0.00000000000E+00 -0.00000000000E+00 -0.30390691996E+03  0.30390691996E+03  0.00000000000E+00 0. -1.
         25    2    1    2    0    0  0.12573990533E+03 -0.14796089230E+03  0.51775675897E+01  0.23099318650E+03  0.12501238161E+03 0.  0.
         25    2    1    2    0    0 -0.12573990533E+03  0.14796089230E+03 -0.12119525676E+03  0.26080296425E+03  0.12500778558E+03 0.  0.
          5    1    3    3  501    0  0.46004951450E+02 -0.12443936749E+03 -0.36779151545E+02  0.13775488277E+03  0.47000000000E+01 0. -1.
         -5    1    3    3    0  501  0.79734953883E+02 -0.23521524812E+02  0.41956719134E+02  0.93238303721E+02  0.47000000000E+01 0. -1.
          5    1    4    4  502    0 -0.65073110919E+02  0.11884730398E+03 -0.16944659793E+02  0.13663236411E+03  0.47000000000E+01 0.  1.
         -5    1    4    4    0  502 -0.60666794414E+02  0.29113588323E+02 -0.10425059697E+03  0.12417060014E+03  0.47000000000E+01 0.  1.
<mgrwt>
<rscale>  0 0.47791563E+03</rscale>
<asrwt>0</asrwt>
<pdfrwt beam="1">  1       21 0.28906036E-01 0.47791563E+03</pdfrwt>
<pdfrwt beam="2">  1       21 0.46754910E-01 0.47791563E+03</pdfrwt>
<totfact> 0.45856458E+04</totfact>
</mgrwt>
</event>
<event>
 8    1  0.9400004E-006  0.3535846E+03  0.7546771E-02  0.1061153E+00
         21   -1    0    0  504  503  0.00000000000E+00  0.00000000000E+00  0.31323800192E+03  0.31323800192E+03  0.00000000000E+00 0. -1.
         21   -1    0    0  503  504 -0.00000000000E+00 -0.00000000000E+00 -0.99781999831E+02  0.99781999831E+02  0.00000000000E+00 0. -1.
         25    2    1    2    0    0  0.12009161144E+03 -0.34360344846E+02  0.11251678938E+03  0.20951201508E+03  0.12503050882E+03 0.  0.
         25    2    1    2    0    0 -0.12009161144E+03  0.34360344846E+02  0.10093921270E+03  0.20350798666E+03  0.12499659011E+03 0.  0.
          5    1    3    3  501    0 -0.12795667950E+02 -0.15414660035E+02 -0.14085283097E+02  0.24936440448E+02  0.47000000000E+01 0.  1.
         -5    1    3    3    0  501  0.13288727939E+03 -0.18945684811E+02  0.12660207248E+03  0.18457557464E+03  0.47000000000E+01 0.  1.
          5    1    4    4  502    0 -0.13089431685E+03  0.50493617532E+02  0.11297136419E+03  0.18018753209E+03  0.47000000000E+01 0. -1.
         -5    1    4    4    0  502  0.10802705412E+02 -0.16133272686E+02 -0.12032151487E+02  0.23320454567E+02  0.47000000000E+01 0. -1.
<mgrwt>
<rscale>  0 0.35358458E+03</rscale>
<asrwt>0</asrwt>
<pdfrwt beam="1">  1       21 0.48190461E-01 0.35358458E+03</pdfrwt>
<pdfrwt beam="2">  1       21 0.15351077E-01 0.35358458E+03</pdfrwt>
<totfact> 0.14801404E+05</totfact>
</mgrwt>
</event>
<event>
 8    1  0.9400004E-006  0.4977535E+03  0.7546771E-02  0.1014367E+00
         21   -1    0    0  504  503  0.00000000000E+00  0.00000000000E+00  0.18340434868E+03  0.18340434868E+03  0.00000000000E+00 0. -1.
         21   -1    0    0  503  504 -0.00000000000E+00 -0.00000000000E+00 -0.33772177819E+03  0.33772177819E+03  0.00000000000E+00 0. -1.
         25    2    1    2    0    0  0.20367286864E+03  0.19394707699E+02 -0.14703774028E+03  0.28125488600E+03  0.12500168688E+03 0.  0.
         25    2    1    2    0    0 -0.20367286864E+03 -0.19394707699E+02 -0.72796892316E+01  0.23987124086E+03  0.12500570471E+03 0.  0.
          5    1    3    3  501    0  0.15532472217E+03  0.41493847870E+02 -0.15943083879E+03  0.22646807961E+03  0.47000000000E+01 0.  1.
         -5    1    3    3    0  501  0.48348146474E+02 -0.22099140171E+02  0.12393098501E+02  0.54786806389E+02  0.47000000000E+01 0.  1.
          5    1    4    4  502    0 -0.96938551309E+02  0.19552228498E+02 -0.58672076205E+02  0.11508203550E+03  0.47000000000E+01 0. -1.
         -5    1    4    4    0  502 -0.10673431734E+03 -0.38946936196E+02  0.51392386974E+02  0.12478920536E+03  0.47000000000E+01 0. -1.
<mgrwt>
<rscale>  0 0.49775352E+03</rscale>
<asrwt>0</asrwt>
<pdfrwt beam="1">  1       21 0.28216054E-01 0.49775352E+03</pdfrwt>
<pdfrwt beam="2">  1       21 0.51957196E-01 0.49775352E+03</pdfrwt>
<totfact> 0.38277560E+04</totfact>
</mgrwt>
</event>
<event>
 8    1  0.9400004E-006  0.2866705E+03  0.7546771E-02  0.1092100E+00
         21   -1    0    0  504  503  0.00000000000E+00  0.00000000000E+00  0.16386466039E+03  0.16386466039E+03  0.00000000000E+00 0.  1.
         21   -1    0    0  503  504 -0.00000000000E+00 -0.00000000000E+00 -0.12537783604E+03  0.12537783604E+03  0.00000000000E+00 0.  1.
         25    2    1    2    0    0 -0.36731255451E+02  0.48130469568E+02 -0.16490634779E+02  0.13986400005E+03  0.12499708095E+03 0.  0.
         25    2    1    2    0    0  0.36731255451E+02 -0.48130469568E+02  0.54977459129E+02  0.14937849637E+03  0.12500274773E+03 0.  0.
          5    1    3    3  501    0  0.37333298182E+02 -0.41197136610E+01  0.19068961532E+02  0.42384696386E+02  0.47000000000E+01 0. -1.
         -5    1    3    3    0  501 -0.74064553633E+02  0.52250183229E+02 -0.35559596312E+02  0.97479303661E+02  0.47000000000E+01 0. -1.
          5    1    4    4  502    0  0.60348006176E+01  0.20524069274E+02  0.69299258893E+02  0.72678287825E+02  0.47000000000E+01 0. -1.
         -5    1    4    4    0  502  0.30696454833E+02 -0.68654538843E+02 -0.14321799764E+02  0.76700208549E+02  0.47000000000E+01 0. -1.
<mgrwt>
<rscale>  0 0.28667052E+03</rscale>
<asrwt>0</asrwt>
<pdfrwt beam="1">  1       21 0.25209948E-01 0.28667052E+03</pdfrwt>
<pdfrwt beam="2">  1       21 0.19288898E-01 0.28667052E+03</pdfrwt>
<totfact> 0.36071698E+05</totfact>
</mgrwt>
</event>
<event>
 8    1  0.9400004E-006  0.3415992E+03  0.7546771E-02  0.1066117E+00
         21   -1    0    0  504  503  0.00000000000E+00  0.00000000000E+00  0.11106031049E+03  0.11106031049E+03  0.00000000000E+00 0. -1.
         21   -1    0    0  503  504 -0.00000000000E+00 -0.00000000000E+00 -0.26267264398E+03  0.26267264398E+03  0.00000000000E+00 0. -1.
         25    2    1    2    0    0 -0.33619022278E+02  0.66735862316E+02  0.21905971652E+02  0.14719959245E+03  0.12491570936E+03 0.  0.
         25    2    1    2    0    0  0.33619022278E+02 -0.66735862316E+02 -0.17351830514E+03  0.22653336202E+03  0.12499939165E+03 0.  0.
          5    1    3    3  501    0 -0.28679059399E+02  0.17127456858E+02  0.70041098842E+02  0.77741132957E+02  0.47000000000E+01 0. -1.
         -5    1    3    3    0  501 -0.49399628790E+01  0.49608405458E+02 -0.48135127190E+02  0.69458459491E+02  0.47000000000E+01 0. -1.
          5    1    4    4  502    0  0.57427924224E+02  0.12259142641E+02 -0.99298640839E+02  0.11545805789E+03  0.47000000000E+01 0. -1.
         -5    1    4    4    0  502 -0.23808901946E+02 -0.78995004957E+02 -0.74219664300E+02  0.11107530414E+03  0.47000000000E+01 0. -1.
<mgrwt>
<rscale>  0 0.34159921E+03</rscale>
<asrwt>0</asrwt>
<pdfrwt beam="1">  1       21 0.17086202E-01 0.34159921E+03</pdfrwt>
<pdfrwt beam="2">  1       21 0.40411176E-01 0.34159921E+03</pdfrwt>
<totfact> 0.17533323E+05</totfact>
</mgrwt>
</event>
<event>
 8    1  0.9400004E-006  0.2853041E+03  0.7546771E-02  0.1092827E+00
         21   -1    0    0  504  503  0.00000000000E+00  0.00000000000E+00  0.70667531103E+02  0.70667531103E+02  0.00000000000E+00 0. -1.
         21   -1    0    0  503  504 -0.00000000000E+00 -0.00000000000E+00 -0.28796256866E+03  0.28796256866E+03  0.00000000000E+00 0. -1.
         25    2    1    2    0    0  0.62444424736E+02  0.82841766166E+01 -0.74062490915E+02  0.15835639257E+03  0.12499424285E+03 0.  0.
         25    2    1    2    0    0 -0.62444424736E+02 -0.82841766166E+01 -0.14323254664E+03  0.20027370719E+03  0.12500424637E+03 0.  0.
          5    1    3    3  501    0  0.85307990928E+02 -0.23808844080E+02 -0.78477707124E+02  0.11842784676E+03  0.47000000000E+01 0.  1.
         -5    1    3    3    0  501 -0.22863566192E+02  0.32093020697E+02  0.44152162082E+01  0.39928545812E+02  0.47000000000E+01 0.  1.
          5    1    4    4  502    0 -0.41884768704E+02  0.29160768835E+02 -0.54522493757E+00  0.51254966186E+02  0.47000000000E+01 0. -1.
         -5    1    4    4    0  502 -0.20559656031E+02 -0.37444945452E+02 -0.14268732170E+03  0.14901874100E+03  0.47000000000E+01 0. -1.
<mgrwt>
<rscale>  0 0.28530407E+03</rscale>
<asrwt>0</asrwt>
<pdfrwt beam="1">  1       21 0.10871928E-01 0.28530407E+03</pdfrwt>
<pdfrwt beam="2">  1       21 0.44301933E-01 0.28530407E+03</pdfrwt>
<totfact> 0.33522194E+05</totfact>
</mgrwt>
</event>
<event>
 8    1  0.9400004E-006  0.3113316E+03  0.7546771E-02  0.1079709E+00
         21   -1    0    0  504  503  0.00000000000E+00  0.00000000000E+00  0.78250538678E+02  0.78250538678E+02  0.00000000000E+00 0.  1.
         21   -1    0    0  503  504 -0.00000000000E+00 -0.00000000000E+00 -0.30966987915E+03  0.30966987915E+03  0.00000000000E+00 0.  1.
         25    2    1    2    0    0  0.31571451429E+02  0.48241272184E+02 -0.20627149297E+03  0.24798561717E+03  0.12499984249E+03 0.  0.
         25    2    1    2    0    0 -0.31571451429E+02 -0.48241272184E+02 -0.25147847502E+02  0.13993480066E+03  0.12500142925E+03 0.  0.
          5    1    3    3  501    0  0.33952453194E+02 -0.34856764967E+02 -0.11201954558E+03  0.12222205911E+03  0.47000000000E+01 0.  1.
         -5    1    3    3    0  501 -0.23810017655E+01  0.83098037151E+02 -0.94251947394E+02  0.12576355806E+03  0.47000000000E+01 0.  1.
          5    1    4    4  502    0 -0.19168623103E+02 -0.76517559527E+02  0.23217040005E+02  0.82361969223E+02  0.47000000000E+01 0.  1.
         -5    1    4    4    0  502 -0.12402828326E+02  0.28276287343E+02 -0.48364887507E+02  0.57572831439E+02  0.47000000000E+01 0.  1.
<mgrwt>
<rscale>  0 0.31133156E+03</rscale>
<asrwt>0</asrwt>
<pdfrwt beam="1">  1       21 0.12038544E-01 0.31133156E+03</pdfrwt>
<pdfrwt beam="2">  1       21 0.47641520E-01 0.31133156E+03</pdfrwt>
<totfact> 0.23858773E+05</totfact>
</mgrwt>
</event>
<event>
 8    1  0.9400004E-006  0.2534174E+03  0.7546771E-02  0.1111164E+00
         21   -1    0    0  504  503  0.00000000000E+00  0.00000000000E+00  0.41834263069E+02  0.41834263069E+02  0.00000000000E+00 0. -1.
         21   -1    0    0  503  504 -0.00000000000E+00 -0.00000000000E+00 -0.38377873593E+03  0.38377873593E+03  0.00000000000E+00 0. -1.
         25    2    1    2    0    0 -0.13544923587E+02 -0.14358872751E+02 -0.18126022792E+03  0.22106238094E+03  0.12499465533E+03 0.  0.
         25    2    1    2    0    0  0.13544923587E+02  0.14358872751E+02 -0.16068424494E+03  0.20455061806E+03  0.12502754334E+03 0.  0.
          5    1    3    3  501    0 -0.73999523059E+01 -0.63629138507E+02 -0.52419703245E+02  0.82905620133E+02  0.47000000000E+01 0. -1.
         -5    1    3    3    0  501 -0.61449712811E+01  0.49270265756E+02 -0.12884052467E+03  0.13815676081E+03  0.47000000000E+01 0. -1.
          5    1    4    4  502    0  0.51183058831E+02 -0.70726769208E+01 -0.15134965537E+03  0.15999542634E+03  0.47000000000E+01 0. -1.
         -5    1    4    4    0  502 -0.37638135244E+02  0.21431549672E+02 -0.93345895703E+01  0.44555191711E+02  0.47000000000E+01 0. -1.
<mgrwt>
<rscale>  0 0.25341745E+03</rscale>
<asrwt>0</asrwt>
<pdfrwt beam="1">  1       21 0.64360406E-02 0.25341745E+03</pdfrwt>
<pdfrwt beam="2">  1       21 0.59042881E-01 0.25341745E+03</pdfrwt>
<totfact> 0.46279918E+05</totfact>
</mgrwt>
</event>
<event>
 8    1  0.9400004E-006  0.2696971E+03  0.7546771E-02  0.1101453E+00
         21   -1    0    0  504  503  0.00000000000E+00  0.00000000000E+00  0.54300586992E+02  0.54300586992E+02  0.00000000000E+00 0. -1.
         21   -1    0    0  503  504 -0.00000000000E+00 -0.00000000000E+00 -0.33487905538E+03  0.33487905538E+03  0.00000000000E+00 0. -1.
         25    2    1    2    0    0 -0.78505244673E+00  0.38596623650E+02 -0.18747423769E+03  0.22860755532E+03  0.12499803553E+03 0.  0.
         25    2    1    2    0    0  0.78505244673E+00 -0.38596623650E+02 -0.93104230694E+02  0.16057208705E+03  0.12499872680E+03 0.  0.
          5    1    3    3  501    0 -0.91310364315E+00  0.79594790795E+02 -0.16075805823E+03  0.17944750699E+03  0.47000000000E+01 0. -1.
         -5    1    3    3    0  501  0.12805119642E+00 -0.40998167145E+02 -0.26716179462E+02  0.49160048326E+02  0.47000000000E+01 0. -1.
          5    1    4    4  502    0  0.18284759773E+02  0.37461382317E+02 -0.65251031722E+02  0.77572383913E+02  0.47000000000E+01 0.  1.
         -5    1    4    4    0  502 -0.17499707326E+02 -0.76058005966E+02 -0.27853198971E+02  0.82999703138E+02  0.47000000000E+01 0.  1.
<mgrwt>
<rscale>  0 0.26969708E+03</rscale>
<asrwt>0</asrwt>
<pdfrwt beam="1">  1       21 0.83539366E-02 0.26969708E+03</pdfrwt>
<pdfrwt beam="2">  1       21 0.51519854E-01 0.26969708E+03</pdfrwt>
<totfact> 0.39154214E+05</totfact>
</mgrwt>
</event>
<event>
 8    1  0.9400004E-006  0.2802439E+03  0.7546771E-02  0.1095556E+00
         21   -1    0    0  504  503  0.00000000000E+00  0.00000000000E+00  0.15533780322E+03  0.15533780322E+03  0.00000000000E+00 0. -1.
         21   -1    0    0  503  504 -0.00000000000E+00 -0.00000000000E+00 -0.12639651702E+03  0.12639651702E+03  0.00000000000E+00 0. -1.
         25    2    1    2    0    0 -0.12806899621E+02  0.44240615088E+02 -0.29231121114E+02  0.13638394146E+03  0.12499948938E+03 0.  0.
         25    2    1    2    0    0  0.12806899621E+02 -0.44240615088E+02  0.58172407312E+02  0.14535037878E+03  0.12498581894E+03 0.  0.
          5    1    3    3  501    0 -0.45846129020E+02  0.68458169048E+02  0.51661598564E+01  0.82687167463E+02  0.47000000000E+01 0. -1.
         -5    1    3    3    0  501  0.33039229399E+02 -0.24217553959E+02 -0.34397280970E+02  0.53696773992E+02  0.47000000000E+01 0. -1.
          5    1    4    4  502    0  0.16703831314E+02 -0.76311758218E+02 -0.43774973552E+00  0.78260999532E+02  0.47000000000E+01 0.  1.
         -5    1    4    4    0  502 -0.38969316931E+01  0.32071143130E+02  0.58610157048E+02  0.67089379245E+02  0.47000000000E+01 0.  1.
<mgrwt>
<rscale>  0 0.28024387E+03</rscale>
<asrwt>0</asrwt>
<pdfrwt beam="1">  1       21 0.23898124E-01 0.28024387E+03</pdfrwt>
<pdfrwt beam="2">  1       21 0.19445618E-01 0.28024387E+03</pdfrwt>
<totfact> 0.39418949E+05</totfact>
</mgrwt>
</event>
<event>
 8    1  0.9400004E-006  0.2948478E+03  0.7546771E-02  0.1087845E+00
         21   -1    0    0  504  503  0.00000000000E+00  0.00000000000E+00  0.43961451478E+02  0.43961451478E+02  0.00000000000E+00 0. -1.
         21   -1    0    0  503  504 -0.00000000000E+00 -0.00000000000E+00 -0.49438340164E+03  0.49438340164E+03  0.00000000000E+00 0. -1.
         25    2    1    2    0    0  0.11438369187E+01  0.76124041940E+02 -0.19294994095E+03  0.24218091963E+03  0.12500295995E+03 0.  0.
         25    2    1    2    0    0 -0.11438369187E+01 -0.76124041940E+02 -0.25747200920E+03  0.29616393348E+03  0.12500024739E+03 0.  0.
          5    1    3    3  501    0 -0.34298066107E+02  0.97314795663E+02 -0.15248846413E+03  0.18417749180E+03  0.47000000000E+01 0. -1.
         -5    1    3    3    0  501  0.35441903026E+02 -0.21190753723E+02 -0.40461476826E+02  0.58003427833E+02  0.47000000000E+01 0. -1.
          5    1    4    4  502    0  0.52525546947E+02 -0.36829806428E+02 -0.60859608062E+02  0.88551395342E+02  0.47000000000E+01 0.  1.
         -5    1    4    4    0  502 -0.53669383866E+02 -0.39294235512E+02 -0.19661240114E+03  0.20761253814E+03  0.47000000000E+01 0.  1.
<mgrwt>
<rscale>  0 0.29484784E+03</rscale>
<asrwt>0</asrwt>
<pdfrwt beam="1">  1       21 0.67633008E-02 0.29484784E+03</pdfrwt>
<pdfrwt beam="2">  1       21 0.76058979E-01 0.29484784E+03</pdfrwt>
<totfact> 0.24061563E+05</totfact>
</mgrwt>
</event>
<event>
 8    1  0.9400004E-006  0.3548145E+03  0.7546771E-02  0.1060656E+00
         21   -1    0    0  504  503  0.00000000000E+00  0.00000000000E+00  0.13278636240E+04  0.13278636240E+04  0.00000000000E+00 0. -1.
         21   -1    0    0  503  504 -0.00000000000E+00 -0.00000000000E+00 -0.23702226511E+02  0.23702226511E+02  0.00000000000E+00 0. -1.
         25    2    1    2    0    0  0.50113091854E+01  0.12231853494E+03  0.76392923361E+03  0.78370834872E+03  0.12499585862E+03 0.  0.
         25    2    1    2    0    0 -0.50113091854E+01 -0.12231853494E+03  0.54023216390E+03  0.56785750182E+03  0.12499765697E+03 0.  0.
          5    1    3    3  501    0  0.20182117380E+02  0.96132062037E+02  0.24676948401E+03  0.26564254074E+03  0.47000000000E+01 0.  1.
         -5    1    3    3    0  501 -0.15170808195E+02  0.26186472904E+02  0.51715974961E+03  0.51806580798E+03  0.47000000000E+01 0.  1.
          5    1    4    4  502    0 -0.10301972280E+02  0.36397287830E+01  0.26301905897E+03  0.26328785320E+03  0.47000000000E+01 0. -1.
         -5    1    4    4    0  502  0.52906630947E+01 -0.12595826372E+03  0.27721310493E+03  0.30456964862E+03  0.47000000000E+01 0. -1.
<mgrwt>
<rscale>  0 0.35481446E+03</rscale>
<asrwt>0</asrwt>
<pdfrwt beam="1">  1       21 0.20428665E+00 0.35481446E+03</pdfrwt>
<pdfrwt beam="2">  1       21 0.36464974E-02 0.35481446E+03</pdfrwt>
<totfact> 0.53249994E+04</totfact>
</mgrwt>
</event>
<event>
 8    1  0.9400004E-006  0.2806492E+03  0.7546771E-02  0.1095335E+00
         21   -1    0    0  504  503  0.00000000000E+00  0.00000000000E+00  0.47048417598E+02  0.47048417598E+02  0.00000000000E+00 0.  1.
         21   -1    0    0  503  504 -0.00000000000E+00 -0.00000000000E+00 -0.41852619974E+03  0.41852619974E+03  0.00000000000E+00 0.  1.
         25    2    1    2    0    0  0.41754490785E+02  0.47882782924E+02 -0.17658997828E+03  0.22548803309E+03  0.12499853694E+03 0.  0.
         25    2    1    2    0    0 -0.41754490785E+02 -0.47882782924E+02 -0.19488780386E+03  0.24008658424E+03  0.12499645370E+03 0.  0.
          5    1    3    3  501    0 -0.14051509047E+02  0.66957067215E+02 -0.14008380069E+03  0.15596876281E+03  0.47000000000E+01 0. -1.
         -5    1    3    3    0  501  0.55805999832E+02 -0.19074284290E+02 -0.36506177587E+02  0.69519270282E+02  0.47000000000E+01 0. -1.
          5    1    4    4  502    0  0.15845531584E+02 -0.43682931765E+02 -0.11975790257E+02  0.48216065279E+02  0.47000000000E+01 0.  1.
         -5    1    4    4    0  502 -0.57600022369E+02 -0.41998511597E+01 -0.18291201361E+03  0.19187051896E+03  0.47000000000E+01 0.  1.
<mgrwt>
<rscale>  0 0.28064921E+03</rscale>
<asrwt>0</asrwt>
<pdfrwt beam="1">  1       21 0.72382185E-02 0.28064921E+03</pdfrwt>
<pdfrwt beam="2">  1       21 0.64388643E-01 0.28064921E+03</pdfrwt>
<totfact> 0.31081339E+05</totfact>
</mgrwt>
</event>
<event>
 8    1  0.9400004E-006  0.5156617E+03  0.7546771E-02  0.1009770E+00
         21   -1    0    0  504  503  0.00000000000E+00  0.00000000000E+00  0.17887824535E+03  0.17887824535E+03  0.00000000000E+00 0.  1.
         21   -1    0    0  503  504 -0.00000000000E+00 -0.00000000000E+00 -0.37163125396E+03  0.37163125396E+03  0.00000000000E+00 0.  1.
         25    2    1    2    0    0 -0.20731548908E+02 -0.40666644878E+02 -0.33214866014E+03  0.35780408830E+03  0.12496983654E+03 0.  0.
         25    2    1    2    0    0  0.20731548908E+02  0.40666644878E+02  0.13939565154E+03  0.19270541101E+03  0.12498261735E+03 0.  0.
          5    1    3    3  501    0  0.47658092929E+02 -0.41079586017E+02 -0.18518312125E+03  0.19563666477E+03  0.47000000000E+01 0.  1.
         -5    1    3    3    0  501 -0.68389641836E+02  0.41294113934E+00 -0.14696553890E+03  0.16216742353E+03  0.47000000000E+01 0.  1.
          5    1    4    4  502    0 -0.26297957958E+02  0.45348050715E+02  0.83139851039E+01  0.53284525378E+02  0.47000000000E+01 0.  1.
         -5    1    4    4    0  502  0.47029506866E+02 -0.46814058372E+01  0.13108166643E+03  0.13942088563E+03  0.47000000000E+01 0.  1.
<mgrwt>
<rscale>  0 0.51566170E+03</rscale>
<asrwt>0</asrwt>
<pdfrwt beam="1">  1       21 0.27519731E-01 0.51566170E+03</pdfrwt>
<pdfrwt beam="2">  1       21 0.57174038E-01 0.51566170E+03</pdfrwt>
<totfact> 0.32581746E+04</totfact>
</mgrwt>
</event>
<event>
 8    1  0.9400004E-006  0.3182823E+03  0.7546771E-02  0.1076443E+00
         21   -1    0    0  504  503  0.00000000000E+00  0.00000000000E+00  0.58303071483E+02  0.58303071483E+02  0.00000000000E+00 0.  1.
         21   -1    0    0  503  504 -0.00000000000E+00 -0.00000000000E+00 -0.43438359309E+03  0.43438359309E+03  0.00000000000E+00 0.  1.
         25    2    1    2    0    0 -0.72052798427E+02  0.36056351858E+02 -0.27573177362E+03  0.31327959330E+03  0.12499770526E+03 0.  0.
         25    2    1    2    0    0  0.72052798427E+02 -0.36056351858E+02 -0.10034874798E+03  0.17940707127E+03  0.12500143891E+03 0.  0.
          5    1    3    3  501    0 -0.85580060219E+02  0.24282892151E+02 -0.90025500125E+02  0.12665025160E+03  0.47000000000E+01 0. -1.
         -5    1    3    3    0  501  0.13527261792E+02  0.11773459706E+02 -0.18570627350E+03  0.18662934170E+03  0.47000000000E+01 0. -1.
          5    1    4    4  502    0  0.95027736707E+02 -0.20363740048E+01 -0.10005698372E+03  0.13808659440E+03  0.47000000000E+01 0. -1.
         -5    1    4    4    0  502 -0.22974938279E+02 -0.34019977853E+02 -0.29176425728E+00  0.41320476866E+02  0.47000000000E+01 0. -1.
<mgrwt>
<rscale>  0 0.31828225E+03</rscale>
<asrwt>0</asrwt>
<pdfrwt beam="1">  1       21 0.89697036E-02 0.31828225E+03</pdfrwt>
<pdfrwt beam="2">  1       21 0.66828243E-01 0.31828225E+03</pdfrwt>
<totfact> 0.19478320E+05</totfact>
</mgrwt>
</event>
<event>
 8    1  0.9400004E-006  0.2767489E+03  0.7546771E-02  0.1097478E+00
         21   -1    0    0  504  503  0.00000000000E+00  0.00000000000E+00  0.73928362919E+02  0.73928362919E+02  0.00000000000E+00 0. -1.
         21   -1    0    0  503  504 -0.00000000000E+00 -0.00000000000E+00 -0.25900056331E+03  0.25900056331E+03  0.00000000000E+00 0. -1.
         25    2    1    2    0    0 -0.46363865402E+02 -0.37043175459E+02 -0.91976711657E+02  0.16615246731E+03  0.12500048818E+03 0.  0.
         25    2    1    2    0    0  0.46363865402E+02  0.37043175459E+02 -0.93095488737E+02  0.16677645892E+03  0.12500324941E+03 0.  0.
          5    1    3    3  501    0 -0.42851592206E+02 -0.17403995919E+02  0.21228436849E+02  0.51106697796E+02  0.47000000000E+01 0.  1.
         -5    1    3    3    0  501 -0.35122731956E+01 -0.19639179540E+02 -0.11320514851E+03  0.11504576952E+03  0.47000000000E+01 0.  1.
          5    1    4    4  502    0  0.13457738205E+02  0.86391701670E+01 -0.11615534430E+03  0.11734521715E+03  0.47000000000E+01 0.  1.
         -5    1    4    4    0  502  0.32906127197E+02  0.28404005292E+02  0.23059855564E+02  0.49431241764E+02  0.47000000000E+01 0.  1.
<mgrwt>
<rscale>  0 0.27674889E+03</rscale>
<asrwt>0</asrwt>
<pdfrwt beam="1">  1       21 0.11373594E-01 0.27674889E+03</pdfrwt>
<pdfrwt beam="2">  1       21 0.39846241E-01 0.27674889E+03</pdfrwt>
<totfact> 0.38494293E+05</totfact>
</mgrwt>
</event>
<event>
 8    1  0.9400004E-006  0.3626194E+03  0.7546771E-02  0.1057551E+00
         21   -1    0    0  504  503  0.00000000000E+00  0.00000000000E+00  0.77060530982E+02  0.77060530982E+02  0.00000000000E+00 0.  1.
         21   -1    0    0  503  504 -0.00000000000E+00 -0.00000000000E+00 -0.42658945422E+03  0.42658945422E+03  0.00000000000E+00 0.  1.
         25    2    1    2    0    0  0.43275731357E+02 -0.21310241655E+02 -0.51136618680E+01  0.13408069603E+03  0.12499827273E+03 0.  0.
         25    2    1    2    0    0 -0.43275731357E+02  0.21310241655E+02 -0.34441526137E+03  0.36956928918E+03  0.12503068388E+03 0.  0.
          5    1    3    3  501    0  0.57035372566E+02 -0.33757683373E+02 -0.51392837637E+02  0.83999575421E+02  0.47000000000E+01 0. -1.
         -5    1    3    3    0  501 -0.13759641209E+02  0.12447441718E+02  0.46279175769E+02  0.50081120608E+02  0.47000000000E+01 0. -1.
          5    1    4    4  502    0 -0.41624497726E+02  0.10051750933E+02 -0.35231664473E+03  0.35494048045E+03  0.47000000000E+01 0. -1.
         -5    1    4    4    0  502 -0.16512336311E+01  0.11258490722E+02  0.79013833565E+01  0.14628808728E+02  0.47000000000E+01 0. -1.
<mgrwt>
<rscale>  0 0.36261941E+03</rscale>
<asrwt>0</asrwt>
<pdfrwt beam="1">  1       21 0.11855466E-01 0.36261941E+03</pdfrwt>
<pdfrwt beam="2">  1       21 0.65629147E-01 0.36261941E+03</pdfrwt>
<totfact> 0.12176823E+05</totfact>
</mgrwt>
</event>
<event>
 8    1  0.9400004E-006  0.3397257E+03  0.7546771E-02  0.1066913E+00
         21   -1    0    0  504  503  0.00000000000E+00  0.00000000000E+00  0.32789451332E+02  0.32789451332E+02  0.00000000000E+00 0.  1.
         21   -1    0    0  503  504 -0.00000000000E+00 -0.00000000000E+00 -0.87995928112E+03  0.87995928112E+03  0.00000000000E+00 0.  1.
         25    2    1    2    0    0 -0.16274693299E+02 -0.92478460558E+01 -0.72848077505E+03  0.73936418475E+03  0.12499907910E+03 0.  0.
         25    2    1    2    0    0  0.16274693299E+02  0.92478460558E+01 -0.11868905474E+03  0.17338454771E+03  0.12499888547E+03 0.  0.
          5    1    3    3  501    0 -0.48088936396E+02 -0.51261893129E+02 -0.49335651653E+03  0.49836038155E+03  0.47000000000E+01 0.  1.
         -5    1    3    3    0  501  0.31814243096E+02  0.42014047073E+02 -0.23512425851E+03  0.24100380320E+03  0.47000000000E+01 0.  1.
          5    1    4    4  502    0 -0.32775146779E+02 -0.42713775545E+02 -0.60412725555E+02  0.81058400408E+02  0.47000000000E+01 0.  1.
         -5    1    4    4    0  502  0.49049840078E+02  0.51961621601E+02 -0.58276329187E+02  0.92326147297E+02  0.47000000000E+01 0.  1.
<mgrwt>
<rscale>  0 0.33972567E+03</rscale>
<asrwt>0</asrwt>
<pdfrwt beam="1">  1       21 0.50445320E-02 0.33972567E+03</pdfrwt>
<pdfrwt beam="2">  1       21 0.13537832E+00 0.33972567E+03</pdfrwt>
<totfact> 0.97899086E+04</totfact>
</mgrwt>
</event>
<event>
 8    1  0.9400004E-006  0.2680896E+03  0.7546771E-02  0.1102378E+00
         21   -1    0    0  504  503  0.00000000000E+00  0.00000000000E+00  0.55304826714E+03  0.55304826714E+03  0.00000000000E+00 0. -1.
         21   -1    0    0  503  504 -0.00000000000E+00 -0.00000000000E+00 -0.32489052439E+02  0.32489052439E+02  0.00000000000E+00 0. -1.
         25    2    1    2    0    0  0.12035966130E+02 -0.36016307925E+02  0.32586074251E+03  0.35107210323E+03  0.12499743694E+03 0.  0.
         25    2    1    2    0    0 -0.12035966130E+02  0.36016307925E+02  0.19469847219E+03  0.23446521635E+03  0.12499761472E+03 0.  0.
          5    1    3    3  501    0 -0.40655076640E+02 -0.49317768719E+02  0.24704167822E+03  0.25521903994E+03  0.47000000000E+01 0. -1.
         -5    1    3    3    0  501  0.52691042771E+02  0.13301460793E+02  0.78819064284E+02  0.95853063290E+02  0.47000000000E+01 0. -1.
          5    1    4    4  502    0  0.48694443361E+02 -0.10013628429E+02  0.10772189840E+03  0.11873297336E+03  0.47000000000E+01 0.  1.
         -5    1    4    4    0  502 -0.60730409492E+02  0.46029936355E+02  0.86976573796E+02  0.11573224299E+03  0.47000000000E+01 0.  1.
<mgrwt>
<rscale>  0 0.26808964E+03</rscale>
<asrwt>0</asrwt>
<pdfrwt beam="1">  1       21 0.85084342E-01 0.26808964E+03</pdfrwt>
<pdfrwt beam="2">  1       21 0.49983162E-02 0.26808964E+03</pdfrwt>
<totfact> 0.31547161E+05</totfact>
</mgrwt>
</event>
<event>
 8    1  0.9400004E-006  0.2949105E+03  0.7546771E-02  0.1087813E+00
         21   -1    0    0  504  503  0.00000000000E+00  0.00000000000E+00  0.12541715471E+03  0.12541715471E+03  0.00000000000E+00 0.  1.
         21   -1    0    0  503  504 -0.00000000000E+00 -0.00000000000E+00 -0.17336578601E+03  0.17336578601E+03  0.00000000000E+00 0.  1.
         25    2    1    2    0    0  0.34206737688E+01  0.65763681334E+02  0.18794217557E+02  0.14253410269E+03  0.12500474001E+03 0.  0.
         25    2    1    2    0    0 -0.34206737688E+01 -0.65763681334E+02 -0.66742848857E+02  0.15624883802E+03  0.12499011448E+03 0.  0.
          5    1    3    3  501    0  0.11915829724E+02 -0.27866571913E+02  0.35518759084E+02  0.46927657890E+02  0.47000000000E+01 0.  1.
         -5    1    3    3    0  501 -0.84951559556E+01  0.93630253247E+02 -0.16724541527E+02  0.95606444799E+02  0.47000000000E+01 0.  1.
          5    1    4    4  502    0 -0.21597067488E+02  0.12007471808E+02  0.24351096088E+02  0.35009692715E+02  0.47000000000E+01 0. -1.
         -5    1    4    4    0  502  0.18176393720E+02 -0.77771153142E+02 -0.91093944945E+02  0.12123914531E+03  0.47000000000E+01 0. -1.
<mgrwt>
<rscale>  0 0.29491045E+03</rscale>
<asrwt>0</asrwt>
<pdfrwt beam="1">  1       21 0.19294947E-01 0.29491045E+03</pdfrwt>
<pdfrwt beam="2">  1       21 0.26671659E-01 0.29491045E+03</pdfrwt>
<totfact> 0.32275341E+05</totfact>
</mgrwt>
</event>
<event>
 8    1  0.9400004E-006  0.2671499E+03  0.7546771E-02  0.1102922E+00
         21   -1    0    0  504  503  0.00000000000E+00  0.00000000000E+00  0.21651577472E+03  0.21651577472E+03  0.00000000000E+00 0.  1.
         21   -1    0    0  503  504 -0.00000000000E+00 -0.00000000000E+00 -0.82406294181E+02  0.82406294181E+02  0.00000000000E+00 0.  1.
         25    2    1    2    0    0  0.28893143105E+02 -0.25981791639E+02  0.37288081488E+02  0.13610422515E+03  0.12499636742E+03 0.  0.
         25    2    1    2    0    0 -0.28893143105E+02  0.25981791639E+02  0.96821399048E+02  0.16281784375E+03  0.12500159885E+03 0.  0.
          5    1    3    3  501    0  0.26535329010E+02 -0.45064786368E+02 -0.33710836597E+02  0.62397669508E+02  0.47000000000E+01 0. -1.
         -5    1    3    3    0  501  0.23578140951E+01  0.19082994729E+02  0.70998918085E+02  0.73706555640E+02  0.47000000000E+01 0. -1.
          5    1    4    4  502    0  0.17108094676E+02 -0.34048199509E+02  0.74520986714E+02  0.83829793356E+02  0.47000000000E+01 0.  1.
         -5    1    4    4    0  502 -0.46001237781E+02  0.60029991148E+02  0.22300412334E+02  0.78988050393E+02  0.47000000000E+01 0.  1.
<mgrwt>
<rscale>  0 0.26714987E+03</rscale>
<asrwt>0</asrwt>
<pdfrwt beam="1">  1       21 0.33310119E-01 0.26714987E+03</pdfrwt>
<pdfrwt beam="2">  1       21 0.12677891E-01 0.26714987E+03</pdfrwt>
<totfact> 0.45463857E+05</totfact>
</mgrwt>
</event>
<event>
 8    1  0.9400004E-006  0.2576725E+03  0.7546771E-02  0.1108550E+00
         21   -1    0    0  504  503  0.00000000000E+00  0.00000000000E+00  0.30614035219E+02  0.30614035219E+02  0.00000000000E+00 0.  1.
         21   -1    0    0  503  504 -0.00000000000E+00 -0.00000000000E+00 -0.54219509812E+03  0.54219509812E+03  0.00000000000E+00 0.  1.
         25    2    1    2    0    0 -0.27421702785E+02 -0.66976879745E+01 -0.22725288978E+03  0.26093552673E+03  0.12508662755E+03 0.  0.
         25    2    1    2    0    0  0.27421702785E+02  0.66976879745E+01 -0.28432817313E+03  0.31187360661E+03  0.12500331059E+03 0.  0.
          5    1    3    3  501    0 -0.65779505823E+02 -0.39642949730E+02 -0.14804045985E+03  0.16684296390E+03  0.47000000000E+01 0.  1.
         -5    1    3    3    0  501  0.38357803038E+02  0.32945261755E+02 -0.79212429924E+02  0.94092562833E+02  0.47000000000E+01 0.  1.
          5    1    4    4  502    0 -0.39140235542E+02 -0.90747531516E+01 -0.19560186499E+03  0.19974105430E+03  0.47000000000E+01 0. -1.
         -5    1    4    4    0  502  0.66561938327E+02  0.15772441126E+02 -0.88726308136E+02  0.11213255231E+03  0.47000000000E+01 0. -1.
<mgrwt>
<rscale>  0 0.25767250E+03</rscale>
<asrwt>0</asrwt>
<pdfrwt beam="1">  1       21 0.47098521E-02 0.25767250E+03</pdfrwt>
<pdfrwt beam="2">  1       21 0.83414621E-01 0.25767250E+03</pdfrwt>
<totfact> 0.36627975E+05</totfact>
</mgrwt>
</event>
<event>
 8    1  0.9400004E-006  0.2865828E+03  0.7546771E-02  0.1092147E+00
         21   -1    0    0  504  503  0.00000000000E+00  0.00000000000E+00  0.32314403274E+03  0.32314403274E+03  0.00000000000E+00 0. -1.
         21   -1    0    0  503  504 -0.00000000000E+00 -0.00000000000E+00 -0.63539543956E+02  0.63539543956E+02  0.00000000000E+00 0. -1.
         25    2    1    2    0    0  0.42130315436E+02 -0.37290152604E+02  0.18614272528E+03  0.23116784330E+03  0.12499575448E+03 0.  0.
         25    2    1    2    0    0 -0.42130315436E+02  0.37290152604E+02  0.73461763507E+02  0.15551573340E+03  0.12499197446E+03 0.  0.
          5    1    3    3  501    0  0.11818777468E+02 -0.11812579900E+02 -0.16912101356E+02  0.24234886363E+02  0.47000000000E+01 0.  1.
         -5    1    3    3    0  501  0.30311537968E+02 -0.25477572704E+02  0.20305482664E+03  0.20693295693E+03  0.47000000000E+01 0.  1.
          5    1    4    4  502    0 -0.93888206753E+01  0.73150920709E+02  0.86655403671E+01  0.74406913282E+02  0.47000000000E+01 0. -1.
         -5    1    4    4    0  502 -0.32741494761E+02 -0.35860768105E+02  0.64796223139E+02  0.81108820121E+02  0.47000000000E+01 0. -1.
<mgrwt>
<rscale>  0 0.28658279E+03</rscale>
<asrwt>0</asrwt>
<pdfrwt beam="1">  1       21 0.49714466E-01 0.28658279E+03</pdfrwt>
<pdfrwt beam="2">  1       21 0.97753146E-02 0.28658279E+03</pdfrwt>
<totfact> 0.31861342E+05</totfact>
</mgrwt>
</event>
<event>
 8    1  0.9400004E-006  0.3929754E+03  0.7546771E-02  0.1046240E+00
         21   -1    0    0  504  503  0.00000000000E+00  0.00000000000E+00  0.36495999079E+03  0.36495999079E+03  0.00000000000E+00 0.  1.
         21   -1    0    0  503  504 -0.00000000000E+00 -0.00000000000E+00 -0.10578533794E+03  0.10578533794E+03  0.00000000000E+00 0.  1.
         25    2    1    2    0    0  0.11761372604E+03  0.44394757889E+02  0.28096030153E+02  0.17949650222E+03  0.12500289724E+03 0.  0.
         25    2    1    2    0    0 -0.11761372604E+03 -0.44394757889E+02  0.23107862270E+03  0.29124882651E+03  0.12499866396E+03 0.  0.
          5    1    3    3  501    0  0.52201368247E+02  0.11455810527E+02 -0.49283405542E+02  0.72850274560E+02  0.47000000000E+01 0.  1.
         -5    1    3    3    0  501  0.65412357790E+02  0.32938947363E+02  0.77379435694E+02  0.10664622766E+03  0.47000000000E+01 0.  1.
          5    1    4    4  502    0 -0.11923323974E+01 -0.11601240412E+02  0.13795969418E+03  0.13853150420E+03  0.47000000000E+01 0.  1.
         -5    1    4    4    0  502 -0.11642139364E+03 -0.32793517478E+02  0.93118928516E+02  0.15271732231E+03  0.47000000000E+01 0.  1.
<mgrwt>
<rscale>  0 0.39297540E+03</rscale>
<asrwt>0</asrwt>
<pdfrwt beam="1">  1       21 0.56147690E-01 0.39297540E+03</pdfrwt>
<pdfrwt beam="2">  1       21 0.16274668E-01 0.39297540E+03</pdfrwt>
<totfact> 0.95083194E+04</totfact>
</mgrwt>
</event>
<event>
 8    1  0.9400004E-006  0.3768721E+03  0.7546771E-02  0.1052096E+00
         21   -1    0    0  504  503  0.00000000000E+00  0.00000000000E+00  0.46288641847E+03  0.46288641847E+03  0.00000000000E+00 0.  1.
         21   -1    0    0  503  504 -0.00000000000E+00 -0.00000000000E+00 -0.76710269996E+02  0.76710269996E+02  0.00000000000E+00 0.  1.
         25    2    1    2    0    0  0.12190469421E+03 -0.12255487732E+02  0.29302283252E+03  0.34131810964E+03  0.12499888056E+03 0.  0.
         25    2    1    2    0    0 -0.12190469421E+03  0.12255487732E+02  0.93153315952E+02  0.19827857882E+03  0.12500361233E+03 0.  0.
          5    1    3    3  501    0  0.72621108579E+02 -0.62611192891E+02  0.11501495479E+03  0.14981494155E+03  0.47000000000E+01 0.  1.
         -5    1    3    3    0  501  0.49283585636E+02  0.50355705159E+02  0.17800787773E+03  0.19150316809E+03  0.47000000000E+01 0.  1.
          5    1    4    4  502    0 -0.13324418593E+03  0.23153189766E+01  0.11167737273E+03  0.17393475606E+03  0.47000000000E+01 0.  1.
         -5    1    4    4    0  502  0.11339491714E+02  0.99401687556E+01 -0.18524056776E+02  0.24343822762E+02  0.47000000000E+01 0.  1.
<mgrwt>
<rscale>  0 0.37687209E+03</rscale>
<asrwt>0</asrwt>
<pdfrwt beam="1">  1       21 0.71213293E-01 0.37687209E+03</pdfrwt>
<pdfrwt beam="2">  1       21 0.11801580E-01 0.37687209E+03</pdfrwt>
<totfact> 0.10199641E+05</totfact>
</mgrwt>
</event>
<event>
 8    1  0.9400004E-006  0.2600411E+03  0.7546771E-02  0.1107119E+00
         21   -1    0    0  504  503  0.00000000000E+00  0.00000000000E+00  0.64471134426E+02  0.64471134426E+02  0.00000000000E+00 0. -1.
         21   -1    0    0  503  504 -0.00000000000E+00 -0.00000000000E+00 -0.26221564725E+03  0.26221564725E+03  0.00000000000E+00 0. -1.
         25    2    1    2    0    0  0.27101673855E+02  0.16240466362E+02 -0.11989123707E+03  0.17606931799E+03  0.12501296948E+03 0.  0.
         25    2    1    2    0    0 -0.27101673855E+02 -0.16240466362E+02 -0.77853275757E+02  0.15061746369E+03  0.12500493729E+03 0.  0.
          5    1    3    3  501    0  0.32195262072E+02  0.50394211327E+02 -0.10035984227E+02  0.60818766961E+02  0.47000000000E+01 0.  1.
         -5    1    3    3    0  501 -0.50935882171E+01 -0.34153744966E+02 -0.10985525284E+03  0.11525055103E+03  0.47000000000E+01 0.  1.
          5    1    4    4  502    0 -0.67756037619E+01 -0.85006459348E+01  0.34295329592E+02  0.36282632478E+02  0.47000000000E+01 0. -1.
         -5    1    4    4    0  502 -0.20326070093E+02 -0.77398204267E+01 -0.11214860535E+03  0.11433483121E+03  0.47000000000E+01 0. -1.
<mgrwt>
<rscale>  0 0.26004108E+03</rscale>
<asrwt>0</asrwt>
<pdfrwt beam="1">  1       21 0.99186359E-02 0.26004108E+03</pdfrwt>
<pdfrwt beam="2">  1       21 0.40340869E-01 0.26004108E+03</pdfrwt>
<totfact> 0.48089631E+05</totfact>
</mgrwt>
</event>
<event>
 8    1  0.9400004E-006  0.3459878E+03  0.7546771E-02  0.1064274E+00
         21   -1    0    0  504  503  0.00000000000E+00  0.00000000000E+00  0.39550592419E+02  0.39550592419E+02  0.00000000000E+00 0. -1.
         21   -1    0    0  503  504 -0.00000000000E+00 -0.00000000000E+00 -0.75667353913E+03  0.75667353913E+03  0.00000000000E+00 0. -1.
         25    2    1    2    0    0  0.11391667434E+03 -0.33502783898E+02 -0.39129146040E+03  0.42759433631E+03  0.12501385619E+03 0.  0.
         25    2    1    2    0    0 -0.11391667434E+03  0.33502783898E+02 -0.32583148631E+03  0.36862979524E+03  0.12498929253E+03 0.  0.
          5    1    3    3  501    0 -0.13964872130E+02 -0.72834751853E+01 -0.15084638726E+01  0.16505518097E+02  0.47000000000E+01 0.  1.
         -5    1    3    3    0  501  0.12788154647E+03 -0.26219308713E+02 -0.38978299653E+03  0.41108881821E+03  0.47000000000E+01 0.  1.
          5    1    4    4  502    0 -0.38730535324E+02  0.47396216657E+02 -0.41352087520E+02  0.74017165996E+02  0.47000000000E+01 0.  1.
         -5    1    4    4    0  502 -0.75186139015E+02 -0.13893432759E+02 -0.28447939879E+03  0.29461262925E+03  0.47000000000E+01 0.  1.
<mgrwt>
<rscale>  0 0.34598778E+03</rscale>
<asrwt>0</asrwt>
<pdfrwt beam="1">  1       21 0.60847068E-02 0.34598778E+03</pdfrwt>
<pdfrwt beam="2">  1       21 0.11641131E+00 0.34598778E+03</pdfrwt>
<totfact> 0.10392961E+05</totfact>
</mgrwt>
</event>
<event>
 8    1  0.9400004E-006  0.2830157E+03  0.7546771E-02  0.1094053E+00
         21   -1    0    0  504  503  0.00000000000E+00  0.00000000000E+00  0.12290735306E+03  0.12290735306E+03  0.00000000000E+00 0. -1.
         21   -1    0    0  503  504 -0.00000000000E+00 -0.00000000000E+00 -0.16292329471E+03  0.16292329471E+03  0.00000000000E+00 0. -1.
         25    2    1    2    0    0 -0.36258102600E+02 -0.50075316523E+02 -0.44380002246E+02  0.14634410140E+03  0.12499929634E+03 0.  0.
         25    2    1    2    0    0  0.36258102600E+02  0.50075316523E+02  0.43640605974E+01  0.13948654637E+03  0.12496105099E+03 0.  0.
          5    1    3    3  501    0 -0.29563792022E+02 -0.76073729662E+02  0.13039089411E+02  0.82784889901E+02  0.47000000000E+01 0.  1.
         -5    1    3    3    0  501 -0.66943105779E+01  0.25998413138E+02 -0.57419091656E+02  0.63559211500E+02  0.47000000000E+01 0.  1.
          5    1    4    4  502    0  0.21084790042E+02  0.88858950800E+02  0.21936191741E+02  0.94041310159E+02  0.47000000000E+01 0.  1.
         -5    1    4    4    0  502  0.15173312558E+02 -0.38783634277E+02 -0.17572131143E+02  0.45445236215E+02  0.47000000000E+01 0.  1.
<mgrwt>
<rscale>  0 0.28301570E+03</rscale>
<asrwt>0</asrwt>
<pdfrwt beam="1">  1       21 0.18908824E-01 0.28301570E+03</pdfrwt>
<pdfrwt beam="2">  1       21 0.25065122E-01 0.28301570E+03</pdfrwt>
<totfact> 0.37888566E+05</totfact>
</mgrwt>
</event>
<event>
 8    1  0.9400004E-006  0.3150982E+03  0.7546771E-02  0.1077928E+00
         21   -1    0    0  504  503  0.00000000000E+00  0.00000000000E+00  0.28724647503E+03  0.28724647503E+03  0.00000000000E+00 0.  1.
         21   -1    0    0  503  504 -0.00000000000E+00 -0.00000000000E+00 -0.86412599152E+02  0.86412599152E+02  0.00000000000E+00 0.  1.
         25    2    1    2    0    0 -0.30295912084E+02  0.19159261106E+02  0.20589974322E+03  0.24352493171E+03  0.12499907412E+03 0.  0.
         25    2    1    2    0    0  0.30295912084E+02 -0.19159261106E+02 -0.50658673350E+01  0.13013414248E+03  0.12499724978E+03 0.  0.
          5    1    3    3  501    0  0.19684747936E+02  0.34951629764E+02  0.18073231969E+03  0.18519008371E+03  0.47000000000E+01 0.  1.
         -5    1    3    3    0  501 -0.49980660020E+02 -0.15792368658E+02  0.25167423532E+02  0.58334847999E+02  0.47000000000E+01 0.  1.
          5    1    4    4  502    0  0.46979821506E+02  0.13634778819E+02  0.45802033340E+02  0.67178322994E+02  0.47000000000E+01 0.  1.
         -5    1    4    4    0  502 -0.16683909423E+02 -0.32794039925E+02 -0.50867900675E+02  0.62955819487E+02  0.47000000000E+01 0.  1.
<mgrwt>
<rscale>  0 0.31509817E+03</rscale>
<asrwt>0</asrwt>
<pdfrwt beam="1">  1       21 0.44191765E-01 0.31509817E+03</pdfrwt>
<pdfrwt beam="2">  1       21 0.13294246E-01 0.31509817E+03</pdfrwt>
<totfact> 0.23285265E+05</totfact>
</mgrwt>
</event>
<event>
 8    1  0.9400004E-006  0.2811307E+03  0.7546771E-02  0.1095073E+00
         21   -1    0    0  504  503  0.00000000000E+00  0.00000000000E+00  0.20806911510E+02  0.20806911510E+02  0.00000000000E+00 0. -1.
         21   -1    0    0  503  504 -0.00000000000E+00 -0.00000000000E+00 -0.94961820903E+03  0.94961820903E+03  0.00000000000E+00 0. -1.
         25    2    1    2    0    0 -0.39010267818E+02 -0.11032010529E+02 -0.29211289948E+03  0.32030715115E+03  0.12499287493E+03 0.  0.
         25    2    1    2    0    0  0.39010267818E+02  0.11032010529E+02 -0.63669839804E+03  0.65011796939E+03  0.12500007123E+03 0.  0.
          5    1    3    3  501    0  0.29386244700E+02 -0.35069490512E+02 -0.51896431320E+02  0.69345152146E+02  0.47000000000E+01 0. -1.
         -5    1    3    3    0  501 -0.68396512518E+02  0.24037479982E+02 -0.24021646816E+03  0.25096199900E+03  0.47000000000E+01 0. -1.
          5    1    4    4  502    0  0.33873242314E+02 -0.26079011892E+02 -0.69951312231E+02  0.82114477950E+02  0.47000000000E+01 0.  1.
         -5    1    4    4    0  502  0.51370255035E+01  0.37111022422E+02 -0.56674708581E+03  0.56800349144E+03  0.47000000000E+01 0.  1.
<mgrwt>
<rscale>  0 0.28113073E+03</rscale>
<asrwt>0</asrwt>
<pdfrwt beam="1">  1       21 0.32010622E-02 0.28113073E+03</pdfrwt>
<pdfrwt beam="2">  1       21 0.14609516E+00 0.28113073E+03</pdfrwt>
<totfact> 0.17618725E+05</totfact>
</mgrwt>
</event>
<event>
 8    1  0.9400004E-006  0.3251515E+03  0.7546771E-02  0.1073303E+00
         21   -1    0    0  504  503  0.00000000000E+00  0.00000000000E+00  0.46435900927E+03  0.46435900927E+03  0.00000000000E+00 0. -1.
         21   -1    0    0  503  504 -0.00000000000E+00 -0.00000000000E+00 -0.56919061234E+02  0.56919061234E+02  0.00000000000E+00 0. -1.
         25    2    1    2    0    0  0.10312605488E+03  0.83470863377E+01  0.18751190503E+03  0.24796974038E+03  0.12499448215E+03 0.  0.
         25    2    1    2    0    0 -0.10312605488E+03 -0.83470863377E+01  0.21992804300E+03  0.27330833013E+03  0.12499776867E+03 0.  0.
          5    1    3    3  501    0  0.27187949916E+02  0.62856076782E+02  0.77403740891E+02  0.10345772138E+03  0.47000000000E+01 0. -1.
         -5    1    3    3    0  501  0.75938104960E+02 -0.54508990445E+02  0.11010816414E+03  0.14451201900E+03  0.47000000000E+01 0. -1.
          5    1    4    4  502    0 -0.50902164545E+02 -0.44285178083E+02  0.19257164147E+03  0.20410324459E+03  0.47000000000E+01 0.  1.
         -5    1    4    4    0  502 -0.52223890331E+02  0.35938091745E+02  0.27356401535E+02  0.69205085540E+02  0.47000000000E+01 0.  1.
<mgrwt>
<rscale>  0 0.32515153E+03</rscale>
<asrwt>0</asrwt>
<pdfrwt beam="1">  1       21 0.71439845E-01 0.32515153E+03</pdfrwt>
<pdfrwt beam="2">  1       21 0.87567790E-02 0.32515153E+03</pdfrwt>
<totfact> 0.17489767E+05</totfact>
</mgrwt>
</event>
<event>
 8    1  0.9400004E-006  0.3514042E+03  0.7546771E-02  0.1062040E+00
         21   -1    0    0  504  503  0.00000000000E+00  0.00000000000E+00  0.18609769344E+02  0.18609769344E+02  0.00000000000E+00 0. -1.
         21   -1    0    0  503  504 -0.00000000000E+00 -0.00000000000E+00 -0.16588722231E+04  0.16588722231E+04  0.00000000000E+00 0. -1.
         25    2    1    2    0    0 -0.10737304794E+03 -0.49967454276E+02 -0.65333134078E+03  0.67564279703E+03  0.12500252167E+03 0.  0.
         25    2    1    2    0    0  0.10737304794E+03  0.49967454276E+02 -0.98693111297E+03  0.10018391954E+04  0.12499213494E+03 0.  0.
          5    1    3    3  501    0 -0.96135735641E+02  0.14346605050E+02 -0.27546632641E+03  0.29215011848E+03  0.47000000000E+01 0.  1.
         -5    1    3    3    0  501 -0.11237312298E+02 -0.64314059326E+02 -0.37786501437E+03  0.38349267855E+03  0.47000000000E+01 0.  1.
          5    1    4    4  502    0  0.41863860659E+02  0.42003157001E+02 -0.13726826078E+03  0.14960452347E+03  0.47000000000E+01 0. -1.
         -5    1    4    4    0  502  0.65509187280E+02  0.79642972752E+01 -0.84966285220E+03  0.85223467194E+03  0.47000000000E+01 0. -1.
<mgrwt>
<rscale>  0 0.35140421E+03</rscale>
<asrwt>0</asrwt>
<pdfrwt beam="1">  1       21 0.28630418E-02 0.35140421E+03</pdfrwt>
<pdfrwt beam="2">  1       21 0.25521108E+00 0.35140421E+03</pdfrwt>
<totfact> 0.38503036E+04</totfact>
</mgrwt>
</event>
<event>
 8    1  0.9400004E-006  0.2882382E+03  0.7546771E-02  0.1091273E+00
         21   -1    0    0  504  503  0.00000000000E+00  0.00000000000E+00  0.11915750679E+03  0.11915750679E+03  0.00000000000E+00 0.  1.
         21   -1    0    0  503  504 -0.00000000000E+00 -0.00000000000E+00 -0.17430969184E+03  0.17430969184E+03  0.00000000000E+00 0.  1.
         25    2    1    2    0    0  0.48963180846E+02 -0.31444221113E+02 -0.70213217587E+02  0.15473190837E+03  0.12500374164E+03 0.  0.
         25    2    1    2    0    0 -0.48963180846E+02  0.31444221113E+02  0.15061032539E+02  0.13873529026E+03  0.12503804998E+03 0.  0.
          5    1    3    3  501    0  0.64556629608E+02 -0.58246046432E+02 -0.83527072958E+02  0.12066077353E+03  0.47000000000E+01 0. -1.
         -5    1    3    3    0  501 -0.15593448762E+02  0.26801825319E+02  0.13313855371E+02  0.34071134844E+02  0.47000000000E+01 0. -1.
          5    1    4    4  502    0 -0.26797229623E+02 -0.21402377872E+02 -0.44214720512E+02  0.56153226123E+02  0.47000000000E+01 0.  1.
         -5    1    4    4    0  502 -0.22165951222E+02  0.52846598985E+02  0.59275753052E+02  0.82582064141E+02  0.47000000000E+01 0.  1.
<mgrwt>
<rscale>  0 0.28823815E+03</rscale>
<asrwt>0</asrwt>
<pdfrwt beam="1">  1       21 0.18331924E-01 0.28823815E+03</pdfrwt>
<pdfrwt beam="2">  1       21 0.26816876E-01 0.28823815E+03</pdfrwt>
<totfact> 0.35198626E+05</totfact>
</mgrwt>
</event>
<event>
 8    1  0.9400004E-006  0.5712460E+03  0.7546771E-02  0.9966925E-01
         21   -1    0    0  504  503  0.00000000000E+00  0.00000000000E+00  0.12273660738E+04  0.12273660738E+04  0.00000000000E+00 0.  1.
         21   -1    0    0  503  504 -0.00000000000E+00 -0.00000000000E+00 -0.66467952788E+02  0.66467952788E+02  0.00000000000E+00 0.  1.
         25    2    1    2    0    0  0.19932478723E+03 -0.14883028300E+03  0.72515939907E+03  0.77675227705E+03  0.12492846713E+03 0.  0.
         25    2    1    2    0    0 -0.19932478723E+03  0.14883028300E+03  0.43573872192E+03  0.51708174952E+03  0.12499791183E+03 0.  0.
          5    1    3    3  501    0  0.93099005515E+02 -0.14283937987E+03  0.48216008678E+03  0.51144007719E+03  0.47000000000E+01 0.  1.
         -5    1    3    3    0  501  0.10622578172E+03 -0.59909031260E+01  0.24299931229E+03  0.26531219986E+03  0.47000000000E+01 0.  1.
          5    1    4    4  502    0 -0.94408890109E+02  0.38494178418E+02  0.28523011077E+03  0.30294082986E+03  0.47000000000E+01 0.  1.
         -5    1    4    4    0  502 -0.10491589712E+03  0.11033610458E+03  0.15050861115E+03  0.21414091966E+03  0.47000000000E+01 0.  1.
<mgrwt>
<rscale>  0 0.57124604E+03</rscale>
<asrwt>0</asrwt>
<pdfrwt beam="1">  1       21 0.18882553E+00 0.57124604E+03</pdfrwt>
<pdfrwt beam="2">  1       21 0.10225840E-01 0.57124604E+03</pdfrwt>
<totfact> 0.10448522E+04</totfact>
</mgrwt>
</event>
<event>
 8    1  0.9400004E-006  0.3322684E+03  0.7546771E-02  0.1070138E+00
         21   -1    0    0  504  503  0.00000000000E+00  0.00000000000E+00  0.85211587458E+02  0.85211587458E+02  0.00000000000E+00 0. -1.
         21   -1    0    0  503  504 -0.00000000000E+00 -0.00000000000E+00 -0.32390636335E+03  0.32390636335E+03  0.00000000000E+00 0. -1.
         25    2    1    2    0    0 -0.16279382131E+02 -0.61621270787E-01  0.13890054414E+02  0.12681591474E+03  0.12499728213E+03 0.  0.
         25    2    1    2    0    0  0.16279382131E+02  0.61621270787E-01 -0.25258483030E+03  0.28230203607E+03  0.12502128215E+03 0.  0.
          5    1    3    3  501    0 -0.80963188218E+00 -0.53881544586E+02  0.37543985760E+02  0.65844644562E+02  0.47000000000E+01 0.  1.
         -5    1    3    3    0  501 -0.15469750249E+02  0.53819923316E+02 -0.23653931346E+02  0.60971270174E+02  0.47000000000E+01 0.  1.
          5    1    4    4  502    0  0.66726161214E+02  0.21167665849E+02 -0.12359314257E+03  0.14211898381E+03  0.47000000000E+01 0.  1.
         -5    1    4    4    0  502 -0.50446779083E+02 -0.21106044578E+02 -0.12899168773E+03  0.14018305226E+03  0.47000000000E+01 0.  1.
<mgrwt>
<rscale>  0 0.33226842E+03</rscale>
<asrwt>0</asrwt>
<pdfrwt beam="1">  1       21 0.13109475E-01 0.33226842E+03</pdfrwt>
<pdfrwt beam="2">  1       21 0.49831748E-01 0.33226842E+03</pdfrwt>
<totfact> 0.18513714E+05</totfact>
</mgrwt>
</event>
<event>
 8    1  0.9400004E-006  0.3085284E+03  0.7546771E-02  0.1081053E+00
         21   -1    0    0  504  503  0.00000000000E+00  0.00000000000E+00  0.50475331973E+03  0.50475331973E+03  0.00000000000E+00 0. -1.
         21   -1    0    0  503  504 -0.00000000000E+00 -0.00000000000E+00 -0.47146671918E+02  0.47146671918E+02  0.00000000000E+00 0. -1.
         25    2    1    2    0    0  0.26914410578E+02 -0.80422443003E+02  0.28482107603E+03  0.32239774844E+03  0.12500043205E+03 0.  0.
         25    2    1    2    0    0 -0.26914410578E+02  0.80422443003E+02  0.17278557178E+03  0.22950224320E+03  0.12499708391E+03 0.  0.
          5    1    3    3  501    0 -0.17687286510E+02 -0.17354403778E+02 -0.20186555149E+01  0.25301786590E+02  0.47000000000E+01 0.  1.
         -5    1    3    3    0  501  0.44601697088E+02 -0.63068039225E+02  0.28683973155E+03  0.29709596185E+03  0.47000000000E+01 0.  1.
          5    1    4    4  502    0 -0.37671988741E+02  0.18910399697E+02 -0.33700293098E+01  0.42546786600E+02  0.47000000000E+01 0.  1.
         -5    1    4    4    0  502  0.10757578163E+02  0.61512043306E+02  0.17615560109E+03  0.18695545660E+03  0.47000000000E+01 0.  1.
<mgrwt>
<rscale>  0 0.30852837E+03</rscale>
<asrwt>0</asrwt>
<pdfrwt beam="1">  1       21 0.77654353E-01 0.30852837E+03</pdfrwt>
<pdfrwt beam="2">  1       21 0.72533345E-02 0.30852837E+03</pdfrwt>
<totfact> 0.20254746E+05</totfact>
</mgrwt>
</event>
<event>
 8    1  0.9400004E-006  0.2929635E+03  0.7546771E-02  0.1088812E+00
         21   -1    0    0  504  503  0.00000000000E+00  0.00000000000E+00  0.40045559405E+03  0.40045559405E+03  0.00000000000E+00 0.  1.
         21   -1    0    0  503  504 -0.00000000000E+00 -0.00000000000E+00 -0.53581243566E+02  0.53581243566E+02  0.00000000000E+00 0.  1.
         25    2    1    2    0    0  0.23171822281E+02 -0.43913482506E+02  0.26333859853E+03  0.29569719240E+03  0.12499713927E+03 0.  0.
         25    2    1    2    0    0 -0.23171822281E+02  0.43913482506E+02  0.83535751953E+02  0.15833964521E+03  0.12501157586E+03 0.  0.
          5    1    3    3  501    0  0.17511276354E+02 -0.44067476095E+02  0.27652263757E+03  0.28059837194E+03  0.47000000000E+01 0.  1.
         -5    1    3    3    0  501  0.56605459263E+01  0.15399358889E+00 -0.13184039033E+02  0.15098820465E+02  0.47000000000E+01 0.  1.
          5    1    4    4  502    0 -0.30862065236E+02  0.85979911584E+02  0.58021778069E+02  0.10832187682E+03  0.47000000000E+01 0.  1.
         -5    1    4    4    0  502  0.76902429556E+01 -0.42066429078E+02  0.25513973884E+02  0.50017768397E+02  0.47000000000E+01 0.  1.
<mgrwt>
<rscale>  0 0.29296354E+03</rscale>
<asrwt>0</asrwt>
<pdfrwt beam="1">  1       21 0.61608551E-01 0.29296354E+03</pdfrwt>
<pdfrwt beam="2">  1       21 0.82432685E-02 0.29296354E+03</pdfrwt>
<totfact> 0.27184649E+05</totfact>
</mgrwt>
</event>
<event>
 8    1  0.9400004E-006  0.5617175E+03  0.7546771E-02  0.9988176E-01
         21   -1    0    0  504  503  0.00000000000E+00  0.00000000000E+00  0.16067527257E+03  0.16067527257E+03  0.00000000000E+00 0.  1.
         21   -1    0    0  503  504 -0.00000000000E+00 -0.00000000000E+00 -0.49093827281E+03  0.49093827281E+03  0.00000000000E+00 0.  1.
         25    2    1    2    0    0  0.20480609750E+03  0.55015645761E+01  0.40862026366E+01  0.24003803020E+03  0.12500301637E+03 0.  0.
         25    2    1    2    0    0 -0.20480609750E+03 -0.55015645761E+01 -0.33434920288E+03  0.41157551518E+03  0.12501684064E+03 0.  0.
          5    1    3    3  501    0  0.16854230629E+03 -0.66145632786E+01 -0.47835099442E+02  0.17538685297E+03  0.47000000000E+01 0. -1.
         -5    1    3    3    0  501  0.36263791216E+02  0.12116127855E+02  0.51921302078E+02  0.64651177228E+02  0.47000000000E+01 0. -1.
          5    1    4    4  502    0 -0.93128321025E+01  0.87598780506E+01 -0.12119786329E+03  0.12196096249E+03  0.47000000000E+01 0. -1.
         -5    1    4    4    0  502 -0.19549326540E+03 -0.14261442627E+02 -0.21315133960E+03  0.28961455270E+03  0.47000000000E+01 0. -1.
<mgrwt>
<rscale>  0 0.56171751E+03</rscale>
<asrwt>0</asrwt>
<pdfrwt beam="1">  1       21 0.24719273E-01 0.56171751E+03</pdfrwt>
<pdfrwt beam="2">  1       21 0.75528965E-01 0.56171751E+03</pdfrwt>
<totfact> 0.21373506E+04</totfact>
</mgrwt>
</event>
<event>
 8    1  0.9400004E-006  0.3596727E+03  0.7546771E-02  0.1058714E+00
         21   -1    0    0  504  503  0.00000000000E+00  0.00000000000E+00  0.54472180852E+02  0.54472180852E+02  0.00000000000E+00 0.  1.
         21   -1    0    0  503  504 -0.00000000000E+00 -0.00000000000E+00 -0.59371795560E+03  0.59371795560E+03  0.00000000000E+00 0.  1.
         25    2    1    2    0    0 -0.55121960487E+02 -0.11214426698E+03 -0.32943495454E+03  0.37385390896E+03  0.12499835530E+03 0.  0.
         25    2    1    2    0    0  0.55121960487E+02  0.11214426698E+03 -0.20981082022E+03  0.27433622750E+03  0.12500007317E+03 0.  0.
          5    1    3    3  501    0 -0.90154309227E+02 -0.82864167980E+02 -0.18175631835E+03  0.21920702330E+03  0.47000000000E+01 0. -1.
         -5    1    3    3    0  501  0.35032348740E+02 -0.29280099001E+02 -0.14767863619E+03  0.15464688565E+03  0.47000000000E+01 0. -1.
          5    1    4    4  502    0 -0.31842045507E+02  0.10163140697E+01 -0.62390852059E+02  0.70211517410E+02  0.47000000000E+01 0. -1.
         -5    1    4    4    0  502  0.86964005994E+02  0.11112795291E+03 -0.14741996816E+03  0.20412471009E+03  0.47000000000E+01 0. -1.
<mgrwt>
<rscale>  0 0.35967269E+03</rscale>
<asrwt>0</asrwt>
<pdfrwt beam="1">  1       21 0.83803352E-02 0.35967269E+03</pdfrwt>
<pdfrwt beam="2">  1       21 0.91341227E-01 0.35967269E+03</pdfrwt>
<totfact> 0.10655360E+05</totfact>
</mgrwt>
</event>
<event>
 8    1  0.9400004E-006  0.2866057E+03  0.7546771E-02  0.1092135E+00
         21   -1    0    0  504  503  0.00000000000E+00  0.00000000000E+00  0.13183680247E+03  0.13183680247E+03  0.00000000000E+00 0.  1.
         21   -1    0    0  503  504 -0.00000000000E+00 -0.00000000000E+00 -0.15576613137E+03  0.15576613137E+03  0.00000000000E+00 0.  1.
         25    2    1    2    0    0  0.29921763014E+02 -0.61902943389E+02  0.16345958700E+01  0.14266141642E+03  0.12498928565E+03 0.  0.
         25    2    1    2    0    0 -0.29921763014E+02  0.61902943389E+02 -0.25563924769E+02  0.14494151743E+03  0.12500897137E+03 0.  0.
          5    1    3    3  501    0 -0.24272103339E+02  0.23025472920E+02  0.21255365589E+02  0.39914758800E+02  0.47000000000E+01 0. -1.
         -5    1    3    3    0  501  0.54193866353E+02 -0.84928416309E+02 -0.19620769719E+02  0.10274665762E+03  0.47000000000E+01 0. -1.
          5    1    4    4  502    0 -0.21492627484E+02 -0.16407118082E+02 -0.54403157735E+02  0.60933735578E+02  0.47000000000E+01 0.  1.
         -5    1    4    4    0  502 -0.84291355300E+01  0.78310061471E+02  0.28839232966E+02  0.84007781850E+02  0.47000000000E+01 0.  1.
<mgrwt>
<rscale>  0 0.28660571E+03</rscale>
<asrwt>0</asrwt>
<pdfrwt beam="1">  1       21 0.20282585E-01 0.28660571E+03</pdfrwt>
<pdfrwt beam="2">  1       21 0.23964020E-01 0.28660571E+03</pdfrwt>
<totfact> 0.36176686E+05</totfact>
</mgrwt>
</event>
<event>
 8    1  0.9400004E-006  0.2718211E+03  0.7546771E-02  0.1100242E+00
         21   -1    0    0  504  503  0.00000000000E+00  0.00000000000E+00  0.61983407455E+02  0.61983407455E+02  0.00000000000E+00 0. -1.
         21   -1    0    0  503  504 -0.00000000000E+00 -0.00000000000E+00 -0.29800996057E+03  0.29800996057E+03  0.00000000000E+00 0. -1.
         25    2    1    2    0    0  0.41756367014E+02  0.29621105572E+02 -0.98250327249E+02  0.16704472517E+03  0.12501923581E+03 0.  0.
         25    2    1    2    0    0 -0.41756367014E+02 -0.29621105572E+02 -0.13777622586E+03  0.19294864285E+03  0.12500354508E+03 0.  0.
          5    1    3    3  501    0 -0.10198400993E+02  0.48281223920E+02 -0.10000165127E+03  0.11161319018E+03  0.47000000000E+01 0. -1.
         -5    1    3    3    0  501  0.51954768007E+02 -0.18660118348E+02  0.17513240207E+01  0.55431534989E+02  0.47000000000E+01 0. -1.
          5    1    4    4  502    0  0.38168002250E+02  0.12785893232E+02 -0.65622282374E+02  0.77127488002E+02  0.47000000000E+01 0.  1.
         -5    1    4    4    0  502 -0.79924369263E+02 -0.42406998804E+02 -0.72153943488E+02  0.11582115485E+03  0.47000000000E+01 0.  1.
<mgrwt>
<rscale>  0 0.27182106E+03</rscale>
<asrwt>0</asrwt>
<pdfrwt beam="1">  1       21 0.95359088E-02 0.27182106E+03</pdfrwt>
<pdfrwt beam="2">  1       21 0.45847687E-01 0.27182106E+03</pdfrwt>
<totfact> 0.39550558E+05</totfact>
</mgrwt>
</event>
<event>
 8    1  0.9400004E-006  0.3410009E+03  0.7546771E-02  0.1066370E+00
         21   -1    0    0  504  503  0.00000000000E+00  0.00000000000E+00  0.17217233563E+03  0.17217233563E+03  0.00000000000E+00 0.  1.
         21   -1    0    0  503  504 -0.00000000000E+00 -0.00000000000E+00 -0.16884479886E+03  0.16884479886E+03  0.00000000000E+00 0.  1.
         25    2    1    2    0    0 -0.35884773236E+02  0.33967201898E+02  0.10657855681E+03  0.17152258903E+03  0.12497808616E+03 0.  0.
         25    2    1    2    0    0  0.35884773236E+02 -0.33967201898E+02 -0.10325102004E+03  0.16949454547E+03  0.12500456011E+03 0.  0.
          5    1    3    3  501    0  0.46760985413E+02  0.12298641869E+02  0.43612412586E+02  0.65283833222E+02  0.47000000000E+01 0. -1.
         -5    1    3    3    0  501 -0.82645758649E+02  0.21668560028E+02  0.62966144227E+02  0.10623875581E+03  0.47000000000E+01 0. -1.
          5    1    4    4  502    0 -0.27446595760E+02  0.13968268177E+02 -0.81137472303E+02  0.86912643191E+02  0.47000000000E+01 0. -1.
         -5    1    4    4    0  502  0.63331368997E+02 -0.47935470075E+02 -0.22113547739E+02  0.82581902278E+02  0.47000000000E+01 0. -1.
<mgrwt>
<rscale>  0 0.34100090E+03</rscale>
<asrwt>0</asrwt>
<pdfrwt beam="1">  1       21 0.26488052E-01 0.34100090E+03</pdfrwt>
<pdfrwt beam="2">  1       21 0.25976123E-01 0.34100090E+03</pdfrwt>
<totfact> 0.18368882E+05</totfact>
</mgrwt>
</event>
<event>
 8    1  0.9400004E-006  0.2829362E+03  0.7546771E-02  0.1094096E+00
         21   -1    0    0  504  503  0.00000000000E+00  0.00000000000E+00  0.13813006632E+03  0.13813006632E+03  0.00000000000E+00 0.  1.
         21   -1    0    0  503  504 -0.00000000000E+00 -0.00000000000E+00 -0.14488683261E+03  0.14488683261E+03  0.00000000000E+00 0.  1.
         25    2    1    2    0    0 -0.41528255491E+01  0.66049715048E+02 -0.59110750784E+01  0.14157228652E+03  0.12501184217E+03 0.  0.
         25    2    1    2    0    0  0.41528255491E+01 -0.66049715048E+02 -0.84569120601E+00  0.14144461241E+03  0.12500420940E+03 0.  0.
          5    1    3    3  501    0  0.15095148388E+02  0.44539901374E+02 -0.62212241495E+02  0.78128863495E+02  0.47000000000E+01 0.  1.
         -5    1    3    3    0  501 -0.19247973937E+02  0.21509813674E+02  0.56301166417E+02  0.63443423023E+02  0.47000000000E+01 0.  1.
          5    1    4    4  502    0  0.13472808860E+02 -0.98023688989E+02  0.21106041149E+02  0.10128037892E+03  0.47000000000E+01 0.  1.
         -5    1    4    4    0  502 -0.93199833109E+01  0.31973973941E+02 -0.21951732355E+02  0.40164233491E+02  0.47000000000E+01 0.  1.
<mgrwt>
<rscale>  0 0.28293623E+03</rscale>
<asrwt>0</asrwt>
<pdfrwt beam="1">  1       21 0.21250780E-01 0.28293623E+03</pdfrwt>
<pdfrwt beam="2">  1       21 0.22290282E-01 0.28293623E+03</pdfrwt>
<totfact> 0.38064511E+05</totfact>
</mgrwt>
</event>
<event>
 8    1  0.9400004E-006  0.3186487E+03  0.7546771E-02  0.1076273E+00
         21   -1    0    0  504  503  0.00000000000E+00  0.00000000000E+00  0.72111932827E+02  0.72111932827E+02  0.00000000000E+00 0.  1.
         21   -1    0    0  503  504 -0.00000000000E+00 -0.00000000000E+00 -0.35201179383E+03  0.35201179383E+03  0.00000000000E+00 0.  1.
         25    2    1    2    0    0  0.88941266821E+02 -0.15374751353E+02 -0.86507213886E+02  0.17678849809E+03  0.12499497222E+03 0.  0.
         25    2    1    2    0    0 -0.88941266821E+02  0.15374751353E+02 -0.19339264712E+03  0.24733522857E+03  0.12500826936E+03 0.  0.
          5    1    3    3  501    0  0.10267552506E+03 -0.48932917949E+02 -0.81229313284E+02  0.13984629148E+03  0.47000000000E+01 0. -1.
         -5    1    3    3    0  501 -0.13734258234E+02  0.33558166596E+02 -0.52779006028E+01  0.36942206611E+02  0.47000000000E+01 0. -1.
          5    1    4    4  502    0  0.30670958040E+02 -0.73043176167E+01 -0.32560839820E+02  0.45567082557E+02  0.47000000000E+01 0. -1.
         -5    1    4    4    0  502 -0.11961222486E+03  0.22679068969E+02 -0.16083180730E+03  0.20176814601E+03  0.47000000000E+01 0. -1.
<mgrwt>
<rscale>  0 0.31864871E+03</rscale>
<asrwt>0</asrwt>
<pdfrwt beam="1">  1       21 0.11094143E-01 0.31864871E+03</pdfrwt>
<pdfrwt beam="2">  1       21 0.54155661E-01 0.31864871E+03</pdfrwt>
<totfact> 0.21050209E+05</totfact>
</mgrwt>
</event>
<event>
 8    1  0.9400004E-006  0.3489864E+03  0.7546771E-02  0.1063032E+00
         21   -1    0    0  504  503  0.00000000000E+00  0.00000000000E+00  0.74969881577E+03  0.74969881577E+03  0.00000000000E+00 0.  1.
         21   -1    0    0  503  504 -0.00000000000E+00 -0.00000000000E+00 -0.40613481885E+02  0.40613481885E+02  0.00000000000E+00 0.  1.
         25    2    1    2    0    0  0.44096158967E+02  0.10926223250E+03  0.28511406409E+03  0.33286257955E+03  0.12499904254E+03 0.  0.
         25    2    1    2    0    0 -0.44096158967E+02 -0.10926223250E+03  0.42397126980E+03  0.45744971811E+03  0.12500360115E+03 0.  0.
          5    1    3    3  501    0  0.21910296636E+02  0.11281023730E+03  0.12021257718E+03  0.16637116472E+03  0.47000000000E+01 0.  1.
         -5    1    3    3    0  501  0.22185862331E+02 -0.35480048056E+01  0.16490148691E+03  0.16649141483E+03  0.47000000000E+01 0.  1.
          5    1    4    4  502    0 -0.23749611086E+02  0.25402969636E+02  0.74596374802E+02  0.82438243715E+02  0.47000000000E+01 0. -1.
         -5    1    4    4    0  502 -0.20346547881E+02 -0.13466520213E+03  0.34937489499E+03  0.37501147440E+03  0.47000000000E+01 0. -1.
<mgrwt>
<rscale>  0 0.34898641E+03</rscale>
<asrwt>0</asrwt>
<pdfrwt beam="1">  1       21 0.11533827E+00 0.34898641E+03</pdfrwt>
<pdfrwt beam="2">  1       21 0.62482285E-02 0.34898641E+03</pdfrwt>
<totfact> 0.10148434E+05</totfact>
</mgrwt>
</event>
<event>
 8    1  0.9400004E-006  0.2609385E+03  0.7546771E-02  0.1106581E+00
         21   -1    0    0  504  503  0.00000000000E+00  0.00000000000E+00  0.65916441856E+03  0.65916441856E+03  0.00000000000E+00 0.  1.
         21   -1    0    0  503  504 -0.00000000000E+00 -0.00000000000E+00 -0.25823954054E+02  0.25823954054E+02  0.00000000000E+00 0.  1.
         25    2    1    2    0    0 -0.33496693174E-01  0.15460266478E+02  0.40596487413E+03  0.42505651715E+03  0.12500617099E+03 0.  0.
         25    2    1    2    0    0  0.33496693174E-01 -0.15460266478E+02  0.22737559038E+03  0.25993185547E+03  0.12500355764E+03 0.  0.
          5    1    3    3  501    0 -0.28177413123E+02 -0.35560457800E+02  0.66781969411E+02  0.80872951026E+02  0.47000000000E+01 0.  1.
         -5    1    3    3    0  501  0.28143916430E+02  0.51020724278E+02  0.33918290472E+03  0.34418356613E+03  0.47000000000E+01 0.  1.
          5    1    4    4  502    0 -0.26435499189E+02  0.30222675637E+02  0.19198930153E+03  0.19619945882E+03  0.47000000000E+01 0. -1.
         -5    1    4    4    0  502  0.26468995882E+02 -0.45682942116E+02  0.35386288851E+02  0.63732396644E+02  0.47000000000E+01 0. -1.
<mgrwt>
<rscale>  0 0.26093855E+03</rscale>
<asrwt>0</asrwt>
<pdfrwt beam="1">  1       21 0.10140990E+00 0.26093855E+03</pdfrwt>
<pdfrwt beam="2">  1       21 0.39729165E-02 0.26093855E+03</pdfrwt>
<totfact> 0.30874429E+05</totfact>
</mgrwt>
</event>
<event>
 8    1  0.9400004E-006  0.3026190E+03  0.7546771E-02  0.1083939E+00
         21   -1    0    0  504  503  0.00000000000E+00  0.00000000000E+00  0.66651807914E+02  0.66651807914E+02  0.00000000000E+00 0. -1.
         21   -1    0    0  503  504 -0.00000000000E+00 -0.00000000000E+00 -0.34349500174E+03  0.34349500174E+03  0.00000000000E+00 0. -1.
         25    2    1    2    0    0 -0.52952333883E+02 -0.51218420918E+02 -0.80270675365E+02  0.16581624375E+03  0.12499747623E+03 0.  0.
         25    2    1    2    0    0  0.52952333883E+02  0.51218420918E+02 -0.19657251846E+03  0.24433056590E+03  0.12501757523E+03 0.  0.
          5    1    3    3  501    0  0.17041245069E+02 -0.59329400706E+02 -0.71623984535E+02  0.94670306762E+02  0.47000000000E+01 0. -1.
         -5    1    3    3    0  501 -0.69993578952E+02  0.81109797882E+01 -0.86466908297E+01  0.71145936988E+02  0.47000000000E+01 0. -1.
          5    1    4    4  502    0  0.15649959389E+02 -0.28287266233E+02 -0.43653239627E+01  0.32958105424E+02  0.47000000000E+01 0.  1.
         -5    1    4    4    0  502  0.37302374494E+02  0.79505687151E+02 -0.19220719450E+03  0.21137246048E+03  0.47000000000E+01 0.  1.
<mgrwt>
<rscale>  0 0.30261899E+03</rscale>
<asrwt>0</asrwt>
<pdfrwt beam="1">  1       21 0.10254124E-01 0.30261899E+03</pdfrwt>
<pdfrwt beam="2">  1       21 0.52845386E-01 0.30261899E+03</pdfrwt>
<totfact> 0.25627482E+05</totfact>
</mgrwt>
</event>
<event>
 8    1  0.9400004E-006  0.3108058E+03  0.7546771E-02  0.1079960E+00
         21   -1    0    0  504  503  0.00000000000E+00  0.00000000000E+00  0.65772831040E+03  0.65772831040E+03  0.00000000000E+00 0.  1.
         21   -1    0    0  503  504 -0.00000000000E+00 -0.00000000000E+00 -0.36717388440E+02  0.36717388440E+02  0.00000000000E+00 0.  1.
         25    2    1    2    0    0 -0.35670769699E+02  0.49340189257E+02  0.46561585077E+03  0.48592950614E+03  0.12499002506E+03 0.  0.
         25    2    1    2    0    0  0.35670769699E+02 -0.49340189257E+02  0.15539507119E+03  0.20851619270E+03  0.12499806551E+03 0.  0.
          5    1    3    3  501    0  0.95528872416E+01  0.48076016391E+02  0.41487233655E+03  0.41778428242E+03  0.47000000000E+01 0. -1.
         -5    1    3    3    0  501 -0.45223656941E+02  0.12641728663E+01  0.50743514222E+02  0.68145223719E+02  0.47000000000E+01 0. -1.
          5    1    4    4  502    0 -0.21973254730E+02 -0.49887811903E+02  0.15090204917E+02  0.56757572044E+02  0.47000000000E+01 0.  1.
         -5    1    4    4    0  502  0.57644024429E+02  0.54762264519E+00  0.14030486627E+03  0.15175862066E+03  0.47000000000E+01 0.  1.
<mgrwt>
<rscale>  0 0.31080583E+03</rscale>
<asrwt>0</asrwt>
<pdfrwt beam="1">  1       21 0.10118896E+00 0.31080583E+03</pdfrwt>
<pdfrwt beam="2">  1       21 0.56488295E-02 0.31080583E+03</pdfrwt>
<totfact> 0.16820038E+05</totfact>
</mgrwt>
</event>
<event>
 8    1  0.9400004E-006  0.3574439E+03  0.7546771E-02  0.1059601E+00
         21   -1    0    0  504  503  0.00000000000E+00  0.00000000000E+00  0.14147343086E+03  0.14147343086E+03  0.00000000000E+00 0.  1.
         21   -1    0    0  503  504 -0.00000000000E+00 -0.00000000000E+00 -0.22577758785E+03  0.22577758785E+03  0.00000000000E+00 0.  1.
         25    2    1    2    0    0  0.61037641466E+02  0.10889948878E+03 -0.14359980561E+02  0.17724643736E+03  0.12500159271E+03 0.  0.
         25    2    1    2    0    0 -0.61037641466E+02 -0.10889948878E+03 -0.69944176431E+02  0.19000458135E+03  0.12499944314E+03 0.  0.
          5    1    3    3  501    0  0.35088210962E+01  0.50430487392E+02  0.51222861627E+02  0.72120852999E+02  0.47000000000E+01 0. -1.
         -5    1    3    3    0  501  0.57528820370E+02  0.58469001391E+02 -0.65582842189E+02  0.10512558436E+03  0.47000000000E+01 0. -1.
          5    1    4    4  502    0 -0.64807042553E+02 -0.11670120066E+03 -0.94449707748E+02  0.16359083194E+03  0.47000000000E+01 0. -1.
         -5    1    4    4    0  502  0.37694010875E+01  0.78017118800E+01  0.24505531317E+02  0.26413749411E+02  0.47000000000E+01 0. -1.
<mgrwt>
<rscale>  0 0.35744387E+03</rscale>
<asrwt>0</asrwt>
<pdfrwt beam="1">  1       21 0.21765143E-01 0.35744387E+03</pdfrwt>
<pdfrwt beam="2">  1       21 0.34735013E-01 0.35744387E+03</pdfrwt>
<totfact> 0.15051754E+05</totfact>
</mgrwt>
</event>
<event>
 8    1  0.9400004E-006  0.2940244E+03  0.7546771E-02  0.1088267E+00
         21   -1    0    0  504  503  0.00000000000E+00  0.00000000000E+00  0.12384293478E+03  0.12384293478E+03  0.00000000000E+00 0.  1.
         21   -1    0    0  503  504 -0.00000000000E+00 -0.00000000000E+00 -0.17451605617E+03  0.17451605617E+03  0.00000000000E+00 0.  1.
         25    2    1    2    0    0 -0.16497823590E+02  0.75000669109E+02 -0.15690557095E+02  0.14754191632E+03  0.12500057975E+03 0.  0.
         25    2    1    2    0    0  0.16497823590E+02 -0.75000669109E+02 -0.34982564290E+02  0.15081707464E+03  0.12499892658E+03 0.  0.
          5    1    3    3  501    0 -0.89183154602E+01  0.58072058963E+02 -0.69091511326E+02  0.90816448511E+02  0.47000000000E+01 0.  1.
         -5    1    3    3    0  501 -0.75795081297E+01  0.16928610145E+02  0.53400954231E+02  0.56725467805E+02  0.47000000000E+01 0.  1.
          5    1    4    4  502    0 -0.15002832752E+02 -0.98806828126E+02 -0.35195553453E+01  0.10011169534E+03  0.47000000000E+01 0.  1.
         -5    1    4    4    0  502  0.31500656342E+02  0.23806159018E+02 -0.31463008944E+02  0.50705379290E+02  0.47000000000E+01 0.  1.
<mgrwt>
<rscale>  0 0.29402436E+03</rscale>
<asrwt>0</asrwt>
<pdfrwt beam="1">  1       21 0.19052759E-01 0.29402436E+03</pdfrwt>
<pdfrwt beam="2">  1       21 0.26848624E-01 0.29402436E+03</pdfrwt>
<totfact> 0.32634288E+05</totfact>
</mgrwt>
</event>
<event>
 8    1  0.9400004E-006  0.3367078E+03  0.7546771E-02  0.1068207E+00
         21   -1    0    0  504  503  0.00000000000E+00  0.00000000000E+00  0.40451571505E+03  0.40451571505E+03  0.00000000000E+00 0. -1.
         21   -1    0    0  503  504 -0.00000000000E+00 -0.00000000000E+00 -0.70066600308E+02  0.70066600308E+02  0.00000000000E+00 0. -1.
         25    2    1    2    0    0 -0.65699927049E+02 -0.85068557831E+02  0.11911292040E+03  0.20338617475E+03  0.12499963332E+03 0.  0.
         25    2    1    2    0    0  0.65699927049E+02  0.85068557831E+02  0.21533619435E+03  0.27119614061E+03  0.12499812054E+03 0.  0.
          5    1    3    3  501    0  0.13107321201E+02 -0.82737099046E+02  0.77000338416E+02  0.11387875809E+03  0.47000000000E+01 0.  1.
         -5    1    3    3    0  501 -0.78807248249E+02 -0.23314587848E+01  0.42112581980E+02  0.89507416663E+02  0.47000000000E+01 0.  1.
          5    1    4    4  502    0 -0.45858481160E+01  0.92403196815E+02  0.13925205388E+03  0.16725012794E+03  0.47000000000E+01 0. -1.
         -5    1    4    4    0  502  0.70285775165E+02 -0.73346389840E+01  0.76084140466E+02  0.10394601267E+03  0.47000000000E+01 0. -1.
<mgrwt>
<rscale>  0 0.33670783E+03</rscale>
<asrwt>0</asrwt>
<pdfrwt beam="1">  1       21 0.62233185E-01 0.33670783E+03</pdfrwt>
<pdfrwt beam="2">  1       21 0.10779477E-01 0.33670783E+03</pdfrwt>
<totfact> 0.16346435E+05</totfact>
</mgrwt>
</event>
<event>
 8    1  0.9400004E-006  0.4159251E+03  0.7546771E-02  0.1038401E+00
         21   -1    0    0  504  503  0.00000000000E+00  0.00000000000E+00  0.12595868884E+04  0.12595868884E+04  0.00000000000E+00 0.  1.
         21   -1    0    0  503  504 -0.00000000000E+00 -0.00000000000E+00 -0.34335405535E+02  0.34335405535E+02  0.00000000000E+00 0.  1.
         25    2    1    2    0    0  0.82987986317E+02 -0.12306783612E+03  0.38000453721E+03  0.42668575950E+03  0.12499836358E+03 0.  0.
         25    2    1    2    0    0 -0.82987986317E+02  0.12306783612E+03  0.84524694568E+03  0.86723653446E+03  0.12499643740E+03 0.  0.
          5    1    3    3  501    0  0.26852667995E+02  0.10482232708E+02  0.12759652893E+02  0.31872272007E+02  0.47000000000E+01 0. -1.
         -5    1    3    3    0  501  0.56135318322E+02 -0.13355006883E+03  0.36724488432E+03  0.39481348749E+03  0.47000000000E+01 0. -1.
          5    1    4    4  502    0 -0.93060952251E+02  0.11067289910E+03  0.47331941175E+03  0.49493654843E+03  0.47000000000E+01 0.  1.
         -5    1    4    4    0  502  0.10072965934E+02  0.12394937021E+02  0.37192753393E+03  0.37229998603E+03  0.47000000000E+01 0.  1.
<mgrwt>
<rscale>  0 0.41592512E+03</rscale>
<asrwt>0</asrwt>
<pdfrwt beam="1">  1       21 0.19378256E+00 0.41592512E+03</pdfrwt>
<pdfrwt beam="2">  1       21 0.52823710E-02 0.41592512E+03</pdfrwt>
<totfact> 0.32499964E+04</totfact>
</mgrwt>
</event>
<event>
 8    1  0.9400004E-006  0.3070310E+03  0.7546771E-02  0.1081778E+00
         21   -1    0    0  504  503  0.00000000000E+00  0.00000000000E+00  0.11985808546E+02  0.11985808546E+02  0.00000000000E+00 0. -1.
         21   -1    0    0  503  504 -0.00000000000E+00 -0.00000000000E+00 -0.19662430117E+04  0.19662430117E+04  0.00000000000E+00 0. -1.
         25    2    1    2    0    0 -0.21915526705E+02 -0.83328723184E+02 -0.11229716631E+04  0.11331929869E+04  0.12504808308E+03 0.  0.
         25    2    1    2    0    0  0.21915526705E+02  0.83328723184E+02 -0.83128554002E+03  0.84503583328E+03  0.12500377622E+03 0.  0.
          5    1    3    3  501    0 -0.24896373005E+02 -0.99582355477E+02 -0.52427042723E+03  0.53424530487E+03  0.47000000000E+01 0.  1.
         -5    1    3    3    0  501  0.29808462997E+01  0.16253632293E+02 -0.59870123588E+03  0.59894768207E+03  0.47000000000E+01 0.  1.
          5    1    4    4  502    0  0.18808629564E+02  0.73238435839E+01 -0.15963955041E+02  0.26159913827E+02  0.47000000000E+01 0. -1.
         -5    1    4    4    0  502  0.31068971417E+01  0.76004879600E+02 -0.81532158498E+03  0.81887591945E+03  0.47000000000E+01 0. -1.
<mgrwt>
<rscale>  0 0.30703102E+03</rscale>
<asrwt>0</asrwt>
<pdfrwt beam="1">  1       21 0.18439693E-02 0.30703102E+03</pdfrwt>
<pdfrwt beam="2">  1       21 0.30249913E+00 0.30703102E+03</pdfrwt>
<totfact> 0.42673726E+04</totfact>
</mgrwt>
</event>
<event>
 8    1  0.9400004E-006  0.2932849E+03  0.7546771E-02  0.1088646E+00
         21   -1    0    0  504  503  0.00000000000E+00  0.00000000000E+00  0.30327439189E+03  0.30327439189E+03  0.00000000000E+00 0.  1.
         21   -1    0    0  503  504 -0.00000000000E+00 -0.00000000000E+00 -0.70906093284E+02  0.70906093284E+02  0.00000000000E+00 0.  1.
         25    2    1    2    0    0  0.42731014513E+02 -0.13001716563E+02  0.19571691190E+03  0.23647152554E+03  0.12497475166E+03 0.  0.
         25    2    1    2    0    0 -0.42731014513E+02  0.13001716563E+02  0.36651386709E+02  0.13770895963E+03  0.12500179671E+03 0.  0.
          5    1    3    3  501    0  0.49187135834E+02  0.44658630241E+02  0.14378989593E+03  0.15846574316E+03  0.47000000000E+01 0.  1.
         -5    1    3    3    0  501 -0.64561213218E+01 -0.57660346804E+02  0.51927015972E+02  0.78005782374E+02  0.47000000000E+01 0.  1.
          5    1    4    4  502    0 -0.22946766291E+02  0.90780420509E+01 -0.46048745190E+02  0.52455141447E+02  0.47000000000E+01 0. -1.
         -5    1    4    4    0  502 -0.19784248222E+02  0.39236745120E+01  0.82700131899E+02  0.85253818188E+02  0.47000000000E+01 0. -1.
<mgrwt>
<rscale>  0 0.29328486E+03</rscale>
<asrwt>0</asrwt>
<pdfrwt beam="1">  1       21 0.46657598E-01 0.29328486E+03</pdfrwt>
<pdfrwt beam="2">  1       21 0.10908630E-01 0.29328486E+03</pdfrwt>
<totfact> 0.29873414E+05</totfact>
</mgrwt>
</event>
<event>
 8    1  0.9400004E-006  0.2911124E+03  0.7546771E-02  0.1089770E+00
         21   -1    0    0  504  503  0.00000000000E+00  0.00000000000E+00  0.15793399045E+03  0.15793399045E+03  0.00000000000E+00 0.  1.
         21   -1    0    0  503  504 -0.00000000000E+00 -0.00000000000E+00 -0.13414845729E+03  0.13414845729E+03  0.00000000000E+00 0.  1.
         25    2    1    2    0    0  0.31860247332E+02 -0.65755906237E+02  0.26878634133E+02  0.14725868304E+03  0.12499497667E+03 0.  0.
         25    2    1    2    0    0 -0.31860247332E+02  0.65755906237E+02 -0.30931009715E+01  0.14482376469E+03  0.12500176391E+03 0.  0.
          5    1    3    3  501    0 -0.45793324965E+02 -0.44035747357E+02  0.70804573259E+01  0.64096790345E+02  0.47000000000E+01 0. -1.
         -5    1    3    3    0  501  0.77653572296E+02 -0.21720158879E+02  0.19798176807E+02  0.83161892698E+02  0.47000000000E+01 0. -1.
          5    1    4    4  502    0 -0.43289870996E+02 -0.18807405824E+02  0.26562016428E+02  0.54363242742E+02  0.47000000000E+01 0.  1.
         -5    1    4    4    0  502  0.11429623664E+02  0.84563312061E+02 -0.29655117400E+02  0.90460521952E+02  0.47000000000E+01 0.  1.
<mgrwt>
<rscale>  0 0.29111236E+03</rscale>
<asrwt>0</asrwt>
<pdfrwt beam="1">  1       21 0.24297537E-01 0.29111236E+03</pdfrwt>
<pdfrwt beam="2">  1       21 0.20638224E-01 0.29111236E+03</pdfrwt>
<totfact> 0.34061983E+05</totfact>
</mgrwt>
</event>
<event>
 8    1  0.9400004E-006  0.2785019E+03  0.7546771E-02  0.1096510E+00
         21   -1    0    0  504  503  0.00000000000E+00  0.00000000000E+00  0.39420501339E+02  0.39420501339E+02  0.00000000000E+00 0.  1.
         21   -1    0    0  503  504 -0.00000000000E+00 -0.00000000000E+00 -0.49189703815E+03  0.49189703815E+03  0.00000000000E+00 0.  1.
         25    2    1    2    0    0  0.29114794522E+02 -0.45431354979E+02 -0.28198738559E+03  0.31313739075E+03  0.12500584217E+03 0.  0.
         25    2    1    2    0    0 -0.29114794522E+02  0.45431354979E+02 -0.17048915123E+03  0.21818014875E+03  0.12499738936E+03 0.  0.
          5    1    3    3  501    0  0.52061864797E+02  0.64069763001E+01 -0.23040728895E+03  0.23634952065E+03  0.47000000000E+01 0.  1.
         -5    1    3    3    0  501 -0.22947070275E+02 -0.51838331280E+02 -0.51580096636E+02  0.76787870091E+02  0.47000000000E+01 0.  1.
          5    1    4    4  502    0 -0.74866426384E+01 -0.32275043773E+02 -0.47544890156E+01  0.33799754945E+02  0.47000000000E+01 0. -1.
         -5    1    4    4    0  502 -0.21628151884E+02  0.77706398752E+02 -0.16573466221E+03  0.18438039380E+03  0.47000000000E+01 0. -1.
<mgrwt>
<rscale>  0 0.27850191E+03</rscale>
<asrwt>0</asrwt>
<pdfrwt beam="1">  1       21 0.60646923E-02 0.27850191E+03</pdfrwt>
<pdfrwt beam="2">  1       21 0.75676470E-01 0.27850191E+03</pdfrwt>
<totfact> 0.29507974E+05</totfact>
</mgrwt>
</event>
<event>
 8    1  0.9400004E-006  0.3226281E+03  0.7546771E-02  0.1074446E+00
         21   -1    0    0  504  503  0.00000000000E+00  0.00000000000E+00  0.42486822093E+02  0.42486822093E+02  0.00000000000E+00 0.  1.
         21   -1    0    0  503  504 -0.00000000000E+00 -0.00000000000E+00 -0.61247756343E+03  0.61247756343E+03  0.00000000000E+00 0.  1.
         25    2    1    2    0    0  0.43104747001E+02  0.37848935427E+02 -0.45615176964E+03  0.47643464950E+03  0.12499990868E+03 0.  0.
         25    2    1    2    0    0 -0.43104747001E+02 -0.37848935427E+02 -0.11383897170E+03  0.17852973603E+03  0.12499197591E+03 0.  0.
          5    1    3    3  501    0  0.75755162278E+02  0.45441581238E+02 -0.40859207898E+03  0.41805903761E+03  0.47000000000E+01 0.  1.
         -5    1    3    3    0  501 -0.32650415277E+02 -0.75926458115E+01 -0.47559690655E+02  0.58375611889E+02  0.47000000000E+01 0.  1.
          5    1    4    4  502    0 -0.40127784971E+02 -0.44678121600E+02  0.39930493778E+01  0.60368933399E+02  0.47000000000E+01 0. -1.
         -5    1    4    4    0  502 -0.29769620295E+01  0.68291861737E+01 -0.11783202108E+03  0.11816080263E+03  0.47000000000E+01 0. -1.
<mgrwt>
<rscale>  0 0.32262812E+03</rscale>
<asrwt>0</asrwt>
<pdfrwt beam="1">  1       21 0.65364343E-02 0.32262812E+03</pdfrwt>
<pdfrwt beam="2">  1       21 0.94227316E-01 0.32262812E+03</pdfrwt>
<totfact> 0.15446125E+05</totfact>
</mgrwt>
</event>
<event>
 8    1  0.9400004E-006  0.4870307E+03  0.7546771E-02  0.1017221E+00
         21   -1    0    0  504  503  0.00000000000E+00  0.00000000000E+00  0.28201642581E+03  0.28201642581E+03  0.00000000000E+00 0. -1.
         21   -1    0    0  503  504 -0.00000000000E+00 -0.00000000000E+00 -0.21027049231E+03  0.21027049231E+03  0.00000000000E+00 0. -1.
         25    2    1    2    0    0 -0.14614586069E+03  0.10733903736E+03 -0.69136953217E+02  0.23084134089E+03  0.12501009890E+03 0.  0.
         25    2    1    2    0    0  0.14614586069E+03 -0.10733903736E+03  0.14088288671E+03  0.26144557723E+03  0.12500208217E+03 0.  0.
          5    1    3    3  501    0 -0.17039703811E+02  0.83525889227E+02 -0.47510860832E+02  0.97705156334E+02  0.47000000000E+01 0. -1.
         -5    1    3    3    0  501 -0.12910615688E+03  0.23813148131E+02 -0.21626092385E+02  0.13313618456E+03  0.47000000000E+01 0. -1.
          5    1    4    4  502    0  0.12876285587E+03 -0.12575034673E+03  0.83325080413E+02  0.19838896587E+03  0.47000000000E+01 0. -1.
         -5    1    4    4    0  502  0.17383004822E+02  0.18411309377E+02  0.57557806297E+02  0.63056611353E+02  0.47000000000E+01 0. -1.
<mgrwt>
<rscale>  0 0.48703073E+03</rscale>
<asrwt>0</asrwt>
<pdfrwt beam="1">  1       21 0.43387142E-01 0.48703073E+03</pdfrwt>
<pdfrwt beam="2">  1       21 0.32349307E-01 0.48703073E+03</pdfrwt>
<totfact> 0.42778496E+04</totfact>
</mgrwt>
</event>
<event>
 8    1  0.9400004E-006  0.2787949E+03  0.7546771E-02  0.1096349E+00
         21   -1    0    0  504  503  0.00000000000E+00  0.00000000000E+00  0.26770511939E+02  0.26770511939E+02  0.00000000000E+00 0. -1.
         21   -1    0    0  503  504 -0.00000000000E+00 -0.00000000000E+00 -0.72586010891E+03  0.72586010891E+03  0.00000000000E+00 0. -1.
         25    2    1    2    0    0  0.45360928924E+02 -0.35408865520E+02 -0.28947896099E+03  0.32052368998E+03  0.12500386137E+03 0.  0.
         25    2    1    2    0    0 -0.45360928924E+02  0.35408865520E+02 -0.40961063599E+03  0.43210693087E+03  0.12499649978E+03 0.  0.
          5    1    3    3  501    0 -0.25688132371E+02 -0.56324318619E+02 -0.15413478769E+03  0.16616838385E+03  0.47000000000E+01 0. -1.
         -5    1    3    3    0  501  0.71049061295E+02  0.20915453099E+02 -0.13534417329E+03  0.15435530614E+03  0.47000000000E+01 0. -1.
          5    1    4    4  502    0 -0.66998884479E+02 -0.91511664836E+01 -0.33909248503E+03  0.34580109568E+03  0.47000000000E+01 0.  1.
         -5    1    4    4    0  502  0.21637955555E+02  0.44560032004E+02 -0.70518150962E+02  0.86305835190E+02  0.47000000000E+01 0.  1.
<mgrwt>
<rscale>  0 0.27879488E+03</rscale>
<asrwt>0</asrwt>
<pdfrwt beam="1">  1       21 0.41185400E-02 0.27879488E+03</pdfrwt>
<pdfrwt beam="2">  1       21 0.11167079E+00 0.27879488E+03</pdfrwt>
<totfact> 0.22878489E+05</totfact>
</mgrwt>
</event>
<event>
 8    1  0.9400004E-006  0.2664613E+03  0.7546771E-02  0.1103322E+00
         21   -1    0    0  504  503  0.00000000000E+00  0.00000000000E+00  0.10917097129E+03  0.10917097129E+03  0.00000000000E+00 0. -1.
         21   -1    0    0  503  504 -0.00000000000E+00 -0.00000000000E+00 -0.16259277610E+03  0.16259277610E+03  0.00000000000E+00 0. -1.
         25    2    1    2    0    0 -0.23306748325E+01 -0.22345783818E+02 -0.67784022194E+02  0.14395578032E+03  0.12499530761E+03 0.  0.
         25    2    1    2    0    0  0.23306748325E+01  0.22345783818E+02  0.14362217383E+02  0.12780796708E+03  0.12499534816E+03 0.  0.
          5    1    3    3  501    0  0.53300734301E+02 -0.34530856626E+02 -0.57689062728E+02  0.85927098722E+02  0.47000000000E+01 0.  1.
         -5    1    3    3    0  501 -0.55631409133E+02  0.12185072807E+02 -0.10094959466E+02  0.58028681599E+02  0.47000000000E+01 0.  1.
          5    1    4    4  502    0 -0.22489259040E+02  0.46295954387E+02 -0.38546626611E+02  0.64474914408E+02  0.47000000000E+01 0.  1.
         -5    1    4    4    0  502  0.24819933872E+02 -0.23950170569E+02  0.52908843993E+02  0.63333052669E+02  0.47000000000E+01 0.  1.
<mgrwt>
<rscale>  0 0.26646134E+03</rscale>
<asrwt>0</asrwt>
<pdfrwt beam="1">  1       21 0.16795534E-01 0.26646134E+03</pdfrwt>
<pdfrwt beam="2">  1       21 0.25014273E-01 0.26646134E+03</pdfrwt>
<totfact> 0.47572220E+05</totfact>
</mgrwt>
</event>
<event>
 8    1  0.9400004E-006  0.2695164E+03  0.7546771E-02  0.1101557E+00
         21   -1    0    0  504  503  0.00000000000E+00  0.00000000000E+00  0.21978160855E+03  0.21978160855E+03  0.00000000000E+00 0.  1.
         21   -1    0    0  503  504 -0.00000000000E+00 -0.00000000000E+00 -0.82626414267E+02  0.82626414267E+02  0.00000000000E+00 0.  1.
         25    2    1    2    0    0 -0.25162937658E+02 -0.44321567680E+01  0.19913873462E+02  0.12913451535E+03  0.12500537289E+03 0.  0.
         25    2    1    2    0    0  0.25162937658E+02  0.44321567680E+01  0.11724132082E+03  0.17327350747E+03  0.12500145454E+03 0.  0.
          5    1    3    3  501    0 -0.34081593365E+02 -0.24517310873E+02 -0.44232237059E+02  0.61165630332E+02  0.47000000000E+01 0.  1.
         -5    1    3    3    0  501  0.89186557070E+01  0.20085154105E+02  0.64146110520E+02  0.67968885013E+02  0.47000000000E+01 0.  1.
          5    1    4    4  502    0 -0.79794442827E+01 -0.51236505621E+02  0.18850264528E+02  0.55373942537E+02  0.47000000000E+01 0. -1.
         -5    1    4    4    0  502  0.33142381940E+02  0.55668662389E+02  0.98391056289E+02  0.11789956493E+03  0.47000000000E+01 0. -1.
<mgrwt>
<rscale>  0 0.26951635E+03</rscale>
<asrwt>0</asrwt>
<pdfrwt beam="1">  1       21 0.33812555E-01 0.26951635E+03</pdfrwt>
<pdfrwt beam="2">  1       21 0.12711756E-01 0.26951635E+03</pdfrwt>
<totfact> 0.43897938E+05</totfact>
</mgrwt>
</event>
<event>
 8    1  0.9400004E-006  0.2924204E+03  0.7546771E-02  0.1089092E+00
         21   -1    0    0  504  503  0.00000000000E+00  0.00000000000E+00  0.98287282450E+02  0.98287282450E+02  0.00000000000E+00 0. -1.
         21   -1    0    0  503  504 -0.00000000000E+00 -0.00000000000E+00 -0.21749934822E+03  0.21749934822E+03  0.00000000000E+00 0. -1.
         25    2    1    2    0    0  0.37006609446E+02  0.66101164389E+02 -0.55524603443E+02  0.15635561154E+03  0.12500097038E+03 0.  0.
         25    2    1    2    0    0 -0.37006609446E+02 -0.66101164389E+02 -0.63687462323E+02  0.15943101913E+03  0.12499321552E+03 0.  0.
          5    1    3    3  501    0  0.74113226168E+02  0.18022324436E+02 -0.39156273810E+01  0.76517949586E+02  0.47000000000E+01 0.  1.
         -5    1    3    3    0  501 -0.37106616722E+02  0.48078839954E+02 -0.51608976062E+02  0.79837661953E+02  0.47000000000E+01 0.  1.
          5    1    4    4  502    0 -0.54794268099E+02 -0.89769370726E+02 -0.72919635219E+02  0.12806371437E+03  0.47000000000E+01 0. -1.
         -5    1    4    4    0  502  0.17787658654E+02  0.23668206336E+02  0.92321728967E+01  0.31367304761E+02  0.47000000000E+01 0. -1.
<mgrwt>
<rscale>  0 0.29242038E+03</rscale>
<asrwt>0</asrwt>
<pdfrwt beam="1">  1       21 0.15121120E-01 0.29242038E+03</pdfrwt>
<pdfrwt beam="2">  1       21 0.33461438E-01 0.29242038E+03</pdfrwt>
<totfact> 0.32512065E+05</totfact>
</mgrwt>
</event>
<event>
 8    1  0.9400004E-006  0.4449522E+03  0.7546771E-02  0.1029238E+00
         21   -1    0    0  504  503  0.00000000000E+00  0.00000000000E+00  0.22076209763E+03  0.22076209763E+03  0.00000000000E+00 0.  1.
         21   -1    0    0  503  504 -0.00000000000E+00 -0.00000000000E+00 -0.22420342518E+03  0.22420342518E+03  0.00000000000E+00 0.  1.
         25    2    1    2    0    0 -0.98525029564E+02 -0.13754856021E+03 -0.74133164855E+02  0.22304290117E+03  0.12500248704E+03 0.  0.
         25    2    1    2    0    0  0.98525029564E+02  0.13754856021E+03  0.70691837312E+02  0.22192262164E+03  0.12500210505E+03 0.  0.
          5    1    3    3  501    0  0.28810258093E+02 -0.26971872217E+02 -0.26384065548E+02  0.47704525751E+02  0.47000000000E+01 0.  1.
         -5    1    3    3    0  501 -0.12733528766E+03 -0.11057668799E+03 -0.47749099306E+02  0.17533837542E+03  0.47000000000E+01 0.  1.
          5    1    4    4  502    0 -0.59293672701E+01  0.86038875040E+02  0.15212189657E+01  0.86384312936E+02  0.47000000000E+01 0.  1.
         -5    1    4    4    0  502  0.10445439683E+03  0.51509685167E+02  0.69170618346E+02  0.13553830870E+03  0.47000000000E+01 0.  1.
<mgrwt>
<rscale>  0 0.44495222E+03</rscale>
<asrwt>0</asrwt>
<pdfrwt beam="1">  1       21 0.33963400E-01 0.44495222E+03</pdfrwt>
<pdfrwt beam="2">  1       21 0.34492834E-01 0.44495222E+03</pdfrwt>
<totfact> 0.62656547E+04</totfact>
</mgrwt>
</event>
<event>
 8    1  0.9400004E-006  0.3198365E+03  0.7546771E-02  0.1075725E+00
         21   -1    0    0  504  503  0.00000000000E+00  0.00000000000E+00  0.40123369440E+02  0.40123369440E+02  0.00000000000E+00 0. -1.
         21   -1    0    0  503  504 -0.00000000000E+00 -0.00000000000E+00 -0.63738044610E+03  0.63738044610E+03  0.00000000000E+00 0. -1.
         25    2    1    2    0    0 -0.38953149468E+02  0.84030226537E+02 -0.37704535369E+03  0.40788075652E+03  0.12500034388E+03 0.  0.
         25    2    1    2    0    0  0.38953149468E+02 -0.84030226537E+02 -0.22021172296E+03  0.26962305902E+03  0.12499985680E+03 0.  0.
          5    1    3    3  501    0  0.10269685854E+02 -0.13299493566E+02 -0.19377705915E+03  0.19456099719E+03  0.47000000000E+01 0. -1.
         -5    1    3    3    0  501 -0.49222835322E+02  0.97329720102E+02 -0.18326829455E+03  0.21331975932E+03  0.47000000000E+01 0. -1.
          5    1    4    4  502    0  0.25633907698E+02  0.30526005765E+02 -0.55293186351E+02  0.68325403099E+02  0.47000000000E+01 0. -1.
         -5    1    4    4    0  502  0.13319241770E+02 -0.11455623230E+03 -0.16491853661E+03  0.20129765592E+03  0.47000000000E+01 0. -1.
<mgrwt>
<rscale>  0 0.31983653E+03</rscale>
<asrwt>0</asrwt>
<pdfrwt beam="1">  1       21 0.61728262E-02 0.31983653E+03</pdfrwt>
<pdfrwt beam="2">  1       21 0.98058528E-01 0.31983653E+03</pdfrwt>
<totfact> 0.15526250E+05</totfact>
</mgrwt>
</event>
<event>
 8    1  0.9400004E-006  0.4128961E+03  0.7546771E-02  0.1039403E+00
         21   -1    0    0  504  503  0.00000000000E+00  0.00000000000E+00  0.86508836476E+03  0.86508836476E+03  0.00000000000E+00 0. -1.
         21   -1    0    0  503  504 -0.00000000000E+00 -0.00000000000E+00 -0.49267573786E+02  0.49267573786E+02  0.00000000000E+00 0. -1.
         25    2    1    2    0    0 -0.22898518068E+02  0.10038618524E+03  0.12438868380E+03  0.20421091009E+03  0.12501129080E+03 0.  0.
         25    2    1    2    0    0  0.22898518068E+02 -0.10038618524E+03  0.69143210718E+03  0.71014502846E+03  0.12500349711E+03 0.  0.
          5    1    3    3  501    0  0.32647385871E+02 -0.11961129664E+02  0.16490127712E+02  0.38767702267E+02  0.47000000000E+01 0.  1.
         -5    1    3    3    0  501 -0.55545903939E+02  0.11234731490E+03  0.10789855608E+03  0.16544320782E+03  0.47000000000E+01 0.  1.
          5    1    4    4  502    0 -0.28014345901E+02 -0.84255217514E+02  0.57658066110E+03  0.58339617243E+03  0.47000000000E+01 0. -1.
         -5    1    4    4    0  502  0.50912863969E+02 -0.16130967722E+02  0.11485144608E+03  0.12674885602E+03  0.47000000000E+01 0. -1.
<mgrwt>
<rscale>  0 0.41289614E+03</rscale>
<asrwt>0</asrwt>
<pdfrwt beam="1">  1       21 0.13309051E+00 0.41289614E+03</pdfrwt>
<pdfrwt beam="2">  1       21 0.75796274E-02 0.41289614E+03</pdfrwt>
<totfact> 0.49395724E+04</totfact>
</mgrwt>
</event>
<event>
 8    1  0.9400004E-006  0.3745782E+03  0.7546771E-02  0.1052956E+00
         21   -1    0    0  504  503  0.00000000000E+00  0.00000000000E+00  0.12897729878E+03  0.12897729878E+03  0.00000000000E+00 0.  1.
         21   -1    0    0  503  504 -0.00000000000E+00 -0.00000000000E+00 -0.27196423650E+03  0.27196423650E+03  0.00000000000E+00 0.  1.
         25    2    1    2    0    0  0.11833555936E+02  0.11702458188E+03  0.87487450379E+01  0.17185751433E+03  0.12499471542E+03 0.  0.
         25    2    1    2    0    0 -0.11833555936E+02 -0.11702458188E+03 -0.15173568275E+03  0.22908402096E+03  0.12498394068E+03 0.  0.
          5    1    3    3  501    0  0.37397939625E+02  0.91699474641E+02  0.54756495910E+02  0.11325971650E+03  0.47000000000E+01 0. -1.
         -5    1    3    3    0  501 -0.25564383689E+02  0.25325107234E+02 -0.46007750872E+02  0.58597797826E+02  0.47000000000E+01 0. -1.
          5    1    4    4  502    0  0.15531989288E+01 -0.12729198230E+03 -0.69719839019E+02  0.14521916931E+03  0.47000000000E+01 0. -1.
         -5    1    4    4    0  502 -0.13386754865E+02  0.10267400420E+02 -0.82015843735E+02  0.83864851641E+02  0.47000000000E+01 0. -1.
<mgrwt>
<rscale>  0 0.37457823E+03</rscale>
<asrwt>0</asrwt>
<pdfrwt beam="1">  1       21 0.19842662E-01 0.37457823E+03</pdfrwt>
<pdfrwt beam="2">  1       21 0.41840651E-01 0.37457823E+03</pdfrwt>
<totfact> 0.12238873E+05</totfact>
</mgrwt>
</event>
<event>
 8    1  0.9400004E-006  0.5651101E+03  0.7546771E-02  0.9980558E-01
         21   -1    0    0  504  503  0.00000000000E+00  0.00000000000E+00  0.16893782271E+03  0.16893782271E+03  0.00000000000E+00 0. -1.
         21   -1    0    0  503  504 -0.00000000000E+00 -0.00000000000E+00 -0.47258422149E+03  0.47258422149E+03  0.00000000000E+00 0. -1.
         25    2    1    2    0    0 -0.19409873301E+03 -0.15600637916E+03 -0.98593883418E+02  0.29556737634E+03  0.12500804620E+03 0.  0.
         25    2    1    2    0    0  0.19409873301E+03  0.15600637916E+03 -0.20505251537E+03  0.34595466785E+03  0.12500315859E+03 0.  0.
          5    1    3    3  501    0 -0.14870944858E+03 -0.16892852054E+03 -0.10374179342E+03  0.24786245147E+03  0.47000000000E+01 0.  1.
         -5    1    3    3    0  501 -0.45389284433E+02  0.12922141384E+02  0.51479099997E+01  0.47704924868E+02  0.47000000000E+01 0.  1.
          5    1    4    4  502    0  0.15198288300E+03  0.17452836031E+03 -0.16001156061E+03  0.28139782303E+03  0.47000000000E+01 0.  1.
         -5    1    4    4    0  502  0.42115850014E+02 -0.18521981153E+02 -0.45040954762E+02  0.64556844828E+02  0.47000000000E+01 0.  1.
<mgrwt>
<rscale>  0 0.56511008E+03</rscale>
<asrwt>0</asrwt>
<pdfrwt beam="1">  1       21 0.25990435E-01 0.56511008E+03</pdfrwt>
<pdfrwt beam="2">  1       21 0.72705264E-01 0.56511008E+03</pdfrwt>
<totfact> 0.21125144E+04</totfact>
</mgrwt>
</event>
<event>
 8    1  0.9400004E-006  0.3001709E+03  0.7546771E-02  0.1085155E+00
         21   -1    0    0  504  503  0.00000000000E+00  0.00000000000E+00  0.51396315093E+03  0.51396315093E+03  0.00000000000E+00 0. -1.
         21   -1    0    0  503  504 -0.00000000000E+00 -0.00000000000E+00 -0.43827344273E+02  0.43827344273E+02  0.00000000000E+00 0. -1.
         25    2    1    2    0    0  0.99216420388E+00 -0.25529637175E+02  0.38195660667E+03  0.40270074712E+03  0.12499718232E+03 0.  0.
         25    2    1    2    0    0 -0.99216420388E+00  0.25529637175E+02  0.88179199991E+02  0.15508974809E+03  0.12499804753E+03 0.  0.
          5    1    3    3  501    0 -0.25773615450E+02 -0.14481931744E+02  0.36969696565E+03  0.37090691826E+03  0.47000000000E+01 0. -1.
         -5    1    3    3    0  501  0.26765779654E+02 -0.11047705431E+02  0.12259641019E+02  0.31793828861E+02  0.47000000000E+01 0. -1.
          5    1    4    4  502    0  0.10218901975E+02  0.52985831728E+02  0.10680485025E+03  0.11975512665E+03  0.47000000000E+01 0.  1.
         -5    1    4    4    0  502 -0.11211066179E+02 -0.27456194553E+02 -0.18625650263E+02  0.35334621435E+02  0.47000000000E+01 0.  1.
<mgrwt>
<rscale>  0 0.30017088E+03</rscale>
<asrwt>0</asrwt>
<pdfrwt beam="1">  1       21 0.79071249E-01 0.30017088E+03</pdfrwt>
<pdfrwt beam="2">  1       21 0.67426687E-02 0.30017088E+03</pdfrwt>
<totfact> 0.22119314E+05</totfact>
</mgrwt>
</event>
<event>
 8    1  0.9400004E-006  0.4231462E+03  0.7546771E-02  0.1036047E+00
         21   -1    0    0  504  503  0.00000000000E+00  0.00000000000E+00  0.22245988014E+03  0.22245988014E+03  0.00000000000E+00 0.  1.
         21   -1    0    0  503  504 -0.00000000000E+00 -0.00000000000E+00 -0.20121907203E+03  0.20121907203E+03  0.00000000000E+00 0.  1.
         25    2    1    2    0    0 -0.16009940568E+03  0.39963190483E+02  0.54431245741E+02  0.21403385390E+03  0.12497541283E+03 0.  0.
         25    2    1    2    0    0  0.16009940568E+03 -0.39963190483E+02 -0.33190437625E+02  0.20964509827E+03  0.12498234189E+03 0.  0.
          5    1    3    3  501    0  0.75564349441E-01  0.32927360882E+02 -0.18247499155E+02  0.37937817940E+02  0.47000000000E+01 0.  1.
         -5    1    3    3    0  501 -0.16017497003E+03  0.70358296002E+01  0.72678744896E+02  0.17609603596E+03  0.47000000000E+01 0.  1.
          5    1    4    4  502    0  0.12293521026E+03 -0.73185841824E+02  0.10033197329E+02  0.14349908854E+03  0.47000000000E+01 0. -1.
         -5    1    4    4    0  502  0.37164195422E+02  0.33222651341E+02 -0.43223634954E+02  0.66146009722E+02  0.47000000000E+01 0. -1.
<mgrwt>
<rscale>  0 0.42314617E+03</rscale>
<asrwt>0</asrwt>
<pdfrwt beam="1">  1       21 0.34224597E-01 0.42314617E+03</pdfrwt>
<pdfrwt beam="2">  1       21 0.30956780E-01 0.42314617E+03</pdfrwt>
<totfact> 0.76989321E+04</totfact>
</mgrwt>
</event>
<event>
 8    1  0.9400004E-006  0.2727861E+03  0.7546771E-02  0.1099696E+00
         21   -1    0    0  504  503  0.00000000000E+00  0.00000000000E+00  0.50640235473E+03  0.50640235473E+03  0.00000000000E+00 0.  1.
         21   -1    0    0  503  504 -0.00000000000E+00 -0.00000000000E+00 -0.36735748825E+02  0.36735748825E+02  0.00000000000E+00 0.  1.
         25    2    1    2    0    0  0.26768764886E+02 -0.14699834493E+02  0.14479027748E+03  0.19370211768E+03  0.12499453602E+03 0.  0.
         25    2    1    2    0    0 -0.26768764886E+02  0.14699834493E+02  0.32487632843E+03  0.34943598588E+03  0.12501290951E+03 0.  0.
          5    1    3    3  501    0 -0.34650381088E+02  0.12732352011E+02  0.37882315171E+01  0.37405913908E+02  0.47000000000E+01 0.  1.
         -5    1    3    3    0  501  0.61419145974E+02 -0.27432186504E+02  0.14100204596E+03  0.15629620377E+03  0.47000000000E+01 0.  1.
          5    1    4    4  502    0 -0.39680587408E+02 -0.21857635447E+02  0.29931437614E+03  0.30275979094E+03  0.47000000000E+01 0.  1.
         -5    1    4    4    0  502  0.12911822522E+02  0.36557469940E+02  0.25561952290E+02  0.46676194940E+02  0.47000000000E+01 0.  1.
<mgrwt>
<rscale>  0 0.27278614E+03</rscale>
<asrwt>0</asrwt>
<pdfrwt beam="1">  1       21 0.77908050E-01 0.27278614E+03</pdfrwt>
<pdfrwt beam="2">  1       21 0.56516540E-02 0.27278614E+03</pdfrwt>
<totfact> 0.31238397E+05</totfact>
</mgrwt>
</event>
<event>
 8    1  0.9400004E-006  0.5372684E+03  0.7546771E-02  0.1004485E+00
         21   -1    0    0  504  503  0.00000000000E+00  0.00000000000E+00  0.13497676517E+04  0.13497676517E+04  0.00000000000E+00 0. -1.
         21   -1    0    0  503  504 -0.00000000000E+00 -0.00000000000E+00 -0.53464259442E+02  0.53464259442E+02  0.00000000000E+00 0. -1.
         25    2    1    2    0    0 -0.11832465276E+03 -0.15600731910E+03  0.29579625944E+03  0.37610998567E+03  0.12499714860E+03 0.  0.
         25    2    1    2    0    0  0.11832465276E+03  0.15600731910E+03  0.10005071328E+04  0.10271219254E+04  0.12500367953E+03 0.  0.
          5    1    3    3  501    0 -0.69086940642E+01  0.17773831618E+02  0.65078510856E+01  0.20690124934E+02  0.47000000000E+01 0. -1.
         -5    1    3    3    0  501 -0.11141595870E+03 -0.17378115072E+03  0.28928840835E+03  0.35541986074E+03  0.47000000000E+01 0. -1.
          5    1    4    4  502    0 -0.10409774334E+02  0.26237075901E+02  0.38939890375E+02  0.48323416848E+02  0.47000000000E+01 0.  1.
         -5    1    4    4    0  502  0.12873442709E+03  0.12977024320E+03  0.96156724240E+03  0.97879850858E+03  0.47000000000E+01 0.  1.
<mgrwt>
<rscale>  0 0.53726838E+03</rscale>
<asrwt>0</asrwt>
<pdfrwt beam="1">  1       21 0.20765654E+00 0.53726838E+03</pdfrwt>
<pdfrwt beam="2">  1       21 0.82252717E-02 0.53726838E+03</pdfrwt>
<totfact> 0.11633798E+04</totfact>
</mgrwt>
</event>
<event>
 8    1  0.9400004E-006  0.3158357E+03  0.7546771E-02  0.1077582E+00
         21   -1    0    0  504  503  0.00000000000E+00  0.00000000000E+00  0.61878803216E+02  0.61878803216E+02  0.00000000000E+00 0. -1.
         21   -1    0    0  503  504 -0.00000000000E+00 -0.00000000000E+00 -0.40301433312E+03  0.40301433312E+03  0.00000000000E+00 0. -1.
         25    2    1    2    0    0 -0.34001682055E+02  0.88471329077E+02 -0.14384092208E+03  0.21283441457E+03  0.12499994684E+03 0.  0.
         25    2    1    2    0    0  0.34001682055E+02 -0.88471329077E+02 -0.19729460782E+03  0.25205872176E+03  0.12500058596E+03 0.  0.
          5    1    3    3  501    0 -0.75753160464E+02  0.41530493040E+02 -0.11403572687E+03  0.14314174854E+03  0.47000000000E+01 0. -1.
         -5    1    3    3    0  501  0.41751478409E+02  0.46940836037E+02 -0.29805195212E+02  0.69692666033E+02  0.47000000000E+01 0. -1.
          5    1    4    4  502    0  0.61735384117E+02 -0.73953764027E+02 -0.19816712812E+03  0.22039219027E+03  0.47000000000E+01 0.  1.
         -5    1    4    4    0  502 -0.27733702062E+02 -0.14517565050E+02  0.87252029613E+00  0.31666531491E+02  0.47000000000E+01 0.  1.
<mgrwt>
<rscale>  0 0.31583568E+03</rscale>
<asrwt>0</asrwt>
<pdfrwt beam="1">  1       21 0.95198159E-02 0.31583568E+03</pdfrwt>
<pdfrwt beam="2">  1       21 0.62002205E-01 0.31583568E+03</pdfrwt>
<totfact> 0.20676460E+05</totfact>
</mgrwt>
</event>
<event>
 8    1  0.9400004E-006  0.5402269E+03  0.7546771E-02  0.1003782E+00
         21   -1    0    0  504  503  0.00000000000E+00  0.00000000000E+00  0.79615452830E+02  0.79615452830E+02  0.00000000000E+00 0.  1.
         21   -1    0    0  503  504 -0.00000000000E+00 -0.00000000000E+00 -0.91642105418E+03  0.91642105418E+03  0.00000000000E+00 0.  1.
         25    2    1    2    0    0  0.58191171115E+02 -0.15205112171E+03 -0.94651698121E+02  0.22602043171E+03  0.12498214107E+03 0.  0.
         25    2    1    2    0    0 -0.58191171115E+02  0.15205112171E+03 -0.74215390323E+03  0.77001607530E+03  0.12500633635E+03 0.  0.
          5    1    3    3  501    0  0.30785101763E+02 -0.20387562432E+02 -0.82981979158E+02  0.90947644596E+02  0.47000000000E+01 0.  1.
         -5    1    3    3    0  501  0.27406069352E+02 -0.13166355928E+03 -0.11669718963E+02  0.13507278712E+03  0.47000000000E+01 0.  1.
          5    1    4    4  502    0  0.22060649899E+02  0.11972060208E+02 -0.28291794571E+02  0.38111915980E+02  0.47000000000E+01 0.  1.
         -5    1    4    4    0  502 -0.80251821014E+02  0.14007906150E+03 -0.71386210866E+03  0.73190415932E+03  0.47000000000E+01 0.  1.
<mgrwt>
<rscale>  0 0.54022690E+03</rscale>
<asrwt>0</asrwt>
<pdfrwt beam="1">  1       21 0.12248530E-01 0.54022690E+03</pdfrwt>
<pdfrwt beam="2">  1       21 0.14098786E+00 0.54022690E+03</pdfrwt>
<totfact> 0.17341517E+04</totfact>
</mgrwt>
</event>
<event>
 8    1  0.9400004E-006  0.3251394E+03  0.7546771E-02  0.1073308E+00
         21   -1    0    0  504  503  0.00000000000E+00  0.00000000000E+00  0.24849928071E+02  0.24849928071E+02  0.00000000000E+00 0.  1.
         21   -1    0    0  503  504 -0.00000000000E+00 -0.00000000000E+00 -0.10635403466E+04  0.10635403466E+04  0.00000000000E+00 0.  1.
         25    2    1    2    0    0 -0.32019654737E+02 -0.17901682397E+02 -0.19378658017E+03  0.23350309912E+03  0.12499892049E+03 0.  0.
         25    2    1    2    0    0  0.32019654737E+02  0.17901682397E+02 -0.84490383835E+03  0.85488717554E+03  0.12499543322E+03 0.  0.
          5    1    3    3  501    0 -0.76353184184E+02 -0.15876099563E+02 -0.82606098163E+02  0.11370011753E+03  0.47000000000E+01 0.  1.
         -5    1    3    3    0  501  0.44333529447E+02 -0.20255828342E+01 -0.11118048201E+03  0.11980298159E+03  0.47000000000E+01 0.  1.
          5    1    4    4  502    0  0.57576051907E+02 -0.34593008678E+02 -0.34049226396E+03  0.34708608417E+03  0.47000000000E+01 0. -1.
         -5    1    4    4    0  502 -0.25556397170E+02  0.52494691075E+02 -0.50441157439E+03  0.50780109138E+03  0.47000000000E+01 0. -1.
<mgrwt>
<rscale>  0 0.32513936E+03</rscale>
<asrwt>0</asrwt>
<pdfrwt beam="1">  1       21 0.38230648E-02 0.32513936E+03</pdfrwt>
<pdfrwt beam="2">  1       21 0.16362164E+00 0.32513936E+03</pdfrwt>
<totfact> 0.94812442E+04</totfact>
</mgrwt>
</event>
<event>
 8    1  0.9400004E-006  0.2645198E+03  0.7546771E-02  0.1104458E+00
         21   -1    0    0  504  503  0.00000000000E+00  0.00000000000E+00  0.19429290698E+02  0.19429290698E+02  0.00000000000E+00 0.  1.
         21   -1    0    0  503  504 -0.00000000000E+00 -0.00000000000E+00 -0.90032543738E+03  0.90032543738E+03  0.00000000000E+00 0.  1.
         25    2    1    2    0    0 -0.37351075314E+02 -0.20719696120E+02 -0.46339531656E+03  0.48185409522E+03  0.12499496405E+03 0.  0.
         25    2    1    2    0    0  0.37351075314E+02  0.20719696120E+02 -0.41750083012E+03  0.43790063285E+03  0.12500244985E+03 0.  0.
          5    1    3    3  501    0  0.94743507519E+01  0.44244846107E+02 -0.24510042391E+03  0.24928633643E+03  0.47000000000E+01 0.  1.
         -5    1    3    3    0  501 -0.46825426066E+02 -0.64964542227E+02 -0.21829489265E+03  0.23256775879E+03  0.47000000000E+01 0.  1.
          5    1    4    4  502    0  0.36294218083E+02 -0.41181421966E+02 -0.29987506905E+03  0.30489395996E+03  0.47000000000E+01 0. -1.
         -5    1    4    4    0  502  0.10568572315E+01  0.61901118086E+02 -0.11762576107E+03  0.13300667289E+03  0.47000000000E+01 0. -1.
<mgrwt>
<rscale>  0 0.26451983E+03</rscale>
<asrwt>0</asrwt>
<pdfrwt beam="1">  1       21 0.29891222E-02 0.26451983E+03</pdfrwt>
<pdfrwt beam="2">  1       21 0.13851158E+00 0.26451983E+03</pdfrwt>
<totfact> 0.22842009E+05</totfact>
</mgrwt>
</event>
<event>
 8    1  0.9400004E-006  0.3307320E+03  0.7546771E-02  0.1070813E+00
         21   -1    0    0  504  503  0.00000000000E+00  0.00000000000E+00  0.96063618981E+02  0.96063618981E+02  0.00000000000E+00 0. -1.
         21   -1    0    0  503  504 -0.00000000000E+00 -0.00000000000E+00 -0.28466464447E+03  0.28466464447E+03  0.00000000000E+00 0. -1.
         25    2    1    2    0    0  0.10341664840E+01  0.41709198824E+02  0.20702461051E+02  0.13339029192E+03  0.12499460516E+03 0.  0.
         25    2    1    2    0    0 -0.10341664840E+01 -0.41709198824E+02 -0.20930348654E+03  0.24733797153E+03  0.12500958330E+03 0.  0.
          5    1    3    3  501    0  0.16246254456E+02 -0.36430764430E+02 -0.18857434928E+02  0.44371547560E+02  0.47000000000E+01 0. -1.
         -5    1    3    3    0  501 -0.15212087972E+02  0.78139963254E+02  0.39559895979E+02  0.89018744362E+02  0.47000000000E+01 0. -1.
          5    1    4    4  502    0  0.48385897679E+02 -0.57087962236E+02 -0.15493687955E+03  0.17212715408E+03  0.47000000000E+01 0. -1.
         -5    1    4    4    0  502 -0.49420064163E+02  0.15378763412E+02 -0.54366606989E+02  0.75210817450E+02  0.47000000000E+01 0. -1.
<mgrwt>
<rscale>  0 0.33073201E+03</rscale>
<asrwt>0</asrwt>
<pdfrwt beam="1">  1       21 0.14779019E-01 0.33073201E+03</pdfrwt>
<pdfrwt beam="2">  1       21 0.43794560E-01 0.33073201E+03</pdfrwt>
<totfact> 0.19478661E+05</totfact>
</mgrwt>
</event>
<event>
 8    1  0.9400004E-006  0.2609924E+03  0.7546771E-02  0.1106548E+00
         21   -1    0    0  504  503  0.00000000000E+00  0.00000000000E+00  0.20690153463E+03  0.20690153463E+03  0.00000000000E+00 0.  1.
         21   -1    0    0  503  504 -0.00000000000E+00 -0.00000000000E+00 -0.82306124336E+02  0.82306124336E+02  0.00000000000E+00 0.  1.
         25    2    1    2    0    0  0.57415782172E+01  0.36294792566E+02  0.54171075094E+02  0.14110256387E+03  0.12500060187E+03 0.  0.
         25    2    1    2    0    0 -0.57415782172E+01 -0.36294792566E+02  0.70424335196E+02  0.14810509509E+03  0.12500101806E+03 0.  0.
          5    1    3    3  501    0  0.61795783614E+02  0.31856449915E+02  0.12114378828E+02  0.70727649813E+02  0.47000000000E+01 0. -1.
         -5    1    3    3    0  501 -0.56054205397E+02  0.44383426507E+01  0.42056696266E+02  0.70374914060E+02  0.47000000000E+01 0. -1.
          5    1    4    4  502    0  0.38094011169E+02  0.23063375978E+00  0.81230426091E+02  0.89842523349E+02  0.47000000000E+01 0.  1.
         -5    1    4    4    0  502 -0.43835589386E+02 -0.36525426326E+02 -0.10806090896E+02  0.58262571738E+02  0.47000000000E+01 0.  1.
<mgrwt>
<rscale>  0 0.26099244E+03</rscale>
<asrwt>0</asrwt>
<pdfrwt beam="1">  1       21 0.31831005E-01 0.26099244E+03</pdfrwt>
<pdfrwt beam="2">  1       21 0.12662481E-01 0.26099244E+03</pdfrwt>
<totfact> 0.49911365E+05</totfact>
</mgrwt>
</event>
<event>
 8    1  0.9400004E-006  0.2791411E+03  0.7546771E-02  0.1096159E+00
         21   -1    0    0  504  503  0.00000000000E+00  0.00000000000E+00  0.24622617526E+03  0.24622617526E+03  0.00000000000E+00 0. -1.
         21   -1    0    0  503  504 -0.00000000000E+00 -0.00000000000E+00 -0.79114012825E+02  0.79114012825E+02  0.00000000000E+00 0. -1.
         25    2    1    2    0    0  0.55375319608E+02 -0.26380246373E+02  0.72330893335E+02  0.15690428102E+03  0.12499940740E+03 0.  0.
         25    2    1    2    0    0 -0.55375319608E+02  0.26380246373E+02  0.94781269096E+02  0.16843590706E+03  0.12499928958E+03 0.  0.
          5    1    3    3  501    0  0.36362900804E+02  0.22200664520E+02  0.91567952571E+02  0.10110346185E+03  0.47000000000E+01 0. -1.
         -5    1    3    3    0  501  0.19012418804E+02 -0.48580910892E+02 -0.19237059236E+02  0.55800819169E+02  0.47000000000E+01 0. -1.
          5    1    4    4  502    0  0.15448830261E+02  0.32894996628E+02 -0.13285963274E+02  0.38978891463E+02  0.47000000000E+01 0. -1.
         -5    1    4    4    0  502 -0.70824149868E+02 -0.65147502553E+01  0.10806723237E+03  0.12945701560E+03  0.47000000000E+01 0. -1.
<mgrwt>
<rscale>  0 0.27914112E+03</rscale>
<asrwt>0</asrwt>
<pdfrwt beam="1">  1       21 0.37880950E-01 0.27914112E+03</pdfrwt>
<pdfrwt beam="2">  1       21 0.12171387E-01 0.27914112E+03</pdfrwt>
<totfact> 0.37734944E+05</totfact>
</mgrwt>
</event>
<event>
 8    1  0.9400004E-006  0.3132563E+03  0.7546771E-02  0.1078795E+00
         21   -1    0    0  504  503  0.00000000000E+00  0.00000000000E+00  0.21441491398E+02  0.21441491398E+02  0.00000000000E+00 0. -1.
         21   -1    0    0  503  504 -0.00000000000E+00 -0.00000000000E+00 -0.11441547882E+04  0.11441547882E+04  0.00000000000E+00 0. -1.
         25    2    1    2    0    0 -0.21446474679E+02 -0.60656921566E+02 -0.81829773567E+03  0.83028683180E+03  0.12500330173E+03 0.  0.
         25    2    1    2    0    0  0.21446474679E+02  0.60656921566E+02 -0.30441556118E+03  0.33530944785E+03  0.12499751405E+03 0.  0.
          5    1    3    3  501    0  0.56799584269E+01 -0.42253319290E+02 -0.77292764481E+03  0.77411681226E+03  0.47000000000E+01 0.  1.
         -5    1    3    3    0  501 -0.27126433106E+02 -0.18403602276E+02 -0.45370090862E+02  0.56170019535E+02  0.47000000000E+01 0.  1.
          5    1    4    4  502    0  0.40687120656E+01 -0.47459607950E+00 -0.25393380529E+03  0.25401032878E+03  0.47000000000E+01 0.  1.
         -5    1    4    4    0  502  0.17377762614E+02  0.61131517646E+02 -0.50481755891E+02  0.81299119067E+02  0.47000000000E+01 0.  1.
<mgrwt>
<rscale>  0 0.31325635E+03</rscale>
<asrwt>0</asrwt>
<pdfrwt beam="1">  1       21 0.32986896E-02 0.31325635E+03</pdfrwt>
<pdfrwt beam="2">  1       21 0.17602389E+00 0.31325635E+03</pdfrwt>
<totfact> 0.99400900E+04</totfact>
</mgrwt>
</event>
<event>
 8    1  0.9400004E-006  0.2645945E+03  0.7546771E-02  0.1104414E+00
         21   -1    0    0  504  503  0.00000000000E+00  0.00000000000E+00  0.84403734874E+02  0.84403734874E+02  0.00000000000E+00 0.  1.
         21   -1    0    0  503  504 -0.00000000000E+00 -0.00000000000E+00 -0.20736709739E+03  0.20736709739E+03  0.00000000000E+00 0.  1.
         25    2    1    2    0    0 -0.34762041641E+02 -0.22307584258E+01 -0.89902626247E+02  0.15786543856E+03  0.12500255463E+03 0.  0.
         25    2    1    2    0    0  0.34762041641E+02  0.22307584258E+01 -0.33060736269E+02  0.13390539370E+03  0.12499706539E+03 0.  0.
          5    1    3    3  501    0 -0.73322517299E+02 -0.18501477855E+02 -0.87409005650E+02  0.11567592876E+03  0.47000000000E+01 0.  1.
         -5    1    3    3    0  501  0.38560475658E+02  0.16270719429E+02 -0.24936205974E+01  0.42189509803E+02  0.47000000000E+01 0.  1.
          5    1    4    4  502    0 -0.32962379188E+02 -0.64385764075E+01  0.26610122718E+02  0.43106407168E+02  0.47000000000E+01 0.  1.
         -5    1    4    4    0  502  0.67724420829E+02  0.86693348332E+01 -0.59670858987E+02  0.90798986532E+02  0.47000000000E+01 0.  1.
<mgrwt>
<rscale>  0 0.26459446E+03</rscale>
<asrwt>0</asrwt>
<pdfrwt beam="1">  1       21 0.12985190E-01 0.26459446E+03</pdfrwt>
<pdfrwt beam="2">  1       21 0.31902630E-01 0.26459446E+03</pdfrwt>
<totfact> 0.47446622E+05</totfact>
</mgrwt>
</event>
<event>
 8    1  0.9400004E-006  0.2717529E+03  0.7546771E-02  0.1100281E+00
         21   -1    0    0  504  503  0.00000000000E+00  0.00000000000E+00  0.19155442297E+03  0.19155442297E+03  0.00000000000E+00 0. -1.
         21   -1    0    0  503  504 -0.00000000000E+00 -0.00000000000E+00 -0.96382032531E+02  0.96382032531E+02  0.00000000000E+00 0. -1.
         25    2    1    2    0    0 -0.19563088645E+02  0.33528597547E+02  0.89511349234E+01  0.13119998437E+03  0.12500572704E+03 0.  0.
         25    2    1    2    0    0  0.19563088645E+02 -0.33528597547E+02  0.86221255519E+02  0.15673647113E+03  0.12500134075E+03 0.  0.
          5    1    3    3  501    0 -0.48988282000E+01  0.68086182327E+02  0.42572000353E+02  0.80586549471E+02  0.47000000000E+01 0. -1.
         -5    1    3    3    0  501 -0.14664260445E+02 -0.34557584779E+02 -0.33620865429E+02  0.50613434900E+02  0.47000000000E+01 0. -1.
          5    1    4    4  502    0  0.10138799646E+02 -0.78702204221E+02  0.32813735116E+02  0.85998043116E+02  0.47000000000E+01 0. -1.
         -5    1    4    4    0  502  0.94242889989E+01  0.45173606673E+02  0.53407520403E+02  0.70738428019E+02  0.47000000000E+01 0. -1.
<mgrwt>
<rscale>  0 0.27175286E+03</rscale>
<asrwt>0</asrwt>
<pdfrwt beam="1">  1       21 0.29469911E-01 0.27175286E+03</pdfrwt>
<pdfrwt beam="2">  1       21 0.14828005E-01 0.27175286E+03</pdfrwt>
<totfact> 0.43490774E+05</totfact>
</mgrwt>
</event>
<event>
 8    1  0.9400004E-006  0.3182125E+03  0.7546771E-02  0.1076475E+00
         21   -1    0    0  504  503  0.00000000000E+00  0.00000000000E+00  0.22668063246E+03  0.22668063246E+03  0.00000000000E+00 0.  1.
         21   -1    0    0  503  504 -0.00000000000E+00 -0.00000000000E+00 -0.11167608664E+03  0.11167608664E+03  0.00000000000E+00 0.  1.
         25    2    1    2    0    0  0.45042737699E+02 -0.79151406971E+02  0.17774266797E+02  0.15567490800E+03  0.12499983590E+03 0.  0.
         25    2    1    2    0    0 -0.45042737699E+02  0.79151406971E+02  0.97230279026E+02  0.18268181110E+03  0.12500049400E+03 0.  0.
          5    1    3    3  501    0 -0.19883521826E+02 -0.27365563047E+01  0.46834376736E+02  0.51170225961E+02  0.47000000000E+01 0. -1.
         -5    1    3    3    0  501  0.64926259525E+02 -0.76414850667E+02 -0.29060109939E+02  0.10450468204E+03  0.47000000000E+01 0. -1.
          5    1    4    4  502    0 -0.11924431772E+02  0.93047415782E+02  0.18098372307E+02  0.95653827613E+02  0.47000000000E+01 0.  1.
         -5    1    4    4    0  502 -0.33118305927E+02 -0.13896008811E+02  0.79131906719E+02  0.87027983484E+02  0.47000000000E+01 0.  1.
<mgrwt>
<rscale>  0 0.31821255E+03</rscale>
<asrwt>0</asrwt>
<pdfrwt beam="1">  1       21 0.34873943E-01 0.31821255E+03</pdfrwt>
<pdfrwt beam="2">  1       21 0.17180936E-01 0.31821255E+03</pdfrwt>
<totfact> 0.23510738E+05</totfact>
</mgrwt>
</event>
<event>
 8    1  0.9400004E-006  0.2612597E+03  0.7546771E-02  0.1106389E+00
         21   -1    0    0  504  503  0.00000000000E+00  0.00000000000E+00  0.36109439847E+02  0.36109439847E+02  0.00000000000E+00 0. -1.
         21   -1    0    0  503  504 -0.00000000000E+00 -0.00000000000E+00 -0.47256793242E+03  0.47256793242E+03  0.00000000000E+00 0. -1.
         25    2    1    2    0    0  0.86662110655E+01 -0.25804481882E+02 -0.16681418078E+03  0.21022627529E+03  0.12500856536E+03 0.  0.
         25    2    1    2    0    0 -0.86662110655E+01  0.25804481882E+02 -0.26964431180E+03  0.29845109698E+03  0.12499611156E+03 0.  0.
          5    1    3    3  501    0  0.31315491359E+02  0.41880401032E+02 -0.96868451032E+02  0.11018264289E+03  0.47000000000E+01 0. -1.
         -5    1    3    3    0  501 -0.22649280294E+02 -0.67684882914E+02 -0.69945729746E+02  0.10004363239E+03  0.47000000000E+01 0. -1.
          5    1    4    4  502    0  0.48824260412E+02 -0.19168426580E+02 -0.86884071960E+02  0.10159807549E+03  0.47000000000E+01 0.  1.
         -5    1    4    4    0  502 -0.57490471477E+02  0.44972908462E+02 -0.18276023984E+03  0.19685302150E+03  0.47000000000E+01 0.  1.
<mgrwt>
<rscale>  0 0.26125974E+03</rscale>
<asrwt>0</asrwt>
<pdfrwt beam="1">  1       21 0.55552987E-02 0.26125974E+03</pdfrwt>
<pdfrwt beam="2">  1       21 0.72702755E-01 0.26125974E+03</pdfrwt>
<totfact> 0.37695147E+05</totfact>
</mgrwt>
</event>
<event>
 8    1  0.9400004E-006  0.4452295E+03  0.7546771E-02  0.1029154E+00
         21   -1    0    0  504  503  0.00000000000E+00  0.00000000000E+00  0.64667201359E+02  0.64667201359E+02  0.00000000000E+00 0. -1.
         21   -1    0    0  503  504 -0.00000000000E+00 -0.00000000000E+00 -0.76634416437E+03  0.76634416437E+03  0.00000000000E+00 0. -1.
         25    2    1    2    0    0  0.36388626062E+02  0.71105801769E+02 -0.41027077802E+02  0.15391210788E+03  0.12500219473E+03 0.  0.
         25    2    1    2    0    0 -0.36388626062E+02 -0.71105801769E+02 -0.66064988521E+03  0.67709925785E+03  0.12499986798E+03 0.  0.
          5    1    3    3  501    0  0.51777711566E+02  0.30463498056E+02  0.32431886889E+02  0.68431523554E+02  0.47000000000E+01 0. -1.
         -5    1    3    3    0  501 -0.15389085504E+02  0.40642303713E+02 -0.73458964691E+02  0.85480584329E+02  0.47000000000E+01 0. -1.
          5    1    4    4  502    0 -0.79112438029E+02 -0.45647555856E+02 -0.32025680922E+03  0.33306004122E+03  0.47000000000E+01 0. -1.
         -5    1    4    4    0  502  0.42723811966E+02 -0.25458245914E+02 -0.34039307599E+03  0.34403921663E+03  0.47000000000E+01 0. -1.
<mgrwt>
<rscale>  0 0.44522952E+03</rscale>
<asrwt>0</asrwt>
<pdfrwt beam="1">  1       21 0.99488001E-02 0.44522952E+03</pdfrwt>
<pdfrwt beam="2">  1       21 0.11789910E+00 0.44522952E+03</pdfrwt>
<totfact> 0.41210618E+04</totfact>
</mgrwt>
</event>
<event>
 8    1  0.9400004E-006  0.1179570E+04  0.7546771E-02  0.9130929E-01
         21   -1    0    0  504  503  0.00000000000E+00  0.00000000000E+00  0.17662808484E+04  0.17662808484E+04  0.00000000000E+00 0. -1.
         21   -1    0    0  503  504 -0.00000000000E+00 -0.00000000000E+00 -0.19693718006E+03  0.19693718006E+03  0.00000000000E+00 0. -1.
         25    2    1    2    0    0 -0.18458540149E+03  0.19005450323E+03 -0.67287819602E+02  0.30057528740E+03  0.12500147233E+03 0.  0.
         25    2    1    2    0    0  0.18458540149E+03 -0.19005450323E+03  0.16366314880E+04  0.16626427411E+04  0.12500308964E+03 0.  0.
          5    1    3    3  501    0 -0.10976671769E+03  0.18801444792E+03 -0.45291429719E+02  0.22242205049E+03  0.47000000000E+01 0.  1.
         -5    1    3    3    0  501 -0.74818683796E+02  0.20400553109E+01 -0.21996389884E+02  0.78153236904E+02  0.47000000000E+01 0.  1.
          5    1    4    4  502    0  0.12995203603E+03 -0.12785460583E+03  0.73815707313E+03  0.76035010785E+03  0.47000000000E+01 0.  1.
         -5    1    4    4    0  502  0.54633365458E+02 -0.62199897400E+02  0.89847441485E+03  0.90229263323E+03  0.47000000000E+01 0.  1.
<mgrwt>
<rscale>  0 0.11795700E+04</rscale>
<asrwt>0</asrwt>
<pdfrwt beam="1">  1       21 0.27173550E+00 0.11795700E+04</pdfrwt>
<pdfrwt beam="2">  1       21 0.30298029E-01 0.11795700E+04</pdfrwt>
<totfact> 0.33055415E+02</totfact>
</mgrwt>
</event>
<event>
 8    1  0.9400004E-006  0.2547975E+03  0.7546771E-02  0.1110310E+00
         21   -1    0    0  504  503  0.00000000000E+00  0.00000000000E+00  0.18435583730E+04  0.18435583730E+04  0.00000000000E+00 0.  1.
         21   -1    0    0  503  504 -0.00000000000E+00 -0.00000000000E+00 -0.88038691445E+01  0.88038691445E+01  0.00000000000E+00 0.  1.
         25    2    1    2    0    0 -0.44674225309E+01 -0.17104575833E+01  0.74154857547E+03  0.75202588655E+03  0.12500304284E+03 0.  0.
         25    2    1    2    0    0  0.44674225309E+01  0.17104575833E+01  0.10932059284E+04  0.11003363556E+04  0.12497203716E+03 0.  0.
          5    1    3    3  501    0  0.53310721633E+02  0.27893642511E+01  0.18974885082E+03  0.19717132139E+03  0.47000000000E+01 0. -1.
         -5    1    3    3    0  501 -0.57778144164E+02 -0.44998218343E+01  0.55179972466E+03  0.55485456515E+03  0.47000000000E+01 0. -1.
          5    1    4    4  502    0 -0.55953549257E+02  0.12399907153E+02  0.69837876927E+03  0.70074214426E+03  0.47000000000E+01 0. -1.
         -5    1    4    4    0  502  0.60420971788E+02 -0.10689449570E+02  0.39482715908E+03  0.39959421131E+03  0.47000000000E+01 0. -1.
<mgrwt>
<rscale>  0 0.25479754E+03</rscale>
<asrwt>0</asrwt>
<pdfrwt beam="1">  1       21 0.28362406E+00 0.25479754E+03</pdfrwt>
<pdfrwt beam="2">  1       21 0.13544429E-02 0.25479754E+03</pdfrwt>
<totfact> 0.93850223E+04</totfact>
</mgrwt>
</event>
<event>
 8    1  0.9400004E-006  0.3132221E+03  0.7546771E-02  0.1078812E+00
         21   -1    0    0  504  503  0.00000000000E+00  0.00000000000E+00  0.43702066280E+03  0.43702066280E+03  0.00000000000E+00 0. -1.
         21   -1    0    0  503  504 -0.00000000000E+00 -0.00000000000E+00 -0.56123247089E+02  0.56123247089E+02  0.00000000000E+00 0. -1.
         25    2    1    2    0    0  0.23077620868E+02  0.34857705662E+02  0.32362586822E+03  0.34943736328E+03  0.12500052819E+03 0.  0.
         25    2    1    2    0    0 -0.23077620868E+02 -0.34857705662E+02  0.57271547491E+02  0.14370654661E+03  0.12499562055E+03 0.  0.
          5    1    3    3  501    0  0.63022339505E+02  0.40196761413E+02  0.28006982640E+03  0.28991169787E+03  0.47000000000E+01 0. -1.
         -5    1    3    3    0  501 -0.39944718636E+02 -0.53390557508E+01  0.43556041825E+02  0.59525665412E+02  0.47000000000E+01 0. -1.
          5    1    4    4  502    0 -0.65610069729E+01  0.28201169619E+02 -0.25065693399E+02  0.38584086953E+02  0.47000000000E+01 0.  1.
         -5    1    4    4    0  502 -0.16516613896E+02 -0.63058875282E+02  0.82337240890E+02  0.10512245965E+03  0.47000000000E+01 0.  1.
<mgrwt>
<rscale>  0 0.31322209E+03</rscale>
<asrwt>0</asrwt>
<pdfrwt beam="1">  1       21 0.67233946E-01 0.31322209E+03</pdfrwt>
<pdfrwt beam="2">  1       21 0.86343460E-02 0.31322209E+03</pdfrwt>
<totfact> 0.20583000E+05</totfact>
</mgrwt>
</event>
<event>
 8    1  0.9400004E-006  0.2827452E+03  0.7546771E-02  0.1094199E+00
         21   -1    0    0  504  503  0.00000000000E+00  0.00000000000E+00  0.12959138067E+03  0.12959138067E+03  0.00000000000E+00 0. -1.
         21   -1    0    0  503  504 -0.00000000000E+00 -0.00000000000E+00 -0.15422482319E+03  0.15422482319E+03  0.00000000000E+00 0. -1.
         25    2    1    2    0    0 -0.43797982753E+02 -0.49320079831E+02 -0.91450242355E+01  0.14163204956E+03  0.12500108970E+03 0.  0.
         25    2    1    2    0    0  0.43797982753E+02  0.49320079831E+02 -0.15488418282E+02  0.14218415430E+03  0.12500283623E+03 0.  0.
          5    1    3    3  501    0  0.19386091121E+02 -0.59135511788E+02  0.27035493400E+02  0.68013507385E+02  0.47000000000E+01 0.  1.
         -5    1    3    3    0  501 -0.63184073874E+02  0.98154319571E+01 -0.36180517635E+02  0.73618542176E+02  0.47000000000E+01 0.  1.
          5    1    4    4  502    0  0.75436728347E+02  0.69721162309E+02 -0.16955396360E+02  0.10421763729E+03  0.47000000000E+01 0.  1.
         -5    1    4    4    0  502 -0.31638745594E+02 -0.20401082478E+02  0.14669780782E+01  0.37966517008E+02  0.47000000000E+01 0.  1.
<mgrwt>
<rscale>  0 0.28274517E+03</rscale>
<asrwt>0</asrwt>
<pdfrwt beam="1">  1       21 0.19937135E-01 0.28274517E+03</pdfrwt>
<pdfrwt beam="2">  1       21 0.23726896E-01 0.28274517E+03</pdfrwt>
<totfact> 0.38114617E+05</totfact>
</mgrwt>
</event>
<event>
 8    1  0.9400004E-006  0.3153355E+03  0.7546771E-02  0.1077816E+00
         21   -1    0    0  504  503  0.00000000000E+00  0.00000000000E+00  0.17688553383E+03  0.17688553383E+03  0.00000000000E+00 0.  1.
         21   -1    0    0  503  504 -0.00000000000E+00 -0.00000000000E+00 -0.14053784634E+03  0.14053784634E+03  0.00000000000E+00 0.  1.
         25    2    1    2    0    0 -0.79445796282E+02 -0.41143575530E+02  0.53483647103E+02  0.16275136287E+03  0.12499230878E+03 0.  0.
         25    2    1    2    0    0  0.79445796282E+02  0.41143575530E+02 -0.17135959609E+02  0.15467201730E+03  0.12500145386E+03 0.  0.
          5    1    3    3  501    0 -0.10970354252E+03 -0.51451000066E+02  0.45062711149E+02  0.12936309592E+03  0.47000000000E+01 0.  1.
         -5    1    3    3    0  501  0.30257746236E+02  0.10307424536E+02  0.84209359539E+01  0.33388266954E+02  0.47000000000E+01 0.  1.
          5    1    4    4  502    0 -0.20417246244E+02 -0.37162385583E+01 -0.37597360104E+02  0.43200993739E+02  0.47000000000E+01 0. -1.
         -5    1    4    4    0  502  0.99863042526E+02  0.44859814089E+02  0.20461400495E+02  0.11147102356E+03  0.47000000000E+01 0. -1.
<mgrwt>
<rscale>  0 0.31533545E+03</rscale>
<asrwt>0</asrwt>
<pdfrwt beam="1">  1       21 0.27213159E-01 0.31533545E+03</pdfrwt>
<pdfrwt beam="2">  1       21 0.21621207E-01 0.31533545E+03</pdfrwt>
<totfact> 0.24926618E+05</totfact>
</mgrwt>
</event>
<event>
 8    1  0.9400004E-006  0.2764721E+03  0.7546771E-02  0.1097632E+00
         21   -1    0    0  504  503  0.00000000000E+00  0.00000000000E+00  0.70200846881E+02  0.70200846881E+02  0.00000000000E+00 0. -1.
         21   -1    0    0  503  504 -0.00000000000E+00 -0.00000000000E+00 -0.27220759332E+03  0.27220759332E+03  0.00000000000E+00 0. -1.
         25    2    1    2    0    0  0.15958155398E+02  0.17765654281E+02 -0.34090170018E+02  0.13175375981E+03  0.12500652917E+03 0.  0.
         25    2    1    2    0    0 -0.15958155398E+02 -0.17765654281E+02 -0.16791657642E+03  0.21065468039E+03  0.12493653004E+03 0.  0.
          5    1    3    3  501    0  0.46174001158E+02 -0.32698566198E+02 -0.44119033314E+02  0.71901416640E+02  0.47000000000E+01 0. -1.
         -5    1    3    3    0  501 -0.30215845760E+02  0.50464220480E+02  0.10028863296E+02  0.59852343167E+02  0.47000000000E+01 0. -1.
          5    1    4    4  502    0 -0.16852349746E+02 -0.50112190636E+02 -0.16979937071E+03  0.17790207879E+03  0.47000000000E+01 0. -1.
         -5    1    4    4    0  502  0.89419434803E+00  0.32346536354E+02  0.18827942926E+01  0.32752601607E+02  0.47000000000E+01 0. -1.
<mgrwt>
<rscale>  0 0.27647209E+03</rscale>
<asrwt>0</asrwt>
<pdfrwt beam="1">  1       21 0.10800131E-01 0.27647209E+03</pdfrwt>
<pdfrwt beam="2">  1       21 0.41878090E-01 0.27647209E+03</pdfrwt>
<totfact> 0.38156072E+05</totfact>
</mgrwt>
</event>
<event>
 8    1  0.9400004E-006  0.2771126E+03  0.7546771E-02  0.1097277E+00
         21   -1    0    0  504  503  0.00000000000E+00  0.00000000000E+00  0.49539126884E+02  0.49539126884E+02  0.00000000000E+00 0. -1.
         21   -1    0    0  503  504 -0.00000000000E+00 -0.00000000000E+00 -0.38752887072E+03  0.38752887072E+03  0.00000000000E+00 0. -1.
         25    2    1    2    0    0  0.11140948794E+02 -0.41147746151E+02 -0.23505273976E+03  0.26962038193E+03  0.12501240790E+03 0.  0.
         25    2    1    2    0    0 -0.11140948794E+02  0.41147746151E+02 -0.10293700408E+03  0.16744761568E+03  0.12500167772E+03 0.  0.
          5    1    3    3  501    0 -0.55748859681E+02 -0.23509583769E+02 -0.86285426745E+02  0.10548886554E+03  0.47000000000E+01 0.  1.
         -5    1    3    3    0  501  0.66889808474E+02 -0.17638162383E+02 -0.14876731301E+03  0.16413151638E+03  0.47000000000E+01 0.  1.
          5    1    4    4  502    0 -0.53656592330E+02  0.43607157295E+02 -0.16899634701E+02  0.71332332927E+02  0.47000000000E+01 0.  1.
         -5    1    4    4    0  502  0.42515643536E+02 -0.24594111431E+01 -0.86037369377E+02  0.96115282748E+02  0.47000000000E+01 0.  1.
<mgrwt>
<rscale>  0 0.27711255E+03</rscale>
<asrwt>0</asrwt>
<pdfrwt beam="1">  1       21 0.76214044E-02 0.27711255E+03</pdfrwt>
<pdfrwt beam="2">  1       21 0.59619824E-01 0.27711255E+03</pdfrwt>
<totfact> 0.33612369E+05</totfact>
</mgrwt>
</event>
<event>
 8    1  0.9400004E-006  0.3144694E+03  0.7546771E-02  0.1078223E+00
         21   -1    0    0  504  503  0.00000000000E+00  0.00000000000E+00  0.22337306215E+03  0.22337306215E+03  0.00000000000E+00 0. -1.
         21   -1    0    0  503  504 -0.00000000000E+00 -0.00000000000E+00 -0.11067921663E+03  0.11067921663E+03  0.00000000000E+00 0. -1.
         25    2    1    2    0    0 -0.60390332492E+02  0.24423894797E+02  0.13037844143E+03  0.19198455399E+03  0.12496404318E+03 0.  0.
         25    2    1    2    0    0  0.60390332492E+02 -0.24423894797E+02 -0.17684595915E+02  0.14206772479E+03  0.12500789815E+03 0.  0.
          5    1    3    3  501    0 -0.51178290196E+02  0.10762573331E+02 -0.75036542802E+01  0.53041919268E+02  0.47000000000E+01 0. -1.
         -5    1    3    3    0  501 -0.92120422964E+01  0.13661321466E+02  0.13788209571E+03  0.13894263472E+03  0.47000000000E+01 0. -1.
          5    1    4    4  502    0  0.17032838520E+02 -0.28026732651E+02 -0.67844550011E+02  0.75502240347E+02  0.47000000000E+01 0. -1.
         -5    1    4    4    0  502  0.43357493973E+02  0.36028378539E+01  0.50159954097E+02  0.66565484443E+02  0.47000000000E+01 0. -1.
<mgrwt>
<rscale>  0 0.31446943E+03</rscale>
<asrwt>0</asrwt>
<pdfrwt beam="1">  1       21 0.34365086E-01 0.31446943E+03</pdfrwt>
<pdfrwt beam="2">  1       21 0.17027572E-01 0.31446943E+03</pdfrwt>
<totfact> 0.24640042E+05</totfact>
</mgrwt>
</event>
<event>
 8    1  0.9400004E-006  0.3398271E+03  0.7546771E-02  0.1066870E+00
         21   -1    0    0  504  503  0.00000000000E+00  0.00000000000E+00  0.11493530841E+03  0.11493530841E+03  0.00000000000E+00 0. -1.
         21   -1    0    0  503  504 -0.00000000000E+00 -0.00000000000E+00 -0.25119014937E+03  0.25119014937E+03  0.00000000000E+00 0. -1.
         25    2    1    2    0    0 -0.21007395521E+00  0.94652103004E+02 -0.13866891997E+03  0.20931642595E+03  0.12500092829E+03 0.  0.
         25    2    1    2    0    0  0.21007395521E+00 -0.94652103004E+02  0.24140790033E+01  0.15680903183E+03  0.12499671976E+03 0.  0.
          5    1    3    3  501    0 -0.37434694651E+01  0.38756170005E+01 -0.11513229447E+03  0.11535410353E+03  0.47000000000E+01 0.  1.
         -5    1    3    3    0  501  0.35333955099E+01  0.90776486004E+02 -0.23536625502E+02  0.93962322422E+02  0.47000000000E+01 0.  1.
          5    1    4    4  502    0  0.59033428842E+02 -0.72509270841E+02  0.47191978316E+01  0.93738470795E+02  0.47000000000E+01 0. -1.
         -5    1    4    4    0  502 -0.58823354887E+02 -0.22142832163E+02 -0.23051188283E+01  0.63070561034E+02  0.47000000000E+01 0. -1.
<mgrwt>
<rscale>  0 0.33982712E+03</rscale>
<asrwt>0</asrwt>
<pdfrwt beam="1">  1       21 0.17682355E-01 0.33982712E+03</pdfrwt>
<pdfrwt beam="2">  1       21 0.38644638E-01 0.33982712E+03</pdfrwt>
<totfact> 0.18025696E+05</totfact>
</mgrwt>
</event>
<event>
 8    1  0.9400004E-006  0.2920211E+03  0.7546771E-02  0.1089299E+00
         21   -1    0    0  504  503  0.00000000000E+00  0.00000000000E+00  0.41311943329E+03  0.41311943329E+03  0.00000000000E+00 0.  1.
         21   -1    0    0  503  504 -0.00000000000E+00 -0.00000000000E+00 -0.51605141803E+02  0.51605141803E+02  0.00000000000E+00 0.  1.
         25    2    1    2    0    0 -0.62956170326E+02  0.40881580328E+02  0.19308725294E+03  0.24195642803E+03  0.12500177130E+03 0.  0.
         25    2    1    2    0    0  0.62956170326E+02 -0.40881580328E+02  0.16842703855E+03  0.22276814706E+03  0.12499278794E+03 0.  0.
          5    1    3    3  501    0  0.37668808956E+02  0.59614968582E+01  0.62585772759E+02  0.73440775900E+02  0.47000000000E+01 0. -1.
         -5    1    3    3    0  501 -0.10062497928E+03  0.34920083470E+02  0.13050148018E+03  0.16851565213E+03  0.47000000000E+01 0. -1.
          5    1    4    4  502    0 -0.37689917853E+02 -0.28234968170E+01  0.45184389508E+02  0.59095017534E+02  0.47000000000E+01 0.  1.
         -5    1    4    4    0  502  0.10064608818E+03 -0.38058083511E+02  0.12324264904E+03  0.16367312953E+03  0.47000000000E+01 0.  1.
<mgrwt>
<rscale>  0 0.29202114E+03</rscale>
<asrwt>0</asrwt>
<pdfrwt beam="1">  1       21 0.63556834E-01 0.29202114E+03</pdfrwt>
<pdfrwt beam="2">  1       21 0.79392528E-02 0.29202114E+03</pdfrwt>
<totfact> 0.27136487E+05</totfact>
</mgrwt>
</event>
<event>
 8    1  0.9400004E-006  0.3534220E+03  0.7546771E-02  0.1061219E+00
         21   -1    0    0  504  503  0.00000000000E+00  0.00000000000E+00  0.46817662119E+03  0.46817662119E+03  0.00000000000E+00 0. -1.
         21   -1    0    0  503  504 -0.00000000000E+00 -0.00000000000E+00 -0.66698730207E+02  0.66698730207E+02  0.00000000000E+00 0. -1.
         25    2    1    2    0    0  0.13796832862E+02 -0.83176898788E+02  0.61252229622E+02  0.16273992351E+03  0.12499479182E+03 0.  0.
         25    2    1    2    0    0 -0.13796832862E+02  0.83176898788E+02  0.34022566136E+03  0.37213542788E+03  0.12499010740E+03 0.  0.
          5    1    3    3  501    0  0.41158013035E+02  0.11624732157E+02 -0.57058553741E+01  0.43402341184E+02  0.47000000000E+01 0. -1.
         -5    1    3    3    0  501 -0.27361180172E+02 -0.94801630945E+02  0.66958084996E+02  0.11933758233E+03  0.47000000000E+01 0. -1.
          5    1    4    4  502    0  0.37571673457E+02  0.95601711824E+01  0.21183739175E+03  0.21540705202E+03  0.47000000000E+01 0. -1.
         -5    1    4    4    0  502 -0.51368506319E+02  0.73616727605E+02  0.12838826962E+03  0.15672837586E+03  0.47000000000E+01 0. -1.
<mgrwt>
<rscale>  0 0.35342205E+03</rscale>
<asrwt>0</asrwt>
<pdfrwt beam="1">  1       21 0.72027171E-01 0.35342205E+03</pdfrwt>
<pdfrwt beam="2">  1       21 0.10261343E-01 0.35342205E+03</pdfrwt>
<totfact> 0.12861652E+05</totfact>
</mgrwt>
</event>
<event>
 8    1  0.9400004E-006  0.2975579E+03  0.7546771E-02  0.1086468E+00
         21   -1    0    0  504  503  0.00000000000E+00  0.00000000000E+00  0.46440773078E+02  0.46440773078E+02  0.00000000000E+00 0.  1.
         21   -1    0    0  503  504 -0.00000000000E+00 -0.00000000000E+00 -0.47663234527E+03  0.47663234527E+03  0.00000000000E+00 0.  1.
         25    2    1    2    0    0 -0.42752090959E+02 -0.59234229094E+02 -0.27531573281E+03  0.31106163850E+03  0.12499662011E+03 0.  0.
         25    2    1    2    0    0  0.42752090959E+02  0.59234229094E+02 -0.15487583938E+03  0.21201147985E+03  0.12500362708E+03 0.  0.
          5    1    3    3  501    0 -0.60699921976E+02 -0.64388688136E+02 -0.27785112374E+03  0.29163971035E+03  0.47000000000E+01 0. -1.
         -5    1    3    3    0  501  0.17947831017E+02  0.51544590416E+01  0.25353909295E+01  0.19421928158E+02  0.47000000000E+01 0. -1.
          5    1    4    4  502    0  0.23501751630E+02 -0.34074316475E+02 -0.81979683131E+02  0.91957326077E+02  0.47000000000E+01 0.  1.
         -5    1    4    4    0  502  0.19250339329E+02  0.93308545570E+02 -0.72896156253E+02  0.12005415377E+03  0.47000000000E+01 0.  1.
<mgrwt>
<rscale>  0 0.29755789E+03</rscale>
<asrwt>0</asrwt>
<pdfrwt beam="1">  1       21 0.71447345E-02 0.29755789E+03</pdfrwt>
<pdfrwt beam="2">  1       21 0.73328051E-01 0.29755789E+03</pdfrwt>
<totfact> 0.23733540E+05</totfact>
</mgrwt>
</event>
<event>
 8    1  0.9400004E-006  0.2779019E+03  0.7546771E-02  0.1096840E+00
         21   -1    0    0  504  503  0.00000000000E+00  0.00000000000E+00  0.18978515148E+03  0.18978515148E+03  0.00000000000E+00 0. -1.
         21   -1    0    0  503  504 -0.00000000000E+00 -0.00000000000E+00 -0.10173278295E+03  0.10173278295E+03  0.00000000000E+00 0. -1.
         25    2    1    2    0    0 -0.60148508332E+02 -0.72829132625E+01  0.46208538068E+02  0.14643792894E+03  0.12505180591E+03 0.  0.
         25    2    1    2    0    0  0.60148508332E+02  0.72829132625E+01  0.41843830468E+02  0.14508000549E+03  0.12500567173E+03 0.  0.
          5    1    3    3  501    0  0.26813223855E+02  0.18625962934E+02  0.44715519624E+02  0.55564765490E+02  0.47000000000E+01 0. -1.
         -5    1    3    3    0  501 -0.86961732187E+02 -0.25908876196E+02  0.14930184437E+01  0.90873163446E+02  0.47000000000E+01 0. -1.
          5    1    4    4  502    0  0.93497575440E+02  0.23908551849E+02  0.12516884796E+02  0.97427808503E+02  0.47000000000E+01 0.  1.
         -5    1    4    4    0  502 -0.33349067108E+02 -0.16625638586E+02  0.29326945672E+02  0.47652196989E+02  0.47000000000E+01 0.  1.
<mgrwt>
<rscale>  0 0.27790194E+03</rscale>
<asrwt>0</asrwt>
<pdfrwt beam="1">  1       21 0.29197715E-01 0.27790194E+03</pdfrwt>
<pdfrwt beam="2">  1       21 0.15651197E-01 0.27790194E+03</pdfrwt>
<totfact> 0.40057936E+05</totfact>
</mgrwt>
</event>
<event>
 8    1  0.9400004E-006  0.2560708E+03  0.7546771E-02  0.1109527E+00
         21   -1    0    0  504  503  0.00000000000E+00  0.00000000000E+00  0.39456019216E+02  0.39456019216E+02  0.00000000000E+00 0. -1.
         21   -1    0    0  503  504 -0.00000000000E+00 -0.00000000000E+00 -0.41547687623E+03  0.41547687623E+03  0.00000000000E+00 0. -1.
         25    2    1    2    0    0 -0.22113745981E+02 -0.12455784434E+02 -0.16854707837E+03  0.21138757971E+03  0.12502970408E+03 0.  0.
         25    2    1    2    0    0  0.22113745981E+02  0.12455784434E+02 -0.20747377864E+03  0.24354531573E+03  0.12499915065E+03 0.  0.
          5    1    3    3  501    0 -0.73079988830E+02  0.15202492376E+01 -0.11220382538E+03  0.13399546394E+03  0.47000000000E+01 0. -1.
         -5    1    3    3    0  501  0.50966242849E+02 -0.13976033672E+02 -0.56343252987E+02  0.77392115778E+02  0.47000000000E+01 0. -1.
          5    1    4    4  502    0 -0.20081842034E+02 -0.45998113280E+01  0.85010926227E+01  0.22777120528E+02  0.47000000000E+01 0. -1.
         -5    1    4    4    0  502  0.42195588015E+02  0.17055595762E+02 -0.21597487126E+03  0.22076819520E+03  0.47000000000E+01 0. -1.
<mgrwt>
<rscale>  0 0.25607080E+03</rscale>
<asrwt>0</asrwt>
<pdfrwt beam="1">  1       21 0.60701568E-02 0.25607080E+03</pdfrwt>
<pdfrwt beam="2">  1       21 0.63919519E-01 0.25607080E+03</pdfrwt>
<totfact> 0.43074721E+05</totfact>
</mgrwt>
</event>
<event>
 8    1  0.9400004E-006  0.3471360E+03  0.7546771E-02  0.1063797E+00
         21   -1    0    0  504  503  0.00000000000E+00  0.00000000000E+00  0.56900480471E+03  0.56900480471E+03  0.00000000000E+00 0.  1.
         21   -1    0    0  503  504 -0.00000000000E+00 -0.00000000000E+00 -0.52944802526E+02  0.52944802526E+02  0.00000000000E+00 0.  1.
         25    2    1    2    0    0 -0.61694428985E+02  0.81834630298E+02  0.14476821317E+03  0.21699793144E+03  0.12500862938E+03 0.  0.
         25    2    1    2    0    0  0.61694428985E+02 -0.81834630298E+02  0.37129178901E+03  0.40495167579E+03  0.12500063144E+03 0.  0.
          5    1    3    3  501    0  0.17819291303E+02 -0.12709654826E+02 -0.48578851396E+01  0.22907455475E+02  0.47000000000E+01 0. -1.
         -5    1    3    3    0  501 -0.79513720288E+02  0.94544285124E+02  0.14962609831E+03  0.19409047596E+03  0.47000000000E+01 0. -1.
          5    1    4    4  502    0  0.45979439679E+02 -0.10256285846E+03  0.18299123661E+03  0.21480486839E+03  0.47000000000E+01 0.  1.
         -5    1    4    4    0  502  0.15714989305E+02  0.20728228165E+02  0.18830055240E+03  0.19014680740E+03  0.47000000000E+01 0.  1.
<mgrwt>
<rscale>  0 0.34713598E+03</rscale>
<asrwt>0</asrwt>
<pdfrwt beam="1">  1       21 0.87539197E-01 0.34713598E+03</pdfrwt>
<pdfrwt beam="2">  1       21 0.81453546E-02 0.34713598E+03</pdfrwt>
<totfact> 0.12419120E+05</totfact>
</mgrwt>
</event>
<event>
 8    1  0.9400004E-006  0.2589545E+03  0.7546771E-02  0.1107773E+00
         21   -1    0    0  504  503  0.00000000000E+00  0.00000000000E+00  0.20010789022E+03  0.20010789022E+03  0.00000000000E+00 0. -1.
         21   -1    0    0  503  504 -0.00000000000E+00 -0.00000000000E+00 -0.83776618729E+02  0.83776618729E+02  0.00000000000E+00 0. -1.
         25    2    1    2    0    0 -0.62818715874E+01 -0.20135668759E+01  0.94499725948E+02  0.15683971020E+03  0.12499992052E+03 0.  0.
         25    2    1    2    0    0  0.62818715874E+01  0.20135668759E+01  0.21831545548E+02  0.12704479875E+03  0.12498099114E+03 0.  0.
          5    1    3    3  501    0 -0.29875710213E+01 -0.42841958422E+02  0.10563889988E+03  0.11413161766E+03  0.47000000000E+01 0. -1.
         -5    1    3    3    0  501 -0.32943005662E+01  0.40828391546E+02 -0.11139173936E+02  0.42708092540E+02  0.47000000000E+01 0. -1.
          5    1    4    4  502    0  0.35016261324E+02  0.47485396666E+02 -0.15764485674E+02  0.61250391527E+02  0.47000000000E+01 0.  1.
         -5    1    4    4    0  502 -0.28734389737E+02 -0.45471829790E+02  0.37596031222E+02  0.65794407222E+02  0.47000000000E+01 0.  1.
<mgrwt>
<rscale>  0 0.25895453E+03</rscale>
<asrwt>0</asrwt>
<pdfrwt beam="1">  1       21 0.30785829E-01 0.25895453E+03</pdfrwt>
<pdfrwt beam="2">  1       21 0.12888711E-01 0.25895453E+03</pdfrwt>
<totfact> 0.51646123E+05</totfact>
</mgrwt>
</event>
<event>
 8    1  0.9400004E-006  0.2735951E+03  0.7546771E-02  0.1099240E+00
         21   -1    0    0  504  503  0.00000000000E+00  0.00000000000E+00  0.16733674750E+03  0.16733674750E+03  0.00000000000E+00 0.  1.
         21   -1    0    0  503  504 -0.00000000000E+00 -0.00000000000E+00 -0.11183178548E+03  0.11183178548E+03  0.00000000000E+00 0.  1.
         25    2    1    2    0    0  0.22319072988E+02  0.48519582698E+02  0.43439668806E+02  0.14270173773E+03  0.12499796079E+03 0.  0.
         25    2    1    2    0    0 -0.22319072988E+02 -0.48519582698E+02  0.12065293217E+02  0.13646679525E+03  0.12500129591E+03 0.  0.
          5    1    3    3  501    0 -0.37441762376E+02  0.56380527143E+02  0.46363533946E+02  0.82172481347E+02  0.47000000000E+01 0. -1.
         -5    1    3    3    0  501  0.59760835364E+02 -0.78609444445E+01 -0.29238651407E+01  0.60529256383E+02  0.47000000000E+01 0. -1.
          5    1    4    4  502    0 -0.16660940315E+01  0.23293243344E+02  0.47873955876E+02  0.53472953033E+02  0.47000000000E+01 0. -1.
         -5    1    4    4    0  502 -0.20652978957E+02 -0.71812826042E+02 -0.35808662660E+02  0.82993842214E+02  0.47000000000E+01 0. -1.
<mgrwt>
<rscale>  0 0.27359508E+03</rscale>
<asrwt>0</asrwt>
<pdfrwt beam="1">  1       21 0.25744115E-01 0.27359508E+03</pdfrwt>
<pdfrwt beam="2">  1       21 0.17204890E-01 0.27359508E+03</pdfrwt>
<totfact> 0.42988104E+05</totfact>
</mgrwt>
</event>
<event>
 8    1  0.9400004E-006  0.2856419E+03  0.7546771E-02  0.1092647E+00
         21   -1    0    0  504  503  0.00000000000E+00  0.00000000000E+00  0.39400943477E+03  0.39400943477E+03  0.00000000000E+00 0. -1.
         21   -1    0    0  503  504 -0.00000000000E+00 -0.00000000000E+00 -0.51769897051E+02  0.51769897051E+02  0.00000000000E+00 0. -1.
         25    2    1    2    0    0  0.33315860571E+02  0.79137437270E+01  0.26474595775E+03  0.29476724137E+03  0.12499892211E+03 0.  0.
         25    2    1    2    0    0 -0.33315860571E+02 -0.79137437270E+01  0.77493579963E+02  0.15101209045E+03  0.12500729028E+03 0.  0.
          5    1    3    3  501    0  0.30037159454E+02  0.84957565135E+01  0.16523485939E+01  0.31610584979E+02  0.47000000000E+01 0.  1.
         -5    1    3    3    0  501  0.32787011172E+01 -0.58201278658E+00  0.26309360916E+03  0.26315665639E+03  0.47000000000E+01 0.  1.
          5    1    4    4  502    0  0.51262946773E+01 -0.35088461007E+02 -0.21188052107E+02  0.41575263619E+02  0.47000000000E+01 0.  1.
         -5    1    4    4    0  502 -0.38442155249E+02  0.27174717280E+02  0.98681632069E+02  0.10943682683E+03  0.47000000000E+01 0.  1.
<mgrwt>
<rscale>  0 0.28564193E+03</rscale>
<asrwt>0</asrwt>
<pdfrwt beam="1">  1       21 0.60616834E-01 0.28564193E+03</pdfrwt>
<pdfrwt beam="2">  1       21 0.79645998E-02 0.28564193E+03</pdfrwt>
<totfact> 0.29962973E+05</totfact>
</mgrwt>
</event>
<event>
 8    1  0.9400004E-006  0.2941813E+03  0.7546771E-02  0.1088186E+00
         21   -1    0    0  504  503  0.00000000000E+00  0.00000000000E+00  0.43133113918E+03  0.43133113918E+03  0.00000000000E+00 0. -1.
         21   -1    0    0  503  504 -0.00000000000E+00 -0.00000000000E+00 -0.50160223917E+02  0.50160223917E+02  0.00000000000E+00 0. -1.
         25    2    1    2    0    0 -0.45096965607E+02 -0.34209493040E+01  0.87493286849E+02  0.15913607629E+03  0.12499510523E+03 0.  0.
         25    2    1    2    0    0  0.45096965607E+02  0.34209493040E+01  0.29367762842E+03  0.32235528681E+03  0.12498376815E+03 0.  0.
          5    1    3    3  501    0 -0.43317003014E+02  0.55384282550E+02  0.29507075987E+02  0.76397244957E+02  0.47000000000E+01 0.  1.
         -5    1    3    3    0  501 -0.17799625931E+01 -0.58805231854E+02  0.57986210861E+02  0.82738831332E+02  0.47000000000E+01 0.  1.
          5    1    4    4  502    0 -0.14791037542E+01 -0.56583790790E+02  0.12337641289E+03  0.13582246643E+03  0.47000000000E+01 0. -1.
         -5    1    4    4    0  502  0.46576069361E+02  0.60004740095E+02  0.17030121552E+03  0.18653282038E+03  0.47000000000E+01 0. -1.
<mgrwt>
<rscale>  0 0.29418135E+03</rscale>
<asrwt>0</asrwt>
<pdfrwt beam="1">  1       21 0.66358634E-01 0.29418135E+03</pdfrwt>
<pdfrwt beam="2">  1       21 0.77169578E-02 0.29418135E+03</pdfrwt>
<totfact> 0.25928962E+05</totfact>
</mgrwt>
</event>
<event>
 8    1  0.9400004E-006  0.4146317E+03  0.7546771E-02  0.1038828E+00
         21   -1    0    0  504  503  0.00000000000E+00  0.00000000000E+00  0.94827224481E+03  0.94827224481E+03  0.00000000000E+00 0.  1.
         21   -1    0    0  503  504 -0.00000000000E+00 -0.00000000000E+00 -0.45324389876E+02  0.45324389876E+02  0.00000000000E+00 0.  1.
         25    2    1    2    0    0  0.31103361824E+02 -0.13064627400E+03  0.22013231099E+03  0.28656567442E+03  0.12500313352E+03 0.  0.
         25    2    1    2    0    0 -0.31103361824E+02  0.13064627400E+03  0.68281554394E+03  0.70703096026E+03  0.12497937308E+03 0.  0.
          5    1    3    3  501    0  0.12638353958E+02  0.85638925300E+01  0.10128024089E+03  0.10253216784E+03  0.47000000000E+01 0.  1.
         -5    1    3    3    0  501  0.18465007866E+02 -0.13921016653E+03  0.11885207010E+03  0.18403350659E+03  0.47000000000E+01 0.  1.
          5    1    4    4  502    0  0.10906672787E+02 -0.98509455848E+01  0.24095161264E+03  0.24144516204E+03  0.47000000000E+01 0. -1.
         -5    1    4    4    0  502 -0.42010034612E+02  0.14049721958E+03  0.44186393130E+03  0.46558579822E+03  0.47000000000E+01 0. -1.
<mgrwt>
<rscale>  0 0.41463170E+03</rscale>
<asrwt>0</asrwt>
<pdfrwt beam="1">  1       21 0.14588802E+00 0.41463170E+03</pdfrwt>
<pdfrwt beam="2">  1       21 0.69729838E-02 0.41463170E+03</pdfrwt>
<totfact> 0.44843813E+04</totfact>
</mgrwt>
</event>
<event>
 8    1  0.9400004E-006  0.3292846E+03  0.7546771E-02  0.1071454E+00
         21   -1    0    0  504  503  0.00000000000E+00  0.00000000000E+00  0.36882185767E+02  0.36882185767E+02  0.00000000000E+00 0. -1.
         21   -1    0    0  503  504 -0.00000000000E+00 -0.00000000000E+00 -0.73496402486E+03  0.73496402486E+03  0.00000000000E+00 0. -1.
         25    2    1    2    0    0  0.14129861971E+02  0.19489960408E+02 -0.10433885477E+03  0.16461131868E+03  0.12502311012E+03 0.  0.
         25    2    1    2    0    0 -0.14129861971E+02 -0.19489960408E+02 -0.59374298432E+03  0.60723489195E+03  0.12499588400E+03 0.  0.
          5    1    3    3  501    0  0.35200551825E+02 -0.28600751312E+02 -0.10213471913E+03  0.11185111835E+03  0.47000000000E+01 0.  1.
         -5    1    3    3    0  501 -0.21070689855E+02  0.48090711719E+02 -0.22041356442E+01  0.52760200327E+02  0.47000000000E+01 0.  1.
          5    1    4    4  502    0 -0.48442844635E+02  0.28098446749E+02 -0.42113236629E+03  0.42486561622E+03  0.47000000000E+01 0.  1.
         -5    1    4    4    0  502  0.34312982664E+02 -0.47588407157E+02 -0.17261061803E+03  0.18236927573E+03  0.47000000000E+01 0.  1.
<mgrwt>
<rscale>  0 0.32928456E+03</rscale>
<asrwt>0</asrwt>
<pdfrwt beam="1">  1       21 0.56741828E-02 0.32928456E+03</pdfrwt>
<pdfrwt beam="2">  1       21 0.11307138E+00 0.32928456E+03</pdfrwt>
<totfact> 0.12661502E+05</totfact>
</mgrwt>
</event>
<event>
 8    1  0.9400004E-006  0.3708915E+03  0.7546771E-02  0.1054353E+00
         21   -1    0    0  504  503  0.00000000000E+00  0.00000000000E+00  0.49509891109E+02  0.49509891109E+02  0.00000000000E+00 0. -1.
         21   -1    0    0  503  504 -0.00000000000E+00 -0.00000000000E+00 -0.69461105303E+03  0.69461105303E+03  0.00000000000E+00 0. -1.
         25    2    1    2    0    0 -0.72568280958E+01  0.23372346743E+02 -0.59291314964E+03  0.60643931409E+03  0.12499484191E+03 0.  0.
         25    2    1    2    0    0  0.72568280958E+01 -0.23372346743E+02 -0.52188012278E+02  0.13768163005E+03  0.12503485307E+03 0.  0.
          5    1    3    3  501    0 -0.29852613627E+02  0.33703362727E+02 -0.57154143417E+03  0.57333131449E+03  0.47000000000E+01 0. -1.
         -5    1    3    3    0  501  0.22595785531E+02 -0.10331015984E+02 -0.21371715470E+02  0.33107999595E+02  0.47000000000E+01 0. -1.
          5    1    4    4  502    0  0.43605582517E+02  0.18242842251E+02  0.15695716820E+02  0.50026929213E+02  0.47000000000E+01 0. -1.
         -5    1    4    4    0  502 -0.36348754421E+02 -0.41615188994E+02 -0.67883729098E+02  0.87654700839E+02  0.47000000000E+01 0. -1.
<mgrwt>
<rscale>  0 0.37089145E+03</rscale>
<asrwt>0</asrwt>
<pdfrwt beam="1">  1       21 0.76169066E-02 0.37089145E+03</pdfrwt>
<pdfrwt beam="2">  1       21 0.10686324E+00 0.37089145E+03</pdfrwt>
<totfact> 0.86172870E+04</totfact>
</mgrwt>
</event>
<event>
 8    1  0.9400004E-006  0.4772698E+03  0.7546771E-02  0.1019888E+00
         21   -1    0    0  504  503  0.00000000000E+00  0.00000000000E+00  0.14190869352E+03  0.14190869352E+03  0.00000000000E+00 0.  1.
         21   -1    0    0  503  504 -0.00000000000E+00 -0.00000000000E+00 -0.40129056068E+03  0.40129056068E+03  0.00000000000E+00 0.  1.
         25    2    1    2    0    0 -0.19591043025E+03 -0.12938592369E+02 -0.69790110036E+02  0.24299036993E+03  0.12500142626E+03 0.  0.
         25    2    1    2    0    0  0.19591043025E+03  0.12938592369E+02 -0.18959175713E+03  0.30020888427E+03  0.12502814072E+03 0.  0.
          5    1    3    3  501    0 -0.15278609465E+03 -0.11627080454E+02 -0.10607489929E+03  0.18642090542E+03  0.47000000000E+01 0. -1.
         -5    1    3    3    0  501 -0.43124335594E+02 -0.13115119147E+01  0.36284789250E+02  0.56569464509E+02  0.47000000000E+01 0. -1.
          5    1    4    4  502    0  0.59957840365E+02  0.34445166512E+01 -0.14454646393E+03  0.15659686316E+03  0.47000000000E+01 0.  1.
         -5    1    4    4    0  502  0.13595258988E+03  0.94940757174E+01 -0.45045293200E+02  0.14361202112E+03  0.47000000000E+01 0.  1.
<mgrwt>
<rscale>  0 0.47726982E+03</rscale>
<asrwt>0</asrwt>
<pdfrwt beam="1">  1       21 0.21832107E-01 0.47726982E+03</pdfrwt>
<pdfrwt beam="2">  1       21 0.61737008E-01 0.47726982E+03</pdfrwt>
<totfact> 0.43551541E+04</totfact>
</mgrwt>
</event>
<event>
 8    1  0.9400004E-006  0.5030461E+03  0.7546771E-02  0.1012987E+00
         21   -1    0    0  504  503  0.00000000000E+00  0.00000000000E+00  0.23838378985E+03  0.23838378985E+03  0.00000000000E+00 0.  1.
         21   -1    0    0  503  504 -0.00000000000E+00 -0.00000000000E+00 -0.26538652596E+03  0.26538652596E+03  0.00000000000E+00 0.  1.
         25    2    1    2    0    0 -0.60835616188E+02 -0.14955438958E+03 -0.16058870944E+03  0.25977184408E+03  0.12500075895E+03 0.  0.
         25    2    1    2    0    0  0.60835616188E+02  0.14955438958E+03  0.13358597333E+03  0.24399847172E+03  0.12499021678E+03 0.  0.
          5    1    3    3  501    0 -0.45701093037E+02 -0.13542014876E+03 -0.56858103926E+02  0.15389002754E+03  0.47000000000E+01 0.  1.
         -5    1    3    3    0  501 -0.15134523151E+02 -0.14134240828E+02 -0.10373060551E+03  0.10588181654E+03  0.47000000000E+01 0.  1.
          5    1    4    4  502    0 -0.29466465487E+02  0.78678284499E+02  0.83890108600E+02  0.11881997038E+03  0.47000000000E+01 0.  1.
         -5    1    4    4    0  502  0.90302081675E+02  0.70876105085E+02  0.49695864727E+02  0.12517850134E+03  0.47000000000E+01 0.  1.
<mgrwt>
<rscale>  0 0.50304610E+03</rscale>
<asrwt>0</asrwt>
<pdfrwt beam="1">  1       21 0.36674429E-01 0.50304610E+03</pdfrwt>
<pdfrwt beam="2">  1       21 0.40828696E-01 0.50304610E+03</pdfrwt>
<totfact> 0.37530844E+04</totfact>
</mgrwt>
</event>
<event>
 8    1  0.9400004E-006  0.3026118E+03  0.7546771E-02  0.1083942E+00
         21   -1    0    0  504  503  0.00000000000E+00  0.00000000000E+00  0.30285430154E+02  0.30285430154E+02  0.00000000000E+00 0. -1.
         21   -1    0    0  503  504 -0.00000000000E+00 -0.00000000000E+00 -0.75592391926E+03  0.75592391926E+03  0.00000000000E+00 0. -1.
         25    2    1    2    0    0 -0.28099519386E+02 -0.77798886526E+02 -0.41638403597E+03  0.44254367830E+03  0.12500796798E+03 0.  0.
         25    2    1    2    0    0  0.28099519386E+02  0.77798886526E+02 -0.30925445314E+03  0.34366567112E+03  0.12500210792E+03 0.  0.
          5    1    3    3  501    0 -0.45940966817E+02 -0.86397830557E+02 -0.17705446121E+03  0.20235001801E+03  0.47000000000E+01 0.  1.
         -5    1    3    3    0  501  0.17841447431E+02  0.85989440319E+01 -0.23932957477E+03  0.24019366029E+03  0.47000000000E+01 0.  1.
          5    1    4    4  502    0 -0.39737805594E+02 -0.64926583771E+01 -0.10335709532E+03  0.11102264165E+03  0.47000000000E+01 0.  1.
         -5    1    4    4    0  502  0.67837324980E+02  0.84291544903E+02 -0.20589735782E+03  0.23264302947E+03  0.47000000000E+01 0.  1.
<mgrwt>
<rscale>  0 0.30261184E+03</rscale>
<asrwt>0</asrwt>
<pdfrwt beam="1">  1       21 0.46592970E-02 0.30261184E+03</pdfrwt>
<pdfrwt beam="2">  1       21 0.11629599E+00 0.30261184E+03</pdfrwt>
<totfact> 0.16680176E+05</totfact>
</mgrwt>
</event>
<event>
 8    1  0.9400004E-006  0.2761093E+03  0.7546771E-02  0.1097833E+00
         21   -1    0    0  504  503  0.00000000000E+00  0.00000000000E+00  0.12363760758E+04  0.12363760758E+04  0.00000000000E+00 0. -1.
         21   -1    0    0  503  504 -0.00000000000E+00 -0.00000000000E+00 -0.15415282176E+02  0.15415282176E+02  0.00000000000E+00 0. -1.
         25    2    1    2    0    0 -0.13300306429E+02  0.38598452682E+02  0.41994940537E+03  0.44005726083E+03  0.12500460407E+03 0.  0.
         25    2    1    2    0    0  0.13300306429E+02 -0.38598452682E+02  0.80101138822E+03  0.81173409711E+03  0.12500504652E+03 0.  0.
          5    1    3    3  501    0  0.52249562142E+02  0.38014192874E+02  0.18146452489E+03  0.19268253526E+03  0.47000000000E+01 0.  1.
         -5    1    3    3    0  501 -0.65549868571E+02  0.58425980882E+00  0.23848488049E+03  0.24737472557E+03  0.47000000000E+01 0.  1.
          5    1    4    4  502    0  0.30432131858E+01 -0.78761066436E+01 -0.38351967508E+00  0.96711576193E+01  0.47000000000E+01 0.  1.
         -5    1    4    4    0  502  0.10257093243E+02 -0.30722346039E+02  0.80139490790E+03  0.80206293949E+03  0.47000000000E+01 0.  1.
<mgrwt>
<rscale>  0 0.27610930E+03</rscale>
<asrwt>0</asrwt>
<pdfrwt beam="1">  1       21 0.19021163E+00 0.27610930E+03</pdfrwt>
<pdfrwt beam="2">  1       21 0.23715829E-02 0.27610930E+03</pdfrwt>
<totfact> 0.13945370E+05</totfact>
</mgrwt>
</event>
<event>
 8    1  0.9400004E-006  0.3617786E+03  0.7546771E-02  0.1057882E+00
         21   -1    0    0  504  503  0.00000000000E+00  0.00000000000E+00  0.58050540630E+02  0.58050540630E+02  0.00000000000E+00 0. -1.
         21   -1    0    0  503  504 -0.00000000000E+00 -0.00000000000E+00 -0.56366289603E+03  0.56366289603E+03  0.00000000000E+00 0. -1.
         25    2    1    2    0    0  0.21353253892E+02 -0.13954383528E+02 -0.47322174353E+03  0.49011779501E+03  0.12500379263E+03 0.  0.
         25    2    1    2    0    0 -0.21353253892E+02  0.13954383528E+02 -0.32390611874E+02  0.13159564165E+03  0.12497029604E+03 0.  0.
          5    1    3    3  501    0 -0.20070873104E+02  0.44734488405E+02 -0.12149930534E+03  0.13110372077E+03  0.47000000000E+01 0.  1.
         -5    1    3    3    0  501  0.41424126995E+02 -0.58688871933E+02 -0.35172243818E+03  0.35901407425E+03  0.47000000000E+01 0.  1.
          5    1    4    4  502    0 -0.21899954896E+02 -0.15768177410E+02 -0.74762480553E+02  0.79622622048E+02  0.47000000000E+01 0. -1.
         -5    1    4    4    0  502  0.54670100413E+00  0.29722560939E+02  0.42371868679E+02  0.51973019598E+02  0.47000000000E+01 0. -1.
<mgrwt>
<rscale>  0 0.36177858E+03</rscale>
<asrwt>0</asrwt>
<pdfrwt beam="1">  1       21 0.89308523E-02 0.36177858E+03</pdfrwt>
<pdfrwt beam="2">  1       21 0.86717370E-01 0.36177858E+03</pdfrwt>
<totfact> 0.10748810E+05</totfact>
</mgrwt>
</event>
<event>
 8    1  0.9400004E-006  0.3281152E+03  0.7546771E-02  0.1071974E+00
         21   -1    0    0  504  503  0.00000000000E+00  0.00000000000E+00  0.25465602075E+03  0.25465602075E+03  0.00000000000E+00 0. -1.
         21   -1    0    0  503  504 -0.00000000000E+00 -0.00000000000E+00 -0.10569117656E+03  0.10569117656E+03  0.00000000000E+00 0. -1.
         25    2    1    2    0    0  0.46801975961E+02 -0.26177758492E+02  0.17522500700E+03  0.22182205540E+03  0.12500208475E+03 0.  0.
         25    2    1    2    0    0 -0.46801975961E+02  0.26177758492E+02 -0.26260162807E+02  0.13852514190E+03  0.12499567510E+03 0.  0.
          5    1    3    3  501    0 -0.40012491530E+02 -0.14429569923E+01  0.28073928108E+02  0.49125523333E+02  0.47000000000E+01 0.  1.
         -5    1    3    3    0  501  0.86814467491E+02 -0.24734801500E+02  0.14715107889E+03  0.17269653207E+03  0.47000000000E+01 0.  1.
          5    1    4    4  502    0  0.39686500864E+01 -0.46440706643E+02 -0.14371659491E+02  0.49001265428E+02  0.47000000000E+01 0.  1.
         -5    1    4    4    0  502 -0.50770626047E+02  0.72618465135E+02 -0.11888503316E+02  0.89523876474E+02  0.47000000000E+01 0.  1.
<mgrwt>
<rscale>  0 0.32811519E+03</rscale>
<asrwt>0</asrwt>
<pdfrwt beam="1">  1       21 0.39177849E-01 0.32811519E+03</pdfrwt>
<pdfrwt beam="2">  1       21 0.16260181E-01 0.32811519E+03</pdfrwt>
<totfact> 0.20541047E+05</totfact>
</mgrwt>
</event>
<event>
 8    1  0.9400004E-006  0.2674589E+03  0.7546771E-02  0.1102743E+00
         21   -1    0    0  504  503  0.00000000000E+00  0.00000000000E+00  0.26935033501E+02  0.26935033501E+02  0.00000000000E+00 0.  1.
         21   -1    0    0  503  504 -0.00000000000E+00 -0.00000000000E+00 -0.66395179870E+03  0.66395179870E+03  0.00000000000E+00 0.  1.
         25    2    1    2    0    0 -0.15096857263E+02  0.21611537845E+02 -0.42066258544E+03  0.43963254195E+03  0.12499914993E+03 0.  0.
         25    2    1    2    0    0  0.15096857263E+02 -0.21611537845E+02 -0.21635417976E+03  0.25125429025E+03  0.12499845441E+03 0.  0.
          5    1    3    3  501    0  0.47910475636E+01  0.52593616344E+02 -0.74248032460E+02  0.91235425910E+02  0.47000000000E+01 0. -1.
         -5    1    3    3    0  501 -0.19887904826E+02 -0.30982078498E+02 -0.34641455298E+03  0.34839711604E+03  0.47000000000E+01 0. -1.
          5    1    4    4  502    0  0.15045841503E+02 -0.69723814159E+02 -0.16939255230E+03  0.18385786462E+03  0.47000000000E+01 0. -1.
         -5    1    4    4    0  502  0.51015760085E-01  0.48112276313E+02 -0.46961627455E+02  0.67396425631E+02  0.47000000000E+01 0. -1.
<mgrwt>
<rscale>  0 0.26745889E+03</rscale>
<asrwt>0</asrwt>
<pdfrwt beam="1">  1       21 0.41438510E-02 0.26745889E+03</pdfrwt>
<pdfrwt beam="2">  1       21 0.10214644E+00 0.26745889E+03</pdfrwt>
<totfact> 0.28211101E+05</totfact>
</mgrwt>
</event>
<event>
 8    1  0.9400004E-006  0.3424234E+03  0.7546771E-02  0.1065768E+00
         21   -1    0    0  504  503  0.00000000000E+00  0.00000000000E+00  0.16021811846E+03  0.16021811846E+03  0.00000000000E+00 0. -1.
         21   -1    0    0  503  504 -0.00000000000E+00 -0.00000000000E+00 -0.18295959759E+03  0.18295959759E+03  0.00000000000E+00 0. -1.
         25    2    1    2    0    0 -0.52121313126E+02 -0.10132339619E+03  0.15321546252E+02  0.16985171195E+03  0.12502716656E+03 0.  0.
         25    2    1    2    0    0  0.52121313126E+02  0.10132339619E+03 -0.38063025382E+02  0.17332600410E+03  0.12494017728E+03 0.  0.
          5    1    3    3  501    0 -0.33614470327E+02 -0.74068321984E+02  0.68951833743E+02  0.10673562814E+03  0.47000000000E+01 0.  1.
         -5    1    3    3    0  501 -0.18506842799E+02 -0.27255074206E+02 -0.53630287491E+02  0.63116083820E+02  0.47000000000E+01 0.  1.
          5    1    4    4  502    0 -0.13227419081E+01 -0.84193307448E+00 -0.56283304668E+02  0.56500963548E+02  0.47000000000E+01 0.  1.
         -5    1    4    4    0  502  0.53444055034E+02  0.10216532926E+03  0.18220279287E+02  0.11682504055E+03  0.47000000000E+01 0.  1.
<mgrwt>
<rscale>  0 0.34242338E+03</rscale>
<asrwt>0</asrwt>
<pdfrwt beam="1">  1       21 0.24648941E-01 0.34242338E+03</pdfrwt>
<pdfrwt beam="2">  1       21 0.28147630E-01 0.34242338E+03</pdfrwt>
<totfact> 0.18051392E+05</totfact>
</mgrwt>
</event>
<event>
 8    1  0.9400004E-006  0.2774048E+03  0.7546771E-02  0.1097115E+00
         21   -1    0    0  504  503  0.00000000000E+00  0.00000000000E+00  0.42252386154E+03  0.42252386154E+03  0.00000000000E+00 0. -1.
         21   -1    0    0  503  504 -0.00000000000E+00 -0.00000000000E+00 -0.45531990407E+02  0.45531990407E+02  0.00000000000E+00 0. -1.
         25    2    1    2    0    0 -0.91481089109E+01  0.41400077476E+02  0.11661684539E+03  0.17613283174E+03  0.12500252588E+03 0.  0.
         25    2    1    2    0    0  0.91481089109E+01 -0.41400077476E+02  0.26037502574E+03  0.29192302020E+03  0.12500496543E+03 0.  0.
          5    1    3    3  501    0 -0.13548203616E+02 -0.57626377493E+01  0.12656429383E+03  0.12750440105E+03  0.47000000000E+01 0.  1.
         -5    1    3    3    0  501  0.44000947056E+01  0.47162715225E+02 -0.99474484401E+01  0.48628430689E+02  0.47000000000E+01 0.  1.
          5    1    4    4  502    0  0.47968536796E+02 -0.12948715943E+02  0.22877386124E+03  0.23415426401E+03  0.47000000000E+01 0. -1.
         -5    1    4    4    0  502 -0.38820427885E+02 -0.28451361533E+02  0.31601164499E+02  0.57768756192E+02  0.47000000000E+01 0. -1.
<mgrwt>
<rscale>  0 0.27740478E+03</rscale>
<asrwt>0</asrwt>
<pdfrwt beam="1">  1       21 0.65003668E-01 0.27740478E+03</pdfrwt>
<pdfrwt beam="2">  1       21 0.70049219E-02 0.27740478E+03</pdfrwt>
<totfact> 0.32250289E+05</totfact>
</mgrwt>
</event>
<event>
 8    1  0.9400004E-006  0.5579633E+03  0.7546771E-02  0.9996674E-01
         21   -1    0    0  504  503  0.00000000000E+00  0.00000000000E+00  0.83930420049E+03  0.83930420049E+03  0.00000000000E+00 0. -1.
         21   -1    0    0  503  504 -0.00000000000E+00 -0.00000000000E+00 -0.92732464869E+02  0.92732464869E+02  0.00000000000E+00 0. -1.
         25    2    1    2    0    0  0.23504718013E+03  0.40587871374E+02  0.25157090971E+03  0.36852188576E+03  0.12500362187E+03 0.  0.
         25    2    1    2    0    0 -0.23504718013E+03 -0.40587871374E+02  0.49500082592E+03  0.56351477960E+03  0.12501414714E+03 0.  0.
          5    1    3    3  501    0  0.16746275191E+03  0.85025094627E+02  0.18489311374E+03  0.26359171744E+03  0.47000000000E+01 0.  1.
         -5    1    3    3    0  501  0.67584428221E+02 -0.44437223253E+02  0.66677795960E+02  0.10493016831E+03  0.47000000000E+01 0.  1.
          5    1    4    4  502    0 -0.28766412664E+02  0.35943083499E+02  0.12132344037E+03  0.12984944718E+03  0.47000000000E+01 0. -1.
         -5    1    4    4    0  502 -0.20628076747E+03 -0.76530954874E+02  0.37367738554E+03  0.43366533243E+03  0.47000000000E+01 0. -1.
<mgrwt>
<rscale>  0 0.55796325E+03</rscale>
<asrwt>0</asrwt>
<pdfrwt beam="1">  1       21 0.12912372E+00 0.55796325E+03</pdfrwt>
<pdfrwt beam="2">  1       21 0.14266534E-01 0.55796325E+03</pdfrwt>
<totfact> 0.16442569E+04</totfact>
</mgrwt>
</event>
<event>
 8    1  0.9400004E-006  0.3148757E+03  0.7546771E-02  0.1078032E+00
         21   -1    0    0  504  503  0.00000000000E+00  0.00000000000E+00  0.14500515711E+03  0.14500515711E+03  0.00000000000E+00 0.  1.
         21   -1    0    0  503  504 -0.00000000000E+00 -0.00000000000E+00 -0.17093653444E+03  0.17093653444E+03  0.00000000000E+00 0.  1.
         25    2    1    2    0    0 -0.87474708394E+02  0.22860812438E+02  0.18559231000E+02  0.15538429237E+03  0.12500156762E+03 0.  0.
         25    2    1    2    0    0  0.87474708394E+02 -0.22860812438E+02 -0.44490608338E+02  0.16055739918E+03  0.12499929138E+03 0.  0.
          5    1    3    3  501    0 -0.55837400114E+02 -0.24498665519E+02 -0.40382856841E+02  0.73286185535E+02  0.47000000000E+01 0.  1.
         -5    1    3    3    0  501 -0.31637308280E+02  0.47359477957E+02  0.58942087841E+02  0.82098106839E+02  0.47000000000E+01 0.  1.
          5    1    4    4  502    0  0.47405062163E+00  0.16654992539E+02 -0.61057035959E+02  0.63463888477E+02  0.47000000000E+01 0.  1.
         -5    1    4    4    0  502  0.87000657772E+02 -0.39515804977E+02  0.16566427621E+02  0.97093510699E+02  0.47000000000E+01 0.  1.
<mgrwt>
<rscale>  0 0.31487572E+03</rscale>
<asrwt>0</asrwt>
<pdfrwt beam="1">  1       21 0.22308486E-01 0.31487572E+03</pdfrwt>
<pdfrwt beam="2">  1       21 0.26297928E-01 0.31487572E+03</pdfrwt>
<totfact> 0.25101213E+05</totfact>
</mgrwt>
</event>
<event>
 8    1  0.9400004E-006  0.4750462E+03  0.7546771E-02  0.1020506E+00
         21   -1    0    0  504  503  0.00000000000E+00  0.00000000000E+00  0.15542785691E+04  0.15542785691E+04  0.00000000000E+00 0. -1.
         21   -1    0    0  503  504 -0.00000000000E+00 -0.00000000000E+00 -0.36298009136E+02  0.36298009136E+02  0.00000000000E+00 0. -1.
         25    2    1    2    0    0 -0.32685812465E+02 -0.16061764133E+03  0.36379459906E+03  0.41812744844E+03  0.12497065172E+03 0.  0.
         25    2    1    2    0    0  0.32685812465E+02  0.16061764133E+03  0.11541859609E+04  0.11724491298E+04  0.12500136224E+03 0.  0.
          5    1    3    3  501    0  0.10471699731E+02 -0.15241579931E+03  0.32573756158E+03  0.35981562140E+03  0.47000000000E+01 0. -1.
         -5    1    3    3    0  501 -0.43157512196E+02 -0.82018420214E+01  0.38057037472E+02  0.58311827039E+02  0.47000000000E+01 0. -1.
          5    1    4    4  502    0 -0.28208747735E+02  0.55193552276E+02  0.17500553471E+03  0.18571776663E+03  0.47000000000E+01 0.  1.
         -5    1    4    4    0  502  0.60894560200E+02  0.10542408906E+03  0.97918042621E+03  0.98673136318E+03  0.47000000000E+01 0.  1.
<mgrwt>
<rscale>  0 0.47504618E+03</rscale>
<asrwt>0</asrwt>
<pdfrwt beam="1">  1       21 0.23911973E+00 0.47504618E+03</pdfrwt>
<pdfrwt beam="2">  1       21 0.55843103E-02 0.47504618E+03</pdfrwt>
<totfact> 0.14750384E+04</totfact>
</mgrwt>
</event>
<event>
 8    1  0.9400004E-006  0.2735384E+03  0.7546771E-02  0.1099271E+00
         21   -1    0    0  504  503  0.00000000000E+00  0.00000000000E+00  0.24937874764E+03  0.24937874764E+03  0.00000000000E+00 0. -1.
         21   -1    0    0  503  504 -0.00000000000E+00 -0.00000000000E+00 -0.75009680580E+02  0.75009680580E+02  0.00000000000E+00 0. -1.
         25    2    1    2    0    0  0.54060695479E+02  0.52144084431E+01  0.10079148240E+03  0.16950637999E+03  0.12499496423E+03 0.  0.
         25    2    1    2    0    0 -0.54060695479E+02 -0.52144084431E+01  0.73577584657E+02  0.15488204823E+03  0.12500015619E+03 0.  0.
          5    1    3    3  501    0 -0.17502329969E+02 -0.42169870245E+02  0.56547385465E+02  0.72830806077E+02  0.47000000000E+01 0. -1.
         -5    1    3    3    0  501  0.71563025447E+02  0.47384278689E+02  0.44244096937E+02  0.96675573915E+02  0.47000000000E+01 0. -1.
          5    1    4    4  502    0  0.27553888149E+02  0.16097012739E+02 -0.12201129307E+02  0.34486057003E+02  0.47000000000E+01 0.  1.
         -5    1    4    4    0  502 -0.81614583627E+02 -0.21311421182E+02  0.85778713965E+02  0.12039599122E+03  0.47000000000E+01 0.  1.
<mgrwt>
<rscale>  0 0.27353844E+03</rscale>
<asrwt>0</asrwt>
<pdfrwt beam="1">  1       21 0.38365961E-01 0.27353844E+03</pdfrwt>
<pdfrwt beam="2">  1       21 0.11539951E-01 0.27353844E+03</pdfrwt>
<totfact> 0.40523533E+05</totfact>
</mgrwt>
</event>
<event>
 8    1  0.9400004E-006  0.3391864E+03  0.7546771E-02  0.1067143E+00
         21   -1    0    0  504  503  0.00000000000E+00  0.00000000000E+00  0.64579912375E+03  0.64579912375E+03  0.00000000000E+00 0. -1.
         21   -1    0    0  503  504 -0.00000000000E+00 -0.00000000000E+00 -0.44536834326E+02  0.44536834326E+02  0.00000000000E+00 0. -1.
         25    2    1    2    0    0 -0.11435926381E+03 -0.61746153550E+01  0.31001833246E+03  0.35334347144E+03  0.12499630095E+03 0.  0.
         25    2    1    2    0    0  0.11435926381E+03  0.61746153550E+01  0.29124395696E+03  0.33699248664E+03  0.12499890597E+03 0.  0.
          5    1    3    3  501    0  0.20884921922E+02 -0.22827283332E+02  0.39386727784E+02  0.50305756664E+02  0.47000000000E+01 0.  1.
         -5    1    3    3    0  501 -0.13524418573E+03  0.16652667977E+02  0.27063160468E+03  0.30303771477E+03  0.47000000000E+01 0.  1.
          5    1    4    4  502    0  0.59429207430E+02  0.49769278260E+02  0.23335338716E+03  0.24593638416E+03  0.47000000000E+01 0.  1.
         -5    1    4    4    0  502  0.54930056375E+02 -0.43594662905E+02  0.57890569800E+02  0.91056102481E+02  0.47000000000E+01 0.  1.
<mgrwt>
<rscale>  0 0.33918637E+03</rscale>
<asrwt>0</asrwt>
<pdfrwt beam="1">  1       21 0.99353705E-01 0.33918637E+03</pdfrwt>
<pdfrwt beam="2">  1       21 0.68518211E-02 0.33918637E+03</pdfrwt>
<totfact> 0.12486620E+05</totfact>
</mgrwt>
</event>
<event>
 8    1  0.9400004E-006  0.4695095E+03  0.7546771E-02  0.1022059E+00
         21   -1    0    0  504  503  0.00000000000E+00  0.00000000000E+00  0.30588643499E+03  0.30588643499E+03  0.00000000000E+00 0.  1.
         21   -1    0    0  503  504 -0.00000000000E+00 -0.00000000000E+00 -0.18016420049E+03  0.18016420049E+03  0.00000000000E+00 0.  1.
         25    2    1    2    0    0  0.12073905074E+03 -0.12742004593E+03  0.15932669233E+03  0.26800192885E+03  0.12500500990E+03 0.  0.
         25    2    1    2    0    0 -0.12073905074E+03  0.12742004593E+03 -0.33604457835E+02  0.21804870663E+03  0.12490873628E+03 0.  0.
          5    1    3    3  501    0 -0.58611275661E+00 -0.83335388317E+02  0.41736728343E+02  0.93322960556E+02  0.47000000000E+01 0.  1.
         -5    1    3    3    0  501  0.12132516349E+03 -0.44084657617E+02  0.11758996399E+03  0.17467896829E+03  0.47000000000E+01 0.  1.
          5    1    4    4  502    0 -0.98350636347E+01  0.68760264986E+02  0.31738948335E+02  0.76512439243E+02  0.47000000000E+01 0. -1.
         -5    1    4    4    0  502 -0.11090398710E+03  0.58659780949E+02 -0.65343406170E+02  0.14153626739E+03  0.47000000000E+01 0. -1.
<mgrwt>
<rscale>  0 0.46950947E+03</rscale>
<asrwt>0</asrwt>
<pdfrwt beam="1">  1       21 0.47059451E-01 0.46950947E+03</pdfrwt>
<pdfrwt beam="2">  1       21 0.27717569E-01 0.46950947E+03</pdfrwt>
<totfact> 0.49231322E+04</totfact>
</mgrwt>
</event>
<event>
 8    1  0.9400004E-006  0.4277509E+03  0.7546771E-02  0.1034573E+00
         21   -1    0    0  504  503  0.00000000000E+00  0.00000000000E+00  0.39654026338E+03  0.39654026338E+03  0.00000000000E+00 0.  1.
         21   -1    0    0  503  504 -0.00000000000E+00 -0.00000000000E+00 -0.11535450330E+03  0.11535450330E+03  0.00000000000E+00 0.  1.
         25    2    1    2    0    0 -0.21791284618E+02 -0.86008421564E+02 -0.37902252529E+02  0.15790377064E+03  0.12499884548E+03 0.  0.
         25    2    1    2    0    0  0.21791284618E+02  0.86008421564E+02  0.31908801261E+03  0.35399099604E+03  0.12498062578E+03 0.  0.
          5    1    3    3  501    0  0.78813620657E+01  0.15676522530E+02  0.27769895597E+02  0.33183223594E+02  0.47000000000E+01 0.  1.
         -5    1    3    3    0  501 -0.29672646684E+02 -0.10168494409E+03 -0.65672148126E+02  0.12472054705E+03  0.47000000000E+01 0.  1.
          5    1    4    4  502    0  0.31497654168E+02  0.13956270419E+02  0.25377591348E+03  0.25614680159E+03  0.47000000000E+01 0. -1.
         -5    1    4    4    0  502 -0.97063695495E+01  0.72052151144E+02  0.65312099124E+02  0.97844194444E+02  0.47000000000E+01 0. -1.
<mgrwt>
<rscale>  0 0.42775089E+03</rscale>
<asrwt>0</asrwt>
<pdfrwt beam="1">  1       21 0.61006194E-01 0.42775089E+03</pdfrwt>
<pdfrwt beam="2">  1       21 0.17746847E-01 0.42775089E+03</pdfrwt>
<totfact> 0.66987399E+04</totfact>
</mgrwt>
</event>
<event>
 8    1  0.9400004E-006  0.3121566E+03  0.7546771E-02  0.1079317E+00
         21   -1    0    0  504  503  0.00000000000E+00  0.00000000000E+00  0.14748305764E+03  0.14748305764E+03  0.00000000000E+00 0. -1.
         21   -1    0    0  503  504 -0.00000000000E+00 -0.00000000000E+00 -0.16517451056E+03  0.16517451056E+03  0.00000000000E+00 0. -1.
         25    2    1    2    0    0  0.80139929528E+01  0.87433382496E+02 -0.41043082448E+02  0.15813799770E+03  0.12495707760E+03 0.  0.
         25    2    1    2    0    0 -0.80139929528E+01 -0.87433382496E+02  0.23351629522E+02  0.15451957050E+03  0.12498871393E+03 0.  0.
          5    1    3    3  501    0 -0.54626559450E+02  0.67185942078E+02 -0.23632173694E+02  0.89880929255E+02  0.47000000000E+01 0. -1.
         -5    1    3    3    0  501  0.62640552403E+02  0.20247440418E+02 -0.17410908754E+02  0.68257068443E+02  0.47000000000E+01 0. -1.
          5    1    4    4  502    0  0.18238458997E+02 -0.10832807756E+01  0.55483054176E+02  0.58602680694E+02  0.47000000000E+01 0. -1.
         -5    1    4    4    0  502 -0.26252451950E+02 -0.86350101720E+02 -0.32131424654E+02  0.95916889810E+02  0.47000000000E+01 0. -1.
<mgrwt>
<rscale>  0 0.31215664E+03</rscale>
<asrwt>0</asrwt>
<pdfrwt beam="1">  1       21 0.22689701E-01 0.31215664E+03</pdfrwt>
<pdfrwt beam="2">  1       21 0.25411463E-01 0.31215664E+03</pdfrwt>
<totfact> 0.25984938E+05</totfact>
</mgrwt>
</event>
<event>
 8    1  0.9400004E-006  0.3356349E+03  0.7546771E-02  0.1068670E+00
         21   -1    0    0  504  503  0.00000000000E+00  0.00000000000E+00  0.25895120507E+03  0.25895120507E+03  0.00000000000E+00 0.  1.
         21   -1    0    0  503  504 -0.00000000000E+00 -0.00000000000E+00 -0.10875676820E+03  0.10875676820E+03  0.00000000000E+00 0.  1.
         25    2    1    2    0    0  0.95957515702E+02 -0.56297580664E+02  0.61212523028E+02  0.17818165264E+03  0.12499786380E+03 0.  0.
         25    2    1    2    0    0 -0.95957515702E+02  0.56297580664E+02  0.88981913840E+02  0.18952632063E+03  0.12500073125E+03 0.  0.
          5    1    3    3  501    0  0.78331155283E+02 -0.52815622321E+02 -0.18458590070E+02  0.96374630461E+02  0.47000000000E+01 0. -1.
         -5    1    3    3    0  501  0.17626360419E+02 -0.34819583435E+01  0.79671113098E+02  0.81807022179E+02  0.47000000000E+01 0. -1.
          5    1    4    4  502    0 -0.97978949623E+02  0.89202196269E+02  0.60626849779E+02  0.14578961315E+03  0.47000000000E+01 0.  1.
         -5    1    4    4    0  502  0.20214339209E+01 -0.32904615604E+02  0.28355064061E+02  0.43736707478E+02  0.47000000000E+01 0.  1.
<mgrwt>
<rscale>  0 0.33563490E+03</rscale>
<asrwt>0</asrwt>
<pdfrwt beam="1">  1       21 0.39838647E-01 0.33563490E+03</pdfrwt>
<pdfrwt beam="2">  1       21 0.16731811E-01 0.33563490E+03</pdfrwt>
<totfact> 0.18795215E+05</totfact>
</mgrwt>
</event>
<event>
 8    1  0.9400004E-006  0.3953255E+03  0.7546771E-02  0.1045410E+00
         21   -1    0    0  504  503  0.00000000000E+00  0.00000000000E+00  0.19153690563E+03  0.19153690563E+03  0.00000000000E+00 0.  1.
         21   -1    0    0  503  504 -0.00000000000E+00 -0.00000000000E+00 -0.20398452081E+03  0.20398452081E+03  0.00000000000E+00 0.  1.
         25    2    1    2    0    0  0.43984207818E+02  0.12153925539E+03  0.75918800310E+02  0.19517789749E+03  0.12499738514E+03 0.  0.
         25    2    1    2    0    0 -0.43984207818E+02 -0.12153925539E+03 -0.88366415489E+02  0.20034352895E+03  0.12499001988E+03 0.  0.
          5    1    3    3  501    0  0.12592042739E+02  0.61933046632E+02  0.10420399646E+03  0.12196239045E+03  0.47000000000E+01 0. -1.
         -5    1    3    3    0  501  0.31392165079E+02  0.59606208759E+02 -0.28285196149E+02  0.73215507047E+02  0.47000000000E+01 0. -1.
          5    1    4    4  502    0 -0.60348757458E+01 -0.90322820953E+02  0.90877871684E+01  0.91100546573E+02  0.47000000000E+01 0.  1.
         -5    1    4    4    0  502 -0.37949332072E+02 -0.31216434437E+02 -0.97454202657E+02  0.10924298238E+03  0.47000000000E+01 0.  1.
<mgrwt>
<rscale>  0 0.39532551E+03</rscale>
<asrwt>0</asrwt>
<pdfrwt beam="1">  1       21 0.29467216E-01 0.39532551E+03</pdfrwt>
<pdfrwt beam="2">  1       21 0.31382234E-01 0.39532551E+03</pdfrwt>
<totfact> 0.10159955E+05</totfact>
</mgrwt>
</event>
<event>
 8    1  0.9400004E-006  0.3120221E+03  0.7546771E-02  0.1079381E+00
         21   -1    0    0  504  503  0.00000000000E+00  0.00000000000E+00  0.16815341521E+03  0.16815341521E+03  0.00000000000E+00 0.  1.
         21   -1    0    0  503  504 -0.00000000000E+00 -0.00000000000E+00 -0.14474552342E+03  0.14474552342E+03  0.00000000000E+00 0.  1.
         25    2    1    2    0    0  0.13166403470E+02 -0.71073687394E+02 -0.47527629911E+02  0.15201873932E+03  0.12500399306E+03 0.  0.
         25    2    1    2    0    0 -0.13166403470E+02  0.71073687394E+02  0.70935521698E+02  0.16088019930E+03  0.12500306824E+03 0.  0.
          5    1    3    3  501    0  0.37090467998E+02 -0.54357120336E+02 -0.82882136334E+02  0.10593364844E+03  0.47000000000E+01 0.  1.
         -5    1    3    3    0  501 -0.23924064528E+02 -0.16716567058E+02  0.35354506422E+02  0.46085090887E+02  0.47000000000E+01 0.  1.
          5    1    4    4  502    0 -0.69318743430E+00  0.10642124619E+03  0.54879931671E+02  0.11983262932E+03  0.47000000000E+01 0. -1.
         -5    1    4    4    0  502 -0.12473216035E+02 -0.35347558791E+02  0.16055590027E+02  0.41047569987E+02  0.47000000000E+01 0. -1.
<mgrwt>
<rscale>  0 0.31202214E+03</rscale>
<asrwt>0</asrwt>
<pdfrwt beam="1">  1       21 0.25869756E-01 0.31202214E+03</pdfrwt>
<pdfrwt beam="2">  1       21 0.22268542E-01 0.31202214E+03</pdfrwt>
<totfact> 0.26016501E+05</totfact>
</mgrwt>
</event>
<event>
 8    1  0.9400004E-006  0.4688669E+03  0.7546771E-02  0.1022240E+00
         21   -1    0    0  504  503  0.00000000000E+00  0.00000000000E+00  0.28232409166E+03  0.28232409166E+03  0.00000000000E+00 0. -1.
         21   -1    0    0  503  504 -0.00000000000E+00 -0.00000000000E+00 -0.19466653868E+03  0.19466653868E+03  0.00000000000E+00 0. -1.
         25    2    1    2    0    0  0.15040668065E+03 -0.59738659043E+02 -0.72794339468E+02  0.21706923141E+03  0.12501663248E+03 0.  0.
         25    2    1    2    0    0 -0.15040668065E+03  0.59738659043E+02  0.16045189245E+03  0.25992139893E+03  0.12499378729E+03 0.  0.
          5    1    3    3  501    0  0.14304223578E+02  0.22910261533E+02  0.18866856603E+02  0.33279711143E+02  0.47000000000E+01 0.  1.
         -5    1    3    3    0  501  0.13610245707E+03 -0.82648920576E+02 -0.91661196071E+02  0.18378952026E+03  0.47000000000E+01 0.  1.
          5    1    4    4  502    0 -0.58384858879E+02 -0.10162846499E+02 -0.31899023840E+01  0.59534365475E+02  0.47000000000E+01 0.  1.
         -5    1    4    4    0  502 -0.92021821773E+02  0.69901505542E+02  0.16364179483E+03  0.20038703345E+03  0.47000000000E+01 0.  1.
<mgrwt>
<rscale>  0 0.46886695E+03</rscale>
<asrwt>0</asrwt>
<pdfrwt beam="1">  1       21 0.43434476E-01 0.46886695E+03</pdfrwt>
<pdfrwt beam="2">  1       21 0.29948698E-01 0.46886695E+03</pdfrwt>
<totfact> 0.49978263E+04</totfact>
</mgrwt>
</event>
<event>
 8    1  0.9400004E-006  0.2974288E+03  0.7546771E-02  0.1086533E+00
         21   -1    0    0  504  503  0.00000000000E+00  0.00000000000E+00  0.53695882854E+03  0.53695882854E+03  0.00000000000E+00 0.  1.
         21   -1    0    0  503  504 -0.00000000000E+00 -0.00000000000E+00 -0.41187454126E+02  0.41187454126E+02  0.00000000000E+00 0.  1.
         25    2    1    2    0    0  0.25624425522E+02 -0.57641884575E+02  0.34530158739E+03  0.37261005046E+03  0.12500346157E+03 0.  0.
         25    2    1    2    0    0 -0.25624425522E+02  0.57641884575E+02  0.15046978702E+03  0.20553623221E+03  0.12499915161E+03 0.  0.
          5    1    3    3  501    0  0.28626427239E+02 -0.81939927645E+02  0.13323153860E+03  0.15907971887E+03  0.47000000000E+01 0. -1.
         -5    1    3    3    0  501 -0.30020017163E+01  0.24298043070E+02  0.21207004880E+03  0.21353033159E+03  0.47000000000E+01 0. -1.
          5    1    4    4  502    0 -0.73342373399E+02  0.32572660848E+02  0.11686272541E+03  0.14184170247E+03  0.47000000000E+01 0.  1.
         -5    1    4    4    0  502  0.47717947877E+02  0.25069223727E+02  0.33607061611E+02  0.63694529733E+02  0.47000000000E+01 0.  1.
<mgrwt>
<rscale>  0 0.29742876E+03</rscale>
<asrwt>0</asrwt>
<pdfrwt beam="1">  1       21 0.82609046E-01 0.29742876E+03</pdfrwt>
<pdfrwt beam="2">  1       21 0.63365318E-02 0.29742876E+03</pdfrwt>
<totfact> 0.22302506E+05</totfact>
</mgrwt>
</event>
<event>
 8    1  0.9400004E-006  0.2706469E+03  0.7546771E-02  0.1100910E+00
         21   -1    0    0  504  503  0.00000000000E+00  0.00000000000E+00  0.54723839146E+02  0.54723839146E+02  0.00000000000E+00 0.  1.
         21   -1    0    0  503  504 -0.00000000000E+00 -0.00000000000E+00 -0.33463353048E+03  0.33463353048E+03  0.00000000000E+00 0.  1.
         25    2    1    2    0    0  0.38352820633E+02  0.34097800471E+02 -0.12886077618E+03  0.18669123650E+03  0.12495967070E+03 0.  0.
         25    2    1    2    0    0 -0.38352820633E+02 -0.34097800471E+02 -0.15104891516E+03  0.20266613312E+03  0.12499675155E+03 0.  0.
          5    1    3    3  501    0 -0.10828536035E+02  0.36186430143E+02 -0.13176885553E+03  0.13715624742E+03  0.47000000000E+01 0. -1.
         -5    1    3    3    0  501  0.49181356669E+02 -0.20886296725E+01  0.29080793505E+01  0.49534989080E+02  0.47000000000E+01 0. -1.
          5    1    4    4  502    0  0.20284923979E+02 -0.32867960401E+02  0.17318457032E+01  0.38947018516E+02  0.47000000000E+01 0. -1.
         -5    1    4    4    0  502 -0.58637744613E+02 -0.12298400704E+01 -0.15278076086E+03  0.16371911461E+03  0.47000000000E+01 0. -1.
<mgrwt>
<rscale>  0 0.27064687E+03</rscale>
<asrwt>0</asrwt>
<pdfrwt beam="1">  1       21 0.84190523E-02 0.27064687E+03</pdfrwt>
<pdfrwt beam="2">  1       21 0.51482081E-01 0.27064687E+03</pdfrwt>
<totfact> 0.38675823E+05</totfact>
</mgrwt>
</event>
<event>
 8    1  0.9400004E-006  0.2846257E+03  0.7546771E-02  0.1093189E+00
         21   -1    0    0  504  503  0.00000000000E+00  0.00000000000E+00  0.38260289936E+03  0.38260289936E+03  0.00000000000E+00 0.  1.
         21   -1    0    0  503  504 -0.00000000000E+00 -0.00000000000E+00 -0.52934648186E+02  0.52934648186E+02  0.00000000000E+00 0.  1.
         25    2    1    2    0    0  0.38184360760E+02  0.10692715823E+02  0.24943573618E+03  0.28180110696E+03  0.12498519040E+03 0.  0.
         25    2    1    2    0    0 -0.38184360760E+02 -0.10692715823E+02  0.80232514995E+02  0.15373644059E+03  0.12500102850E+03 0.  0.
          5    1    3    3  501    0  0.21579301062E+02  0.51628649493E+02  0.43237108203E+02  0.70871159216E+02  0.47000000000E+01 0. -1.
         -5    1    3    3    0  501  0.16605059698E+02 -0.40935933670E+02  0.20619862798E+03  0.21092994774E+03  0.47000000000E+01 0. -1.
          5    1    4    4  502    0  0.74654339378E+01 -0.61814930901E+02  0.38113098706E+02  0.73154061262E+02  0.47000000000E+01 0. -1.
         -5    1    4    4    0  502 -0.45649794698E+02  0.51122215077E+02  0.42119416289E+02  0.80582379333E+02  0.47000000000E+01 0. -1.
<mgrwt>
<rscale>  0 0.28462572E+03</rscale>
<asrwt>0</asrwt>
<pdfrwt beam="1">  1       21 0.58861983E-01 0.28462572E+03</pdfrwt>
<pdfrwt beam="2">  1       21 0.81437923E-02 0.28462572E+03</pdfrwt>
<totfact> 0.30714981E+05</totfact>
</mgrwt>
</event>
<event>
 8    1  0.9400004E-006  0.2645174E+03  0.7546771E-02  0.1104459E+00
         21   -1    0    0  504  503  0.00000000000E+00  0.00000000000E+00  0.59517285971E+02  0.59517285971E+02  0.00000000000E+00 0.  1.
         21   -1    0    0  503  504 -0.00000000000E+00 -0.00000000000E+00 -0.29390389972E+03  0.29390389972E+03  0.00000000000E+00 0.  1.
         25    2    1    2    0    0 -0.17937240395E+02  0.34941283461E+02 -0.93174841892E+02  0.16077740643E+03  0.12500074149E+03 0.  0.
         25    2    1    2    0    0  0.17937240395E+02 -0.34941283461E+02 -0.14121177186E+03  0.19264377926E+03  0.12501289251E+03 0.  0.
          5    1    3    3  501    0 -0.25136519429E+02  0.94051096488E+01  0.26558777585E+02  0.38049433154E+02  0.47000000000E+01 0. -1.
         -5    1    3    3    0  501  0.71992790342E+01  0.25536173812E+02 -0.11973361948E+03  0.12272797328E+03  0.47000000000E+01 0. -1.
          5    1    4    4  502    0  0.55683534362E+02  0.17945285144E+02 -0.35868300347E+02  0.68784549338E+02  0.47000000000E+01 0. -1.
         -5    1    4    4    0  502 -0.37746293967E+02 -0.52886568605E+02 -0.10534347151E+03  0.12385922992E+03  0.47000000000E+01 0. -1.
<mgrwt>
<rscale>  0 0.26451739E+03</rscale>
<asrwt>0</asrwt>
<pdfrwt beam="1">  1       21 0.91565059E-02 0.26451739E+03</pdfrwt>
<pdfrwt beam="2">  1       21 0.45215983E-01 0.26451739E+03</pdfrwt>
<totfact> 0.43801309E+05</totfact>
</mgrwt>
</event>
<event>
 8    1  0.9400004E-006  0.3066645E+03  0.7546771E-02  0.1081956E+00
         21   -1    0    0  504  503  0.00000000000E+00  0.00000000000E+00  0.18093560326E+03  0.18093560326E+03  0.00000000000E+00 0. -1.
         21   -1    0    0  503  504 -0.00000000000E+00 -0.00000000000E+00 -0.12994002867E+03  0.12994002867E+03  0.00000000000E+00 0. -1.
         25    2    1    2    0    0  0.51891003176E+02  0.57482730831E+02 -0.18559052982E+02  0.14821090749E+03  0.12500037638E+03 0.  0.
         25    2    1    2    0    0 -0.51891003176E+02 -0.57482730831E+02  0.69554627566E+02  0.16266472445E+03  0.12500010323E+03 0.  0.
          5    1    3    3  501    0 -0.22689823885E+02  0.47154615571E+02  0.28025612445E+02  0.59547551004E+02  0.47000000000E+01 0.  1.
         -5    1    3    3    0  501  0.74580827061E+02  0.10328115260E+02 -0.46584665428E+02  0.88663356483E+02  0.47000000000E+01 0.  1.
          5    1    4    4  502    0 -0.49132297463E+02 -0.91728577170E+02  0.26689057228E+02  0.10752911373E+03  0.47000000000E+01 0.  1.
         -5    1    4    4    0  502 -0.27587057130E+01  0.34245846339E+02  0.42865570338E+02  0.55135610717E+02  0.47000000000E+01 0.  1.
<mgrwt>
<rscale>  0 0.30666449E+03</rscale>
<asrwt>0</asrwt>
<pdfrwt beam="1">  1       21 0.27836247E-01 0.30666449E+03</pdfrwt>
<pdfrwt beam="2">  1       21 0.19990774E-01 0.30666449E+03</pdfrwt>
<totfact> 0.27717354E+05</totfact>
</mgrwt>
</event>
<event>
 8    1  0.9400004E-006  0.2573480E+03  0.7546771E-02  0.1108747E+00
         21   -1    0    0  504  503  0.00000000000E+00  0.00000000000E+00  0.67955000653E+02  0.67955000653E+02  0.00000000000E+00 0.  1.
         21   -1    0    0  503  504 -0.00000000000E+00 -0.00000000000E+00 -0.24364658444E+03  0.24364658444E+03  0.00000000000E+00 0.  1.
         25    2    1    2    0    0  0.27976048026E+02 -0.10294479979E+02 -0.79250733199E+02  0.15093354891E+03  0.12494647611E+03 0.  0.
         25    2    1    2    0    0 -0.27976048026E+02  0.10294479979E+02 -0.96440850592E+02  0.16066803619E+03  0.12499897843E+03 0.  0.
          5    1    3    3  501    0  0.31566993734E+01  0.50813308826E+02 -0.47907415790E+01  0.51351711847E+02  0.47000000000E+01 0.  1.
         -5    1    3    3    0  501  0.24819348653E+02 -0.61107788805E+02 -0.74459991620E+02  0.99581837060E+02  0.47000000000E+01 0.  1.
          5    1    4    4  502    0  0.50147637597E+00  0.14867490110E+02  0.28426871494E+02  0.32426389926E+02  0.47000000000E+01 0.  1.
         -5    1    4    4    0  502 -0.28477524402E+02 -0.45730101308E+01 -0.12486772209E+03  0.12824164626E+03  0.47000000000E+01 0.  1.
<mgrwt>
<rscale>  0 0.25734804E+03</rscale>
<asrwt>0</asrwt>
<pdfrwt beam="1">  1       21 0.10454616E-01 0.25734804E+03</pdfrwt>
<pdfrwt beam="2">  1       21 0.37484089E-01 0.25734804E+03</pdfrwt>
<totfact> 0.50839533E+05</totfact>
</mgrwt>
</event>
<event>
 8    1  0.9400004E-006  0.3431589E+03  0.7546771E-02  0.1065458E+00
         21   -1    0    0  504  503  0.00000000000E+00  0.00000000000E+00  0.35207862640E+03  0.35207862640E+03  0.00000000000E+00 0. -1.
         21   -1    0    0  503  504 -0.00000000000E+00 -0.00000000000E+00 -0.83616305985E+02  0.83616305985E+02  0.00000000000E+00 0. -1.
         25    2    1    2    0    0  0.29777186536E+02 -0.10120204073E+03  0.68417526457E+02  0.17729505347E+03  0.12499617664E+03 0.  0.
         25    2    1    2    0    0 -0.29777186536E+02  0.10120204073E+03  0.20004479396E+03  0.25839987891E+03  0.12499617572E+03 0.  0.
          5    1    3    3  501    0  0.31011486184E+02  0.22990384342E+02  0.11201331245E+02  0.40470110813E+02  0.47000000000E+01 0. -1.
         -5    1    3    3    0  501 -0.12342996477E+01 -0.12419242507E+03  0.57216195211E+02  0.13682494266E+03  0.47000000000E+01 0. -1.
          5    1    4    4  502    0 -0.78886663843E+02  0.65754575892E+02  0.12443636837E+03  0.16141025295E+03  0.47000000000E+01 0.  1.
         -5    1    4    4    0  502  0.49109477307E+02  0.35447464835E+02  0.75608425591E+02  0.96989625966E+02  0.47000000000E+01 0.  1.
<mgrwt>
<rscale>  0 0.34315894E+03</rscale>
<asrwt>0</asrwt>
<pdfrwt beam="1">  1       21 0.54165942E-01 0.34315894E+03</pdfrwt>
<pdfrwt beam="2">  1       21 0.12864047E-01 0.34315894E+03</pdfrwt>
<totfact> 0.16012263E+05</totfact>
</mgrwt>
</event>
<event>
 8    1  0.9400004E-006  0.3183506E+03  0.7546771E-02  0.1076411E+00
         21   -1    0    0  504  503  0.00000000000E+00  0.00000000000E+00  0.17539570644E+03  0.17539570644E+03  0.00000000000E+00 0.  1.
         21   -1    0    0  503  504 -0.00000000000E+00 -0.00000000000E+00 -0.14445495764E+03  0.14445495764E+03  0.00000000000E+00 0.  1.
         25    2    1    2    0    0 -0.35836338739E+02 -0.51117615061E+02  0.92087283289E+02  0.16733408933E+03  0.12499350369E+03 0.  0.
         25    2    1    2    0    0  0.35836338739E+02  0.51117615061E+02 -0.61146534497E+02  0.15251657475E+03  0.12500061259E+03 0.  0.
          5    1    3    3  501    0 -0.23839825268E+02 -0.70761741717E+02  0.11323868637E+03  0.13572270057E+03  0.47000000000E+01 0.  1.
         -5    1    3    3    0  501 -0.11996513471E+02  0.19644126655E+02 -0.21151403077E+02  0.31611388765E+02  0.47000000000E+01 0.  1.
          5    1    4    4  502    0 -0.25401047690E+02  0.47801039552E+02 -0.71853927127E+02  0.90084568320E+02  0.47000000000E+01 0.  1.
         -5    1    4    4    0  502  0.61237386429E+02  0.33165755096E+01  0.10707392629E+02  0.62432006428E+02  0.47000000000E+01 0.  1.
<mgrwt>
<rscale>  0 0.31835062E+03</rscale>
<asrwt>0</asrwt>
<pdfrwt beam="1">  1       21 0.26983955E-01 0.31835062E+03</pdfrwt>
<pdfrwt beam="2">  1       21 0.22223840E-01 0.31835062E+03</pdfrwt>
<totfact> 0.24032876E+05</totfact>
</mgrwt>
</event>
<event>
 8    1  0.9400004E-006  0.2886205E+03  0.7546771E-02  0.1091072E+00
         21   -1    0    0  504  503  0.00000000000E+00  0.00000000000E+00  0.18535322708E+03  0.18535322708E+03  0.00000000000E+00 0.  1.
         21   -1    0    0  503  504 -0.00000000000E+00 -0.00000000000E+00 -0.11235545769E+03  0.11235545769E+03  0.00000000000E+00 0.  1.
         25    2    1    2    0    0 -0.71159550802E+01  0.44145322147E+02  0.94849239471E+02  0.16316190871E+03  0.12500393571E+03 0.  0.
         25    2    1    2    0    0  0.71159550802E+01 -0.44145322147E+02 -0.21851470088E+02  0.13454677606E+03  0.12500360762E+03 0.  0.
          5    1    3    3  501    0  0.32744967486E+02  0.25159918731E+02  0.10892393691E+03  0.11658374002E+03  0.47000000000E+01 0. -1.
         -5    1    3    3    0  501 -0.39860922566E+02  0.18985403415E+02 -0.14074697435E+02  0.46578168690E+02  0.47000000000E+01 0. -1.
          5    1    4    4  502    0 -0.42831466920E+02 -0.65352770525E+02 -0.13880911341E+02  0.79500244487E+02  0.47000000000E+01 0.  1.
         -5    1    4    4    0  502  0.49947422000E+02  0.21207448378E+02 -0.79705587471E+01  0.55046531571E+02  0.47000000000E+01 0.  1.
<mgrwt>
<rscale>  0 0.28862049E+03</rscale>
<asrwt>0</asrwt>
<pdfrwt beam="1">  1       21 0.28515881E-01 0.28862049E+03</pdfrwt>
<pdfrwt beam="2">  1       21 0.17285455E-01 0.28862049E+03</pdfrwt>
<totfact> 0.34840045E+05</totfact>
</mgrwt>
</event>
<event>
 8    1  0.9400004E-006  0.3187247E+03  0.7546771E-02  0.1076238E+00
         21   -1    0    0  504  503  0.00000000000E+00  0.00000000000E+00  0.35720989905E+03  0.35720989905E+03  0.00000000000E+00 0. -1.
         21   -1    0    0  503  504 -0.00000000000E+00 -0.00000000000E+00 -0.71096479697E+02  0.71096479697E+02  0.00000000000E+00 0. -1.
         25    2    1    2    0    0 -0.30392564430E+01 -0.27106952857E+02  0.15381239165E+02  0.12886707413E+03  0.12500446514E+03 0.  0.
         25    2    1    2    0    0  0.30392564430E+01  0.27106952857E+02  0.27073218019E+03  0.29943930462E+03  0.12499583908E+03 0.  0.
          5    1    3    3  501    0 -0.41336107495E+02 -0.35973150401E+02 -0.34698058072E+02  0.65029120912E+02  0.47000000000E+01 0. -1.
         -5    1    3    3    0  501  0.38296851052E+02  0.88661975443E+01  0.50079297237E+02  0.63837953218E+02  0.47000000000E+01 0. -1.
          5    1    4    4  502    0 -0.12244714171E+02 -0.35824616126E+02  0.19924945540E+03  0.20286885326E+03  0.47000000000E+01 0.  1.
         -5    1    4    4    0  502  0.15283970614E+02  0.62931568983E+02  0.71482724795E+02  0.96570451363E+02  0.47000000000E+01 0.  1.
<mgrwt>
<rscale>  0 0.31872475E+03</rscale>
<asrwt>0</asrwt>
<pdfrwt beam="1">  1       21 0.54955368E-01 0.31872475E+03</pdfrwt>
<pdfrwt beam="2">  1       21 0.10937920E-01 0.31872475E+03</pdfrwt>
<totfact> 0.20927018E+05</totfact>
</mgrwt>
</event>
<event>
 8    1  0.9400004E-006  0.3003694E+03  0.7546771E-02  0.1085056E+00
         21   -1    0    0  504  503  0.00000000000E+00  0.00000000000E+00  0.49824181942E+02  0.49824181942E+02  0.00000000000E+00 0. -1.
         21   -1    0    0  503  504 -0.00000000000E+00 -0.00000000000E+00 -0.45270080143E+03  0.45270080143E+03  0.00000000000E+00 0. -1.
         25    2    1    2    0    0  0.35089089073E+02 -0.28930521075E+02 -0.84771897408E+02  0.15772997798E+03  0.12499700853E+03 0.  0.
         25    2    1    2    0    0 -0.35089089073E+02  0.28930521075E+02 -0.31810472208E+03  0.34479500539E+03  0.12499904924E+03 0.  0.
          5    1    3    3  501    0  0.45709693926E+02 -0.63410347172E+02 -0.91811569680E+02  0.12067187980E+03  0.47000000000E+01 0. -1.
         -5    1    3    3    0  501 -0.10620604853E+02  0.34479826097E+02  0.70396722722E+01  0.37058098181E+02  0.47000000000E+01 0. -1.
          5    1    4    4  502    0 -0.77247704721E+02 -0.65586422052E+01 -0.18992302174E+03  0.20519032106E+03  0.47000000000E+01 0.  1.
         -5    1    4    4    0  502  0.42158615647E+02  0.35489163280E+02 -0.12818170034E+03  0.13960468433E+03  0.47000000000E+01 0.  1.
<mgrwt>
<rscale>  0 0.30036942E+03</rscale>
<asrwt>0</asrwt>
<pdfrwt beam="1">  1       21 0.76652587E-02 0.30036942E+03</pdfrwt>
<pdfrwt beam="2">  1       21 0.69646277E-01 0.30036942E+03</pdfrwt>
<totfact> 0.23536266E+05</totfact>
</mgrwt>
</event>
<event>
 8    1  0.9400004E-006  0.3148581E+03  0.7546771E-02  0.1078040E+00
         21   -1    0    0  504  503  0.00000000000E+00  0.00000000000E+00  0.34835234005E+02  0.34835234005E+02  0.00000000000E+00 0.  1.
         21   -1    0    0  503  504 -0.00000000000E+00 -0.00000000000E+00 -0.71146079702E+03  0.71146079702E+03  0.00000000000E+00 0.  1.
         25    2    1    2    0    0  0.19425182006E+02 -0.89128999831E+02 -0.40665224413E+03  0.43510128141E+03  0.12500304443E+03 0.  0.
         25    2    1    2    0    0 -0.19425182006E+02  0.89128999831E+02 -0.26997331889E+03  0.31119474962E+03  0.12504104516E+03 0.  0.
          5    1    3    3  501    0 -0.11775070862E+02 -0.92253756650E+02 -0.38643711099E+03  0.39749860208E+03  0.47000000000E+01 0. -1.
         -5    1    3    3    0  501  0.31200252868E+02  0.31247568190E+01 -0.20215133145E+02  0.37602679323E+02  0.47000000000E+01 0. -1.
          5    1    4    4  502    0 -0.20384393602E+02  0.10636159818E+03 -0.27236906715E+03  0.29314725277E+03  0.47000000000E+01 0.  1.
         -5    1    4    4    0  502  0.95921159602E+00 -0.17232598350E+02  0.23957482597E+01  0.18047496849E+02  0.47000000000E+01 0.  1.
<mgrwt>
<rscale>  0 0.31485808E+03</rscale>
<asrwt>0</asrwt>
<pdfrwt beam="1">  1       21 0.53592675E-02 0.31485808E+03</pdfrwt>
<pdfrwt beam="2">  1       21 0.10945549E+00 0.31485808E+03</pdfrwt>
<totfact> 0.15191893E+05</totfact>
</mgrwt>
</event>
<event>
 8    1  0.9400004E-006  0.2998324E+03  0.7546771E-02  0.1085324E+00
         21   -1    0    0  504  503  0.00000000000E+00  0.00000000000E+00  0.23768456298E+03  0.23768456298E+03  0.00000000000E+00 0. -1.
         21   -1    0    0  503  504 -0.00000000000E+00 -0.00000000000E+00 -0.94557519742E+02  0.94557519742E+02  0.00000000000E+00 0. -1.
         25    2    1    2    0    0 -0.69549725764E+02 -0.38905083676E+02  0.46927430362E+02  0.15551857873E+03  0.12503229471E+03 0.  0.
         25    2    1    2    0    0  0.69549725764E+02  0.38905083676E+02  0.96199612876E+02  0.17672350399E+03  0.12500424576E+03 0.  0.
          5    1    3    3  501    0 -0.14852712323E+02 -0.59075242419E+02  0.69761909205E+02  0.92732417774E+02  0.47000000000E+01 0. -1.
         -5    1    3    3    0  501 -0.54697013441E+02  0.20170158744E+02 -0.22834478844E+02  0.62786160953E+02  0.47000000000E+01 0. -1.
          5    1    4    4  502    0  0.66864889567E+02  0.55621255882E+02  0.11929178542E+03  0.14770666076E+03  0.47000000000E+01 0.  1.
         -5    1    4    4    0  502  0.26848361969E+01 -0.16716172206E+02 -0.23092172545E+02  0.29016843238E+02  0.47000000000E+01 0.  1.
<mgrwt>
<rscale>  0 0.29983237E+03</rscale>
<asrwt>0</asrwt>
<pdfrwt beam="1">  1       21 0.36566856E-01 0.29983237E+03</pdfrwt>
<pdfrwt beam="2">  1       21 0.14547311E-01 0.29983237E+03</pdfrwt>
<totfact> 0.29174441E+05</totfact>
</mgrwt>
</event>
<event>
 8    1  0.9400004E-006  0.3084409E+03  0.7546771E-02  0.1081096E+00
         21   -1    0    0  504  503  0.00000000000E+00  0.00000000000E+00  0.42671388019E+02  0.42671388019E+02  0.00000000000E+00 0. -1.
         21   -1    0    0  503  504 -0.00000000000E+00 -0.00000000000E+00 -0.55737474484E+03  0.55737474484E+03  0.00000000000E+00 0. -1.
         25    2    1    2    0    0 -0.13957792408E+02 -0.89091125823E+02 -0.24694918741E+03  0.29110420801E+03  0.12500284032E+03 0.  0.
         25    2    1    2    0    0  0.13957792408E+02  0.89091125823E+02 -0.26775416942E+03  0.30894192486E+03  0.12498307495E+03 0.  0.
          5    1    3    3  501    0 -0.68739491908E+02 -0.62141398235E+02 -0.14311686105E+03  0.17056141721E+03  0.47000000000E+01 0. -1.
         -5    1    3    3    0  501  0.54781699500E+02 -0.26949727588E+02 -0.10383232635E+03  0.12054279080E+03  0.47000000000E+01 0. -1.
          5    1    4    4  502    0 -0.41186580624E+01  0.47226937584E+02 -0.12020093819E+02  0.49131656121E+02  0.47000000000E+01 0. -1.
         -5    1    4    4    0  502  0.18076450470E+02  0.41864188239E+02 -0.25573407560E+03  0.25981026874E+03  0.47000000000E+01 0. -1.
<mgrwt>
<rscale>  0 0.30844094E+03</rscale>
<asrwt>0</asrwt>
<pdfrwt beam="1">  1       21 0.65648293E-02 0.30844094E+03</pdfrwt>
<pdfrwt beam="2">  1       21 0.85749955E-01 0.30844094E+03</pdfrwt>
<totfact> 0.19190460E+05</totfact>
</mgrwt>
</event>
<event>
 8    1  0.9400004E-006  0.3964976E+03  0.7546771E-02  0.1044999E+00
         21   -1    0    0  504  503  0.00000000000E+00  0.00000000000E+00  0.16834491325E+03  0.16834491325E+03  0.00000000000E+00 0. -1.
         21   -1    0    0  503  504 -0.00000000000E+00 -0.00000000000E+00 -0.23346459851E+03  0.23346459851E+03  0.00000000000E+00 0. -1.
         25    2    1    2    0    0  0.68590002294E+02  0.12684763883E+03 -0.86951860787E+02  0.20972542004E+03  0.12501685416E+03 0.  0.
         25    2    1    2    0    0 -0.68590002294E+02 -0.12684763883E+03  0.21832175532E+02  0.19208409172E+03  0.12499897005E+03 0.  0.
          5    1    3    3  501    0  0.33578250049E+01  0.88217130507E+02  0.72636247650E+01  0.88703930851E+02  0.47000000000E+01 0.  1.
         -5    1    3    3    0  501  0.65232177289E+02  0.38630508321E+02 -0.94215485552E+02  0.12102148919E+03  0.47000000000E+01 0.  1.
          5    1    4    4  502    0 -0.52772987176E+02 -0.53567715181E+02 -0.48155068539E+02  0.89417497791E+02  0.47000000000E+01 0.  1.
         -5    1    4    4    0  502 -0.15817015118E+02 -0.73279923647E+02  0.69987244071E+02  0.10266659393E+03  0.47000000000E+01 0.  1.
<mgrwt>
<rscale>  0 0.39649755E+03</rscale>
<asrwt>0</asrwt>
<pdfrwt beam="1">  1       21 0.25899217E-01 0.39649755E+03</pdfrwt>
<pdfrwt beam="2">  1       21 0.35917631E-01 0.39649755E+03</pdfrwt>
<totfact> 0.99787082E+04</totfact>
</mgrwt>
</event>
<event>
 8    1  0.9400004E-006  0.3820059E+03  0.7546771E-02  0.1050195E+00
         21   -1    0    0  504  503  0.00000000000E+00  0.00000000000E+00  0.23707113230E+03  0.23707113230E+03  0.00000000000E+00 0. -1.
         21   -1    0    0  503  504 -0.00000000000E+00 -0.00000000000E+00 -0.15388685246E+03  0.15388685246E+03  0.00000000000E+00 0. -1.
         25    2    1    2    0    0 -0.43853209960E+02 -0.81516401545E+02 -0.71862570441E+02  0.17133848501E+03  0.12499847867E+03 0.  0.
         25    2    1    2    0    0  0.43853209960E+02  0.81516401545E+02  0.15504685028E+03  0.21961949976E+03  0.12500068459E+03 0.  0.
          5    1    3    3  501    0 -0.40838830076E+02 -0.11261159925E+03 -0.39769893968E+02  0.12630485658E+03  0.47000000000E+01 0.  1.
         -5    1    3    3    0  501 -0.30143798838E+01  0.31095197709E+02 -0.32092676474E+02  0.45033628433E+02  0.47000000000E+01 0.  1.
          5    1    4    4  502    0  0.50699886357E+02  0.30830334755E+02  0.15732316904E+03  0.16820718634E+03  0.47000000000E+01 0. -1.
         -5    1    4    4    0  502 -0.68466763970E+01  0.50686066790E+02 -0.22763187617E+01  0.51412313422E+02  0.47000000000E+01 0. -1.
<mgrwt>
<rscale>  0 0.38200592E+03</rscale>
<asrwt>0</asrwt>
<pdfrwt beam="1">  1       21 0.36472482E-01 0.38200592E+03</pdfrwt>
<pdfrwt beam="2">  1       21 0.23674900E-01 0.38200592E+03</pdfrwt>
<totfact> 0.11547217E+05</totfact>
</mgrwt>
</event>
<event>
 8    1  0.9400004E-006  0.2982542E+03  0.7546771E-02  0.1086117E+00
         21   -1    0    0  504  503  0.00000000000E+00  0.00000000000E+00  0.36770226073E+02  0.36770226073E+02  0.00000000000E+00 0. -1.
         21   -1    0    0  503  504 -0.00000000000E+00 -0.00000000000E+00 -0.60480699336E+03  0.60480699336E+03  0.00000000000E+00 0. -1.
         25    2    1    2    0    0 -0.77101005591E+02 -0.14953081069E+02 -0.23864281881E+03  0.28061335851E+03  0.12500120922E+03 0.  0.
         25    2    1    2    0    0  0.77101005591E+02  0.14953081069E+02 -0.32939394848E+03  0.36096386093E+03  0.12500550350E+03 0.  0.
          5    1    3    3  501    0 -0.18781363040E+02 -0.66131100574E+02 -0.96074856734E+02  0.11823083421E+03  0.47000000000E+01 0.  1.
         -5    1    3    3    0  501 -0.58319642551E+02  0.51178019506E+02 -0.14256796207E+03  0.16238252430E+03  0.47000000000E+01 0.  1.
          5    1    4    4  502    0  0.92636640428E+02  0.42005535877E+02 -0.30357763534E+03  0.32019913003E+03  0.47000000000E+01 0.  1.
         -5    1    4    4    0  502 -0.15535634836E+02 -0.27052454808E+02 -0.25816313137E+02  0.40764730894E+02  0.47000000000E+01 0.  1.
<mgrwt>
<rscale>  0 0.29825419E+03</rscale>
<asrwt>0</asrwt>
<pdfrwt beam="1">  1       21 0.56569583E-02 0.29825419E+03</pdfrwt>
<pdfrwt beam="2">  1       21 0.93047223E-01 0.29825419E+03</pdfrwt>
<totfact> 0.20557772E+05</totfact>
</mgrwt>
</event>
<event>
 8    1  0.9400004E-006  0.2512374E+03  0.7546771E-02  0.1112525E+00
         21   -1    0    0  504  503  0.00000000000E+00  0.00000000000E+00  0.10479751567E+04  0.10479751567E+04  0.00000000000E+00 0. -1.
         21   -1    0    0  503  504 -0.00000000000E+00 -0.00000000000E+00 -0.15057663990E+02  0.15057663990E+02  0.00000000000E+00 0. -1.
         25    2    1    2    0    0 -0.76375033185E+01 -0.93055536898E+01  0.50285220995E+03  0.51829504471E+03  0.12499793412E+03 0.  0.
         25    2    1    2    0    0  0.76375033185E+01  0.93055536898E+01  0.53006528271E+03  0.54473777593E+03  0.12500046321E+03 0.  0.
          5    1    3    3  501    0  0.57687514449E+02 -0.14550805347E+02  0.22503682660E+03  0.23281588989E+03  0.47000000000E+01 0.  1.
         -5    1    3    3    0  501 -0.65325017767E+02  0.52452516568E+01  0.27781538335E+03  0.28547915482E+03  0.47000000000E+01 0.  1.
          5    1    4    4  502    0  0.29233047368E+02  0.51480762161E+02  0.42813705810E+03  0.43223635948E+03  0.47000000000E+01 0. -1.
         -5    1    4    4    0  502 -0.21595544049E+02 -0.42175208472E+02  0.10192822461E+03  0.11250141645E+03  0.47000000000E+01 0. -1.
<mgrwt>
<rscale>  0 0.25123740E+03</rscale>
<asrwt>0</asrwt>
<pdfrwt beam="1">  1       21 0.16122689E+00 0.25123740E+03</pdfrwt>
<pdfrwt beam="2">  1       21 0.23165645E-02 0.25123740E+03</pdfrwt>
<totfact> 0.23345288E+05</totfact>
</mgrwt>
</event>
<event>
 8    1  0.9400004E-006  0.2619577E+03  0.7546771E-02  0.1105973E+00
         21   -1    0    0  504  503  0.00000000000E+00  0.00000000000E+00  0.18170324927E+03  0.18170324927E+03  0.00000000000E+00 0. -1.
         21   -1    0    0  503  504 -0.00000000000E+00 -0.00000000000E+00 -0.94414722655E+02  0.94414722655E+02  0.00000000000E+00 0. -1.
         25    2    1    2    0    0  0.32414269047E+02  0.18387259443E+02  0.56101569108E+02  0.14200589617E+03  0.12501804807E+03 0.  0.
         25    2    1    2    0    0 -0.32414269047E+02 -0.18387259443E+02  0.31186957502E+02  0.13411207575E+03  0.12499858557E+03 0.  0.
          5    1    3    3  501    0 -0.25895676963E+02  0.55326655821E+02  0.26613004596E+02  0.66797956131E+02  0.47000000000E+01 0. -1.
         -5    1    3    3    0  501  0.58309946010E+02 -0.36939396378E+02  0.29488564512E+02  0.75207940043E+02  0.47000000000E+01 0. -1.
          5    1    4    4  502    0  0.34149026492E+02  0.30960223584E+02  0.19620192172E+02  0.50316333289E+02  0.47000000000E+01 0. -1.
         -5    1    4    4    0  502 -0.66563295539E+02 -0.49347483027E+02  0.11566765330E+02  0.83795742459E+02  0.47000000000E+01 0. -1.
<mgrwt>
<rscale>  0 0.26195772E+03</rscale>
<asrwt>0</asrwt>
<pdfrwt beam="1">  1       21 0.27954346E-01 0.26195772E+03</pdfrwt>
<pdfrwt beam="2">  1       21 0.14525342E-01 0.26195772E+03</pdfrwt>
<totfact> 0.50159713E+05</totfact>
</mgrwt>
</event>
<event>
 8    1  0.9400004E-006  0.3536506E+03  0.7546771E-02  0.1061127E+00
         21   -1    0    0  504  503  0.00000000000E+00  0.00000000000E+00  0.11169691955E+04  0.11169691955E+04  0.00000000000E+00 0. -1.
         21   -1    0    0  503  504 -0.00000000000E+00 -0.00000000000E+00 -0.27992881173E+02  0.27992881173E+02  0.00000000000E+00 0. -1.
         25    2    1    2    0    0 -0.12179598990E+02 -0.46433150858E+02  0.17059059074E+03  0.21686599874E+03  0.12500132651E+03 0.  0.
         25    2    1    2    0    0  0.12179598990E+02  0.46433150858E+02  0.91838572361E+03  0.92809607796E+03  0.12500244981E+03 0.  0.
          5    1    3    3  501    0  0.12490820657E+02 -0.85526303770E+02  0.12248156383E+03  0.14998197464E+03  0.47000000000E+01 0. -1.
         -5    1    3    3    0  501 -0.24670419647E+02  0.39093152912E+02  0.48109026910E+02  0.66884024104E+02  0.47000000000E+01 0. -1.
          5    1    4    4  502    0 -0.23211516171E+02 -0.35896338368E+02  0.24318312306E+03  0.24695635836E+03  0.47000000000E+01 0.  1.
         -5    1    4    4    0  502  0.35391115161E+02  0.82329489226E+02  0.67520260055E+03  0.68113971960E+03  0.47000000000E+01 0.  1.
<mgrwt>
<rscale>  0 0.35365060E+03</rscale>
<asrwt>0</asrwt>
<pdfrwt beam="1">  1       21 0.17184138E+00 0.35365060E+03</pdfrwt>
<pdfrwt beam="2">  1       21 0.43065979E-02 0.35365060E+03</pdfrwt>
<totfact> 0.66893246E+04</totfact>
</mgrwt>
</event>
<event>
 8    1  0.9400004E-006  0.2784072E+03  0.7546771E-02  0.1096562E+00
         21   -1    0    0  504  503  0.00000000000E+00  0.00000000000E+00  0.11686062704E+02  0.11686062704E+02  0.00000000000E+00 0.  1.
         21   -1    0    0  503  504 -0.00000000000E+00 -0.00000000000E+00 -0.16581837264E+04  0.16581837264E+04  0.00000000000E+00 0.  1.
         25    2    1    2    0    0  0.21227849649E+02 -0.49247121780E+02 -0.10008273946E+04  0.10100279788E+04  0.12500057405E+03 0.  0.
         25    2    1    2    0    0 -0.21227849649E+02  0.49247121780E+02 -0.64567026902E+03  0.65984181026E+03  0.12500087065E+03 0.  0.
          5    1    3    3  501    0  0.18895687502E+02 -0.87532488258E+02 -0.52221370790E+03  0.52985680162E+03  0.47000000000E+01 0.  1.
         -5    1    3    3    0  501  0.23321621473E+01  0.38285366478E+02 -0.47861368674E+03  0.48017117719E+03  0.47000000000E+01 0.  1.
          5    1    4    4  502    0  0.39941818908E+02  0.57403008488E+02 -0.26205679489E+03  0.27126796351E+03  0.47000000000E+01 0.  1.
         -5    1    4    4    0  502 -0.61169668558E+02 -0.81558867075E+01 -0.38361347413E+03  0.38857384675E+03  0.47000000000E+01 0.  1.
<mgrwt>
<rscale>  0 0.27840718E+03</rscale>
<asrwt>0</asrwt>
<pdfrwt beam="1">  1       21 0.17978552E-02 0.27840718E+03</pdfrwt>
<pdfrwt beam="2">  1       21 0.25510528E+00 0.27840718E+03</pdfrwt>
<totfact> 0.86137781E+04</totfact>
</mgrwt>
</event>
<event>
 8    1  0.9400004E-006  0.5594301E+03  0.7546771E-02  0.9993345E-01
         21   -1    0    0  504  503  0.00000000000E+00  0.00000000000E+00  0.16504058006E+03  0.16504058006E+03  0.00000000000E+00 0.  1.
         21   -1    0    0  503  504 -0.00000000000E+00 -0.00000000000E+00 -0.47406839166E+03  0.47406839166E+03  0.00000000000E+00 0.  1.
         25    2    1    2    0    0 -0.10503127479E+03  0.21632548399E+03 -0.75470783589E+02  0.28133395232E+03  0.12499867937E+03 0.  0.
         25    2    1    2    0    0  0.10503127479E+03 -0.21632548399E+03 -0.23355702801E+03  0.35777501940E+03  0.12500318180E+03 0.  0.
          5    1    3    3  501    0 -0.20950938068E+00  0.14135558135E+03 -0.49045067805E+02  0.14969620218E+03  0.47000000000E+01 0. -1.
         -5    1    3    3    0  501 -0.10482176541E+03  0.74969902646E+02 -0.26425715784E+02  0.13163775014E+03  0.47000000000E+01 0. -1.
          5    1    4    4  502    0  0.43388731973E+02 -0.40719675505E+02 -0.13391864381E+03  0.14661844084E+03  0.47000000000E+01 0. -1.
         -5    1    4    4    0  502  0.61642542821E+02 -0.17560580849E+03 -0.99638384201E+02  0.21115657855E+03  0.47000000000E+01 0. -1.
<mgrwt>
<rscale>  0 0.55943015E+03</rscale>
<asrwt>0</asrwt>
<pdfrwt beam="1">  1       21 0.25390860E-01 0.55943015E+03</pdfrwt>
<pdfrwt beam="2">  1       21 0.72933596E-01 0.55943015E+03</pdfrwt>
<totfact> 0.21982190E+04</totfact>
</mgrwt>
</event>
<event>
 8    1  0.9400004E-006  0.2640152E+03  0.7546771E-02  0.1104755E+00
         21   -1    0    0  504  503  0.00000000000E+00  0.00000000000E+00  0.20186380968E+02  0.20186380968E+02  0.00000000000E+00 0. -1.
         21   -1    0    0  503  504 -0.00000000000E+00 -0.00000000000E+00 -0.86325545384E+03  0.86325545384E+03  0.00000000000E+00 0. -1.
         25    2    1    2    0    0 -0.38561713039E+02 -0.16180661748E+02 -0.39723556540E+03  0.41853192825E+03  0.12499624404E+03 0.  0.
         25    2    1    2    0    0  0.38561713039E+02  0.16180661748E+02 -0.44583350747E+03  0.46490990655E+03  0.12499954119E+03 0.  0.
          5    1    3    3  501    0 -0.89060111604E+01 -0.54841218845E+02 -0.33369975175E+03  0.33832601235E+03  0.47000000000E+01 0. -1.
         -5    1    3    3    0  501 -0.29655701878E+02  0.38660557098E+02 -0.63535813649E+02  0.80205915898E+02  0.47000000000E+01 0. -1.
          5    1    4    4  502    0 -0.70794105716E+01  0.43889907876E+02 -0.36619427748E+03  0.36891297202E+03  0.47000000000E+01 0.  1.
         -5    1    4    4    0  502  0.45641123610E+02 -0.27709246129E+02 -0.79639229994E+02  0.95996934531E+02  0.47000000000E+01 0.  1.
<mgrwt>
<rscale>  0 0.26401518E+03</rscale>
<asrwt>0</asrwt>
<pdfrwt beam="1">  1       21 0.31055977E-02 0.26401518E+03</pdfrwt>
<pdfrwt beam="2">  1       21 0.13280850E+00 0.26401518E+03</pdfrwt>
<totfact> 0.23891659E+05</totfact>
</mgrwt>
</event>
<event>
 8    1  0.9400004E-006  0.3502906E+03  0.7546771E-02  0.1062496E+00
         21   -1    0    0  504  503  0.00000000000E+00  0.00000000000E+00  0.36960954758E+03  0.36960954758E+03  0.00000000000E+00 0.  1.
         21   -1    0    0  503  504 -0.00000000000E+00 -0.00000000000E+00 -0.82995358152E+02  0.82995358152E+02  0.00000000000E+00 0.  1.
         25    2    1    2    0    0  0.79826486199E+02  0.93158303578E+02  0.14455004662E+03  0.22708772417E+03  0.12499352410E+03 0.  0.
         25    2    1    2    0    0 -0.79826486199E+02 -0.93158303578E+02  0.14206414281E+03  0.22551718157E+03  0.12500016434E+03 0.  0.
          5    1    3    3  501    0 -0.29462995344E+02  0.38320513386E+01  0.45664751785E+02  0.54681919019E+02  0.47000000000E+01 0. -1.
         -5    1    3    3    0  501  0.10928948154E+03  0.89326252239E+02  0.98885294831E+02  0.17240580515E+03  0.47000000000E+01 0. -1.
          5    1    4    4  502    0  0.19324765790E+02 -0.59271903071E+02  0.86770273323E+02  0.10694753573E+03  0.47000000000E+01 0. -1.
         -5    1    4    4    0  502 -0.99151251989E+02 -0.33886400507E+02  0.55293869492E+02  0.11856964584E+03  0.47000000000E+01 0. -1.
<mgrwt>
<rscale>  0 0.35029060E+03</rscale>
<asrwt>0</asrwt>
<pdfrwt beam="1">  1       21 0.56863006E-01 0.35029060E+03</pdfrwt>
<pdfrwt beam="2">  1       21 0.12768517E-01 0.35029060E+03</pdfrwt>
<totfact> 0.14599225E+05</totfact>
</mgrwt>
</event>
<event>
 8    1  0.9400004E-006  0.2952971E+03  0.7546771E-02  0.1087615E+00
         21   -1    0    0  504  503  0.00000000000E+00  0.00000000000E+00  0.77232070318E+02  0.77232070318E+02  0.00000000000E+00 0.  1.
         21   -1    0    0  503  504 -0.00000000000E+00 -0.00000000000E+00 -0.28226742404E+03  0.28226742404E+03  0.00000000000E+00 0.  1.
         25    2    1    2    0    0  0.39379302022E+02  0.63593175302E+02 -0.73064714414E+02  0.16293829918E+03  0.12496245626E+03 0.  0.
         25    2    1    2    0    0 -0.39379302022E+02 -0.63593175302E+02 -0.13197063931E+03  0.19656119518E+03  0.12500092975E+03 0.  0.
          5    1    3    3  501    0  0.48094632754E+02  0.73667348747E+02  0.42472641624E+00  0.88103588824E+02  0.47000000000E+01 0. -1.
         -5    1    3    3    0  501 -0.87153307319E+01 -0.10074173445E+02 -0.73489440830E+02  0.74834710355E+02  0.47000000000E+01 0. -1.
          5    1    4    4  502    0 -0.14606267621E+02 -0.54346310203E+02 -0.15258846400E+03  0.16270277758E+03  0.47000000000E+01 0. -1.
         -5    1    4    4    0  502 -0.24773034401E+02 -0.92468650983E+01  0.20617824689E+02  0.33858417602E+02  0.47000000000E+01 0. -1.
<mgrwt>
<rscale>  0 0.29529712E+03</rscale>
<asrwt>0</asrwt>
<pdfrwt beam="1">  1       21 0.11881857E-01 0.29529712E+03</pdfrwt>
<pdfrwt beam="2">  1       21 0.43425757E-01 0.29529712E+03</pdfrwt>
<totfact> 0.29717581E+05</totfact>
</mgrwt>
</event>
<event>
 8    1  0.9400004E-006  0.2637504E+03  0.7546771E-02  0.1104911E+00
         21   -1    0    0  504  503  0.00000000000E+00  0.00000000000E+00  0.11551162496E+03  0.11551162496E+03  0.00000000000E+00 0.  1.
         21   -1    0    0  503  504 -0.00000000000E+00 -0.00000000000E+00 -0.15055687541E+03  0.15055687541E+03  0.00000000000E+00 0.  1.
         25    2    1    2    0    0 -0.26585788062E+02  0.21696964723E+02  0.69064290546E+01  0.12981646060E+03  0.12500820883E+03 0.  0.
         25    2    1    2    0    0  0.26585788062E+02 -0.21696964723E+02 -0.41951679512E+02  0.13625203977E+03  0.12500844981E+03 0.  0.
          5    1    3    3  501    0  0.35875535697E+02 -0.29589837848E+02 -0.82242202439E+01  0.47458828094E+02  0.47000000000E+01 0. -1.
         -5    1    3    3    0  501 -0.62461323759E+02  0.51286802571E+02  0.15130649298E+02  0.82357632506E+02  0.47000000000E+01 0. -1.
          5    1    4    4  502    0  0.28436241860E+02  0.23764164748E+02 -0.72285276166E+02  0.81367109618E+02  0.47000000000E+01 0. -1.
         -5    1    4    4    0  502 -0.18504537976E+01 -0.45461129472E+02  0.30333596654E+02  0.54884930154E+02  0.47000000000E+01 0. -1.
<mgrwt>
<rscale>  0 0.26375041E+03</rscale>
<asrwt>0</asrwt>
<pdfrwt beam="1">  1       21 0.17771019E-01 0.26375041E+03</pdfrwt>
<pdfrwt beam="2">  1       21 0.23162596E-01 0.26375041E+03</pdfrwt>
<totfact> 0.49664792E+05</totfact>
</mgrwt>
</event>
<event>
 8    1  0.9400004E-006  0.4905006E+03  0.7546771E-02  0.1016289E+00
         21   -1    0    0  504  503  0.00000000000E+00  0.00000000000E+00  0.60645621268E+03  0.60645621268E+03  0.00000000000E+00 0. -1.
         21   -1    0    0  503  504 -0.00000000000E+00 -0.00000000000E+00 -0.99178993174E+02  0.99178993174E+02  0.00000000000E+00 0. -1.
         25    2    1    2    0    0 -0.72759060425E+02  0.15664840110E+03  0.79284892256E+02  0.22746979580E+03  0.12499524559E+03 0.  0.
         25    2    1    2    0    0  0.72759060425E+02 -0.15664840110E+03  0.42799232725E+03  0.47816541005E+03  0.12502849573E+03 0.  0.
          5    1    3    3  501    0 -0.30291078152E+02  0.22800519162E+02  0.78121815982E+02  0.86962757673E+02  0.47000000000E+01 0. -1.
         -5    1    3    3    0  501 -0.42467982274E+02  0.13384788194E+03  0.11630762734E+01  0.14050703813E+03  0.47000000000E+01 0. -1.
          5    1    4    4  502    0  0.45383538635E+01  0.18693637570E+02  0.16877572605E+02  0.26019054526E+02  0.47000000000E+01 0.  1.
         -5    1    4    4    0  502  0.68220706562E+02 -0.17534203867E+03  0.41111475465E+03  0.45214635553E+03  0.47000000000E+01 0.  1.
<mgrwt>
<rscale>  0 0.49050063E+03</rscale>
<asrwt>0</asrwt>
<pdfrwt beam="1">  1       21 0.93300954E-01 0.49050063E+03</pdfrwt>
<pdfrwt beam="2">  1       21 0.15258307E-01 0.49050063E+03</pdfrwt>
<totfact> 0.33155059E+04</totfact>
</mgrwt>
</event>
<event>
 8    1  0.9400004E-006  0.3255444E+03  0.7546771E-02  0.1073126E+00
         21   -1    0    0  504  503  0.00000000000E+00  0.00000000000E+00  0.19989383159E+03  0.19989383159E+03  0.00000000000E+00 0.  1.
         21   -1    0    0  503  504 -0.00000000000E+00 -0.00000000000E+00 -0.13254429000E+03  0.13254429000E+03  0.00000000000E+00 0.  1.
         25    2    1    2    0    0  0.16824814614E+02  0.63592736052E+02  0.11626446712E+03  0.18294158365E+03  0.12499234476E+03 0.  0.
         25    2    1    2    0    0 -0.16824814614E+02 -0.63592736052E+02 -0.48914925540E+02  0.14949653794E+03  0.12501773654E+03 0.  0.
          5    1    3    3  501    0 -0.19104681101E+01  0.69045430187E+02  0.13736187625E+03  0.15382228826E+03  0.47000000000E+01 0.  1.
         -5    1    3    3    0  501  0.18735282724E+02 -0.54526941343E+01 -0.21097409131E+02  0.29119295392E+02  0.47000000000E+01 0.  1.
          5    1    4    4  502    0  0.43877232980E+02 -0.39101025973E+02  0.11759584132E+02  0.60120542455E+02  0.47000000000E+01 0.  1.
         -5    1    4    4    0  502 -0.60702047594E+02 -0.24491710079E+02 -0.60674509672E+02  0.89375995483E+02  0.47000000000E+01 0.  1.
<mgrwt>
<rscale>  0 0.32554438E+03</rscale>
<asrwt>0</asrwt>
<pdfrwt beam="1">  1       21 0.30752897E-01 0.32554438E+03</pdfrwt>
<pdfrwt beam="2">  1       21 0.20391429E-01 0.32554438E+03</pdfrwt>
<totfact> 0.21865242E+05</totfact>
</mgrwt>
</event>
<event>
 8    1  0.9400004E-006  0.2759380E+03  0.7546771E-02  0.1097928E+00
         21   -1    0    0  504  503  0.00000000000E+00  0.00000000000E+00  0.11172741298E+03  0.11172741298E+03  0.00000000000E+00 0. -1.
         21   -1    0    0  503  504 -0.00000000000E+00 -0.00000000000E+00 -0.17037399199E+03  0.17037399199E+03  0.00000000000E+00 0. -1.
         25    2    1    2    0    0 -0.16578333438E+02  0.49930807339E+02 -0.34169649877E+01  0.13566781394E+03  0.12500461363E+03 0.  0.
         25    2    1    2    0    0  0.16578333438E+02 -0.49930807339E+02 -0.55229614025E+02  0.14643359103E+03  0.12499823861E+03 0.  0.
          5    1    3    3  501    0  0.51021475004E+02  0.14877013752E+02 -0.21063216615E+02  0.57360836325E+02  0.47000000000E+01 0.  1.
         -5    1    3    3    0  501 -0.67599808442E+02  0.35053793587E+02  0.17646251627E+02  0.78306977613E+02  0.47000000000E+01 0.  1.
          5    1    4    4  502    0  0.13906250253E+02  0.39918304773E+02 -0.32689267329E+02  0.53642642091E+02  0.47000000000E+01 0.  1.
         -5    1    4    4    0  502  0.26720831849E+01 -0.89849112112E+02 -0.22540346696E+02  0.92790948939E+02  0.47000000000E+01 0.  1.
<mgrwt>
<rscale>  0 0.27593800E+03</rscale>
<asrwt>0</asrwt>
<pdfrwt beam="1">  1       21 0.17188833E-01 0.27593800E+03</pdfrwt>
<pdfrwt beam="2">  1       21 0.26211383E-01 0.27593800E+03</pdfrwt>
<totfact> 0.41573957E+05</totfact>
</mgrwt>
</event>
<event>
 8    1  0.9400004E-006  0.3764524E+03  0.7546771E-02  0.1052253E+00
         21   -1    0    0  504  503  0.00000000000E+00  0.00000000000E+00  0.10207749830E+03  0.10207749830E+03  0.00000000000E+00 0. -1.
         21   -1    0    0  503  504 -0.00000000000E+00 -0.00000000000E+00 -0.34708041263E+03  0.34708041263E+03  0.00000000000E+00 0. -1.
         25    2    1    2    0    0 -0.11977608533E+02  0.10199244537E+03 -0.76994730950E+01  0.16195848470E+03  0.12500138743E+03 0.  0.
         25    2    1    2    0    0  0.11977608533E+02 -0.10199244537E+03 -0.23730344124E+03  0.28719942623E+03  0.12499866073E+03 0.  0.
          5    1    3    3  501    0  0.19857549177E+02 -0.23068331244E+02 -0.11211998221E+02  0.32776044145E+02  0.47000000000E+01 0. -1.
         -5    1    3    3    0  501 -0.31835157710E+02  0.12506077661E+03  0.35125251263E+01  0.12918244055E+03  0.47000000000E+01 0. -1.
          5    1    4    4  502    0  0.12597184644E+01 -0.11205444126E+03 -0.24536651218E+03  0.26978621165E+03  0.47000000000E+01 0. -1.
         -5    1    4    4    0  502  0.10717890068E+02  0.10061995891E+02  0.80630709443E+01  0.17413214576E+02  0.47000000000E+01 0. -1.
<mgrwt>
<rscale>  0 0.37645239E+03</rscale>
<asrwt>0</asrwt>
<pdfrwt beam="1">  1       21 0.15704230E-01 0.37645239E+03</pdfrwt>
<pdfrwt beam="2">  1       21 0.53396987E-01 0.37645239E+03</pdfrwt>
<totfact> 0.11359129E+05</totfact>
</mgrwt>
</event>
<event>
 8    1  0.9400004E-006  0.3063581E+03  0.7546771E-02  0.1082105E+00
         21   -1    0    0  504  503  0.00000000000E+00  0.00000000000E+00  0.86800893148E+03  0.86800893148E+03  0.00000000000E+00 0. -1.
         21   -1    0    0  503  504 -0.00000000000E+00 -0.00000000000E+00 -0.27031766011E+02  0.27031766011E+02  0.00000000000E+00 0. -1.
         25    2    1    2    0    0  0.65417382331E+02  0.50945459556E+02  0.32976005176E+03  0.36227218019E+03  0.12499826815E+03 0.  0.
         25    2    1    2    0    0 -0.65417382331E+02 -0.50945459556E+02  0.51121711371E+03  0.53276851730E+03  0.12499792766E+03 0.  0.
          5    1    3    3  501    0  0.77212413305E+01 -0.30218686998E+02  0.17748563262E+03  0.18026654265E+03  0.47000000000E+01 0.  1.
         -5    1    3    3    0  501  0.57696141001E+02  0.81164146553E+02  0.15227441914E+03  0.18200563754E+03  0.47000000000E+01 0.  1.
          5    1    4    4  502    0  0.20354346711E+02  0.26907366299E+02  0.11739445022E+03  0.12223687142E+03  0.47000000000E+01 0.  1.
         -5    1    4    4    0  502 -0.85771729042E+02 -0.77852825855E+02  0.39382266349E+03  0.41053164589E+03  0.47000000000E+01 0.  1.
<mgrwt>
<rscale>  0 0.30635805E+03</rscale>
<asrwt>0</asrwt>
<pdfrwt beam="1">  1       21 0.13353981E+00 0.30635805E+03</pdfrwt>
<pdfrwt beam="2">  1       21 0.41587339E-02 0.30635805E+03</pdfrwt>
<totfact> 0.14237648E+05</totfact>
</mgrwt>
</event>
<event>
 8    1  0.9400004E-006  0.3307923E+03  0.7546771E-02  0.1070787E+00
         21   -1    0    0  504  503  0.00000000000E+00  0.00000000000E+00  0.68297584749E+02  0.68297584749E+02  0.00000000000E+00 0.  1.
         21   -1    0    0  503  504 -0.00000000000E+00 -0.00000000000E+00 -0.40053964455E+03  0.40053964455E+03  0.00000000000E+00 0.  1.
         25    2    1    2    0    0 -0.35803951859E+02  0.26194901626E+02 -0.30616325943E+03  0.33366005813E+03  0.12499998852E+03 0.  0.
         25    2    1    2    0    0  0.35803951859E+02 -0.26194901626E+02 -0.26078800375E+02  0.13517717117E+03  0.12499867174E+03 0.  0.
          5    1    3    3  501    0 -0.55720721850E+02 -0.28628936501E+02 -0.22496808664E+03  0.23357470936E+03  0.47000000000E+01 0.  1.
         -5    1    3    3    0  501  0.19916769991E+02  0.54823838127E+02 -0.81195172791E+02  0.10008534877E+03  0.47000000000E+01 0.  1.
          5    1    4    4  502    0  0.75624680793E+02 -0.45157878742E+02 -0.15189601798E+02  0.89504973942E+02  0.47000000000E+01 0.  1.
         -5    1    4    4    0  502 -0.39820728934E+02  0.18962977116E+02 -0.10889198576E+02  0.45672197227E+02  0.47000000000E+01 0.  1.
<mgrwt>
<rscale>  0 0.33079232E+03</rscale>
<asrwt>0</asrwt>
<pdfrwt beam="1">  1       21 0.10507321E-01 0.33079232E+03</pdfrwt>
<pdfrwt beam="2">  1       21 0.61621483E-01 0.33079232E+03</pdfrwt>
<totfact> 0.17511178E+05</totfact>
</mgrwt>
</event>
<event>
 8    1  0.9400004E-006  0.3563153E+03  0.7546771E-02  0.1060052E+00
         21   -1    0    0  504  503  0.00000000000E+00  0.00000000000E+00  0.25207352003E+03  0.25207352003E+03  0.00000000000E+00 0. -1.
         21   -1    0    0  503  504 -0.00000000000E+00 -0.00000000000E+00 -0.12591622594E+03  0.12591622594E+03  0.00000000000E+00 0. -1.
         25    2    1    2    0    0 -0.23566166968E+01  0.20030771414E+02  0.19605590120E+03  0.23338625744E+03  0.12499777327E+03 0.  0.
         25    2    1    2    0    0  0.23566166968E+01 -0.20030771414E+02 -0.69898607103E+02  0.14460348853E+03  0.12497026916E+03 0.  0.
          5    1    3    3  501    0  0.21385900066E+01  0.15169843400E+02 -0.15133335229E+02  0.22040997055E+02  0.47000000000E+01 0.  1.
         -5    1    3    3    0  501 -0.44952067034E+01  0.48609280145E+01  0.21118923643E+03  0.21134526039E+03  0.47000000000E+01 0.  1.
          5    1    4    4  502    0 -0.40490079479E+02  0.25390008111E+02 -0.66323198061E+02  0.81883793568E+02  0.47000000000E+01 0. -1.
         -5    1    4    4    0  502  0.42846696175E+02 -0.45420779526E+02 -0.35754090414E+01  0.62719694958E+02  0.47000000000E+01 0. -1.
<mgrwt>
<rscale>  0 0.35631529E+03</rscale>
<asrwt>0</asrwt>
<pdfrwt beam="1">  1       21 0.38780541E-01 0.35631529E+03</pdfrwt>
<pdfrwt beam="2">  1       21 0.19371727E-01 0.35631529E+03</pdfrwt>
<totfact> 0.15026070E+05</totfact>
</mgrwt>
</event>
<event>
 8    1  0.9400004E-006  0.3215980E+03  0.7546771E-02  0.1074916E+00
         21   -1    0    0  504  503  0.00000000000E+00  0.00000000000E+00  0.78924827378E+03  0.78924827378E+03  0.00000000000E+00 0. -1.
         21   -1    0    0  503  504 -0.00000000000E+00 -0.00000000000E+00 -0.32760695371E+02  0.32760695371E+02  0.00000000000E+00 0. -1.
         25    2    1    2    0    0  0.82616901685E+02 -0.52396437594E+02  0.31251500252E+03  0.35051313882E+03  0.12499157798E+03 0.  0.
         25    2    1    2    0    0 -0.82616901685E+02  0.52396437594E+02  0.44397257589E+03  0.47149583033E+03  0.12500292303E+03 0.  0.
          5    1    3    3  501    0  0.82224964527E+02 -0.73881986608E+02  0.14932975844E+03  0.18585198275E+03  0.47000000000E+01 0.  1.
         -5    1    3    3    0  501  0.39193715815E+00  0.21485549014E+02  0.16318524408E+03  0.16466115607E+03  0.47000000000E+01 0.  1.
          5    1    4    4  502    0  0.31186318846E+02 -0.33104226895E+01  0.99359981726E+02  0.10429784921E+03  0.47000000000E+01 0. -1.
         -5    1    4    4    0  502 -0.11380322053E+03  0.55706860283E+02  0.34461259416E+03  0.36719798112E+03  0.47000000000E+01 0. -1.
<mgrwt>
<rscale>  0 0.32159802E+03</rscale>
<asrwt>0</asrwt>
<pdfrwt beam="1">  1       21 0.12142280E+00 0.32159802E+03</pdfrwt>
<pdfrwt beam="2">  1       21 0.50401076E-02 0.32159802E+03</pdfrwt>
<totfact> 0.13022405E+05</totfact>
</mgrwt>
</event>
<event>
 8    1  0.9400004E-006  0.2574082E+03  0.7546771E-02  0.1108710E+00
         21   -1    0    0  504  503  0.00000000000E+00  0.00000000000E+00  0.41341911942E+03  0.41341911942E+03  0.00000000000E+00 0.  1.
         21   -1    0    0  503  504 -0.00000000000E+00 -0.00000000000E+00 -0.40067687292E+02  0.40067687292E+02  0.00000000000E+00 0.  1.
         25    2    1    2    0    0 -0.25263211638E+02  0.14407873853E+02  0.16965847765E+03  0.21273683472E+03  0.12500858018E+03 0.  0.
         25    2    1    2    0    0  0.25263211638E+02 -0.14407873853E+02  0.20369295448E+03  0.24074997199E+03  0.12499565039E+03 0.  0.
          5    1    3    3  501    0  0.26544055891E+02 -0.40202192957E+02  0.94961866924E+02  0.10658634712E+03  0.47000000000E+01 0.  1.
         -5    1    3    3    0  501 -0.51807267529E+02  0.54610066810E+02  0.74696610723E+02  0.10615048761E+03  0.47000000000E+01 0.  1.
          5    1    4    4  502    0  0.51156180424E+02 -0.50303537746E+02  0.72054969056E+02  0.10179100781E+03  0.47000000000E+01 0.  1.
         -5    1    4    4    0  502 -0.25892968786E+02  0.35895663893E+02  0.13163798542E+03  0.13895896418E+03  0.47000000000E+01 0.  1.
<mgrwt>
<rscale>  0 0.25740822E+03</rscale>
<asrwt>0</asrwt>
<pdfrwt beam="1">  1       21 0.63602939E-01 0.25740822E+03</pdfrwt>
<pdfrwt beam="2">  1       21 0.61642599E-02 0.25740822E+03</pdfrwt>
<totfact> 0.42393227E+05</totfact>
</mgrwt>
</event>
<event>
 8    1  0.9400004E-006  0.3554703E+03  0.7546771E-02  0.1060392E+00
         21   -1    0    0  504  503  0.00000000000E+00  0.00000000000E+00  0.37409374054E+03  0.37409374054E+03  0.00000000000E+00 0. -1.
         21   -1    0    0  503  504 -0.00000000000E+00 -0.00000000000E+00 -0.84443505514E+02  0.84443505514E+02  0.00000000000E+00 0. -1.
         25    2    1    2    0    0 -0.12551179116E+03 -0.13274893330E+02  0.15240853286E+03  0.23405936020E+03  0.12500396271E+03 0.  0.
         25    2    1    2    0    0  0.12551179116E+03  0.13274893330E+02  0.13724170216E+03  0.22447788586E+03  0.12500241563E+03 0.  0.
          5    1    3    3  501    0 -0.12496060997E+03 -0.53393685990E+02  0.10513381419E+03  0.17187567785E+03  0.47000000000E+01 0. -1.
         -5    1    3    3    0  501 -0.55118118322E+00  0.40118792660E+02  0.47274718669E+02  0.62183682349E+02  0.47000000000E+01 0. -1.
          5    1    4    4  502    0  0.11677242232E+03 -0.29424242100E+02  0.13444421278E+03  0.18055171278E+03  0.47000000000E+01 0.  1.
         -5    1    4    4    0  502  0.87393688386E+01  0.42699135430E+02  0.27974893774E+01  0.43926173075E+02  0.47000000000E+01 0.  1.
<mgrwt>
<rscale>  0 0.35547032E+03</rscale>
<asrwt>0</asrwt>
<pdfrwt beam="1">  1       21 0.57552882E-01 0.35547032E+03</pdfrwt>
<pdfrwt beam="2">  1       21 0.12991309E-01 0.35547032E+03</pdfrwt>
<totfact> 0.13766660E+05</totfact>
</mgrwt>
</event>
<event>
 8    1  0.9400004E-006  0.2690460E+03  0.7546771E-02  0.1101827E+00
         21   -1    0    0  504  503  0.00000000000E+00  0.00000000000E+00  0.62940907277E+03  0.62940907277E+03  0.00000000000E+00 0.  1.
         21   -1    0    0  503  504 -0.00000000000E+00 -0.00000000000E+00 -0.28751479457E+02  0.28751479457E+02  0.00000000000E+00 0.  1.
         25    2    1    2    0    0 -0.48942438967E+02  0.73293669197E+01  0.31181353301E+03  0.33956203943E+03  0.12500246920E+03 0.  0.
         25    2    1    2    0    0  0.48942438967E+02 -0.73293669197E+01  0.28884406030E+03  0.31859851279E+03  0.12500015691E+03 0.  0.
          5    1    3    3  501    0 -0.89269813218E+02 -0.73079364154E+01  0.18478829131E+03  0.20540522898E+03  0.47000000000E+01 0.  1.
         -5    1    3    3    0  501  0.40327374251E+02  0.14637303335E+02  0.12702524170E+03  0.13415681046E+03  0.47000000000E+01 0.  1.
          5    1    4    4  502    0  0.88024076357E+02 -0.50513709130E+01  0.24061439855E+03  0.25630281535E+03  0.47000000000E+01 0.  1.
         -5    1    4    4    0  502 -0.39081637389E+02 -0.22779960067E+01  0.48229661751E+02  0.62295697440E+02  0.47000000000E+01 0.  1.
<mgrwt>
<rscale>  0 0.26904603E+03</rscale>
<asrwt>0</asrwt>
<pdfrwt beam="1">  1       21 0.96832155E-01 0.26904603E+03</pdfrwt>
<pdfrwt beam="2">  1       21 0.44233050E-02 0.26904603E+03</pdfrwt>
<totfact> 0.28690253E+05</totfact>
</mgrwt>
</event>
<event>
 8    1  0.9400004E-006  0.3154433E+03  0.7546771E-02  0.1077766E+00
         21   -1    0    0  504  503  0.00000000000E+00  0.00000000000E+00  0.10014939942E+03  0.10014939942E+03  0.00000000000E+00 0.  1.
         21   -1    0    0  503  504 -0.00000000000E+00 -0.00000000000E+00 -0.24839006488E+03  0.24839006488E+03  0.00000000000E+00 0.  1.
         25    2    1    2    0    0 -0.94171413673E+01 -0.27099403165E+02 -0.17557439930E+03  0.21742517185E+03  0.12499710180E+03 0.  0.
         25    2    1    2    0    0  0.94171413673E+01  0.27099403165E+02  0.27333733839E+02  0.13111429245E+03  0.12498305675E+03 0.  0.
          5    1    3    3  501    0  0.41853691584E+02  0.17207774987E+00 -0.14626058561E+03  0.15220384362E+03  0.47000000000E+01 0.  1.
         -5    1    3    3    0  501 -0.51270832952E+02 -0.27271480915E+02 -0.29313813697E+02  0.65221328232E+02  0.47000000000E+01 0.  1.
          5    1    4    4  502    0  0.31689722123E+02 -0.40224636507E+02 -0.75018789627E+01  0.51967567370E+02  0.47000000000E+01 0.  1.
         -5    1    4    4    0  502 -0.22272580756E+02  0.67324039672E+02  0.34835612802E+02  0.79146725078E+02  0.47000000000E+01 0.  1.
<mgrwt>
<rscale>  0 0.31544328E+03</rscale>
<asrwt>0</asrwt>
<pdfrwt beam="1">  1       21 0.15407600E-01 0.31544328E+03</pdfrwt>
<pdfrwt beam="2">  1       21 0.38213856E-01 0.31544328E+03</pdfrwt>
<totfact> 0.23934602E+05</totfact>
</mgrwt>
</event>
<event>
 8    1  0.9400004E-006  0.3205145E+03  0.7546771E-02  0.1075413E+00
         21   -1    0    0  504  503  0.00000000000E+00  0.00000000000E+00  0.13475832326E+02  0.13475832326E+02  0.00000000000E+00 0. -1.
         21   -1    0    0  503  504 -0.00000000000E+00 -0.00000000000E+00 -0.19058102245E+04  0.19058102245E+04  0.00000000000E+00 0. -1.
         25    2    1    2    0    0  0.40090807845E+02 -0.76385244955E+02 -0.63996632651E+03  0.65774142919E+03  0.12499964035E+03 0.  0.
         25    2    1    2    0    0 -0.40090807845E+02  0.76385244955E+02 -0.12523680657E+04  0.12615446277E+04  0.12500838812E+03 0.  0.
          5    1    3    3  501    0 -0.32507998265E+02  0.13863130465E+02 -0.13349362545E+03  0.13817233578E+03  0.47000000000E+01 0. -1.
         -5    1    3    3    0  501  0.72598806110E+02 -0.90248375420E+02 -0.50647270106E+03  0.51956909341E+03  0.47000000000E+01 0. -1.
          5    1    4    4  502    0 -0.23330497927E+02  0.59261538982E+02 -0.22502651978E+03  0.23391294693E+03  0.47000000000E+01 0. -1.
         -5    1    4    4    0  502 -0.16760309917E+02  0.17123705972E+02 -0.10273415459E+04  0.10276316808E+04  0.47000000000E+01 0. -1.
<mgrwt>
<rscale>  0 0.32051446E+03</rscale>
<asrwt>0</asrwt>
<pdfrwt beam="1">  1       21 0.20732054E-02 0.32051446E+03</pdfrwt>
<pdfrwt beam="2">  1       21 0.29320151E+00 0.32051446E+03</pdfrwt>
<totfact> 0.39646650E+04</totfact>
</mgrwt>
</event>
<event>
 8    1  0.9400004E-006  0.2659917E+03  0.7546771E-02  0.1103596E+00
         21   -1    0    0  504  503  0.00000000000E+00  0.00000000000E+00  0.12623010086E+04  0.12623010086E+04  0.00000000000E+00 0. -1.
         21   -1    0    0  503  504 -0.00000000000E+00 -0.00000000000E+00 -0.14012424030E+02  0.14012424030E+02  0.00000000000E+00 0. -1.
         25    2    1    2    0    0 -0.44036030883E+02  0.76140512725E+01  0.66250073740E+03  0.67567097755E+03  0.12500758795E+03 0.  0.
         25    2    1    2    0    0  0.44036030883E+02 -0.76140512725E+01  0.58578784715E+03  0.60064245507E+03  0.12500724447E+03 0.  0.
          5    1    3    3  501    0 -0.53435416433E+02  0.33134635092E+02  0.15379990907E+03  0.16622198952E+03  0.47000000000E+01 0. -1.
         -5    1    3    3    0  501  0.93993855494E+01 -0.25520583819E+02  0.50870082834E+03  0.50944898802E+03  0.47000000000E+01 0. -1.
          5    1    4    4  502    0  0.53635256775E+02 -0.19522104296E+02  0.58117453704E+03  0.58398954257E+03  0.47000000000E+01 0.  1.
         -5    1    4    4    0  502 -0.95992258916E+01  0.11908053023E+02  0.46133101085E+01  0.16652912498E+02  0.47000000000E+01 0.  1.
<mgrwt>
<rscale>  0 0.26599171E+03</rscale>
<asrwt>0</asrwt>
<pdfrwt beam="1">  1       21 0.19420006E+00 0.26599171E+03</pdfrwt>
<pdfrwt beam="2">  1       21 0.21557585E-02 0.26599171E+03</pdfrwt>
<totfact> 0.15413123E+05</totfact>
</mgrwt>
</event>
<event>
 8    1  0.9400004E-006  0.4301949E+03  0.7546771E-02  0.1033798E+00
         21   -1    0    0  504  503  0.00000000000E+00  0.00000000000E+00  0.41854948341E+02  0.41854948341E+02  0.00000000000E+00 0.  1.
         21   -1    0    0  503  504 -0.00000000000E+00 -0.00000000000E+00 -0.11054108876E+04  0.11054108876E+04  0.00000000000E+00 0.  1.
         25    2    1    2    0    0 -0.16402345564E+03 -0.17776861230E+02 -0.37575320969E+03  0.42899314901E+03  0.12499974602E+03 0.  0.
         25    2    1    2    0    0  0.16402345564E+03  0.17776861230E+02 -0.68780272955E+03  0.71827268692E+03  0.12499338863E+03 0.  0.
          5    1    3    3  501    0 -0.15603477293E+03  0.27852225468E+02 -0.26451873735E+03  0.30840695393E+03  0.47000000000E+01 0.  1.
         -5    1    3    3    0  501 -0.79886827093E+01 -0.45629086698E+02 -0.11123447235E+03  0.12058619507E+03  0.47000000000E+01 0.  1.
          5    1    4    4  502    0  0.13225681657E+03  0.66174563676E+02 -0.52336163308E+03  0.54387537854E+03  0.47000000000E+01 0. -1.
         -5    1    4    4    0  502  0.31766639066E+02 -0.48397702446E+02 -0.16444109647E+03  0.17439730837E+03  0.47000000000E+01 0. -1.
<mgrwt>
<rscale>  0 0.43019491E+03</rscale>
<asrwt>0</asrwt>
<pdfrwt beam="1">  1       21 0.64392237E-02 0.43019491E+03</pdfrwt>
<pdfrwt beam="2">  1       21 0.17006319E+00 0.43019491E+03</pdfrwt>
<totfact> 0.33610079E+04</totfact>
</mgrwt>
</event>
<event>
 8    1  0.9400004E-006  0.3083519E+03  0.7546771E-02  0.1081139E+00
         21   -1    0    0  504  503  0.00000000000E+00  0.00000000000E+00  0.16071313184E+03  0.16071313184E+03  0.00000000000E+00 0. -1.
         21   -1    0    0  503  504 -0.00000000000E+00 -0.00000000000E+00 -0.14790463230E+03  0.14790463230E+03  0.00000000000E+00 0. -1.
         25    2    1    2    0    0  0.22073623570E+02 -0.16134235666E+02  0.92483032270E+02  0.15788290239E+03  0.12500536465E+03 0.  0.
         25    2    1    2    0    0 -0.22073623570E+02  0.16134235666E+02 -0.79674532728E+02  0.15073486174E+03  0.12500163583E+03 0.  0.
          5    1    3    3  501    0 -0.29444689990E+02 -0.12355063913E+02  0.10035620866E+03  0.10541867003E+03  0.47000000000E+01 0. -1.
         -5    1    3    3    0  501  0.51518313560E+02 -0.37791717538E+01 -0.78731763940E+01  0.52464232366E+02  0.47000000000E+01 0. -1.
          5    1    4    4  502    0  0.24386709088E+02 -0.41531815129E+02 -0.10990496732E+02  0.49623424574E+02  0.47000000000E+01 0.  1.
         -5    1    4    4    0  502 -0.46460332658E+02  0.57666050796E+02 -0.68684035996E+02  0.10111143717E+03  0.47000000000E+01 0.  1.
<mgrwt>
<rscale>  0 0.30835186E+03</rscale>
<asrwt>0</asrwt>
<pdfrwt beam="1">  1       21 0.24725097E-01 0.30835186E+03</pdfrwt>
<pdfrwt beam="2">  1       21 0.22754559E-01 0.30835186E+03</pdfrwt>
<totfact> 0.27266832E+05</totfact>
</mgrwt>
</event>
<event>
 8    1  0.9400004E-006  0.3818276E+03  0.7546771E-02  0.1050260E+00
         21   -1    0    0  504  503  0.00000000000E+00  0.00000000000E+00  0.48258339754E+03  0.48258339754E+03  0.00000000000E+00 0. -1.
         21   -1    0    0  503  504 -0.00000000000E+00 -0.00000000000E+00 -0.75526998176E+02  0.75526998176E+02  0.00000000000E+00 0. -1.
         25    2    1    2    0    0  0.10527597142E+02  0.25471420366E+02 -0.35123371559E+01  0.12805027799E+03  0.12499965449E+03 0.  0.
         25    2    1    2    0    0 -0.10527597142E+02 -0.25471420366E+02  0.41056873652E+03  0.43006011773E+03  0.12500157557E+03 0.  0.
          5    1    3    3  501    0 -0.25010645253E+02 -0.32316417940E+02 -0.34151529886E+02  0.53463073593E+02  0.47000000000E+01 0. -1.
         -5    1    3    3    0  501  0.35538242395E+02  0.57787838306E+02  0.30639192730E+02  0.74587204397E+02  0.47000000000E+01 0. -1.
          5    1    4    4  502    0 -0.39090642741E+02  0.13432371454E+02  0.35003649976E+03  0.35249985549E+03  0.47000000000E+01 0.  1.
         -5    1    4    4    0  502  0.28563045599E+02 -0.38903791820E+02  0.60532236757E+02  0.77560262240E+02  0.47000000000E+01 0.  1.
<mgrwt>
<rscale>  0 0.38182758E+03</rscale>
<asrwt>0</asrwt>
<pdfrwt beam="1">  1       21 0.74243598E-01 0.38182758E+03</pdfrwt>
<pdfrwt beam="2">  1       21 0.11619538E-01 0.38182758E+03</pdfrwt>
<totfact> 0.95380725E+04</totfact>
</mgrwt>
</event>
<event>
 8    1  0.9400004E-006  0.3301397E+03  0.7546771E-02  0.1071075E+00
         21   -1    0    0  504  503  0.00000000000E+00  0.00000000000E+00  0.18780597863E+02  0.18780597863E+02  0.00000000000E+00 0.  1.
         21   -1    0    0  503  504 -0.00000000000E+00 -0.00000000000E+00 -0.14508620098E+04  0.14508620098E+04  0.00000000000E+00 0.  1.
         25    2    1    2    0    0 -0.39075029997E+02  0.10032081091E+03 -0.69091652471E+03  0.71033933498E+03  0.12500081450E+03 0.  0.
         25    2    1    2    0    0  0.39075029997E+02 -0.10032081091E+03 -0.74116488722E+03  0.75930327268E+03  0.12499978714E+03 0.  0.
          5    1    3    3  501    0 -0.11080981353E+02  0.11025068022E+03 -0.65090873671E+03  0.66028953813E+03  0.47000000000E+01 0. -1.
         -5    1    3    3    0  501 -0.27994048644E+02 -0.99298693036E+01 -0.40007788003E+02  0.50049796851E+02  0.47000000000E+01 0. -1.
          5    1    4    4  502    0  0.21962558307E+02 -0.86174496912E+02 -0.21585610082E+03  0.23350448421E+03  0.47000000000E+01 0.  1.
         -5    1    4    4    0  502  0.17112471690E+02 -0.14146314002E+02 -0.52530878640E+03  0.52579878846E+03  0.47000000000E+01 0.  1.
<mgrwt>
<rscale>  0 0.33013970E+03</rscale>
<asrwt>0</asrwt>
<pdfrwt beam="1">  1       21 0.28893220E-02 0.33013970E+03</pdfrwt>
<pdfrwt beam="2">  1       21 0.22320960E+00 0.33013970E+03</pdfrwt>
<totfact> 0.60163561E+04</totfact>
</mgrwt>
</event>
<event>
 8    1  0.9400004E-006  0.3724075E+03  0.7546771E-02  0.1053776E+00
         21   -1    0    0  504  503  0.00000000000E+00  0.00000000000E+00  0.13211628769E+03  0.13211628769E+03  0.00000000000E+00 0.  1.
         21   -1    0    0  503  504 -0.00000000000E+00 -0.00000000000E+00 -0.26243423471E+03  0.26243423471E+03  0.00000000000E+00 0.  1.
         25    2    1    2    0    0 -0.11000914993E+03 -0.73629668282E+02 -0.10649288695E+03  0.21092472363E+03  0.12500065180E+03 0.  0.
         25    2    1    2    0    0  0.11000914993E+03  0.73629668282E+02 -0.23825060069E+02  0.18362579877E+03  0.12500983708E+03 0.  0.
          5    1    3    3  501    0 -0.49935287396E+02 -0.87893765565E+01  0.21526505677E+02  0.55283510328E+02  0.47000000000E+01 0. -1.
         -5    1    3    3    0  501 -0.60073862531E+02 -0.64840291726E+02 -0.12801939263E+03  0.15564121330E+03  0.47000000000E+01 0. -1.
          5    1    4    4  502    0  0.86696474625E+02  0.50850031719E+02 -0.73093097608E+02  0.12436516938E+03  0.47000000000E+01 0.  1.
         -5    1    4    4    0  502  0.23312675302E+02  0.22779636563E+02  0.49268037539E+02  0.59260629381E+02  0.47000000000E+01 0.  1.
<mgrwt>
<rscale>  0 0.37240750E+03</rscale>
<asrwt>0</asrwt>
<pdfrwt beam="1">  1       21 0.20325583E-01 0.37240750E+03</pdfrwt>
<pdfrwt beam="2">  1       21 0.40374497E-01 0.37240750E+03</pdfrwt>
<totfact> 0.12590473E+05</totfact>
</mgrwt>
</event>
<event>
 8    1  0.9400004E-006  0.3843368E+03  0.7546771E-02  0.1049342E+00
         21   -1    0    0  504  503  0.00000000000E+00  0.00000000000E+00  0.86683544344E+02  0.86683544344E+02  0.00000000000E+00 0. -1.
         21   -1    0    0  503  504 -0.00000000000E+00 -0.00000000000E+00 -0.42601724508E+03  0.42601724508E+03  0.00000000000E+00 0. -1.
         25    2    1    2    0    0 -0.11544392036E+03 -0.73460948065E+02 -0.10191257963E+03  0.21150659853E+03  0.12500023078E+03 0.  0.
         25    2    1    2    0    0  0.11544392036E+03  0.73460948065E+02 -0.23742112111E+03  0.30119419090E+03  0.12500136897E+03 0.  0.
          5    1    3    3  501    0 -0.19502043221E+02  0.60949157102E+01 -0.82694271695E+02  0.85310669077E+02  0.47000000000E+01 0. -1.
         -5    1    3    3    0  501 -0.95941877142E+02 -0.79555863775E+02 -0.19218307940E+02  0.12619592945E+03  0.47000000000E+01 0. -1.
          5    1    4    4  502    0  0.10184448099E+03  0.54001227341E+02 -0.24895211295E+03  0.27438599710E+03  0.47000000000E+01 0.  1.
         -5    1    4    4    0  502  0.13599439374E+02  0.19459720724E+02  0.11530991841E+02  0.26808193800E+02  0.47000000000E+01 0.  1.
<mgrwt>
<rscale>  0 0.38433675E+03</rscale>
<asrwt>0</asrwt>
<pdfrwt beam="1">  1       21 0.13335930E-01 0.38433675E+03</pdfrwt>
<pdfrwt beam="2">  1       21 0.65541115E-01 0.38433675E+03</pdfrwt>
<totfact> 0.98091880E+04</totfact>
</mgrwt>
</event>
<event>
 8    1  0.9400004E-006  0.3036183E+03  0.7546771E-02  0.1083446E+00
         21   -1    0    0  504  503  0.00000000000E+00  0.00000000000E+00  0.94324067021E+03  0.94324067021E+03  0.00000000000E+00 0. -1.
         21   -1    0    0  503  504 -0.00000000000E+00 -0.00000000000E+00 -0.24432810364E+02  0.24432810364E+02  0.00000000000E+00 0. -1.
         25    2    1    2    0    0 -0.12996321051E+02  0.79883304986E+01  0.72934658628E+03  0.74013797061E+03  0.12500021935E+03 0.  0.
         25    2    1    2    0    0  0.12996321051E+02 -0.79883304986E+01  0.18946127357E+03  0.22753550996E+03  0.12507644194E+03 0.  0.
          5    1    3    3  501    0 -0.63043461771E+02  0.31212367068E+02  0.41892292742E+03  0.42481431125E+03  0.47000000000E+01 0. -1.
         -5    1    3    3    0  501  0.50047140720E+02 -0.23224036570E+02  0.31042365886E+03  0.31532365935E+03  0.47000000000E+01 0. -1.
          5    1    4    4  502    0  0.65245225743E+02 -0.26189967296E+02  0.10758897191E+03  0.12860921719E+03  0.47000000000E+01 0.  1.
         -5    1    4    4    0  502 -0.52248904692E+02  0.18201636797E+02  0.81872301660E+02  0.98926292778E+02  0.47000000000E+01 0.  1.
<mgrwt>
<rscale>  0 0.30361832E+03</rscale>
<asrwt>0</asrwt>
<pdfrwt beam="1">  1       21 0.14511392E+00 0.30361832E+03</pdfrwt>
<pdfrwt beam="2">  1       21 0.37588946E-02 0.30361832E+03</pdfrwt>
<totfact> 0.13599662E+05</totfact>
</mgrwt>
</event>
<event>
 8    1  0.9400004E-006  0.3162206E+03  0.7546771E-02  0.1077402E+00
         21   -1    0    0  504  503  0.00000000000E+00  0.00000000000E+00  0.25956070225E+03  0.25956070225E+03  0.00000000000E+00 0. -1.
         21   -1    0    0  503  504 -0.00000000000E+00 -0.00000000000E+00 -0.96312215359E+02  0.96312215359E+02  0.00000000000E+00 0. -1.
         25    2    1    2    0    0 -0.69022556656E+02  0.66574710556E+02  0.96597607235E+02  0.18480786500E+03  0.12500617516E+03 0.  0.
         25    2    1    2    0    0  0.69022556656E+02 -0.66574710556E+02  0.66650879651E+02  0.17106505261E+03  0.12499842820E+03 0.  0.
          5    1    3    3  501    0  0.30083896341E+02  0.42535547241E+02  0.15891410553E+02  0.54671203823E+02  0.47000000000E+01 0.  1.
         -5    1    3    3    0  501 -0.99106452997E+02  0.24039163315E+02  0.80706196682E+02  0.13013666117E+03  0.47000000000E+01 0.  1.
          5    1    4    4  502    0  0.84415617047E+02 -0.74391119251E+02  0.11636839013E+02  0.11321457966E+03  0.47000000000E+01 0. -1.
         -5    1    4    4    0  502 -0.15393060391E+02  0.78164086949E+01  0.55014040638E+02  0.57850472949E+02  0.47000000000E+01 0. -1.
<mgrwt>
<rscale>  0 0.31622060E+03</rscale>
<asrwt>0</asrwt>
<pdfrwt beam="1">  1       21 0.39932415E-01 0.31622060E+03</pdfrwt>
<pdfrwt beam="2">  1       21 0.14817264E-01 0.31622060E+03</pdfrwt>
<totfact> 0.23512823E+05</totfact>
</mgrwt>
</event>
<event>
 8    1  0.9400004E-006  0.3623752E+03  0.7546771E-02  0.1057647E+00
         21   -1    0    0  504  503  0.00000000000E+00  0.00000000000E+00  0.15787506029E+03  0.15787506029E+03  0.00000000000E+00 0.  1.
         21   -1    0    0  503  504 -0.00000000000E+00 -0.00000000000E+00 -0.20794256282E+03  0.20794256282E+03  0.00000000000E+00 0.  1.
         25    2    1    2    0    0 -0.58575233665E+02  0.79857465893E+02  0.61798109250E+02  0.17101190725E+03  0.12497116971E+03 0.  0.
         25    2    1    2    0    0  0.58575233665E+02 -0.79857465893E+02 -0.11186561177E+03  0.19480571586E+03  0.12500831562E+03 0.  0.
          5    1    3    3  501    0 -0.54032753999E+02 -0.18875254308E+02  0.39154441898E+02  0.69505208800E+02  0.47000000000E+01 0. -1.
         -5    1    3    3    0  501 -0.45424796662E+01  0.98732720201E+02  0.22643667351E+02  0.10150669845E+03  0.47000000000E+01 0. -1.
          5    1    4    4  502    0  0.17716363713E+02 -0.74343553296E+02 -0.12891779739E+03  0.14994239542E+03  0.47000000000E+01 0.  1.
         -5    1    4    4    0  502  0.40858869953E+02 -0.55139125964E+01  0.17052185621E+02  0.44863320434E+02  0.47000000000E+01 0.  1.
<mgrwt>
<rscale>  0 0.36237519E+03</rscale>
<asrwt>0</asrwt>
<pdfrwt beam="1">  1       21 0.24288471E-01 0.36237519E+03</pdfrwt>
<pdfrwt beam="2">  1       21 0.31991163E-01 0.36237519E+03</pdfrwt>
<totfact> 0.14362003E+05</totfact>
</mgrwt>
</event>
<event>
 8    1  0.9400004E-006  0.3664713E+03  0.7546771E-02  0.1056050E+00
         21   -1    0    0  504  503  0.00000000000E+00  0.00000000000E+00  0.10352724918E+03  0.10352724918E+03  0.00000000000E+00 0.  1.
         21   -1    0    0  503  504 -0.00000000000E+00 -0.00000000000E+00 -0.32431361458E+03  0.32431361458E+03  0.00000000000E+00 0.  1.
         25    2    1    2    0    0 -0.35103252982E+02 -0.11140731613E+03 -0.18696588103E+03  0.25342797437E+03  0.12500267624E+03 0.  0.
         25    2    1    2    0    0  0.35103252982E+02  0.11140731613E+03 -0.33820484373E+02  0.17441288939E+03  0.12502880615E+03 0.  0.
          5    1    3    3  501    0  0.38228131163E+02 -0.34498232739E+02 -0.19963437223E+02  0.55426951026E+02  0.47000000000E+01 0. -1.
         -5    1    3    3    0  501 -0.73331384144E+02 -0.76909083387E+02 -0.16700244380E+03  0.19800102334E+03  0.47000000000E+01 0. -1.
          5    1    4    4  502    0  0.18385029213E+02  0.34638777597E+02  0.47139864870E+02  0.61498870498E+02  0.47000000000E+01 0. -1.
         -5    1    4    4    0  502  0.16718223769E+02  0.76768538529E+02 -0.80960349242E+02  0.11291401890E+03  0.47000000000E+01 0. -1.
<mgrwt>
<rscale>  0 0.36647126E+03</rscale>
<asrwt>0</asrwt>
<pdfrwt beam="1">  1       21 0.15927269E-01 0.36647126E+03</pdfrwt>
<pdfrwt beam="2">  1       21 0.49894402E-01 0.36647126E+03</pdfrwt>
<totfact> 0.12812017E+05</totfact>
</mgrwt>
</event>
<event>
 8    1  0.9400004E-006  0.2783219E+03  0.7546771E-02  0.1096609E+00
         21   -1    0    0  504  503  0.00000000000E+00  0.00000000000E+00  0.62315201133E+02  0.62315201133E+02  0.00000000000E+00 0.  1.
         21   -1    0    0  503  504 -0.00000000000E+00 -0.00000000000E+00 -0.31077115112E+03  0.31077115112E+03  0.00000000000E+00 0.  1.
         25    2    1    2    0    0  0.56264586369E+02 -0.21765609524E+02 -0.13774229199E+03  0.19554245696E+03  0.12499787213E+03 0.  0.
         25    2    1    2    0    0 -0.56264586369E+02  0.21765609524E+02 -0.11071365800E+03  0.17754389529E+03  0.12499950100E+03 0.  0.
          5    1    3    3  501    0 -0.15232148246E+02  0.25372463766E+02 -0.95200672471E+02  0.99805001361E+02  0.47000000000E+01 0. -1.
         -5    1    3    3    0  501  0.71496734614E+02 -0.47138073291E+02 -0.42541619519E+02  0.95737455603E+02  0.47000000000E+01 0. -1.
          5    1    4    4  502    0 -0.41002095406E+02 -0.46735119896E+02 -0.78314783486E+02  0.10010313967E+03  0.47000000000E+01 0. -1.
         -5    1    4    4    0  502 -0.15262490963E+02  0.68500729421E+02 -0.32398874514E+02  0.77440755622E+02  0.47000000000E+01 0. -1.
<mgrwt>
<rscale>  0 0.27832188E+03</rscale>
<asrwt>0</asrwt>
<pdfrwt beam="1">  1       21 0.95869540E-02 0.27832188E+03</pdfrwt>
<pdfrwt beam="2">  1       21 0.47810947E-01 0.27832188E+03</pdfrwt>
<totfact> 0.35855475E+05</totfact>
</mgrwt>
</event>
<event>
 8    1  0.9400004E-006  0.2585378E+03  0.7546771E-02  0.1108025E+00
         21   -1    0    0  504  503  0.00000000000E+00  0.00000000000E+00  0.19256615987E+04  0.19256615987E+04  0.00000000000E+00 0.  1.
         21   -1    0    0  503  504 -0.00000000000E+00 -0.00000000000E+00 -0.86777696736E+01  0.86777696736E+01  0.00000000000E+00 0.  1.
         25    2    1    2    0    0  0.16112211419E+01 -0.30635146709E+02  0.86970618326E+03  0.87918162236E+03  0.12502148479E+03 0.  0.
         25    2    1    2    0    0 -0.16112211419E+01  0.30635146709E+02  0.10472776458E+04  0.10551577460E+04  0.12500517345E+03 0.  0.
          5    1    3    3  501    0  0.52896802726E+02 -0.30418116601E+02  0.67536661378E+03  0.67813382644E+03  0.47000000000E+01 0.  1.
         -5    1    3    3    0  501 -0.51285581585E+02 -0.21703010741E+00  0.19433956947E+03  0.20104779592E+03  0.47000000000E+01 0.  1.
          5    1    4    4  502    0 -0.21095089157E+02 -0.37319442732E+02  0.18437457420E+03  0.18935104225E+03  0.47000000000E+01 0.  1.
         -5    1    4    4    0  502  0.19483868016E+02  0.67954589440E+02  0.86290307156E+03  0.86580670374E+03  0.47000000000E+01 0.  1.
<mgrwt>
<rscale>  0 0.25853779E+03</rscale>
<asrwt>0</asrwt>
<pdfrwt beam="1">  1       21 0.29625529E+00 0.25853779E+03</pdfrwt>
<pdfrwt beam="2">  1       21 0.13350430E-02 0.25853779E+03</pdfrwt>
<totfact> 0.80841714E+04</totfact>
</mgrwt>
</event>
<event>
 8    1  0.9400004E-006  0.3449083E+03  0.7546771E-02  0.1064724E+00
         21   -1    0    0  504  503  0.00000000000E+00  0.00000000000E+00  0.34511293103E+02  0.34511293103E+02  0.00000000000E+00 0.  1.
         21   -1    0    0  503  504 -0.00000000000E+00 -0.00000000000E+00 -0.86175944899E+03  0.86175944899E+03  0.00000000000E+00 0.  1.
         25    2    1    2    0    0  0.85857141715E+02 -0.71277529432E+01 -0.20102215244E+03  0.25190529473E+03  0.12499647235E+03 0.  0.
         25    2    1    2    0    0 -0.85857141715E+02  0.71277529432E+01 -0.62622600345E+03  0.64436544736E+03  0.12500227481E+03 0.  0.
          5    1    3    3  501    0  0.25017563391E+01  0.49815057441E+02 -0.55919099446E+02  0.75078854649E+02  0.47000000000E+01 0.  1.
         -5    1    3    3    0  501  0.83355385376E+02 -0.56942810384E+02 -0.14510305299E+03  0.17682644008E+03  0.47000000000E+01 0.  1.
          5    1    4    4  502    0 -0.20050008247E+02 -0.56512238303E+02 -0.24684298815E+03  0.25406531976E+03  0.47000000000E+01 0.  1.
         -5    1    4    4    0  502 -0.65807133468E+02  0.63639991246E+02 -0.37938301530E+03  0.39030012759E+03  0.47000000000E+01 0.  1.
<mgrwt>
<rscale>  0 0.34490829E+03</rscale>
<asrwt>0</asrwt>
<pdfrwt beam="1">  1       21 0.53094301E-02 0.34490829E+03</pdfrwt>
<pdfrwt beam="2">  1       21 0.13257837E+00 0.34490829E+03</pdfrwt>
<totfact> 0.94503460E+04</totfact>
</mgrwt>
</event>
<event>
 8    1  0.9400004E-006  0.4408667E+03  0.7546771E-02  0.1030481E+00
         21   -1    0    0  504  503  0.00000000000E+00  0.00000000000E+00  0.24703034344E+03  0.24703034344E+03  0.00000000000E+00 0. -1.
         21   -1    0    0  503  504 -0.00000000000E+00 -0.00000000000E+00 -0.19670000427E+03  0.19670000427E+03  0.00000000000E+00 0. -1.
         25    2    1    2    0    0 -0.17216667305E+03  0.50944147394E+02  0.52358954353E+02  0.22495276512E+03  0.12500246787E+03 0.  0.
         25    2    1    2    0    0  0.17216667305E+03 -0.50944147394E+02 -0.20286151824E+01  0.21877758258E+03  0.12499138330E+03 0.  0.
          5    1    3    3  501    0 -0.69814575444E+02  0.83281938072E+02  0.43484284432E+02  0.11714490662E+03  0.47000000000E+01 0.  1.
         -5    1    3    3    0  501 -0.10235209760E+03 -0.32337790678E+02  0.88746699210E+01  0.10780785851E+03  0.47000000000E+01 0.  1.
          5    1    4    4  502    0  0.14637718449E+03 -0.86856368196E+02 -0.18694377028E+02  0.17129471261E+03  0.47000000000E+01 0. -1.
         -5    1    4    4    0  502  0.25789488561E+02  0.35912220802E+02  0.16665761845E+02  0.47482869975E+02  0.47000000000E+01 0. -1.
<mgrwt>
<rscale>  0 0.44086674E+03</rscale>
<asrwt>0</asrwt>
<pdfrwt beam="1">  1       21 0.38004668E-01 0.44086674E+03</pdfrwt>
<pdfrwt beam="2">  1       21 0.30261539E-01 0.44086674E+03</pdfrwt>
<totfact> 0.64880662E+04</totfact>
</mgrwt>
</event>
<event>
 8    1  0.9400004E-006  0.3075153E+03  0.7546771E-02  0.1081543E+00
         21   -1    0    0  504  503  0.00000000000E+00  0.00000000000E+00  0.82972470728E+02  0.82972470728E+02  0.00000000000E+00 0.  1.
         21   -1    0    0  503  504 -0.00000000000E+00 -0.00000000000E+00 -0.28493091553E+03  0.28493091553E+03  0.00000000000E+00 0.  1.
         25    2    1    2    0    0  0.39119221417E+02  0.46587240220E+02 -0.22384326587E+02  0.14080635688E+03  0.12499875049E+03 0.  0.
         25    2    1    2    0    0 -0.39119221417E+02 -0.46587240220E+02 -0.17957411821E+03  0.22709702938E+03  0.12500204952E+03 0.  0.
          5    1    3    3  501    0  0.58945810802E+02 -0.14698044042E+02  0.19327068056E+02  0.63923913127E+02  0.47000000000E+01 0. -1.
         -5    1    3    3    0  501 -0.19826589386E+02  0.61285284262E+02 -0.41711394643E+02  0.76882443749E+02  0.47000000000E+01 0. -1.
          5    1    4    4  502    0  0.14663846961E+02  0.36332647347E+02 -0.41924692085E+02  0.57574816347E+02  0.47000000000E+01 0.  1.
         -5    1    4    4    0  502 -0.53783068378E+02 -0.82919887566E+02 -0.13764942613E+03  0.16952221303E+03  0.47000000000E+01 0.  1.
<mgrwt>
<rscale>  0 0.30751535E+03</rscale>
<asrwt>0</asrwt>
<pdfrwt beam="1">  1       21 0.12764995E-01 0.30751535E+03</pdfrwt>
<pdfrwt beam="2">  1       21 0.43835526E-01 0.30751535E+03</pdfrwt>
<totfact> 0.25535486E+05</totfact>
</mgrwt>
</event>
<event>
 8    1  0.9400004E-006  0.2929139E+03  0.7546771E-02  0.1088838E+00
         21   -1    0    0  504  503  0.00000000000E+00  0.00000000000E+00  0.28135936103E+03  0.28135936103E+03  0.00000000000E+00 0. -1.
         21   -1    0    0  503  504 -0.00000000000E+00 -0.00000000000E+00 -0.76235729918E+02  0.76235729918E+02  0.00000000000E+00 0. -1.
         25    2    1    2    0    0 -0.19252060421E+02  0.28881654266E+02  0.18553986363E+03  0.22639348138E+03  0.12499670248E+03 0.  0.
         25    2    1    2    0    0  0.19252060421E+02 -0.28881654266E+02  0.19583767482E+02  0.13120160957E+03  0.12500218646E+03 0.  0.
          5    1    3    3  501    0 -0.17759233130E+02 -0.26527234300E+02  0.16334457530E+03  0.16650112553E+03  0.47000000000E+01 0. -1.
         -5    1    3    3    0  501 -0.14928272913E+01  0.55408888566E+02  0.22195288323E+02  0.59892355849E+02  0.47000000000E+01 0. -1.
          5    1    4    4  502    0  0.40361158587E+02  0.39431833454E+02  0.18403167980E+02  0.59537040602E+02  0.47000000000E+01 0.  1.
         -5    1    4    4    0  502 -0.21109098165E+02 -0.68313487720E+02  0.11805995026E+01  0.71664568965E+02  0.47000000000E+01 0.  1.
<mgrwt>
<rscale>  0 0.29291389E+03</rscale>
<asrwt>0</asrwt>
<pdfrwt beam="1">  1       21 0.43286055E-01 0.29291389E+03</pdfrwt>
<pdfrwt beam="2">  1       21 0.11728574E-01 0.29291389E+03</pdfrwt>
<totfact> 0.30639423E+05</totfact>
</mgrwt>
</event>
<event>
 8    1  0.9400004E-006  0.3368063E+03  0.7546771E-02  0.1068164E+00
         21   -1    0    0  504  503  0.00000000000E+00  0.00000000000E+00  0.10377036181E+04  0.10377036181E+04  0.00000000000E+00 0.  1.
         21   -1    0    0  503  504 -0.00000000000E+00 -0.00000000000E+00 -0.27329212092E+02  0.27329212092E+02  0.00000000000E+00 0.  1.
         25    2    1    2    0    0 -0.43551920123E+02  0.98411849670E+02  0.39782028045E+03  0.43065956568E+03  0.12500009626E+03 0.  0.
         25    2    1    2    0    0  0.43551920123E+02 -0.98411849670E+02  0.61255412552E+03  0.63437326449E+03  0.12500088039E+03 0.  0.
          5    1    3    3  501    0 -0.70236766861E+02  0.78747462586E+02  0.16822103471E+03  0.19863225519E+03  0.47000000000E+01 0.  1.
         -5    1    3    3    0  501  0.26684846737E+02  0.19664387083E+02  0.22959924575E+03  0.23202731049E+03  0.47000000000E+01 0.  1.
          5    1    4    4  502    0  0.19708872457E+02  0.27627089089E+02  0.90433372027E+02  0.96705638311E+02  0.47000000000E+01 0. -1.
         -5    1    4    4    0  502  0.23843047667E+02 -0.12603893876E+03  0.52212075350E+03  0.53766762618E+03  0.47000000000E+01 0. -1.
<mgrwt>
<rscale>  0 0.33680631E+03</rscale>
<asrwt>0</asrwt>
<pdfrwt beam="1">  1       21 0.15964668E+00 0.33680631E+03</pdfrwt>
<pdfrwt beam="2">  1       21 0.42044950E-02 0.33680631E+03</pdfrwt>
<totfact> 0.86044286E+04</totfact>
</mgrwt>
</event>
<event>
 8    1  0.9400004E-006  0.5564340E+03  0.7546771E-02  0.1000016E+00
         21   -1    0    0  504  503  0.00000000000E+00  0.00000000000E+00  0.63366587758E+03  0.63366587758E+03  0.00000000000E+00 0. -1.
         21   -1    0    0  503  504 -0.00000000000E+00 -0.00000000000E+00 -0.12215381014E+03  0.12215381014E+03  0.00000000000E+00 0. -1.
         25    2    1    2    0    0 -0.22547237074E+01  0.13136514037E+03  0.54235270089E+03  0.57186845148E+03  0.12500075901E+03 0.  0.
         25    2    1    2    0    0  0.22547237074E+01 -0.13136514037E+03 -0.30840633450E+02  0.18395123624E+03  0.12500011503E+03 0.  0.
          5    1    3    3  501    0  0.11626745262E+02  0.15338921752E+03  0.48196000618E+03  0.50593573783E+03  0.47000000000E+01 0. -1.
         -5    1    3    3    0  501 -0.13881468969E+02 -0.22024077149E+02  0.60392694713E+02  0.65932713653E+02  0.47000000000E+01 0. -1.
          5    1    4    4  502    0  0.46757768958E+02 -0.75024842878E+01  0.38981233246E+01  0.47747896225E+02  0.47000000000E+01 0.  1.
         -5    1    4    4    0  502 -0.44503045251E+02 -0.12386265608E+03 -0.34738756774E+02  0.13620334001E+03  0.47000000000E+01 0.  1.
<mgrwt>
<rscale>  0 0.55643401E+03</rscale>
<asrwt>0</asrwt>
<pdfrwt beam="1">  1       21 0.97487057E-01 0.55643401E+03</pdfrwt>
<pdfrwt beam="2">  1       21 0.18792894E-01 0.55643401E+03</pdfrwt>
<totfact> 0.19874389E+04</totfact>
</mgrwt>
</event>
<event>
 8    1  0.9400004E-006  0.3575401E+03  0.7546771E-02  0.1059562E+00
         21   -1    0    0  504  503  0.00000000000E+00  0.00000000000E+00  0.52345470712E+03  0.52345470712E+03  0.00000000000E+00 0.  1.
         21   -1    0    0  503  504 -0.00000000000E+00 -0.00000000000E+00 -0.61053479257E+02  0.61053479257E+02  0.00000000000E+00 0.  1.
         25    2    1    2    0    0 -0.56614066855E+02 -0.95718321263E+02  0.33415843718E+03  0.37370398140E+03  0.12500261991E+03 0.  0.
         25    2    1    2    0    0  0.56614066855E+02  0.95718321263E+02  0.12824279068E+03  0.21080420498E+03  0.12500019953E+03 0.  0.
          5    1    3    3  501    0 -0.57389301081E+02 -0.11950211413E+03  0.21918728578E+03  0.25620195824E+03  0.47000000000E+01 0. -1.
         -5    1    3    3    0  501  0.77523422659E+00  0.23783792871E+02  0.11497115141E+03  0.11750202316E+03  0.47000000000E+01 0. -1.
          5    1    4    4  502    0  0.39418299804E+02  0.63862094011E+02  0.15036547887E+03  0.16811911446E+03  0.47000000000E+01 0.  1.
         -5    1    4    4    0  502  0.17195767050E+02  0.31856227252E+02 -0.22122688192E+02  0.42685090512E+02  0.47000000000E+01 0.  1.
<mgrwt>
<rscale>  0 0.35754010E+03</rscale>
<asrwt>0</asrwt>
<pdfrwt beam="1">  1       21 0.80531491E-01 0.35754010E+03</pdfrwt>
<pdfrwt beam="2">  1       21 0.93928433E-02 0.35754010E+03</pdfrwt>
<totfact> 0.11676177E+05</totfact>
</mgrwt>
</event>
<event>
 8    1  0.9400004E-006  0.2554352E+03  0.7546771E-02  0.1109917E+00
         21   -1    0    0  504  503  0.00000000000E+00  0.00000000000E+00  0.71698988632E+02  0.71698988632E+02  0.00000000000E+00 0. -1.
         21   -1    0    0  503  504 -0.00000000000E+00 -0.00000000000E+00 -0.22750369224E+03  0.22750369224E+03  0.00000000000E+00 0. -1.
         25    2    1    2    0    0  0.13404712097E+02 -0.21649320396E+02 -0.70628820231E+02  0.14581252884E+03  0.12499793575E+03 0.  0.
         25    2    1    2    0    0 -0.13404712097E+02  0.21649320396E+02 -0.85175883379E+02  0.15339015203E+03  0.12500091300E+03 0.  0.
          5    1    3    3  501    0  0.45978592094E+02 -0.51328660952E+02 -0.74174344449E+02  0.10135376530E+03  0.47000000000E+01 0.  1.
         -5    1    3    3    0  501 -0.32573879996E+02  0.29679340556E+02  0.35455242185E+01  0.44458763543E+02  0.47000000000E+01 0.  1.
          5    1    4    4  502    0 -0.21746830903E+02  0.72462171514E+02 -0.48318164779E+02  0.89891189793E+02  0.47000000000E+01 0. -1.
         -5    1    4    4    0  502  0.83421188056E+01 -0.50812851117E+02 -0.36857718599E+02  0.63498962237E+02  0.47000000000E+01 0. -1.
<mgrwt>
<rscale>  0 0.25543519E+03</rscale>
<asrwt>0</asrwt>
<pdfrwt beam="1">  1       21 0.11030614E-01 0.25543519E+03</pdfrwt>
<pdfrwt beam="2">  1       21 0.35000568E-01 0.25543519E+03</pdfrwt>
<totfact> 0.53025725E+05</totfact>
</mgrwt>
</event>
<event>
 8    1  0.9400004E-006  0.3416351E+03  0.7546771E-02  0.1066102E+00
         21   -1    0    0  504  503  0.00000000000E+00  0.00000000000E+00  0.94003038164E+03  0.94003038164E+03  0.00000000000E+00 0. -1.
         21   -1    0    0  503  504 -0.00000000000E+00 -0.00000000000E+00 -0.31040106374E+02  0.31040106374E+02  0.00000000000E+00 0. -1.
         25    2    1    2    0    0 -0.10795924289E+03 -0.22080564661E+02  0.56127887163E+03  0.58549347523E+03  0.12500355329E+03 0.  0.
         25    2    1    2    0    0  0.10795924289E+03  0.22080564661E+02  0.34771140364E+03  0.38557701279E+03  0.12499465233E+03 0.  0.
          5    1    3    3  501    0  0.28217175240E+02 -0.44951019509E+01  0.85138529941E+02  0.89928161332E+02  0.47000000000E+01 0. -1.
         -5    1    3    3    0  501 -0.13617641813E+03 -0.17585462710E+02  0.47614034169E+03  0.49556531390E+03  0.47000000000E+01 0. -1.
          5    1    4    4  502    0  0.10576976394E+03 -0.55431336427E+01  0.34041066457E+03  0.35653818849E+03  0.47000000000E+01 0. -1.
         -5    1    4    4    0  502  0.21894789486E+01  0.27623698304E+02  0.73007390663E+01  0.29038824304E+02  0.47000000000E+01 0. -1.
<mgrwt>
<rscale>  0 0.34163514E+03</rscale>
<asrwt>0</asrwt>
<pdfrwt beam="1">  1       21 0.14462004E+00 0.34163514E+03</pdfrwt>
<pdfrwt beam="2">  1       21 0.47754017E-02 0.34163514E+03</pdfrwt>
<totfact> 0.90323319E+04</totfact>
</mgrwt>
</event>
<event>
 8    1  0.9400004E-006  0.2735009E+03  0.7546771E-02  0.1099293E+00
         21   -1    0    0  504  503  0.00000000000E+00  0.00000000000E+00  0.22397056610E+03  0.22397056610E+03  0.00000000000E+00 0.  1.
         21   -1    0    0  503  504 -0.00000000000E+00 -0.00000000000E+00 -0.83496180310E+02  0.83496180310E+02  0.00000000000E+00 0.  1.
         25    2    1    2    0    0 -0.10921468102E+01  0.53925346425E+02  0.84194555608E+02  0.16014479417E+03  0.12509394923E+03 0.  0.
         25    2    1    2    0    0  0.10921468102E+01 -0.53925346425E+02  0.56279830186E+02  0.14732195224E+03  0.12500880991E+03 0.  0.
          5    1    3    3  501    0 -0.34924590549E+02 -0.26780174090E+02  0.10134512337E+02  0.45405980769E+02  0.47000000000E+01 0.  1.
         -5    1    3    3    0  501  0.33832443739E+02  0.80705520515E+02  0.74060043271E+02  0.11473881340E+03  0.47000000000E+01 0.  1.
          5    1    4    4  502    0 -0.40474464115E+02 -0.71779315797E+02  0.11218111403E+02  0.83296989412E+02  0.47000000000E+01 0.  1.
         -5    1    4    4    0  502  0.41566610925E+02  0.17853969372E+02  0.45061718783E+02  0.64024962833E+02  0.47000000000E+01 0.  1.
<mgrwt>
<rscale>  0 0.27350091E+03</rscale>
<asrwt>0</asrwt>
<pdfrwt beam="1">  1       21 0.34457010E-01 0.27350091E+03</pdfrwt>
<pdfrwt beam="2">  1       21 0.12845566E-01 0.27350091E+03</pdfrwt>
<totfact> 0.41451006E+05</totfact>
</mgrwt>
</event>
<event>
 8    1  0.9400004E-006  0.4115535E+03  0.7546771E-02  0.1039851E+00
         21   -1    0    0  504  503  0.00000000000E+00  0.00000000000E+00  0.81437171203E+03  0.81437171203E+03  0.00000000000E+00 0. -1.
         21   -1    0    0  503  504 -0.00000000000E+00 -0.00000000000E+00 -0.51995998162E+02  0.51995998162E+02  0.00000000000E+00 0. -1.
         25    2    1    2    0    0 -0.61369978497E+02 -0.71385957099E+02  0.66250090896E+03  0.68073081730E+03  0.12499904845E+03 0.  0.
         25    2    1    2    0    0  0.61369978497E+02  0.71385957099E+02  0.99874804899E+02  0.18563689289E+03  0.12499540077E+03 0.  0.
          5    1    3    3  501    0 -0.17476748905E+01 -0.74783061060E+02  0.18684158145E+03  0.20131424974E+03  0.47000000000E+01 0.  1.
         -5    1    3    3    0  501 -0.59622303607E+02  0.33971039609E+01  0.47565932752E+03  0.47941656757E+03  0.47000000000E+01 0.  1.
          5    1    4    4  502    0  0.58151674228E+02  0.93895095038E+02  0.11372736452E+03  0.15859984088E+03  0.47000000000E+01 0. -1.
         -5    1    4    4    0  502  0.32183042690E+01 -0.22509137939E+02 -0.13852559617E+02  0.27037052004E+02  0.47000000000E+01 0. -1.
<mgrwt>
<rscale>  0 0.41155350E+03</rscale>
<asrwt>0</asrwt>
<pdfrwt beam="1">  1       21 0.12528795E+00 0.41155350E+03</pdfrwt>
<pdfrwt beam="2">  1       21 0.79993849E-02 0.41155350E+03</pdfrwt>
<totfact> 0.52514958E+04</totfact>
</mgrwt>
</event>
<event>
 8    1  0.9400004E-006  0.2661324E+03  0.7546771E-02  0.1103514E+00
         21   -1    0    0  504  503  0.00000000000E+00  0.00000000000E+00  0.56128488296E+03  0.56128488296E+03  0.00000000000E+00 0.  1.
         21   -1    0    0  503  504 -0.00000000000E+00 -0.00000000000E+00 -0.31546582942E+02  0.31546582942E+02  0.00000000000E+00 0.  1.
         25    2    1    2    0    0  0.71755638003E+01  0.53628499805E+01  0.36451891963E+03  0.38546053188E+03  0.12500211997E+03 0.  0.
         25    2    1    2    0    0 -0.71755638003E+01 -0.53628499805E+01  0.16521938039E+03  0.20737093402E+03  0.12500004697E+03 0.  0.
          5    1    3    3  501    0  0.50795709556E+01  0.68773824587E+01  0.37423487221E+03  0.37436203067E+03  0.47000000000E+01 0. -1.
         -5    1    3    3    0  501  0.20959928447E+01 -0.15145324782E+01 -0.97159525805E+01  0.11098501213E+02  0.47000000000E+01 0. -1.
          5    1    4    4  502    0  0.77551076503E+01  0.56760592482E+02  0.53177191462E+02  0.78305876187E+02  0.47000000000E+01 0.  1.
         -5    1    4    4    0  502 -0.14930671451E+02 -0.62123442463E+02  0.11204218893E+03  0.12906505783E+03  0.47000000000E+01 0.  1.
<mgrwt>
<rscale>  0 0.26613245E+03</rscale>
<asrwt>0</asrwt>
<pdfrwt beam="1">  1       21 0.86351513E-01 0.26613245E+03</pdfrwt>
<pdfrwt beam="2">  1       21 0.48533209E-02 0.26613245E+03</pdfrwt>
<totfact> 0.32071718E+05</totfact>
</mgrwt>
</event>
<event>
 8    1  0.9400004E-006  0.2688405E+03  0.7546771E-02  0.1101945E+00
         21   -1    0    0  504  503  0.00000000000E+00  0.00000000000E+00  0.38428652810E+03  0.38428652810E+03  0.00000000000E+00 0. -1.
         21   -1    0    0  503  504 -0.00000000000E+00 -0.00000000000E+00 -0.47019100625E+02  0.47019100625E+02  0.00000000000E+00 0. -1.
         25    2    1    2    0    0 -0.14211476363E+01  0.49360720134E+02  0.17238072829E+03  0.21858227270E+03  0.12499837638E+03 0.  0.
         25    2    1    2    0    0  0.14211476363E+01 -0.49360720134E+02  0.16488669919E+03  0.21272335603E+03  0.12500040912E+03 0.  0.
          5    1    3    3  501    0  0.12980929656E+02  0.72829537594E+02  0.17546360493E+03  0.19047890365E+03  0.47000000000E+01 0.  1.
         -5    1    3    3    0  501 -0.14402077292E+02 -0.23468817460E+02 -0.30828766408E+01  0.28103369045E+02  0.47000000000E+01 0.  1.
          5    1    4    4  502    0  0.21387599393E+02 -0.68621819413E+02  0.35484170760E+02  0.80296948148E+02  0.47000000000E+01 0. -1.
         -5    1    4    4    0  502 -0.19966451757E+02  0.19261099279E+02  0.12940252843E+03  0.13242640788E+03  0.47000000000E+01 0. -1.
<mgrwt>
<rscale>  0 0.26884052E+03</rscale>
<asrwt>0</asrwt>
<pdfrwt beam="1">  1       21 0.59121002E-01 0.26884052E+03</pdfrwt>
<pdfrwt beam="2">  1       21 0.72337080E-02 0.26884052E+03</pdfrwt>
<totfact> 0.37559548E+05</totfact>
</mgrwt>
</event>
<event>
 8    1  0.9400004E-006  0.3241787E+03  0.7546771E-02  0.1073742E+00
         21   -1    0    0  504  503  0.00000000000E+00  0.00000000000E+00  0.24720393529E+02  0.24720393529E+02  0.00000000000E+00 0.  1.
         21   -1    0    0  503  504 -0.00000000000E+00 -0.00000000000E+00 -0.10628048326E+04  0.10628048326E+04  0.00000000000E+00 0.  1.
         25    2    1    2    0    0  0.58146076401E+02  0.63400889659E+01 -0.23383874490E+03  0.27152977865E+03  0.12500679640E+03 0.  0.
         25    2    1    2    0    0 -0.58146076401E+02 -0.63400889659E+01 -0.80424569419E+03  0.81599544750E+03  0.12496507829E+03 0.  0.
          5    1    3    3  501    0 -0.12280805669E+02 -0.47166643829E+02 -0.72682645523E+02  0.87637705573E+02  0.47000000000E+01 0. -1.
         -5    1    3    3    0  501  0.70426882070E+02  0.53506732795E+02 -0.16115609938E+03  0.18389207307E+03  0.47000000000E+01 0. -1.
          5    1    4    4  502    0 -0.30467696802E+02 -0.34590466010E+02 -0.95653423372E+02  0.10628475098E+03  0.47000000000E+01 0.  1.
         -5    1    4    4    0  502 -0.27678379599E+02  0.28250377044E+02 -0.70859227082E+03  0.70971069653E+03  0.47000000000E+01 0.  1.
<mgrwt>
<rscale>  0 0.32417868E+03</rscale>
<asrwt>0</asrwt>
<pdfrwt beam="1">  1       21 0.38031382E-02 0.32417868E+03</pdfrwt>
<pdfrwt beam="2">  1       21 0.16350841E+00 0.32417868E+03</pdfrwt>
<totfact> 0.95868039E+04</totfact>
</mgrwt>
</event>
<event>
 8    1  0.9400004E-006  0.3663001E+03  0.7546771E-02  0.1056117E+00
         21   -1    0    0  504  503  0.00000000000E+00  0.00000000000E+00  0.88141293582E+03  0.88141293582E+03  0.00000000000E+00 0. -1.
         21   -1    0    0  503  504 -0.00000000000E+00 -0.00000000000E+00 -0.38057000045E+02  0.38057000045E+02  0.00000000000E+00 0. -1.
         25    2    1    2    0    0 -0.90345799763E+02 -0.11266386268E+01  0.17375646035E+03  0.23233683690E+03  0.12500186166E+03 0.  0.
         25    2    1    2    0    0  0.90345799763E+02  0.11266386268E+01  0.66959947543E+03  0.68713309897E+03  0.12499922142E+03 0.  0.
          5    1    3    3  501    0 -0.79462642631E+02  0.10016009701E+02  0.19188272208E+03  0.20798004966E+03  0.47000000000E+01 0.  1.
         -5    1    3    3    0  501 -0.10883157131E+02 -0.11142648328E+02 -0.18126261722E+02  0.24356787246E+02  0.47000000000E+01 0.  1.
          5    1    4    4  502    0  0.40884836678E+02 -0.54418042884E+02  0.19216744400E+03  0.20391986121E+03  0.47000000000E+01 0.  1.
         -5    1    4    4    0  502  0.49460963085E+02  0.55544681510E+02  0.47743203143E+03  0.48321323776E+03  0.47000000000E+01 0.  1.
<mgrwt>
<rscale>  0 0.36630005E+03</rscale>
<asrwt>0</asrwt>
<pdfrwt beam="1">  1       21 0.13560197E+00 0.36630005E+03</pdfrwt>
<pdfrwt beam="2">  1       21 0.58549237E-02 0.36630005E+03</pdfrwt>
<totfact> 0.74835277E+04</totfact>
</mgrwt>
</event>
<event>
 8    1  0.9400004E-006  0.4323727E+03  0.7546771E-02  0.1033113E+00
         21   -1    0    0  504  503  0.00000000000E+00  0.00000000000E+00  0.37346517184E+02  0.37346517184E+02  0.00000000000E+00 0.  1.
         21   -1    0    0  503  504 -0.00000000000E+00 -0.00000000000E+00 -0.12514295590E+04  0.12514295590E+04  0.00000000000E+00 0.  1.
         25    2    1    2    0    0 -0.16782064005E+03  0.40852580235E+02 -0.71354491617E+03  0.74472061011E+03  0.12501895538E+03 0.  0.
         25    2    1    2    0    0  0.16782064005E+03 -0.40852580235E+02 -0.50053812565E+03  0.54405546607E+03  0.12500093756E+03 0.  0.
          5    1    3    3  501    0 -0.27992025669E+02  0.59540946858E+02 -0.31737159461E+03  0.32415350826E+03  0.47000000000E+01 0.  1.
         -5    1    3    3    0  501 -0.13982861438E+03 -0.18688366623E+02 -0.39617332156E+03  0.42056710185E+03  0.47000000000E+01 0.  1.
          5    1    4    4  502    0  0.10131119140E+03 -0.35515621893E+02 -0.13549303106E+03  0.17293284352E+03  0.47000000000E+01 0.  1.
         -5    1    4    4    0  502  0.66509448649E+02 -0.53369583421E+01 -0.36504509459E+03  0.37112262255E+03  0.47000000000E+01 0.  1.
<mgrwt>
<rscale>  0 0.43237269E+03</rscale>
<asrwt>0</asrwt>
<pdfrwt beam="1">  1       21 0.57456193E-02 0.43237269E+03</pdfrwt>
<pdfrwt beam="2">  1       21 0.19252758E+00 0.43237269E+03</pdfrwt>
<totfact> 0.28502777E+04</totfact>
</mgrwt>
</event>
<event>
 8    1  0.9400004E-006  0.2942410E+03  0.7546771E-02  0.1088155E+00
         21   -1    0    0  504  503  0.00000000000E+00  0.00000000000E+00  0.77843024999E+02  0.77843024999E+02  0.00000000000E+00 0.  1.
         21   -1    0    0  503  504 -0.00000000000E+00 -0.00000000000E+00 -0.27805233658E+03  0.27805233658E+03  0.00000000000E+00 0.  1.
         25    2    1    2    0    0 -0.33976080834E+02  0.33360622000E+02 -0.26007840500E+02  0.13627020785E+03  0.12500342639E+03 0.  0.
         25    2    1    2    0    0  0.33976080834E+02 -0.33360622000E+02 -0.17420147108E+03  0.21962515373E+03  0.12498700115E+03 0.  0.
          5    1    3    3  501    0 -0.35590547970E+02  0.12127802349E+02  0.46828661297E+02  0.60239390880E+02  0.47000000000E+01 0. -1.
         -5    1    3    3    0  501  0.16144671360E+01  0.21232819651E+02 -0.72836501797E+02  0.76030816966E+02  0.47000000000E+01 0. -1.
          5    1    4    4  502    0 -0.20348902233E+02  0.34697957676E+02 -0.27475389832E+02  0.48938871415E+02  0.47000000000E+01 0.  1.
         -5    1    4    4    0  502  0.54324983067E+02 -0.68058579676E+02 -0.14672608124E+03  0.17068628231E+03  0.47000000000E+01 0.  1.
<mgrwt>
<rscale>  0 0.29424096E+03</rscale>
<asrwt>0</asrwt>
<pdfrwt beam="1">  1       21 0.11975850E-01 0.29424096E+03</pdfrwt>
<pdfrwt beam="2">  1       21 0.42777284E-01 0.29424096E+03</pdfrwt>
<totfact> 0.30227520E+05</totfact>
</mgrwt>
</event>
<event>
 8    1  0.9400004E-006  0.2524764E+03  0.7546771E-02  0.1111750E+00
         21   -1    0    0  504  503  0.00000000000E+00  0.00000000000E+00  0.39441994881E+02  0.39441994881E+02  0.00000000000E+00 0.  1.
         21   -1    0    0  503  504 -0.00000000000E+00 -0.00000000000E+00 -0.40403834396E+03  0.40403834396E+03  0.00000000000E+00 0.  1.
         25    2    1    2    0    0 -0.58999577422E+01  0.77369213442E+01 -0.15647177076E+03  0.20050924579E+03  0.12500349254E+03 0.  0.
         25    2    1    2    0    0  0.58999577422E+01 -0.77369213442E+01 -0.20812457832E+03  0.24297109306E+03  0.12499777001E+03 0.  0.
          5    1    3    3  501    0 -0.52618152310E+02 -0.25826093221E+02 -0.11588776081E+03  0.12995276122E+03  0.47000000000E+01 0.  1.
         -5    1    3    3    0  501  0.46718194568E+02  0.33563014565E+02 -0.40584009952E+02  0.70556484565E+02  0.47000000000E+01 0.  1.
          5    1    4    4  502    0 -0.13322612237E+02  0.48129239221E+02 -0.15660382580E+03  0.16444076112E+03  0.47000000000E+01 0.  1.
         -5    1    4    4    0  502  0.19222569979E+02 -0.55866160566E+02 -0.51520752523E+02  0.78530331933E+02  0.47000000000E+01 0.  1.
<mgrwt>
<rscale>  0 0.25247636E+03</rscale>
<asrwt>0</asrwt>
<pdfrwt beam="1">  1       21 0.60679991E-02 0.25247636E+03</pdfrwt>
<pdfrwt beam="2">  1       21 0.62159746E-01 0.25247636E+03</pdfrwt>
<totfact> 0.45839198E+05</totfact>
</mgrwt>
</event>
<event>
 8    1  0.9400004E-006  0.2674684E+03  0.7546771E-02  0.1102737E+00
         21   -1    0    0  504  503  0.00000000000E+00  0.00000000000E+00  0.10522587222E+03  0.10522587222E+03  0.00000000000E+00 0.  1.
         21   -1    0    0  503  504 -0.00000000000E+00 -0.00000000000E+00 -0.16996618077E+03  0.16996618077E+03  0.00000000000E+00 0.  1.
         25    2    1    2    0    0 -0.15581735041E+02 -0.44216189190E+02 -0.24318933981E+02  0.13570332742E+03  0.12500448260E+03 0.  0.
         25    2    1    2    0    0  0.15581735041E+02  0.44216189190E+02 -0.40421374576E+02  0.13948872557E+03  0.12500142073E+03 0.  0.
          5    1    3    3  501    0 -0.11992506039E+02 -0.85470108450E+02  0.19182518261E+01  0.86456516988E+02  0.47000000000E+01 0.  1.
         -5    1    3    3    0  501 -0.35892290018E+01  0.41253919260E+02 -0.26237185807E+02  0.49246810437E+02  0.47000000000E+01 0.  1.
          5    1    4    4  502    0 -0.45118213620E+02  0.31045659085E+02 -0.52530063310E+02  0.76032780428E+02  0.47000000000E+01 0. -1.
         -5    1    4    4    0  502  0.60699948661E+02  0.13170530105E+02  0.12108688733E+02  0.63455945139E+02  0.47000000000E+01 0. -1.
<mgrwt>
<rscale>  0 0.26746843E+03</rscale>
<asrwt>0</asrwt>
<pdfrwt beam="1">  1       21 0.16188596E-01 0.26746843E+03</pdfrwt>
<pdfrwt beam="2">  1       21 0.26148643E-01 0.26746843E+03</pdfrwt>
<totfact> 0.46739998E+05</totfact>
</mgrwt>
</event>
<event>
 8    1  0.9400004E-006  0.2595597E+03  0.7546771E-02  0.1107408E+00
         21   -1    0    0  504  503  0.00000000000E+00  0.00000000000E+00  0.23576320939E+03  0.23576320939E+03  0.00000000000E+00 0. -1.
         21   -1    0    0  503  504 -0.00000000000E+00 -0.00000000000E+00 -0.71439502947E+02  0.71439502947E+02  0.00000000000E+00 0. -1.
         25    2    1    2    0    0  0.14297099693E+02 -0.23351358606E+02  0.10774557632E+03  0.16728916245E+03  0.12500744638E+03 0.  0.
         25    2    1    2    0    0 -0.14297099693E+02  0.23351358606E+02  0.56578130121E+02  0.13991354988E+03  0.12500009450E+03 0.  0.
          5    1    3    3  501    0  0.51488614057E+02 -0.23510005592E+02  0.11577039980E+03  0.12895221289E+03  0.47000000000E+01 0. -1.
         -5    1    3    3    0  501 -0.37191514364E+02  0.15864698576E+00 -0.80248234813E+01  0.38336949559E+02  0.47000000000E+01 0. -1.
          5    1    4    4  502    0  0.12035390027E+02 -0.10691793651E+02  0.85966242201E+02  0.87586813292E+02  0.47000000000E+01 0.  1.
         -5    1    4    4    0  502 -0.26332489720E+02  0.34043152257E+02 -0.29388112079E+02  0.52326736589E+02  0.47000000000E+01 0.  1.
<mgrwt>
<rscale>  0 0.25955968E+03</rscale>
<asrwt>0</asrwt>
<pdfrwt beam="1">  1       21 0.36271263E-01 0.25955968E+03</pdfrwt>
<pdfrwt beam="2">  1       21 0.10990693E-01 0.25955968E+03</pdfrwt>
<totfact> 0.49655597E+05</totfact>
</mgrwt>
</event>
<event>
 8    1  0.9400004E-006  0.3327260E+03  0.7546771E-02  0.1069937E+00
         21   -1    0    0  504  503  0.00000000000E+00  0.00000000000E+00  0.65570451717E+03  0.65570451717E+03  0.00000000000E+00 0.  1.
         21   -1    0    0  503  504 -0.00000000000E+00 -0.00000000000E+00 -0.42209033932E+02  0.42209033932E+02  0.00000000000E+00 0.  1.
         25    2    1    2    0    0 -0.69515155734E+02  0.47808477614E+02  0.45410438047E+03  0.47848982514E+03  0.12499486786E+03 0.  0.
         25    2    1    2    0    0  0.69515155734E+02 -0.47808477614E+02  0.15939110277E+03  0.21942372597E+03  0.12499296167E+03 0.  0.
          5    1    3    3  501    0 -0.72903318997E+02  0.61309595003E+02  0.17753473114E+03  0.20153022384E+03  0.47000000000E+01 0.  1.
         -5    1    3    3    0  501  0.33881632633E+01 -0.13501117389E+02  0.27656964933E+03  0.27695960130E+03  0.47000000000E+01 0.  1.
          5    1    4    4  502    0 -0.36504398634E+01  0.20439640894E+02 -0.93035450551E+01  0.23232532830E+02  0.47000000000E+01 0.  1.
         -5    1    4    4    0  502  0.73165595598E+02 -0.68248118509E+02  0.16869464783E+03  0.19619119314E+03  0.47000000000E+01 0.  1.
<mgrwt>
<rscale>  0 0.33272604E+03</rscale>
<asrwt>0</asrwt>
<pdfrwt beam="1">  1       21 0.10087761E+00 0.33272604E+03</pdfrwt>
<pdfrwt beam="2">  1       21 0.64936980E-02 0.33272604E+03</pdfrwt>
<totfact> 0.13238481E+05</totfact>
</mgrwt>
</event>
<event>
 8    1  0.9400004E-006  0.2807069E+03  0.7546771E-02  0.1095303E+00
         21   -1    0    0  504  503  0.00000000000E+00  0.00000000000E+00  0.40162790600E+03  0.40162790600E+03  0.00000000000E+00 0. -1.
         21   -1    0    0  503  504 -0.00000000000E+00 -0.00000000000E+00 -0.49048103434E+02  0.49048103434E+02  0.00000000000E+00 0. -1.
         25    2    1    2    0    0  0.34287610349E+02  0.89373441153E+01  0.91049865668E+02  0.15865130011E+03  0.12499856257E+03 0.  0.
         25    2    1    2    0    0 -0.34287610349E+02 -0.89373441153E+01  0.26152993690E+03  0.29202470932E+03  0.12500002648E+03 0.  0.
          5    1    3    3  501    0  0.10694875407E+02  0.34436302694E+02  0.11203896589E+03  0.11779244111E+03  0.47000000000E+01 0. -1.
         -5    1    3    3    0  501  0.23592734942E+02 -0.25498958579E+02 -0.20989100225E+02  0.40858859002E+02  0.47000000000E+01 0. -1.
          5    1    4    4  502    0  0.17287024040E+01 -0.33684420533E+02  0.24121301817E+03  0.24360508766E+03  0.47000000000E+01 0. -1.
         -5    1    4    4    0  502 -0.36016312753E+02  0.24747076418E+02  0.20316918723E+02  0.48419621662E+02  0.47000000000E+01 0. -1.
<mgrwt>
<rscale>  0 0.28070687E+03</rscale>
<asrwt>0</asrwt>
<pdfrwt beam="1">  1       21 0.61788906E-01 0.28070687E+03</pdfrwt>
<pdfrwt beam="2">  1       21 0.75458623E-02 0.28070687E+03</pdfrwt>
<totfact> 0.31625834E+05</totfact>
</mgrwt>
</event>
<event>
 8    1  0.9400004E-006  0.2768558E+03  0.7546771E-02  0.1097419E+00
         21   -1    0    0  504  503  0.00000000000E+00  0.00000000000E+00  0.16485375345E+03  0.16485375345E+03  0.00000000000E+00 0. -1.
         21   -1    0    0  503  504 -0.00000000000E+00 -0.00000000000E+00 -0.11623806004E+03  0.11623806004E+03  0.00000000000E+00 0. -1.
         25    2    1    2    0    0  0.12461894570E+02  0.21192840020E+02 -0.30699409059E+02  0.13102342172E+03  0.12498099071E+03 0.  0.
         25    2    1    2    0    0 -0.12461894570E+02 -0.21192840020E+02  0.79315102466E+02  0.15006839177E+03  0.12500080577E+03 0.  0.
          5    1    3    3  501    0  0.13778773384E+02  0.81490561576E+01 -0.79006458088E+02  0.80748821241E+02  0.47000000000E+01 0.  1.
         -5    1    3    3    0  501 -0.13168788138E+01  0.13043783862E+02  0.48307049029E+02  0.50274600478E+02  0.47000000000E+01 0.  1.
          5    1    4    4  502    0 -0.59132816910E+02 -0.25043998354E+02  0.83694479118E+01  0.64930959854E+02  0.47000000000E+01 0. -1.
         -5    1    4    4    0  502  0.46670922340E+02  0.38511583337E+01  0.70945654554E+02  0.85137431913E+02  0.47000000000E+01 0. -1.
<mgrwt>
<rscale>  0 0.27685578E+03</rscale>
<asrwt>0</asrwt>
<pdfrwt beam="1">  1       21 0.25362116E-01 0.27685578E+03</pdfrwt>
<pdfrwt beam="2">  1       21 0.17882778E-01 0.27685578E+03</pdfrwt>
<totfact> 0.41153645E+05</totfact>
</mgrwt>
</event>
<event>
 8    1  0.9400004E-006  0.3361767E+03  0.7546771E-02  0.1068436E+00
         21   -1    0    0  504  503  0.00000000000E+00  0.00000000000E+00  0.27603892107E+03  0.27603892107E+03  0.00000000000E+00 0.  1.
         21   -1    0    0  503  504 -0.00000000000E+00 -0.00000000000E+00 -0.10235401206E+03  0.10235401206E+03  0.00000000000E+00 0.  1.
         25    2    1    2    0    0 -0.31161179709E+02  0.96984766739E+02  0.33448004722E+02  0.16468967932E+03  0.12500742919E+03 0.  0.
         25    2    1    2    0    0  0.31161179709E+02 -0.96984766739E+02  0.14023690428E+03  0.21370325381E+03  0.12500250905E+03 0.  0.
          5    1    3    3  501    0 -0.52507383767E+02  0.20460407297E+02 -0.28979410562E+02  0.63541717425E+02  0.47000000000E+01 0. -1.
         -5    1    3    3    0  501  0.21346204058E+02  0.76524359443E+02  0.62427415285E+02  0.10114796189E+03  0.47000000000E+01 0. -1.
          5    1    4    4  502    0 -0.25524465630E+02 -0.10092527746E+03  0.88728831217E+02  0.13686601282E+03  0.47000000000E+01 0.  1.
         -5    1    4    4    0  502  0.56685645339E+02  0.39405107246E+01  0.51508073064E+02  0.76837240990E+02  0.47000000000E+01 0.  1.
<mgrwt>
<rscale>  0 0.33617669E+03</rscale>
<asrwt>0</asrwt>
<pdfrwt beam="1">  1       21 0.42467526E-01 0.33617669E+03</pdfrwt>
<pdfrwt beam="2">  1       21 0.15746771E-01 0.33617669E+03</pdfrwt>
<totfact> 0.18444234E+05</totfact>
</mgrwt>
</event>
<event>
 8    1  0.9400004E-006  0.3257376E+03  0.7546771E-02  0.1073039E+00
         21   -1    0    0  504  503  0.00000000000E+00  0.00000000000E+00  0.70207735770E+02  0.70207735770E+02  0.00000000000E+00 0. -1.
         21   -1    0    0  503  504 -0.00000000000E+00 -0.00000000000E+00 -0.37782511583E+03  0.37782511583E+03  0.00000000000E+00 0. -1.
         25    2    1    2    0    0  0.22677434251E+02 -0.94995576566E+02 -0.20457795897E+03  0.25887459358E+03  0.12500195323E+03 0.  0.
         25    2    1    2    0    0 -0.22677434251E+02  0.94995576566E+02 -0.10303942109E+03  0.18915825802E+03  0.12500119475E+03 0.  0.
          5    1    3    3  501    0 -0.14607632865E+02 -0.29783277905E+01  0.12570534880E+02  0.20058956142E+02  0.47000000000E+01 0. -1.
         -5    1    3    3    0  501  0.37285067116E+02 -0.92017248775E+02 -0.21714849385E+03  0.23881563743E+03  0.47000000000E+01 0. -1.
          5    1    4    4  502    0  0.42316435843E+02  0.35681099386E+02 -0.26952820526E+01  0.55616329807E+02  0.47000000000E+01 0.  1.
         -5    1    4    4    0  502 -0.64993870094E+02  0.59314477179E+02 -0.10034413904E+03  0.13354192822E+03  0.47000000000E+01 0.  1.
<mgrwt>
<rscale>  0 0.32573760E+03</rscale>
<asrwt>0</asrwt>
<pdfrwt beam="1">  1       21 0.10801190E-01 0.32573760E+03</pdfrwt>
<pdfrwt beam="2">  1       21 0.58126940E-01 0.32573760E+03</pdfrwt>
<totfact> 0.18942207E+05</totfact>
</mgrwt>
</event>
<event>
 8    1  0.9400004E-006  0.2541109E+03  0.7546771E-02  0.1110734E+00
         21   -1    0    0  504  503  0.00000000000E+00  0.00000000000E+00  0.57416959694E+03  0.57416959694E+03  0.00000000000E+00 0.  1.
         21   -1    0    0  503  504 -0.00000000000E+00 -0.00000000000E+00 -0.28115548658E+02  0.28115548658E+02  0.00000000000E+00 0.  1.
         25    2    1    2    0    0  0.57924623756E+01 -0.14736944869E+02  0.23430837012E+03  0.26603809876E+03  0.12500051007E+03 0.  0.
         25    2    1    2    0    0 -0.57924623756E+01  0.14736944869E+02  0.31174567816E+03  0.33624704683E+03  0.12500391390E+03 0.  0.
          5    1    3    3  501    0 -0.15648699423E+02  0.26570749925E+02  0.44978996249E+01  0.31515197068E+02  0.47000000000E+01 0.  1.
         -5    1    3    3    0  501  0.21441161799E+02 -0.41307694794E+02  0.22981047050E+03  0.23452290170E+03  0.47000000000E+01 0.  1.
          5    1    4    4  502    0  0.21893280372E+02  0.47474924119E+02  0.27384097744E+03  0.27882638876E+03  0.47000000000E+01 0. -1.
         -5    1    4    4    0  502 -0.27685742747E+02 -0.32737979249E+02  0.37904700718E+02  0.57420658071E+02  0.47000000000E+01 0. -1.
<mgrwt>
<rscale>  0 0.25411095E+03</rscale>
<asrwt>0</asrwt>
<pdfrwt beam="1">  1       21 0.88333776E-01 0.25411095E+03</pdfrwt>
<pdfrwt beam="2">  1       21 0.43254694E-02 0.25411095E+03</pdfrwt>
<totfact> 0.37104163E+05</totfact>
</mgrwt>
</event>
<event>
 8    1  0.9400004E-006  0.3707070E+03  0.7546771E-02  0.1054423E+00
         21   -1    0    0  504  503  0.00000000000E+00  0.00000000000E+00  0.60966363856E+02  0.60966363856E+02  0.00000000000E+00 0. -1.
         21   -1    0    0  503  504 -0.00000000000E+00 -0.00000000000E+00 -0.56352258387E+03  0.56352258387E+03  0.00000000000E+00 0. -1.
         25    2    1    2    0    0  0.97499914937E+02 -0.26035288767E+02 -0.95551677877E+02  0.18692432357E+03  0.12500603955E+03 0.  0.
         25    2    1    2    0    0 -0.97499914937E+02  0.26035288767E+02 -0.40700454214E+03  0.43756462415E+03  0.12500413320E+03 0.  0.
          5    1    3    3  501    0  0.11510810074E+03 -0.44567901918E+02 -0.10194262140E+03  0.16015792455E+03  0.47000000000E+01 0. -1.
         -5    1    3    3    0  501 -0.17608185807E+02  0.18532613151E+02  0.63909435203E+01  0.26766399024E+02  0.47000000000E+01 0. -1.
          5    1    4    4  502    0 -0.68633540959E+02  0.20466871707E+02 -0.40077080019E+03  0.40714712337E+03  0.47000000000E+01 0.  1.
         -5    1    4    4    0  502 -0.28866373979E+02  0.55684170604E+01 -0.62337419448E+01  0.30417500783E+02  0.47000000000E+01 0.  1.
<mgrwt>
<rscale>  0 0.37070702E+03</rscale>
<asrwt>0</asrwt>
<pdfrwt beam="1">  1       21 0.93794405E-02 0.37070702E+03</pdfrwt>
<pdfrwt beam="2">  1       21 0.86695783E-01 0.37070702E+03</pdfrwt>
<totfact> 0.98353885E+04</totfact>
</mgrwt>
</event>
<event>
 8    1  0.9400004E-006  0.2655619E+03  0.7546771E-02  0.1103847E+00
         21   -1    0    0  504  503  0.00000000000E+00  0.00000000000E+00  0.37210866197E+02  0.37210866197E+02  0.00000000000E+00 0.  1.
         21   -1    0    0  503  504 -0.00000000000E+00 -0.00000000000E+00 -0.47380738878E+03  0.47380738878E+03  0.00000000000E+00 0.  1.
         25    2    1    2    0    0  0.44409603757E+02  0.10926252464E+01 -0.20728554034E+03  0.24610183248E+03  0.12500163992E+03 0.  0.
         25    2    1    2    0    0 -0.44409603757E+02 -0.10926252464E+01 -0.22931098224E+03  0.26491642249E+03  0.12499511028E+03 0.  0.
          5    1    3    3  501    0 -0.23943534064E+02  0.44774970686E+02 -0.89524752694E+02  0.10302845320E+03  0.47000000000E+01 0. -1.
         -5    1    3    3    0  501  0.68353137821E+02 -0.43682345439E+02 -0.11776078765E+03  0.14307337929E+03  0.47000000000E+01 0. -1.
          5    1    4    4  502    0 -0.79827830620E+02 -0.21859168878E+02 -0.10418317814E+03  0.13314101702E+03  0.47000000000E+01 0. -1.
         -5    1    4    4    0  502  0.35418226862E+02  0.20766543632E+02 -0.12512780410E+03  0.13177540547E+03  0.47000000000E+01 0. -1.
<mgrwt>
<rscale>  0 0.26556192E+03</rscale>
<asrwt>0</asrwt>
<pdfrwt beam="1">  1       21 0.57247488E-02 0.26556192E+03</pdfrwt>
<pdfrwt beam="2">  1       21 0.72893442E-01 0.26556192E+03</pdfrwt>
<totfact> 0.35557018E+05</totfact>
</mgrwt>
</event>
<event>
 8    1  0.9400004E-006  0.2755684E+03  0.7546771E-02  0.1098134E+00
         21   -1    0    0  504  503  0.00000000000E+00  0.00000000000E+00  0.74083636091E+03  0.74083636091E+03  0.00000000000E+00 0.  1.
         21   -1    0    0  503  504 -0.00000000000E+00 -0.00000000000E+00 -0.25625743668E+02  0.25625743668E+02  0.00000000000E+00 0.  1.
         25    2    1    2    0    0  0.67350862468E+01  0.94478246264E+01  0.19961368432E+03  0.23580209750E+03  0.12498953332E+03 0.  0.
         25    2    1    2    0    0 -0.67350862468E+01 -0.94478246264E+01  0.51559693293E+03  0.53066000709E+03  0.12500089239E+03 0.  0.
          5    1    3    3  501    0  0.11151513289E+02 -0.54518883776E+02  0.59279608097E+02  0.81442168887E+02  0.47000000000E+01 0.  1.
         -5    1    3    3    0  501 -0.44164270423E+01  0.63966708402E+02  0.14033407622E+03  0.15435992861E+03  0.47000000000E+01 0.  1.
          5    1    4    4  502    0 -0.41682625815E+02  0.23558377834E+02  0.42744068925E+03  0.43013959512E+03  0.47000000000E+01 0. -1.
         -5    1    4    4    0  502  0.34947539569E+02 -0.33006202460E+02  0.88156243681E+02  0.10052041197E+03  0.47000000000E+01 0. -1.
<mgrwt>
<rscale>  0 0.27556838E+03</rscale>
<asrwt>0</asrwt>
<pdfrwt beam="1">  1       21 0.11397481E+00 0.27556838E+03</pdfrwt>
<pdfrwt beam="2">  1       21 0.39424227E-02 0.27556838E+03</pdfrwt>
<totfact> 0.23446663E+05</totfact>
</mgrwt>
</event>
<event>
 8    1  0.9400004E-006  0.2562090E+03  0.7546771E-02  0.1109443E+00
         21   -1    0    0  504  503  0.00000000000E+00  0.00000000000E+00  0.35273352807E+03  0.35273352807E+03  0.00000000000E+00 0. -1.
         21   -1    0    0  503  504 -0.00000000000E+00 -0.00000000000E+00 -0.46524543179E+02  0.46524543179E+02  0.00000000000E+00 0. -1.
         25    2    1    2    0    0 -0.27855270631E+02 -0.29613292376E+01  0.15311173538E+03  0.19963669345E+03  0.12500768092E+03 0.  0.
         25    2    1    2    0    0  0.27855270631E+02  0.29613292376E+01  0.15309724951E+03  0.19962137780E+03  0.12500096437E+03 0.  0.
          5    1    3    3  501    0  0.26009173736E+02 -0.24237724340E+02  0.13362185970E+03  0.13835040943E+03  0.47000000000E+01 0. -1.
         -5    1    3    3    0  501 -0.53864444367E+02  0.21276395102E+02  0.19489875682E+02  0.61286284025E+02  0.47000000000E+01 0. -1.
          5    1    4    4  502    0  0.14871051502E+02  0.54443647951E+02  0.12947534820E+03  0.14131954843E+03  0.47000000000E+01 0. -1.
         -5    1    4    4    0  502  0.12984219129E+02 -0.51482318714E+02  0.23621901309E+02  0.58301829371E+02  0.47000000000E+01 0. -1.
<mgrwt>
<rscale>  0 0.25620903E+03</rscale>
<asrwt>0</asrwt>
<pdfrwt beam="1">  1       21 0.54266695E-01 0.25620903E+03</pdfrwt>
<pdfrwt beam="2">  1       21 0.71576223E-02 0.25620903E+03</pdfrwt>
<totfact> 0.46081371E+05</totfact>
</mgrwt>
</event>
<event>
 8    1  0.9400004E-006  0.3212369E+03  0.7546771E-02  0.1075081E+00
         21   -1    0    0  504  503  0.00000000000E+00  0.00000000000E+00  0.32089595534E+03  0.32089595534E+03  0.00000000000E+00 0. -1.
         21   -1    0    0  503  504 -0.00000000000E+00 -0.00000000000E+00 -0.80394542961E+02  0.80394542961E+02  0.00000000000E+00 0. -1.
         25    2    1    2    0    0 -0.15466328583E+02 -0.76280551892E+02  0.20039689172E+03  0.24867945738E+03  0.12499851357E+03 0.  0.
         25    2    1    2    0    0  0.15466328583E+02  0.76280551892E+02  0.40104520656E+02  0.15261104092E+03  0.12499530918E+03 0.  0.
          5    1    3    3  501    0 -0.22443231526E+02  0.21932477434E+02  0.83473457485E+01  0.32810065357E+02  0.47000000000E+01 0.  1.
         -5    1    3    3    0  501  0.69769029426E+01 -0.98213029326E+02  0.19204954597E+03  0.21586939202E+03  0.47000000000E+01 0.  1.
          5    1    4    4  502    0 -0.14098548913E+02  0.93773395166E+02 -0.57568818678E+01  0.95118086668E+02  0.47000000000E+01 0.  1.
         -5    1    4    4    0  502  0.29564877496E+02 -0.17492843274E+02  0.45861402524E+02  0.57492954252E+02  0.47000000000E+01 0.  1.
<mgrwt>
<rscale>  0 0.32123688E+03</rscale>
<asrwt>0</asrwt>
<pdfrwt beam="1">  1       21 0.49368608E-01 0.32123688E+03</pdfrwt>
<pdfrwt beam="2">  1       21 0.12368391E-01 0.32123688E+03</pdfrwt>
<totfact> 0.21038080E+05</totfact>
</mgrwt>
</event>
<event>
 8    1  0.9400004E-006  0.2888559E+03  0.7546771E-02  0.1090948E+00
         21   -1    0    0  504  503  0.00000000000E+00  0.00000000000E+00  0.85045170950E+02  0.85045170950E+02  0.00000000000E+00 0. -1.
         21   -1    0    0  503  504 -0.00000000000E+00 -0.00000000000E+00 -0.24527477699E+03  0.24527477699E+03  0.00000000000E+00 0. -1.
         25    2    1    2    0    0 -0.22674425473E+02 -0.99503768935E+01 -0.23351935255E+01  0.12744429031E+03  0.12499381758E+03 0.  0.
         25    2    1    2    0    0  0.22674425473E+02  0.99503768935E+01 -0.15789441252E+03  0.20287565763E+03  0.12495898281E+03 0.  0.
          5    1    3    3  501    0 -0.16958032406E+02 -0.20970569260E+01  0.60832616744E+02  0.63361421786E+02  0.47000000000E+01 0.  1.
         -5    1    3    3    0  501 -0.57163930667E+01 -0.78533199675E+01 -0.63167810270E+02  0.64082868526E+02  0.47000000000E+01 0.  1.
          5    1    4    4  502    0 -0.25643031111E+02 -0.13457526621E+02 -0.14435559604E+03  0.14730681646E+03  0.47000000000E+01 0.  1.
         -5    1    4    4    0  502  0.48317456584E+02  0.23407903515E+02 -0.13538816478E+02  0.55568841173E+02  0.47000000000E+01 0.  1.
<mgrwt>
<rscale>  0 0.28885592E+03</rscale>
<asrwt>0</asrwt>
<pdfrwt beam="1">  1       21 0.13083873E-01 0.28885592E+03</pdfrwt>
<pdfrwt beam="2">  1       21 0.37734580E-01 0.28885592E+03</pdfrwt>
<totfact> 0.33300998E+05</totfact>
</mgrwt>
</event>
<event>
 8    1  0.9400004E-006  0.3066102E+03  0.7546771E-02  0.1081982E+00
         21   -1    0    0  504  503  0.00000000000E+00  0.00000000000E+00  0.16969879567E+03  0.16969879567E+03  0.00000000000E+00 0. -1.
         21   -1    0    0  503  504 -0.00000000000E+00 -0.00000000000E+00 -0.13849515111E+03  0.13849515111E+03  0.00000000000E+00 0. -1.
         25    2    1    2    0    0 -0.40840856873E+02 -0.36141910521E+02  0.85991712846E+02  0.16122666124E+03  0.12500099331E+03 0.  0.
         25    2    1    2    0    0  0.40840856873E+02  0.36141910521E+02 -0.54788068289E+02  0.14696728554E+03  0.12499374906E+03 0.  0.
          5    1    3    3  501    0 -0.78234781763E+02 -0.94604516249E+01  0.83606457613E+02  0.11498830800E+03  0.47000000000E+01 0.  1.
         -5    1    3    3    0  501  0.37393924890E+02 -0.26681458896E+02  0.23852552328E+01  0.46238353237E+02  0.47000000000E+01 0.  1.
          5    1    4    4  502    0 -0.33409123490E+02 -0.18740869111E+02 -0.35684099854E+02  0.52562673921E+02  0.47000000000E+01 0.  1.
         -5    1    4    4    0  502  0.74249980363E+02  0.54882779632E+02 -0.19103968435E+02  0.94404611614E+02  0.47000000000E+01 0.  1.
<mgrwt>
<rscale>  0 0.30661024E+03</rscale>
<asrwt>0</asrwt>
<pdfrwt beam="1">  1       21 0.26107507E-01 0.30661024E+03</pdfrwt>
<pdfrwt beam="2">  1       21 0.21306946E-01 0.30661024E+03</pdfrwt>
<totfact> 0.27829363E+05</totfact>
</mgrwt>
</event>
<event>
 8    1  0.9400004E-006  0.2692921E+03  0.7546771E-02  0.1101685E+00
         21   -1    0    0  504  503  0.00000000000E+00  0.00000000000E+00  0.14599420904E+03  0.14599420904E+03  0.00000000000E+00 0.  1.
         21   -1    0    0  503  504 -0.00000000000E+00 -0.00000000000E+00 -0.12417999259E+03  0.12417999259E+03  0.00000000000E+00 0.  1.
         25    2    1    2    0    0  0.20240850147E+02 -0.29367076216E+02  0.46124800935E+02  0.13793979646E+03  0.12501109153E+03 0.  0.
         25    2    1    2    0    0 -0.20240850147E+02  0.29367076216E+02 -0.24310584481E+02  0.13223440517E+03  0.12499126455E+03 0.  0.
          5    1    3    3  501    0 -0.49903525071E+02 -0.23415052393E+02  0.37559122372E+02  0.66868558878E+02  0.47000000000E+01 0. -1.
         -5    1    3    3    0  501  0.70144375218E+02 -0.59520238235E+01  0.85656785629E+01  0.71071237583E+02  0.47000000000E+01 0. -1.
          5    1    4    4  502    0  0.48833551502E+02  0.28929015256E+02 -0.26822227147E+02  0.62953360078E+02  0.47000000000E+01 0. -1.
         -5    1    4    4    0  502 -0.69074401649E+02  0.43806096078E+00  0.25116426665E+01  0.69281045095E+02  0.47000000000E+01 0. -1.
<mgrwt>
<rscale>  0 0.26929211E+03</rscale>
<asrwt>0</asrwt>
<pdfrwt beam="1">  1       21 0.22460647E-01 0.26929211E+03</pdfrwt>
<pdfrwt beam="2">  1       21 0.19104614E-01 0.26929211E+03</pdfrwt>
<totfact> 0.45965674E+05</totfact>
</mgrwt>
</event>
<event>
 8    1  0.9400004E-006  0.3179313E+03  0.7546771E-02  0.1076605E+00
         21   -1    0    0  504  503  0.00000000000E+00  0.00000000000E+00  0.42567906505E+02  0.42567906505E+02  0.00000000000E+00 0. -1.
         21   -1    0    0  503  504 -0.00000000000E+00 -0.00000000000E+00 -0.59364148220E+03  0.59364148220E+03  0.00000000000E+00 0. -1.
         25    2    1    2    0    0  0.80402400080E+02  0.22692923188E+02 -0.37884338825E+03  0.40758551415E+03  0.12499649527E+03 0.  0.
         25    2    1    2    0    0 -0.80402400080E+02 -0.22692923188E+02 -0.17223018745E+03  0.22862387455E+03  0.12500449530E+03 0.  0.
          5    1    3    3  501    0  0.87205899296E+02  0.55644500451E+02 -0.34260455577E+03  0.35791221121E+03  0.47000000000E+01 0.  1.
         -5    1    3    3    0  501 -0.68034992155E+01 -0.32951577263E+02 -0.36238832479E+02  0.49673302942E+02  0.47000000000E+01 0.  1.
          5    1    4    4  502    0 -0.33652370921E+02  0.25922501853E+02 -0.15223317713E+03  0.15811858964E+03  0.47000000000E+01 0.  1.
         -5    1    4    4    0  502 -0.46750029159E+02 -0.48615425041E+02 -0.19997010317E+02  0.70505284908E+02  0.47000000000E+01 0.  1.
<mgrwt>
<rscale>  0 0.31793128E+03</rscale>
<asrwt>0</asrwt>
<pdfrwt beam="1">  1       21 0.65489084E-02 0.31793128E+03</pdfrwt>
<pdfrwt beam="2">  1       21 0.91329462E-01 0.31793128E+03</pdfrwt>
<totfact> 0.16593227E+05</totfact>
</mgrwt>
</event>
<event>
 8    1  0.9400004E-006  0.2978909E+03  0.7546771E-02  0.1086300E+00
         21   -1    0    0  504  503  0.00000000000E+00  0.00000000000E+00  0.73713311971E+03  0.73713311971E+03  0.00000000000E+00 0.  1.
         21   -1    0    0  503  504 -0.00000000000E+00 -0.00000000000E+00 -0.30095985120E+02  0.30095985120E+02  0.00000000000E+00 0.  1.
         25    2    1    2    0    0 -0.38817140815E+02  0.32775298726E+01  0.17077950111E+03  0.21521483338E+03  0.12503709003E+03 0.  0.
         25    2    1    2    0    0  0.38817140815E+02 -0.32775298726E+01  0.53625763348E+03  0.55201427145E+03  0.12501997360E+03 0.  0.
          5    1    3    3  501    0 -0.40652015623E+02  0.60710338050E+02  0.91439457906E+02  0.11713921624E+03  0.47000000000E+01 0. -1.
         -5    1    3    3    0  501  0.18348748081E+01 -0.57432808177E+02  0.79340043207E+02  0.98075617137E+02  0.47000000000E+01 0. -1.
          5    1    4    4  502    0 -0.19291584436E+02  0.45434578392E+02  0.13953352329E+03  0.14808160002E+03  0.47000000000E+01 0. -1.
         -5    1    4    4    0  502  0.58108725251E+02 -0.48712108264E+02  0.39672411019E+03  0.40393267143E+03  0.47000000000E+01 0. -1.
<mgrwt>
<rscale>  0 0.29789090E+03</rscale>
<asrwt>0</asrwt>
<pdfrwt beam="1">  1       21 0.11340508E+00 0.29789090E+03</pdfrwt>
<pdfrwt beam="2">  1       21 0.46301521E-02 0.29789090E+03</pdfrwt>
<totfact> 0.17964238E+05</totfact>
</mgrwt>
</event>
<event>
 8    1  0.9400004E-006  0.5404064E+03  0.7546771E-02  0.1003739E+00
         21   -1    0    0  504  503  0.00000000000E+00  0.00000000000E+00  0.11290800159E+04  0.11290800159E+04  0.00000000000E+00 0.  1.
         21   -1    0    0  503  504 -0.00000000000E+00 -0.00000000000E+00 -0.64663049925E+02  0.64663049925E+02  0.00000000000E+00 0.  1.
         25    2    1    2    0    0 -0.33100075786E+02 -0.14888829244E+03  0.12417107427E+03  0.23303961271E+03  0.12500266701E+03 0.  0.
         25    2    1    2    0    0  0.33100075786E+02  0.14888829244E+03  0.94024589169E+03  0.96070345311E+03  0.12500179732E+03 0.  0.
          5    1    3    3  501    0 -0.56999827674E+02 -0.19830944376E+02  0.65518765567E+02  0.89202272118E+02  0.47000000000E+01 0. -1.
         -5    1    3    3    0  501  0.23899751888E+02 -0.12905734807E+03  0.58652308708E+02  0.14383734059E+03  0.47000000000E+01 0. -1.
          5    1    4    4  502    0 -0.19025607525E+02  0.11411907119E+03  0.78053906538E+03  0.78908076820E+03  0.47000000000E+01 0. -1.
         -5    1    4    4    0  502  0.52125683311E+02  0.34769221249E+02  0.15970682630E+03  0.17162268491E+03  0.47000000000E+01 0. -1.
<mgrwt>
<rscale>  0 0.54040636E+03</rscale>
<asrwt>0</asrwt>
<pdfrwt beam="1">  1       21 0.17370460E+00 0.54040636E+03</pdfrwt>
<pdfrwt beam="2">  1       21 0.99481623E-02 0.54040636E+03</pdfrwt>
<totfact> 0.14168635E+04</totfact>
</mgrwt>
</event>
<event>
 8    1  0.9400004E-006  0.5253872E+03  0.7546771E-02  0.1007357E+00
         21   -1    0    0  504  503  0.00000000000E+00  0.00000000000E+00  0.68411367841E+03  0.68411367841E+03  0.00000000000E+00 0. -1.
         21   -1    0    0  503  504 -0.00000000000E+00 -0.00000000000E+00 -0.10087201491E+03  0.10087201491E+03  0.00000000000E+00 0. -1.
         25    2    1    2    0    0 -0.11176898460E+02  0.79346641716E+02 -0.32162614360E+02  0.15192360566E+03  0.12500214232E+03 0.  0.
         25    2    1    2    0    0  0.11176898460E+02 -0.79346641716E+02  0.61540427786E+03  0.63306208766E+03  0.12499747598E+03 0.  0.
          5    1    3    3  501    0 -0.24452036950E+02  0.10467807617E+03 -0.49189556637E+02  0.11830935814E+03  0.47000000000E+01 0.  1.
         -5    1    3    3    0  501  0.13275138489E+02 -0.25331434452E+02  0.17026942277E+02  0.33614247524E+02  0.47000000000E+01 0.  1.
          5    1    4    4  502    0  0.67353618103E+02 -0.54900651247E+02  0.36428111594E+03  0.37453092370E+03  0.47000000000E+01 0. -1.
         -5    1    4    4    0  502 -0.56176719642E+02 -0.24445990469E+02  0.25112316193E+03  0.25853116396E+03  0.47000000000E+01 0. -1.
<mgrwt>
<rscale>  0 0.52538719E+03</rscale>
<asrwt>0</asrwt>
<pdfrwt beam="1">  1       21 0.10524826E+00 0.52538719E+03</pdfrwt>
<pdfrwt beam="2">  1       21 0.15518772E-01 0.52538719E+03</pdfrwt>
<totfact> 0.23779113E+04</totfact>
</mgrwt>
</event>
<event>
 8    1  0.9400004E-006  0.2888843E+03  0.7546771E-02  0.1090933E+00
         21   -1    0    0  504  503  0.00000000000E+00  0.00000000000E+00  0.13172471887E+03  0.13172471887E+03  0.00000000000E+00 0.  1.
         21   -1    0    0  503  504 -0.00000000000E+00 -0.00000000000E+00 -0.15838742848E+03  0.15838742848E+03  0.00000000000E+00 0.  1.
         25    2    1    2    0    0 -0.64297550891E+02  0.20655306140E+02 -0.39596645682E+02  0.14745341920E+03  0.12495519102E+03 0.  0.
         25    2    1    2    0    0  0.64297550891E+02 -0.20655306140E+02  0.12933936066E+02  0.14265872815E+03  0.12499363701E+03 0.  0.
          5    1    3    3  501    0 -0.87693766908E+01 -0.24966788054E+02  0.34758682079E+02  0.43937437945E+02  0.47000000000E+01 0.  1.
         -5    1    3    3    0  501 -0.55528174200E+02  0.45622094194E+02 -0.74355327761E+02  0.10351598125E+03  0.47000000000E+01 0.  1.
          5    1    4    4  502    0  0.36303282046E+02 -0.32574466656E+02 -0.51598605952E+02  0.71158487206E+02  0.47000000000E+01 0.  1.
         -5    1    4    4    0  502  0.27994268845E+02  0.11919160516E+02  0.64532542018E+02  0.71500240942E+02  0.47000000000E+01 0.  1.
<mgrwt>
<rscale>  0 0.28888433E+03</rscale>
<asrwt>0</asrwt>
<pdfrwt beam="1">  1       21 0.20265341E-01 0.28888433E+03</pdfrwt>
<pdfrwt beam="2">  1       21 0.24367297E-01 0.28888433E+03</pdfrwt>
<totfact> 0.35076973E+05</totfact>
</mgrwt>
</event>
<event>
 8    1  0.9400004E-006  0.3421298E+03  0.7546771E-02  0.1065892E+00
         21   -1    0    0  504  503  0.00000000000E+00  0.00000000000E+00  0.32447166615E+02  0.32447166615E+02  0.00000000000E+00 0.  1.
         21   -1    0    0  503  504 -0.00000000000E+00 -0.00000000000E+00 -0.90187242708E+03  0.90187242708E+03  0.00000000000E+00 0.  1.
         25    2    1    2    0    0  0.41135149361E+02  0.10763466162E+03 -0.48658193456E+03  0.51542679123E+03  0.12500190873E+03 0.  0.
         25    2    1    2    0    0 -0.41135149361E+02 -0.10763466162E+03 -0.38284332591E+03  0.41889280246E+03  0.12499938747E+03 0.  0.
          5    1    3    3  501    0  0.44601235111E+02  0.13427228547E+03 -0.38334174471E+03  0.40864569012E+03  0.47000000000E+01 0. -1.
         -5    1    3    3    0  501 -0.34660857498E+01 -0.26637623842E+02 -0.10324018986E+03  0.10678110112E+03  0.47000000000E+01 0. -1.
          5    1    4    4  502    0 -0.74624612472E+01 -0.61240030158E+02 -0.34392188909E+03  0.34944296446E+03  0.47000000000E+01 0.  1.
         -5    1    4    4    0  502 -0.33672688114E+02 -0.46394631467E+02 -0.38921436820E+02  0.69449837998E+02  0.47000000000E+01 0.  1.
<mgrwt>
<rscale>  0 0.34212983E+03</rscale>
<asrwt>0</asrwt>
<pdfrwt beam="1">  1       21 0.49918715E-02 0.34212983E+03</pdfrwt>
<pdfrwt beam="2">  1       21 0.13874961E+00 0.34212983E+03</pdfrwt>
<totfact> 0.93404738E+04</totfact>
</mgrwt>
</event>
<event>
 8    1  0.9400004E-006  0.3432700E+03  0.7546771E-02  0.1065412E+00
         21   -1    0    0  504  503  0.00000000000E+00  0.00000000000E+00  0.92976635540E+02  0.92976635540E+02  0.00000000000E+00 0. -1.
         21   -1    0    0  503  504 -0.00000000000E+00 -0.00000000000E+00 -0.31683837676E+03  0.31683837676E+03  0.00000000000E+00 0. -1.
         25    2    1    2    0    0  0.10716866526E+03  0.30142550132E+02 -0.15723443278E+03  0.22965523792E+03  0.12500066123E+03 0.  0.
         25    2    1    2    0    0 -0.10716866526E+03 -0.30142550132E+02 -0.66627308435E+02  0.18015977438E+03  0.12499859972E+03 0.  0.
          5    1    3    3  501    0  0.11670395055E+03  0.57791187696E+02 -0.96737971691E+02  0.16229589833E+03  0.47000000000E+01 0. -1.
         -5    1    3    3    0  501 -0.95352852844E+01 -0.27648637564E+02 -0.60496461090E+02  0.67359339583E+02  0.47000000000E+01 0. -1.
          5    1    4    4  502    0  0.20684558553E+02  0.19864709879E+02 -0.45359386084E+01  0.29412963132E+02  0.47000000000E+01 0.  1.
         -5    1    4    4    0  502 -0.12785322382E+03 -0.50007260011E+02 -0.62091369827E+02  0.15074681125E+03  0.47000000000E+01 0.  1.
<mgrwt>
<rscale>  0 0.34326996E+03</rscale>
<asrwt>0</asrwt>
<pdfrwt beam="1">  1       21 0.14304098E-01 0.34326996E+03</pdfrwt>
<pdfrwt beam="2">  1       21 0.48744366E-01 0.34326996E+03</pdfrwt>
<totfact> 0.16495070E+05</totfact>
</mgrwt>
</event>
<event>
 8    1  0.9400004E-006  0.2709113E+03  0.7546771E-02  0.1100759E+00
         21   -1    0    0  504  503  0.00000000000E+00  0.00000000000E+00  0.31606487714E+03  0.31606487714E+03  0.00000000000E+00 0. -1.
         21   -1    0    0  503  504 -0.00000000000E+00 -0.00000000000E+00 -0.58052098101E+02  0.58052098101E+02  0.00000000000E+00 0. -1.
         25    2    1    2    0    0  0.19664845413E+02  0.30689369640E+02  0.18057196449E+03  0.22261844576E+03  0.12499677788E+03 0.  0.
         25    2    1    2    0    0 -0.19664845413E+02 -0.30689369640E+02  0.77440814551E+02  0.15149852948E+03  0.12500472440E+03 0.  0.
          5    1    3    3  501    0 -0.86836125880E+01  0.75598289801E+02  0.11701216326E+03  0.13965830766E+03  0.47000000000E+01 0.  1.
         -5    1    3    3    0  501  0.28348458001E+02 -0.44908920161E+02  0.63559801227E+02  0.82960138097E+02  0.47000000000E+01 0.  1.
          5    1    4    4  502    0 -0.16504098531E+02 -0.59869574501E+02 -0.63387383352E+01  0.62602083216E+02  0.47000000000E+01 0.  1.
         -5    1    4    4    0  502 -0.31607468822E+01  0.29180204861E+02  0.83779552886E+02  0.88896446264E+02  0.47000000000E+01 0.  1.
<mgrwt>
<rscale>  0 0.27091127E+03</rscale>
<asrwt>0</asrwt>
<pdfrwt beam="1">  1       21 0.48625365E-01 0.27091127E+03</pdfrwt>
<pdfrwt beam="2">  1       21 0.89310922E-02 0.27091127E+03</pdfrwt>
<totfact> 0.39296588E+05</totfact>
</mgrwt>
</event>
<event>
 8    1  0.9400004E-006  0.2630978E+03  0.7546771E-02  0.1105296E+00
         21   -1    0    0  504  503  0.00000000000E+00  0.00000000000E+00  0.99492498613E+02  0.99492498613E+02  0.00000000000E+00 0.  1.
         21   -1    0    0  503  504 -0.00000000000E+00 -0.00000000000E+00 -0.17393380357E+03  0.17393380357E+03  0.00000000000E+00 0.  1.
         25    2    1    2    0    0  0.24146281532E+02  0.32597840836E+02 -0.43241903923E+02  0.13835675420E+03  0.12500826788E+03 0.  0.
         25    2    1    2    0    0 -0.24146281532E+02 -0.32597840836E+02 -0.31199401036E+02  0.13506954799E+03  0.12499887211E+03 0.  0.
          5    1    3    3  501    0  0.46720913210E+02 -0.35926148282E+02 -0.19045373879E+02  0.62115602933E+02  0.47000000000E+01 0. -1.
         -5    1    3    3    0  501 -0.22574631678E+02  0.68523989118E+02 -0.24196530044E+02  0.76241151265E+02  0.47000000000E+01 0. -1.
          5    1    4    4  502    0 -0.64282848834E+02 -0.27608819603E+02  0.16823151117E+02  0.72108529229E+02  0.47000000000E+01 0.  1.
         -5    1    4    4    0  502  0.40136567302E+02 -0.49890212334E+01 -0.48022552153E+02  0.62961018757E+02  0.47000000000E+01 0.  1.
<mgrwt>
<rscale>  0 0.26309777E+03</rscale>
<asrwt>0</asrwt>
<pdfrwt beam="1">  1       21 0.15306538E-01 0.26309777E+03</pdfrwt>
<pdfrwt beam="2">  1       21 0.26759046E-01 0.26309777E+03</pdfrwt>
<totfact> 0.49594588E+05</totfact>
</mgrwt>
</event>
<event>
 8    1  0.9400004E-006  0.7541562E+03  0.7546771E-02  0.9628852E-01
         21   -1    0    0  504  503  0.00000000000E+00  0.00000000000E+00  0.37538782089E+03  0.37538782089E+03  0.00000000000E+00 0.  1.
         21   -1    0    0  503  504 -0.00000000000E+00 -0.00000000000E+00 -0.37877596778E+03  0.37877596778E+03  0.00000000000E+00 0.  1.
         25    2    1    2    0    0 -0.28862412977E+03  0.14419066027E+03  0.14818470312E+03  0.37640147923E+03  0.12499813012E+03 0.  0.
         25    2    1    2    0    0  0.28862412977E+03 -0.14419066027E+03 -0.15157285001E+03  0.37776230944E+03  0.12504078845E+03 0.  0.
          5    1    3    3  501    0 -0.17192891537E+03  0.44684871274E+02  0.24620509190E+02  0.17940052713E+03  0.47000000000E+01 0. -1.
         -5    1    3    3    0  501 -0.11669521439E+03  0.99505788999E+02  0.12356419393E+03  0.19700095210E+03  0.47000000000E+01 0. -1.
          5    1    4    4  502    0  0.80376154803E+02 -0.95431608031E+02 -0.19568983559E+02  0.12638256680E+03  0.47000000000E+01 0. -1.
         -5    1    4    4    0  502  0.20824797497E+03 -0.48759052243E+02 -0.13200386645E+03  0.25137974264E+03  0.47000000000E+01 0. -1.
<mgrwt>
<rscale>  0 0.75415618E+03</rscale>
<asrwt>0</asrwt>
<pdfrwt beam="1">  1       21 0.57751973E-01 0.75415618E+03</pdfrwt>
<pdfrwt beam="2">  1       21 0.58273226E-01 0.75415618E+03</pdfrwt>
<totfact> 0.63969408E+03</totfact>
</mgrwt>
</event>
<event>
 8    1  0.9400004E-006  0.2658392E+03  0.7546771E-02  0.1103685E+00
         21   -1    0    0  504  503  0.00000000000E+00  0.00000000000E+00  0.62801882567E+02  0.62801882567E+02  0.00000000000E+00 0. -1.
         21   -1    0    0  503  504 -0.00000000000E+00 -0.00000000000E+00 -0.28132308581E+03  0.28132308581E+03  0.00000000000E+00 0. -1.
         25    2    1    2    0    0  0.19095491980E+02 -0.16425980189E+02 -0.15777655639E+03  0.20286399046E+03  0.12500362492E+03 0.  0.
         25    2    1    2    0    0 -0.19095491980E+02  0.16425980189E+02 -0.60744646857E+02  0.14126097791E+03  0.12502120268E+03 0.  0.
          5    1    3    3  501    0 -0.13634986361E+02  0.12789521680E+02  0.15074071745E+02  0.24470438428E+02  0.47000000000E+01 0. -1.
         -5    1    3    3    0  501  0.32730478341E+02 -0.29215501869E+02 -0.17285062813E+03  0.17839355204E+03  0.47000000000E+01 0. -1.
          5    1    4    4  502    0 -0.34499077970E+02  0.55408749689E+00  0.31091225577E+02  0.46682413194E+02  0.47000000000E+01 0. -1.
         -5    1    4    4    0  502  0.15403585989E+02  0.15871892692E+02 -0.91835872434E+02  0.94578564721E+02  0.47000000000E+01 0. -1.
<mgrwt>
<rscale>  0 0.26583919E+03</rscale>
<asrwt>0</asrwt>
<pdfrwt beam="1">  1       21 0.96618282E-02 0.26583919E+03</pdfrwt>
<pdfrwt beam="2">  1       21 0.43280474E-01 0.26583919E+03</pdfrwt>
<totfact> 0.43577995E+05</totfact>
</mgrwt>
</event>
<event>
 8    1  0.9400004E-006  0.2807923E+03  0.7546771E-02  0.1095257E+00
         21   -1    0    0  504  503  0.00000000000E+00  0.00000000000E+00  0.73511651728E+02  0.73511651728E+02  0.00000000000E+00 0.  1.
         21   -1    0    0  503  504 -0.00000000000E+00 -0.00000000000E+00 -0.26813544842E+03  0.26813544842E+03  0.00000000000E+00 0.  1.
         25    2    1    2    0    0  0.30454308827E+02 -0.45512554417E+02 -0.57196867491E+02  0.14797090060E+03  0.12500019295E+03 0.  0.
         25    2    1    2    0    0 -0.30454308827E+02  0.45512554417E+02 -0.13742692920E+03  0.19367619955E+03  0.12500180745E+03 0.  0.
          5    1    3    3  501    0  0.60846006714E+01 -0.62636566255E+02 -0.85733654998E+02  0.10645520841E+03  0.47000000000E+01 0. -1.
         -5    1    3    3    0  501  0.24369708156E+02  0.17124011838E+02  0.28536787507E+02  0.41515692193E+02  0.47000000000E+01 0. -1.
          5    1    4    4  502    0  0.16206159981E+02  0.76683553337E+02 -0.64983863429E+02  0.10192153590E+03  0.47000000000E+01 0. -1.
         -5    1    4    4    0  502 -0.46660468808E+02 -0.31170998921E+02 -0.72443065774E+02  0.91754663652E+02  0.47000000000E+01 0. -1.
<mgrwt>
<rscale>  0 0.28079231E+03</rscale>
<asrwt>0</asrwt>
<pdfrwt beam="1">  1       21 0.11309485E-01 0.28079231E+03</pdfrwt>
<pdfrwt beam="2">  1       21 0.41251608E-01 0.28079231E+03</pdfrwt>
<totfact> 0.36201674E+05</totfact>
</mgrwt>
</event>
<event>
 8    1  0.9400004E-006  0.3749401E+03  0.7546771E-02  0.1052820E+00
         21   -1    0    0  504  503  0.00000000000E+00  0.00000000000E+00  0.95141561517E+02  0.95141561517E+02  0.00000000000E+00 0. -1.
         21   -1    0    0  503  504 -0.00000000000E+00 -0.00000000000E+00 -0.36939705746E+03  0.36939705746E+03  0.00000000000E+00 0. -1.
         25    2    1    2    0    0 -0.11560466494E+03  0.67969671434E+02 -0.18569391956E+03  0.26094176625E+03  0.12499623524E+03 0.  0.
         25    2    1    2    0    0  0.11560466494E+03 -0.67969671434E+02 -0.88561576384E+02  0.20359685272E+03  0.12499684331E+03 0.  0.
          5    1    3    3  501    0 -0.79761040044E+01  0.12397819331E+02 -0.12393326085E+03  0.12489542548E+03  0.47000000000E+01 0. -1.
         -5    1    3    3    0  501 -0.10762856093E+03  0.55571852103E+02 -0.61760658707E+02  0.13604634078E+03  0.47000000000E+01 0. -1.
          5    1    4    4  502    0  0.11330121528E+02 -0.12808166987E+02  0.30908605801E+02  0.35634992746E+02  0.47000000000E+01 0. -1.
         -5    1    4    4    0  502  0.10427454341E+03 -0.55161504447E+02 -0.11947018219E+03  0.16796185998E+03  0.47000000000E+01 0. -1.
<mgrwt>
<rscale>  0 0.37494006E+03</rscale>
<asrwt>0</asrwt>
<pdfrwt beam="1">  1       21 0.14637163E-01 0.37494006E+03</pdfrwt>
<pdfrwt beam="2">  1       21 0.56830317E-01 0.37494006E+03</pdfrwt>
<totfact> 0.11319216E+05</totfact>
</mgrwt>
</event>
<event>
 8    1  0.9400004E-006  0.2943973E+03  0.7546771E-02  0.1088075E+00
         21   -1    0    0  504  503  0.00000000000E+00  0.00000000000E+00  0.53534510003E+02  0.53534510003E+02  0.00000000000E+00 0. -1.
         21   -1    0    0  503  504 -0.00000000000E+00 -0.00000000000E+00 -0.40473781955E+03  0.40473781955E+03  0.00000000000E+00 0. -1.
         25    2    1    2    0    0  0.25546466457E+02  0.15391313923E+02 -0.28733549521E+03  0.31476716657E+03  0.12500867110E+03 0.  0.
         25    2    1    2    0    0 -0.25546466457E+02 -0.15391313923E+02 -0.63867814333E+02  0.14350516298E+03  0.12500047841E+03 0.  0.
          5    1    3    3  501    0  0.61069479318E+01 -0.27940064752E+02 -0.25608895459E+03  0.25772385356E+03  0.47000000000E+01 0. -1.
         -5    1    3    3    0  501  0.19439518526E+02  0.43331378675E+02 -0.31246540623E+02  0.57043313011E+02  0.47000000000E+01 0. -1.
          5    1    4    4  502    0  0.36390165109E+02 -0.14927699712E+02  0.15658139804E+02  0.42595160259E+02  0.47000000000E+01 0.  1.
         -5    1    4    4    0  502 -0.61936631567E+02 -0.46361421086E+00 -0.79525954137E+02  0.10091000272E+03  0.47000000000E+01 0.  1.
<mgrwt>
<rscale>  0 0.29439729E+03</rscale>
<asrwt>0</asrwt>
<pdfrwt beam="1">  1       21 0.82360783E-02 0.29439729E+03</pdfrwt>
<pdfrwt beam="2">  1       21 0.62267358E-01 0.29439729E+03</pdfrwt>
<totfact> 0.26593771E+05</totfact>
</mgrwt>
</event>
<event>
 8    1  0.9400004E-006  0.2706049E+03  0.7546771E-02  0.1100934E+00
         21   -1    0    0  504  503  0.00000000000E+00  0.00000000000E+00  0.31320608930E+03  0.31320608930E+03  0.00000000000E+00 0. -1.
         21   -1    0    0  503  504 -0.00000000000E+00 -0.00000000000E+00 -0.58449540865E+02  0.58449540865E+02  0.00000000000E+00 0. -1.
         25    2    1    2    0    0  0.46981635524E+02 -0.21504714922E+02  0.13187309064E+03  0.18890659008E+03  0.12500184359E+03 0.  0.
         25    2    1    2    0    0 -0.46981635524E+02  0.21504714922E+02  0.12288345780E+03  0.18274904008E+03  0.12500856215E+03 0.  0.
          5    1    3    3  501    0  0.75990945447E+02 -0.36372708963E+02  0.44205130702E+02  0.95256397830E+02  0.47000000000E+01 0. -1.
         -5    1    3    3    0  501 -0.29009309923E+02  0.14867994041E+02  0.87667959935E+02  0.93650192249E+02  0.47000000000E+01 0. -1.
          5    1    4    4  502    0  0.34339784171E+02  0.23516852722E+02  0.80870442427E+02  0.91073495580E+02  0.47000000000E+01 0. -1.
         -5    1    4    4    0  502 -0.81321419695E+02 -0.20121377992E+01  0.42013015369E+02  0.91675544504E+02  0.47000000000E+01 0. -1.
<mgrwt>
<rscale>  0 0.27060489E+03</rscale>
<asrwt>0</asrwt>
<pdfrwt beam="1">  1       21 0.48185551E-01 0.27060489E+03</pdfrwt>
<pdfrwt beam="2">  1       21 0.89922373E-02 0.27060489E+03</pdfrwt>
<totfact> 0.39573179E+05</totfact>
</mgrwt>
</event>
<event>
 8    1  0.9400004E-006  0.3446744E+03  0.7546771E-02  0.1064822E+00
         21   -1    0    0  504  503  0.00000000000E+00  0.00000000000E+00  0.10962177021E+04  0.10962177021E+04  0.00000000000E+00 0.  1.
         21   -1    0    0  503  504 -0.00000000000E+00 -0.00000000000E+00 -0.27093266659E+02  0.27093266659E+02  0.00000000000E+00 0.  1.
         25    2    1    2    0    0  0.48286067238E+02  0.10836444193E+03  0.53622244451E+03  0.56323531237E+03  0.12500044220E+03 0.  0.
         25    2    1    2    0    0 -0.48286067238E+02 -0.10836444193E+03  0.53290199089E+03  0.56007565633E+03  0.12500324942E+03 0.  0.
          5    1    3    3  501    0  0.35794614719E+02  0.77332858891E+02  0.51774522568E+03  0.52473215475E+03  0.47000000000E+01 0.  1.
         -5    1    3    3    0  501  0.12491452519E+02  0.31031583039E+02  0.18477218823E+02  0.38503157628E+02  0.47000000000E+01 0.  1.
          5    1    4    4  502    0 -0.65006619752E+02 -0.53406512816E+02  0.45735546838E+03  0.46505293320E+03  0.47000000000E+01 0. -1.
         -5    1    4    4    0  502  0.16720552514E+02 -0.54957929114E+02  0.75546522508E+02  0.95022723134E+02  0.47000000000E+01 0. -1.
<mgrwt>
<rscale>  0 0.34467445E+03</rscale>
<asrwt>0</asrwt>
<pdfrwt beam="1">  1       21 0.16864884E+00 0.34467445E+03</pdfrwt>
<pdfrwt beam="2">  1       21 0.41681957E-02 0.34467445E+03</pdfrwt>
<totfact> 0.74774493E+04</totfact>
</mgrwt>
</event>
<event>
 8    1  0.9400004E-006  0.3896938E+03  0.7546771E-02  0.1047408E+00
         21   -1    0    0  504  503  0.00000000000E+00  0.00000000000E+00  0.97956661535E+03  0.97956661535E+03  0.00000000000E+00 0. -1.
         21   -1    0    0  503  504 -0.00000000000E+00 -0.00000000000E+00 -0.38757253880E+02  0.38757253880E+02  0.00000000000E+00 0. -1.
         25    2    1    2    0    0  0.14400354479E+03  0.37951621268E+02  0.43702196282E+03  0.47832037409E+03  0.12499935122E+03 0.  0.
         25    2    1    2    0    0 -0.14400354479E+03 -0.37951621268E+02  0.50378739865E+03  0.54000349515E+03  0.12499874106E+03 0.  0.
          5    1    3    3  501    0  0.50385026951E+02  0.34040737049E+01  0.29374803423E+02  0.58610645234E+02  0.47000000000E+01 0. -1.
         -5    1    3    3    0  501  0.93618517835E+02  0.34547547563E+02  0.40764715940E+03  0.41970972885E+03  0.47000000000E+01 0. -1.
          5    1    4    4  502    0 -0.14554121525E+03  0.32905871280E+01  0.44339166716E+03  0.46670261817E+03  0.47000000000E+01 0. -1.
         -5    1    4    4    0  502  0.15376704590E+01 -0.41242208396E+02  0.60395731488E+02  0.73300876978E+02  0.47000000000E+01 0. -1.
<mgrwt>
<rscale>  0 0.38969379E+03</rscale>
<asrwt>0</asrwt>
<pdfrwt beam="1">  1       21 0.15070254E+00 0.38969379E+03</pdfrwt>
<pdfrwt beam="2">  1       21 0.59626552E-02 0.38969379E+03</pdfrwt>
<totfact> 0.54382710E+04</totfact>
</mgrwt>
</event>
<event>
 8    1  0.9400004E-006  0.4613717E+03  0.7546771E-02  0.1024384E+00
         21   -1    0    0  504  503  0.00000000000E+00  0.00000000000E+00  0.14380700128E+03  0.14380700128E+03  0.00000000000E+00 0.  1.
         21   -1    0    0  503  504 -0.00000000000E+00 -0.00000000000E+00 -0.37005121891E+03  0.37005121891E+03  0.00000000000E+00 0.  1.
         25    2    1    2    0    0 -0.74413273529E+02 -0.62811705857E+02 -0.29985033157E+03  0.33914322848E+03  0.12500104963E+03 0.  0.
         25    2    1    2    0    0  0.74413273529E+02  0.62811705857E+02  0.73606113946E+02  0.17471499171E+03  0.12499929059E+03 0.  0.
          5    1    3    3  501    0  0.32424845533E+02 -0.69058711372E+01 -0.36911474668E+02  0.49835816700E+02  0.47000000000E+01 0.  1.
         -5    1    3    3    0  501 -0.10683811906E+03 -0.55905834720E+02 -0.26293885690E+03  0.28930741178E+03  0.47000000000E+01 0.  1.
          5    1    4    4  502    0  0.12843010977E+01 -0.17501423841E+02  0.62897335405E+02  0.65468420378E+02  0.47000000000E+01 0. -1.
         -5    1    4    4    0  502  0.73128972431E+02  0.80313129698E+02  0.10708778542E+02  0.10924657134E+03  0.47000000000E+01 0. -1.
<mgrwt>
<rscale>  0 0.46137168E+03</rscale>
<asrwt>0</asrwt>
<pdfrwt beam="1">  1       21 0.22124154E-01 0.46137168E+03</pdfrwt>
<pdfrwt beam="2">  1       21 0.56930957E-01 0.46137168E+03</pdfrwt>
<totfact> 0.50866806E+04</totfact>
</mgrwt>
</event>
<event>
 8    1  0.9400004E-006  0.3250464E+03  0.7546771E-02  0.1073350E+00
         21   -1    0    0  504  503  0.00000000000E+00  0.00000000000E+00  0.32189072562E+03  0.32189072562E+03  0.00000000000E+00 0.  1.
         21   -1    0    0  503  504 -0.00000000000E+00 -0.00000000000E+00 -0.82058265084E+02  0.82058265084E+02  0.00000000000E+00 0.  1.
         25    2    1    2    0    0 -0.59939514314E+02 -0.16376306028E+01  0.22531852646E+03  0.26455479441E+03  0.12500149466E+03 0.  0.
         25    2    1    2    0    0  0.59939514314E+02  0.16376306028E+01  0.14513934073E+02  0.13939419629E+03  0.12499864186E+03 0.  0.
          5    1    3    3  501    0 -0.61936643657E+02 -0.44556356303E+02  0.20081082101E+03  0.21486854714E+03  0.47000000000E+01 0.  1.
         -5    1    3    3    0  501  0.19971293428E+01  0.42918725700E+02  0.24507705452E+02  0.49686247271E+02  0.47000000000E+01 0.  1.
          5    1    4    4  502    0  0.87180360870E+02 -0.32843616454E+02  0.13823009533E+01  0.93290509802E+02  0.47000000000E+01 0. -1.
         -5    1    4    4    0  502 -0.27240846555E+02  0.34481247057E+02  0.13131633120E+02  0.46103686491E+02  0.47000000000E+01 0. -1.
<mgrwt>
<rscale>  0 0.32504642E+03</rscale>
<asrwt>0</asrwt>
<pdfrwt beam="1">  1       21 0.49521649E-01 0.32504642E+03</pdfrwt>
<pdfrwt beam="2">  1       21 0.12624349E-01 0.32504642E+03</pdfrwt>
<totfact> 0.20122420E+05</totfact>
</mgrwt>
</event>
<event>
 8    1  0.9400004E-006  0.2637919E+03  0.7546771E-02  0.1104886E+00
         21   -1    0    0  504  503  0.00000000000E+00  0.00000000000E+00  0.11894258762E+02  0.11894258762E+02  0.00000000000E+00 0.  1.
         21   -1    0    0  503  504 -0.00000000000E+00 -0.00000000000E+00 -0.14625995160E+04  0.14625995160E+04  0.00000000000E+00 0.  1.
         25    2    1    2    0    0  0.95240417650E+01  0.27063474402E+02 -0.55402854028E+03  0.56869111343E+03  0.12505526789E+03 0.  0.
         25    2    1    2    0    0 -0.95240417650E+01 -0.27063474402E+02 -0.89667671691E+03  0.90580266129E+03  0.12500475003E+03 0.  0.
          5    1    3    3  501    0  0.24822992067E+02  0.42934972144E+02 -0.53967400478E+03  0.54196837011E+03  0.47000000000E+01 0. -1.
         -5    1    3    3    0  501 -0.15298950302E+02 -0.15871497741E+02 -0.14354535506E+02  0.26722743319E+02  0.47000000000E+01 0. -1.
          5    1    4    4  502    0  0.56138153962E+02 -0.57183843231E+01 -0.49245528239E+03  0.49569999738E+03  0.47000000000E+01 0. -1.
         -5    1    4    4    0  502 -0.65662195727E+02 -0.21345090079E+02 -0.40422143452E+03  0.41010266391E+03  0.47000000000E+01 0. -1.
<mgrwt>
<rscale>  0 0.26379187E+03</rscale>
<asrwt>0</asrwt>
<pdfrwt beam="1">  1       21 0.18298859E-02 0.26379187E+03</pdfrwt>
<pdfrwt beam="2">  1       21 0.22501532E+00 0.26379187E+03</pdfrwt>
<totfact> 0.12831916E+05</totfact>
</mgrwt>
</event>
<event>
 8    1  0.9400004E-006  0.3218342E+03  0.7546771E-02  0.1074808E+00
         21   -1    0    0  504  503  0.00000000000E+00  0.00000000000E+00  0.55531511672E+02  0.55531511672E+02  0.00000000000E+00 0.  1.
         21   -1    0    0  503  504 -0.00000000000E+00 -0.00000000000E+00 -0.46629937394E+03  0.46629937394E+03  0.00000000000E+00 0.  1.
         25    2    1    2    0    0  0.12885024485E+02  0.20791946716E+02 -0.45910390307E+02  0.13537978934E+03  0.12498637733E+03 0.  0.
         25    2    1    2    0    0 -0.12885024485E+02 -0.20791946716E+02 -0.36485747196E+03  0.38645109627E+03  0.12500058424E+03 0.  0.
          5    1    3    3  501    0 -0.25799486992E+02 -0.44202510285E+02 -0.22093531726E+02  0.55943628669E+02  0.47000000000E+01 0. -1.
         -5    1    3    3    0  501  0.38684511477E+02  0.64994457001E+02 -0.23816858580E+02  0.79436160668E+02  0.47000000000E+01 0. -1.
          5    1    4    4  502    0  0.18763166913E+02  0.77387094795E+01 -0.18436825949E+01  0.20914904315E+02  0.47000000000E+01 0.  1.
         -5    1    4    4    0  502 -0.31648191398E+02 -0.28530656195E+02 -0.36301378936E+03  0.36553619196E+03  0.47000000000E+01 0.  1.
<mgrwt>
<rscale>  0 0.32183418E+03</rscale>
<asrwt>0</asrwt>
<pdfrwt beam="1">  1       21 0.85433096E-02 0.32183418E+03</pdfrwt>
<pdfrwt beam="2">  1       21 0.71738364E-01 0.32183418E+03</pdfrwt>
<totfact> 0.18113689E+05</totfact>
</mgrwt>
</event>
<event>
 8    1  0.9400004E-006  0.3501642E+03  0.7546771E-02  0.1062548E+00
         21   -1    0    0  504  503  0.00000000000E+00  0.00000000000E+00  0.26999481499E+03  0.26999481499E+03  0.00000000000E+00 0.  1.
         21   -1    0    0  503  504 -0.00000000000E+00 -0.00000000000E+00 -0.11353458461E+03  0.11353458461E+03  0.00000000000E+00 0.  1.
         25    2    1    2    0    0  0.21098730782E+02  0.11204059577E+03  0.28890290276E+02  0.17163039296E+03  0.12499636545E+03 0.  0.
         25    2    1    2    0    0 -0.21098730782E+02 -0.11204059577E+03  0.12756994010E+03  0.21189900663E+03  0.12501539046E+03 0.  0.
          5    1    3    3  501    0  0.72867845923E+02  0.72452055465E+02  0.26607314594E+02  0.10625000000E+03  0.47000000000E+01 0. -1.
         -5    1    3    3    0  501 -0.51769115142E+02  0.39588540301E+02  0.22829756816E+01  0.65380392961E+02  0.47000000000E+01 0. -1.
          5    1    4    4  502    0  0.41916787087E+02 -0.52187210975E+02  0.13550607535E+02  0.68456051548E+02  0.47000000000E+01 0. -1.
         -5    1    4    4    0  502 -0.63015517869E+02 -0.59853384791E+02  0.11401933257E+03  0.14344295508E+03  0.47000000000E+01 0. -1.
<mgrwt>
<rscale>  0 0.35016424E+03</rscale>
<asrwt>0</asrwt>
<pdfrwt beam="1">  1       21 0.41537664E-01 0.35016424E+03</pdfrwt>
<pdfrwt beam="2">  1       21 0.17466859E-01 0.35016424E+03</pdfrwt>
<totfact> 0.15873899E+05</totfact>
</mgrwt>
</event>
<event>
 8    1  0.9400004E-006  0.2682600E+03  0.7546771E-02  0.1102280E+00
         21   -1    0    0  504  503  0.00000000000E+00  0.00000000000E+00  0.18235174730E+02  0.18235174730E+02  0.00000000000E+00 0.  1.
         21   -1    0    0  503  504 -0.00000000000E+00 -0.00000000000E+00 -0.98660178258E+03  0.98660178258E+03  0.00000000000E+00 0.  1.
         25    2    1    2    0    0 -0.37276032059E+02 -0.30117899629E+02 -0.51596943480E+03  0.53305251355E+03  0.12499573636E+03 0.  0.
         25    2    1    2    0    0  0.37276032059E+02  0.30117899629E+02 -0.45239717304E+03  0.47178444375E+03  0.12498307384E+03 0.  0.
          5    1    3    3  501    0 -0.69837464990E+02 -0.27644662214E+02 -0.17506468490E+03  0.19055506492E+03  0.47000000000E+01 0.  1.
         -5    1    3    3    0  501  0.32561432930E+02 -0.24732374153E+01 -0.34090474990E+03  0.34249744863E+03  0.47000000000E+01 0.  1.
          5    1    4    4  502    0  0.41721030698E+02 -0.43178347796E+02 -0.20999624411E+03  0.21846172814E+03  0.47000000000E+01 0.  1.
         -5    1    4    4    0  502 -0.44449986384E+01  0.73296247425E+02 -0.24240092893E+03  0.25332271561E+03  0.47000000000E+01 0.  1.
<mgrwt>
<rscale>  0 0.26825999E+03</rscale>
<asrwt>0</asrwt>
<pdfrwt beam="1">  1       21 0.28054107E-02 0.26825999E+03</pdfrwt>
<pdfrwt beam="2">  1       21 0.15178493E+00 0.26825999E+03</pdfrwt>
<totfact> 0.19912218E+05</totfact>
</mgrwt>
</event>
<event>
 8    1  0.9400004E-006  0.3639974E+03  0.7546771E-02  0.1057012E+00
         21   -1    0    0  504  503  0.00000000000E+00  0.00000000000E+00  0.20150724022E+03  0.20150724022E+03  0.00000000000E+00 0.  1.
         21   -1    0    0  503  504 -0.00000000000E+00 -0.00000000000E+00 -0.16437885282E+03  0.16437885282E+03  0.00000000000E+00 0.  1.
         25    2    1    2    0    0 -0.64246383208E+02 -0.93325039638E+02  0.87199056096E+02  0.18991012875E+03  0.12500008336E+03 0.  0.
         25    2    1    2    0    0  0.64246383208E+02  0.93325039638E+02 -0.50070668696E+02  0.17597596429E+03  0.12499322927E+03 0.  0.
          5    1    3    3  501    0 -0.79393099619E+02 -0.31486714528E+02  0.92331582579E+02  0.12586456451E+03  0.47000000000E+01 0. -1.
         -5    1    3    3    0  501  0.15146716411E+02 -0.61838325110E+02 -0.51325264827E+01  0.64045564238E+02  0.47000000000E+01 0. -1.
          5    1    4    4  502    0  0.48476635272E+02 -0.12224775707E+02 -0.47498228741E+02  0.69120192722E+02  0.47000000000E+01 0. -1.
         -5    1    4    4    0  502  0.15769747937E+02  0.10554981535E+03 -0.25724399541E+01  0.10685577156E+03  0.47000000000E+01 0. -1.
<mgrwt>
<rscale>  0 0.36399741E+03</rscale>
<asrwt>0</asrwt>
<pdfrwt beam="1">  1       21 0.31001114E-01 0.36399741E+03</pdfrwt>
<pdfrwt beam="2">  1       21 0.25289054E-01 0.36399741E+03</pdfrwt>
<totfact> 0.14134984E+05</totfact>
</mgrwt>
</event>
<event>
 8    1  0.9400004E-006  0.3273644E+03  0.7546771E-02  0.1072309E+00
         21   -1    0    0  504  503  0.00000000000E+00  0.00000000000E+00  0.31871613622E+03  0.31871613622E+03  0.00000000000E+00 0.  1.
         21   -1    0    0  503  504 -0.00000000000E+00 -0.00000000000E+00 -0.84061829673E+02  0.84061829673E+02  0.00000000000E+00 0.  1.
         25    2    1    2    0    0  0.41476353187E+02 -0.62201672244E+01 -0.20095375422E+01  0.13186343022E+03  0.12499979054E+03 0.  0.
         25    2    1    2    0    0 -0.41476353187E+02  0.62201672244E+01  0.23666384409E+03  0.27091453567E+03  0.12500372868E+03 0.  0.
          5    1    3    3  501    0  0.75781393149E+02 -0.34198668446E+02  0.14223788588E+02  0.84479433194E+02  0.47000000000E+01 0.  1.
         -5    1    3    3    0  501 -0.34305039961E+02  0.27978501221E+02 -0.16233326130E+02  0.47383997030E+02  0.47000000000E+01 0.  1.
          5    1    4    4  502    0 -0.27831221956E+02 -0.54849586991E+02  0.16221046837E+03  0.17354359729E+03  0.47000000000E+01 0. -1.
         -5    1    4    4    0  502 -0.13645131231E+02  0.61069754216E+02  0.74453375713E+02  0.97370938382E+02  0.47000000000E+01 0. -1.
<mgrwt>
<rscale>  0 0.32736439E+03</rscale>
<asrwt>0</asrwt>
<pdfrwt beam="1">  1       21 0.49033251E-01 0.32736439E+03</pdfrwt>
<pdfrwt beam="2">  1       21 0.12932589E-01 0.32736439E+03</pdfrwt>
<totfact> 0.19655670E+05</totfact>
</mgrwt>
</event>
<event>
 8    1  0.9400004E-006  0.2665947E+03  0.7546771E-02  0.1103244E+00
         21   -1    0    0  504  503  0.00000000000E+00  0.00000000000E+00  0.19737676871E+03  0.19737676871E+03  0.00000000000E+00 0. -1.
         21   -1    0    0  503  504 -0.00000000000E+00 -0.00000000000E+00 -0.90021668699E+02  0.90021668699E+02  0.00000000000E+00 0. -1.
         25    2    1    2    0    0  0.12008845206E+02 -0.23008235832E+02  0.12389703566E+02  0.12827110094E+03  0.12500551709E+03 0.  0.
         25    2    1    2    0    0 -0.12008845206E+02  0.23008235832E+02  0.94965396448E+02  0.15912733647E+03  0.12501796435E+03 0.  0.
          5    1    3    3  501    0 -0.49186340711E+02 -0.25995790204E+02  0.31264699265E+02  0.63989441637E+02  0.47000000000E+01 0.  1.
         -5    1    3    3    0  501  0.61195185918E+02  0.29875543721E+01 -0.18874995699E+02  0.64281659307E+02  0.47000000000E+01 0.  1.
          5    1    4    4  502    0 -0.60931014427E+02 -0.17754256483E+02  0.43030797601E+02  0.76821492335E+02  0.47000000000E+01 0.  1.
         -5    1    4    4    0  502  0.48922169221E+02  0.40762492315E+02  0.51934598847E+02  0.82305844133E+02  0.47000000000E+01 0.  1.
<mgrwt>
<rscale>  0 0.26659472E+03</rscale>
<asrwt>0</asrwt>
<pdfrwt beam="1">  1       21 0.30365657E-01 0.26659472E+03</pdfrwt>
<pdfrwt beam="2">  1       21 0.13849488E-01 0.26659472E+03</pdfrwt>
<totfact> 0.46500904E+05</totfact>
</mgrwt>
</event>
<event>
 8    1  0.9400004E-006  0.3677660E+03  0.7546771E-02  0.1055550E+00
         21   -1    0    0  504  503  0.00000000000E+00  0.00000000000E+00  0.11971512050E+04  0.11971512050E+04  0.00000000000E+00 0.  1.
         21   -1    0    0  503  504 -0.00000000000E+00 -0.00000000000E+00 -0.28244516160E+02  0.28244516160E+02  0.00000000000E+00 0.  1.
         25    2    1    2    0    0 -0.19372600127E+02  0.94652341452E+02  0.89795978342E+03  0.91175189783E+03  0.12500154867E+03 0.  0.
         25    2    1    2    0    0  0.19372600127E+02 -0.94652341452E+02  0.27094690544E+03  0.31364382336E+03  0.12500343589E+03 0.  0.
          5    1    3    3  501    0 -0.52736772713E+02  0.57269895115E+02  0.25102054633E+03  0.26285816092E+03  0.47000000000E+01 0. -1.
         -5    1    3    3    0  501  0.33364172586E+02  0.37382446337E+02  0.64693923709E+03  0.64889373691E+03  0.47000000000E+01 0. -1.
          5    1    4    4  502    0  0.16307991690E+01 -0.10345159191E+03  0.10876336370E+03  0.15018805098E+03  0.47000000000E+01 0.  1.
         -5    1    4    4    0  502  0.17741800958E+02  0.87992504611E+01  0.16218354175E+03  0.16345577238E+03  0.47000000000E+01 0.  1.
<mgrwt>
<rscale>  0 0.36776599E+03</rscale>
<asrwt>0</asrwt>
<pdfrwt beam="1">  1       21 0.18417707E+00 0.36776599E+03</pdfrwt>
<pdfrwt beam="2">  1       21 0.43453111E-02 0.36776599E+03</pdfrwt>
<totfact> 0.53699206E+04</totfact>
</mgrwt>
</event>
<event>
 8    1  0.9400004E-006  0.4172256E+03  0.7546771E-02  0.1037973E+00
         21   -1    0    0  504  503  0.00000000000E+00  0.00000000000E+00  0.29762759740E+02  0.29762759740E+02  0.00000000000E+00 0. -1.
         21   -1    0    0  503  504 -0.00000000000E+00 -0.00000000000E+00 -0.14622068276E+04  0.14622068276E+04  0.00000000000E+00 0. -1.
         25    2    1    2    0    0 -0.57851853546E+02  0.15137561081E+03 -0.86095561426E+03  0.88494774064E+03  0.12500608558E+03 0.  0.
         25    2    1    2    0    0  0.57851853546E+02 -0.15137561081E+03 -0.57148845365E+03  0.60702184675E+03  0.12496022275E+03 0.  0.
          5    1    3    3  501    0 -0.19258359956E+02  0.12092095092E+03 -0.33550380380E+03  0.35718014105E+03  0.47000000000E+01 0. -1.
         -5    1    3    3    0  501 -0.38593493591E+02  0.30454659887E+02 -0.52545181046E+03  0.52776759958E+03  0.47000000000E+01 0. -1.
          5    1    4    4  502    0  0.23996833903E+02 -0.13113771336E+03 -0.25251963696E+03  0.28558922415E+03  0.47000000000E+01 0.  1.
         -5    1    4    4    0  502  0.33855019643E+02 -0.20237897448E+02 -0.31896881669E+03  0.32143262260E+03  0.47000000000E+01 0.  1.
<mgrwt>
<rscale>  0 0.41722565E+03</rscale>
<asrwt>0</asrwt>
<pdfrwt beam="1">  1       21 0.45788864E-02 0.41722565E+03</pdfrwt>
<pdfrwt beam="2">  1       21 0.22495488E+00 0.41722565E+03</pdfrwt>
<totfact> 0.26023385E+04</totfact>
</mgrwt>
</event>
<event>
 8    1  0.9400004E-006  0.2642458E+03  0.7546771E-02  0.1104619E+00
         21   -1    0    0  504  503  0.00000000000E+00  0.00000000000E+00  0.12098296637E+04  0.12098296637E+04  0.00000000000E+00 0. -1.
         21   -1    0    0  503  504 -0.00000000000E+00 -0.00000000000E+00 -0.14428854292E+02  0.14428854292E+02  0.00000000000E+00 0. -1.
         25    2    1    2    0    0 -0.19344390376E+02  0.35240773079E+02  0.66569024046E+03  0.67851610087E+03  0.12499794149E+03 0.  0.
         25    2    1    2    0    0  0.19344390376E+02 -0.35240773079E+02  0.52971056894E+03  0.54574241711E+03  0.12500152583E+03 0.  0.
          5    1    3    3  501    0 -0.43928001990E+02  0.42533918316E+02  0.14843904158E+03  0.16060835169E+03  0.47000000000E+01 0.  1.
         -5    1    3    3    0  501  0.24583611613E+02 -0.72931452368E+01  0.51725119887E+03  0.51790774918E+03  0.47000000000E+01 0.  1.
          5    1    4    4  502    0  0.44390117898E+02 -0.85223220840E+01  0.63576898221E+02  0.78148733375E+02  0.47000000000E+01 0. -1.
         -5    1    4    4    0  502 -0.25045727522E+02 -0.26718450995E+02  0.46613367072E+03  0.46759368373E+03  0.47000000000E+01 0. -1.
<mgrwt>
<rscale>  0 0.26424576E+03</rscale>
<asrwt>0</asrwt>
<pdfrwt beam="1">  1       21 0.18612756E+00 0.26424576E+03</pdfrwt>
<pdfrwt beam="2">  1       21 0.22198247E-02 0.26424576E+03</pdfrwt>
<totfact> 0.16643890E+05</totfact>
</mgrwt>
</event>
<event>
 8    1  0.9400004E-006  0.2644742E+03  0.7546771E-02  0.1104484E+00
         21   -1    0    0  504  503  0.00000000000E+00  0.00000000000E+00  0.10739081672E+03  0.10739081672E+03  0.00000000000E+00 0. -1.
         21   -1    0    0  503  504 -0.00000000000E+00 -0.00000000000E+00 -0.16283187759E+03  0.16283187759E+03  0.00000000000E+00 0. -1.
         25    2    1    2    0    0 -0.36408661181E+02  0.17713783039E+02 -0.42969748383E+02  0.13823527540E+03  0.12499289327E+03 0.  0.
         25    2    1    2    0    0  0.36408661181E+02 -0.17713783039E+02 -0.12471312484E+02  0.13198741891E+03  0.12500310555E+03 0.  0.
          5    1    3    3  501    0 -0.57368377878E+01  0.69734592107E+02 -0.30079155865E+02  0.76306423463E+02  0.47000000000E+01 0.  1.
         -5    1    3    3    0  501 -0.30671823393E+02 -0.52020809068E+02 -0.12890592517E+02  0.61928851933E+02  0.47000000000E+01 0.  1.
          5    1    4    4  502    0 -0.37447736803E+01 -0.21912163945E+02  0.51446829559E+02  0.56240843969E+02  0.47000000000E+01 0. -1.
         -5    1    4    4    0  502  0.40153434861E+02  0.41983809060E+01 -0.63918142044E+02  0.75746574944E+02  0.47000000000E+01 0. -1.
<mgrwt>
<rscale>  0 0.26447418E+03</rscale>
<asrwt>0</asrwt>
<pdfrwt beam="1">  1       21 0.16521664E-01 0.26447418E+03</pdfrwt>
<pdfrwt beam="2">  1       21 0.25051058E-01 0.26447418E+03</pdfrwt>
<totfact> 0.48919874E+05</totfact>
</mgrwt>
</event>
<event>
 8    1  0.9400004E-006  0.2944373E+03  0.7546771E-02  0.1088055E+00
         21   -1    0    0  504  503  0.00000000000E+00  0.00000000000E+00  0.92363193131E+02  0.92363193131E+02  0.00000000000E+00 0.  1.
         21   -1    0    0  503  504 -0.00000000000E+00 -0.00000000000E+00 -0.23465333191E+03  0.23465333191E+03  0.00000000000E+00 0.  1.
         25    2    1    2    0    0  0.54200857099E+02 -0.66289912921E+01 -0.96606420912E+01  0.13675144774E+03  0.12500381601E+03 0.  0.
         25    2    1    2    0    0 -0.54200857099E+02  0.66289912921E+01 -0.13262949668E+03  0.19026507730E+03  0.12501415845E+03 0.  0.
          5    1    3    3  501    0  0.77916004753E+02  0.10154992270E+02 -0.45072053722E+02  0.90706161265E+02  0.47000000000E+01 0.  1.
         -5    1    3    3    0  501 -0.23715147655E+02 -0.16783983562E+02  0.35411411631E+02  0.46045286471E+02  0.47000000000E+01 0.  1.
          5    1    4    4  502    0  0.35354665481E+02  0.11302624662E+02 -0.10848222679E+02  0.38954789575E+02  0.47000000000E+01 0. -1.
         -5    1    4    4    0  502 -0.89555522580E+02 -0.46736333701E+01 -0.12178127400E+03  0.15131028773E+03  0.47000000000E+01 0. -1.
<mgrwt>
<rscale>  0 0.29443730E+03</rscale>
<asrwt>0</asrwt>
<pdfrwt beam="1">  1       21 0.14209722E-01 0.29443730E+03</pdfrwt>
<pdfrwt beam="2">  1       21 0.36100513E-01 0.29443730E+03</pdfrwt>
<totfact> 0.31288102E+05</totfact>
</mgrwt>
</event>
<event>
 8    1  0.9400004E-006  0.3206843E+03  0.7546771E-02  0.1075335E+00
         21   -1    0    0  504  503  0.00000000000E+00  0.00000000000E+00  0.60772320855E+02  0.60772320855E+02  0.00000000000E+00 0. -1.
         21   -1    0    0  503  504 -0.00000000000E+00 -0.00000000000E+00 -0.42304782723E+03  0.42304782723E+03  0.00000000000E+00 0. -1.
         25    2    1    2    0    0 -0.46095971812E+02 -0.40306863993E+02 -0.30122671823E+03  0.33182990381E+03  0.12499626949E+03 0.  0.
         25    2    1    2    0    0  0.46095971812E+02  0.40306863993E+02 -0.61048788143E+02  0.15199024427E+03  0.12499839166E+03 0.  0.
          5    1    3    3  501    0 -0.58082585272E+02 -0.36727665640E+02 -0.30885487842E+03  0.31644262365E+03  0.47000000000E+01 0.  1.
         -5    1    3    3    0  501  0.11986613460E+02 -0.35791983525E+01  0.76281601896E+01  0.15387280167E+02  0.47000000000E+01 0.  1.
          5    1    4    4  502    0 -0.18000303314E+02 -0.67428921507E+01 -0.69153630436E+02  0.71929076989E+02  0.47000000000E+01 0. -1.
         -5    1    4    4    0  502  0.64096275126E+02  0.47049756144E+02  0.81048422934E+01  0.80061167283E+02  0.47000000000E+01 0. -1.
<mgrwt>
<rscale>  0 0.32068426E+03</rscale>
<asrwt>0</asrwt>
<pdfrwt beam="1">  1       21 0.93495883E-02 0.32068426E+03</pdfrwt>
<pdfrwt beam="2">  1       21 0.65084278E-01 0.32068426E+03</pdfrwt>
<totfact> 0.19173670E+05</totfact>
</mgrwt>
</event>
<event>
 8    1  0.9400004E-006  0.2864100E+03  0.7546771E-02  0.1092239E+00
         21   -1    0    0  504  503  0.00000000000E+00  0.00000000000E+00  0.98876169957E+02  0.98876169957E+02  0.00000000000E+00 0. -1.
         21   -1    0    0  503  504 -0.00000000000E+00 -0.00000000000E+00 -0.20740756330E+03  0.20740756330E+03  0.00000000000E+00 0. -1.
         25    2    1    2    0    0  0.42189157277E+02 -0.26718791547E+02 -0.10653087957E+03  0.17166374988E+03  0.12500318360E+03 0.  0.
         25    2    1    2    0    0 -0.42189157277E+02  0.26718791547E+02 -0.20005137749E+01  0.13461998337E+03  0.12499887621E+03 0.  0.
          5    1    3    3  501    0  0.83488981202E+02 -0.87093196448E+01 -0.45311230048E+02  0.95506333818E+02  0.47000000000E+01 0.  1.
         -5    1    3    3    0  501 -0.41299823925E+02 -0.18009471902E+02 -0.61219649519E+02  0.76157416065E+02  0.47000000000E+01 0.  1.
          5    1    4    4  502    0 -0.69118616229E+02  0.33924464164E+02  0.37719404719E+02  0.85866733200E+02  0.47000000000E+01 0.  1.
         -5    1    4    4    0  502  0.26929458952E+02 -0.72056726164E+01 -0.39719918494E+02  0.48753250173E+02  0.47000000000E+01 0.  1.
<mgrwt>
<rscale>  0 0.28640995E+03</rscale>
<asrwt>0</asrwt>
<pdfrwt beam="1">  1       21 0.15211719E-01 0.28640995E+03</pdfrwt>
<pdfrwt beam="2">  1       21 0.31908856E-01 0.28640995E+03</pdfrwt>
<totfact> 0.35381931E+05</totfact>
</mgrwt>
</event>
<event>
 8    1  0.9400004E-006  0.3509810E+03  0.7546771E-02  0.1062213E+00
         21   -1    0    0  504  503  0.00000000000E+00  0.00000000000E+00  0.12517371592E+03  0.12517371592E+03  0.00000000000E+00 0. -1.
         21   -1    0    0  503  504 -0.00000000000E+00 -0.00000000000E+00 -0.24603336373E+03  0.24603336373E+03  0.00000000000E+00 0. -1.
         25    2    1    2    0    0  0.56361344393E+02 -0.84830213418E+02 -0.13369286229E+03  0.20945917521E+03  0.12500639344E+03 0.  0.
         25    2    1    2    0    0 -0.56361344393E+02  0.84830213418E+02  0.12833214486E+02  0.16174790445E+03  0.12499970779E+03 0.  0.
          5    1    3    3  501    0  0.48109503951E+02 -0.87392212860E+02 -0.28568628736E+02  0.10387579019E+03  0.47000000000E+01 0.  1.
         -5    1    3    3    0  501  0.82518404415E+01  0.25619994417E+01 -0.10512423356E+03  0.10558338502E+03  0.47000000000E+01 0.  1.
          5    1    4    4  502    0  0.37939306854E+02  0.12495437377E+02  0.14616688491E+02  0.42793276835E+02  0.47000000000E+01 0. -1.
         -5    1    4    4    0  502 -0.94300651247E+02  0.72334776041E+02 -0.17834740047E+01  0.11895462761E+03  0.47000000000E+01 0. -1.
<mgrwt>
<rscale>  0 0.35098097E+03</rscale>
<asrwt>0</asrwt>
<pdfrwt beam="1">  1       21 0.19257495E-01 0.35098097E+03</pdfrwt>
<pdfrwt beam="2">  1       21 0.37851286E-01 0.35098097E+03</pdfrwt>
<totfact> 0.15981716E+05</totfact>
</mgrwt>
</event>
<event>
 8    1  0.9400004E-006  0.2987025E+03  0.7546771E-02  0.1085891E+00
         21   -1    0    0  504  503  0.00000000000E+00  0.00000000000E+00  0.26624219173E+03  0.26624219173E+03  0.00000000000E+00 0. -1.
         21   -1    0    0  503  504 -0.00000000000E+00 -0.00000000000E+00 -0.83780121152E+02  0.83780121152E+02  0.00000000000E+00 0. -1.
         25    2    1    2    0    0 -0.82175246265E+01 -0.81011440421E+02  0.99683581672E+02  0.17941785966E+03  0.12499428275E+03 0.  0.
         25    2    1    2    0    0  0.82175246265E+01  0.81011440421E+02  0.82778488901E+02  0.17060445322E+03  0.12499287997E+03 0.  0.
          5    1    3    3  501    0 -0.12100053805E+02 -0.84201242711E+02  0.12606519132E+03  0.15215381375E+03  0.47000000000E+01 0. -1.
         -5    1    3    3    0  501  0.38825291784E+01  0.31898022900E+01 -0.26381609652E+02  0.27264045908E+02  0.47000000000E+01 0. -1.
          5    1    4    4  502    0 -0.52796047453E+02  0.82147579190E+01  0.36195794383E+02  0.64708039727E+02  0.47000000000E+01 0.  1.
         -5    1    4    4    0  502  0.61013572080E+02  0.72796682502E+02  0.46582694519E+02  0.10589641349E+03  0.47000000000E+01 0.  1.
<mgrwt>
<rscale>  0 0.29870255E+03</rscale>
<asrwt>0</asrwt>
<pdfrwt beam="1">  1       21 0.40960337E-01 0.29870255E+03</pdfrwt>
<pdfrwt beam="2">  1       21 0.12889250E-01 0.29870255E+03</pdfrwt>
<totfact> 0.28902197E+05</totfact>
</mgrwt>
</event>
<event>
 8    1  0.9400004E-006  0.2647459E+03  0.7546771E-02  0.1104325E+00
         21   -1    0    0  504  503  0.00000000000E+00  0.00000000000E+00  0.58146696230E+02  0.58146696230E+02  0.00000000000E+00 0. -1.
         21   -1    0    0  503  504 -0.00000000000E+00 -0.00000000000E+00 -0.30135149508E+03  0.30135149508E+03  0.00000000000E+00 0. -1.
         25    2    1    2    0    0 -0.29329676098E+02 -0.12439129721E+02 -0.81219646143E+02  0.15243521924E+03  0.12499961318E+03 0.  0.
         25    2    1    2    0    0  0.29329676098E+02  0.12439129721E+02 -0.16198515270E+03  0.20706297207E+03  0.12498369037E+03 0.  0.
          5    1    3    3  501    0  0.11960668546E+02  0.16808128185E+02  0.26155672599E+02  0.33641937730E+02  0.47000000000E+01 0.  1.
         -5    1    3    3    0  501 -0.41290344644E+02 -0.29247257906E+02 -0.10737531874E+03  0.11879328151E+03  0.47000000000E+01 0.  1.
          5    1    4    4  502    0  0.49051204993E+02 -0.45702150415E+02 -0.90258822977E+02  0.11253200607E+03  0.47000000000E+01 0. -1.
         -5    1    4    4    0  502 -0.19721528895E+02  0.58141280136E+02 -0.71726329726E+02  0.94530966005E+02  0.47000000000E+01 0. -1.
<mgrwt>
<rscale>  0 0.26474587E+03</rscale>
<asrwt>0</asrwt>
<pdfrwt beam="1">  1       21 0.89456454E-02 0.26474587E+03</pdfrwt>
<pdfrwt beam="2">  1       21 0.46361769E-01 0.26474587E+03</pdfrwt>
<totfact> 0.43331654E+05</totfact>
</mgrwt>
</event>
<event>
 8    1  0.9400004E-006  0.3966873E+03  0.7546771E-02  0.1044933E+00
         21   -1    0    0  504  503  0.00000000000E+00  0.00000000000E+00  0.42484981982E+02  0.42484981982E+02  0.00000000000E+00 0. -1.
         21   -1    0    0  503  504 -0.00000000000E+00 -0.00000000000E+00 -0.92597914552E+03  0.92597914552E+03  0.00000000000E+00 0. -1.
         25    2    1    2    0    0 -0.92557140497E+02 -0.12146607083E+03 -0.49026863025E+03  0.52849621493E+03  0.12499635502E+03 0.  0.
         25    2    1    2    0    0  0.92557140497E+02  0.12146607083E+03 -0.39322553329E+03  0.43996791258E+03  0.12499845376E+03 0.  0.
          5    1    3    3  501    0  0.29778492992E+02 -0.12527190983E+02 -0.10078635569E+03  0.10594181729E+03  0.47000000000E+01 0. -1.
         -5    1    3    3    0  501 -0.12233563349E+03 -0.10893887985E+03 -0.38948227456E+03  0.42255439764E+03  0.47000000000E+01 0. -1.
          5    1    4    4  502    0 -0.23862744345E+02  0.55326608439E+02 -0.89376872763E+02  0.10789244438E+03  0.47000000000E+01 0.  1.
         -5    1    4    4    0  502  0.11641988484E+03  0.66139462396E+02 -0.30384866053E+03  0.33207546820E+03  0.47000000000E+01 0.  1.
<mgrwt>
<rscale>  0 0.39668732E+03</rscale>
<asrwt>0</asrwt>
<pdfrwt beam="1">  1       21 0.65361519E-02 0.39668732E+03</pdfrwt>
<pdfrwt beam="2">  1       21 0.14245831E+00 0.39668732E+03</pdfrwt>
<totfact> 0.53791274E+04</totfact>
</mgrwt>
</event>
<event>
 8    1  0.9400004E-006  0.2988618E+03  0.7546771E-02  0.1085811E+00
         21   -1    0    0  504  503  0.00000000000E+00  0.00000000000E+00  0.11493660350E+03  0.11493660350E+03  0.00000000000E+00 0.  1.
         21   -1    0    0  503  504 -0.00000000000E+00 -0.00000000000E+00 -0.19427745917E+03  0.19427745917E+03  0.00000000000E+00 0.  1.
         25    2    1    2    0    0 -0.79909602751E+02  0.15686082858E+01 -0.58065766762E+02  0.15932771253E+03  0.12500272624E+03 0.  0.
         25    2    1    2    0    0  0.79909602751E+02 -0.15686082858E+01 -0.21275088905E+02  0.14988635014E+03  0.12500113362E+03 0.  0.
          5    1    3    3  501    0 -0.20732702511E+02  0.57978993277E+02 -0.44978942982E+02  0.76397669641E+02  0.47000000000E+01 0.  1.
         -5    1    3    3    0  501 -0.59176900240E+02 -0.56410384991E+02 -0.13086823780E+02  0.82930042889E+02  0.47000000000E+01 0.  1.
          5    1    4    4  502    0  0.10373129526E+03 -0.15856422300E+02 -0.43808377004E+02  0.11381068333E+03  0.47000000000E+01 0.  1.
         -5    1    4    4    0  502 -0.23821692508E+02  0.14287814014E+02  0.22533288099E+02  0.36075666810E+02  0.47000000000E+01 0.  1.
<mgrwt>
<rscale>  0 0.29886178E+03</rscale>
<asrwt>0</asrwt>
<pdfrwt beam="1">  1       21 0.17682554E-01 0.29886178E+03</pdfrwt>
<pdfrwt beam="2">  1       21 0.29888840E-01 0.29886178E+03</pdfrwt>
<totfact> 0.30393790E+05</totfact>
</mgrwt>
</event>
<event>
 8    1  0.9400004E-006  0.4219516E+03  0.7546771E-02  0.1036433E+00
         21   -1    0    0  504  503  0.00000000000E+00  0.00000000000E+00  0.18341600543E+03  0.18341600543E+03  0.00000000000E+00 0.  1.
         21   -1    0    0  503  504 -0.00000000000E+00 -0.00000000000E+00 -0.24267668243E+03  0.24267668243E+03  0.00000000000E+00 0.  1.
         25    2    1    2    0    0  0.15946103901E+02 -0.12906377846E+02 -0.20000867366E+03  0.23673727717E+03  0.12498086271E+03 0.  0.
         25    2    1    2    0    0 -0.15946103901E+02  0.12906377846E+02  0.14074799666E+03  0.18935541069E+03  0.12499848069E+03 0.  0.
          5    1    3    3  501    0  0.25501340213E+02 -0.51930012169E+02 -0.37114231168E+02  0.68895578027E+02  0.47000000000E+01 0.  1.
         -5    1    3    3    0  501 -0.95552363121E+01  0.39023634323E+02 -0.16289444249E+03  0.16784169914E+03  0.47000000000E+01 0.  1.
          5    1    4    4  502    0 -0.12482009922E+02 -0.10209265827E+02 -0.20416073702E+02  0.26437392947E+02  0.47000000000E+01 0. -1.
         -5    1    4    4    0  502 -0.34640939785E+01  0.23115643674E+02  0.16116407036E+03  0.16291801774E+03  0.47000000000E+01 0. -1.
<mgrwt>
<rscale>  0 0.42195160E+03</rscale>
<asrwt>0</asrwt>
<pdfrwt beam="1">  1       21 0.28217847E-01 0.42195160E+03</pdfrwt>
<pdfrwt beam="2">  1       21 0.37334874E-01 0.42195160E+03</pdfrwt>
<totfact> 0.77568829E+04</totfact>
</mgrwt>
</event>
<event>
 8    1  0.9400004E-006  0.2741045E+03  0.7546771E-02  0.1098953E+00
         21   -1    0    0  504  503  0.00000000000E+00  0.00000000000E+00  0.35334856634E+03  0.35334856634E+03  0.00000000000E+00 0. -1.
         21   -1    0    0  503  504 -0.00000000000E+00 -0.00000000000E+00 -0.53158057529E+02  0.53158057529E+02  0.00000000000E+00 0. -1.
         25    2    1    2    0    0 -0.37324292511E+02  0.29316019017E+02  0.19475182954E+03  0.23623585267E+03  0.12500628462E+03 0.  0.
         25    2    1    2    0    0  0.37324292511E+02 -0.29316019017E+02  0.10543867927E+03  0.17027077120E+03  0.12498915415E+03 0.  0.
          5    1    3    3  501    0 -0.38092037366E+02  0.38571633272E+02  0.15357110727E+02  0.56539411509E+02  0.47000000000E+01 0. -1.
         -5    1    3    3    0  501  0.76774485515E+00 -0.92556142544E+01  0.17939471881E+03  0.17969644116E+03  0.47000000000E+01 0. -1.
          5    1    4    4  502    0 -0.10942099229E+02  0.38661963507E+02  0.67180866514E+02  0.78420888693E+02  0.47000000000E+01 0.  1.
         -5    1    4    4    0  502  0.48266391740E+02 -0.67977982525E+02  0.38257812758E+02  0.91849882508E+02  0.47000000000E+01 0.  1.
<mgrwt>
<rscale>  0 0.27410453E+03</rscale>
<asrwt>0</asrwt>
<pdfrwt beam="1">  1       21 0.54361316E-01 0.27410453E+03</pdfrwt>
<pdfrwt beam="2">  1       21 0.81781629E-02 0.27410453E+03</pdfrwt>
<totfact> 0.36239409E+05</totfact>
</mgrwt>
</event>
<event>
 8    1  0.9400004E-006  0.3079164E+03  0.7546771E-02  0.1081349E+00
         21   -1    0    0  504  503  0.00000000000E+00  0.00000000000E+00  0.10572046919E+03  0.10572046919E+03  0.00000000000E+00 0. -1.
         21   -1    0    0  503  504 -0.00000000000E+00 -0.00000000000E+00 -0.22420559171E+03  0.22420559171E+03  0.00000000000E+00 0. -1.
         25    2    1    2    0    0  0.32990467584E+02 -0.14558897685E+01 -0.14880443468E+03  0.19712960750E+03  0.12500732700E+03 0.  0.
         25    2    1    2    0    0 -0.32990467584E+02  0.14558897685E+01  0.30319312170E+02  0.13279645341E+03  0.12500058712E+03 0.  0.
          5    1    3    3  501    0  0.38753520489E+02 -0.50353427942E+02 -0.12895392879E+03  0.14383500550E+03  0.47000000000E+01 0.  1.
         -5    1    3    3    0  501 -0.57630529046E+01  0.48897538173E+02 -0.19850505896E+02  0.53294602002E+02  0.47000000000E+01 0.  1.
          5    1    4    4  502    0 -0.15663257331E+02 -0.24883005034E+02  0.73397583478E+02  0.79207302884E+02  0.47000000000E+01 0. -1.
         -5    1    4    4    0  502 -0.17327210254E+02  0.26338894803E+02 -0.43078271309E+02  0.53589150521E+02  0.47000000000E+01 0. -1.
<mgrwt>
<rscale>  0 0.30791635E+03</rscale>
<asrwt>0</asrwt>
<pdfrwt beam="1">  1       21 0.16264688E-01 0.30791635E+03</pdfrwt>
<pdfrwt beam="2">  1       21 0.34493167E-01 0.30791635E+03</pdfrwt>
<totfact> 0.26664127E+05</totfact>
</mgrwt>
</event>
<event>
 8    1  0.9400004E-006  0.3158531E+03  0.7546771E-02  0.1077574E+00
         21   -1    0    0  504  503  0.00000000000E+00  0.00000000000E+00  0.35011490702E+02  0.35011490702E+02  0.00000000000E+00 0.  1.
         21   -1    0    0  503  504 -0.00000000000E+00 -0.00000000000E+00 -0.71236009666E+03  0.71236009666E+03  0.00000000000E+00 0.  1.
         25    2    1    2    0    0 -0.78605997818E+02  0.65767614506E+01 -0.20706512935E+03  0.25440678259E+03  0.12499874620E+03 0.  0.
         25    2    1    2    0    0  0.78605997818E+02 -0.65767614506E+01 -0.47028347661E+03  0.49296480478E+03  0.12500237473E+03 0.  0.
          5    1    3    3  501    0 -0.20311049397E+02 -0.36748620535E+02 -0.16503866206E+03  0.17036093981E+03  0.47000000000E+01 0.  1.
         -5    1    3    3    0  501 -0.58294948421E+02  0.43325381985E+02 -0.42026467288E+02  0.84045842778E+02  0.47000000000E+01 0.  1.
          5    1    4    4  502    0  0.10683211417E+03  0.91526636520E+01 -0.41595826110E+03  0.42958146707E+03  0.47000000000E+01 0. -1.
         -5    1    4    4    0  502 -0.28226116355E+02 -0.15729425103E+02 -0.54325215512E+02  0.63383337707E+02  0.47000000000E+01 0. -1.
<mgrwt>
<rscale>  0 0.31585306E+03</rscale>
<asrwt>0</asrwt>
<pdfrwt beam="1">  1       21 0.53863828E-02 0.31585306E+03</pdfrwt>
<pdfrwt beam="2">  1       21 0.10959387E+00 0.31585306E+03</pdfrwt>
<totfact> 0.15010088E+05</totfact>
</mgrwt>
</event>
<event>
 8    1  0.9400004E-006  0.4260261E+03  0.7546771E-02  0.1035123E+00
         21   -1    0    0  504  503  0.00000000000E+00  0.00000000000E+00  0.25145321044E+03  0.25145321044E+03  0.00000000000E+00 0. -1.
         21   -1    0    0  503  504 -0.00000000000E+00 -0.00000000000E+00 -0.18044933664E+03  0.18044933664E+03  0.00000000000E+00 0. -1.
         25    2    1    2    0    0  0.44010746834E+02 -0.14983317069E+03 -0.38739792924E+02  0.20374793060E+03  0.12500209116E+03 0.  0.
         25    2    1    2    0    0 -0.44010746834E+02  0.14983317069E+03  0.10974366672E+03  0.22815461647E+03  0.12499572695E+03 0.  0.
          5    1    3    3  501    0  0.13032093151E+02 -0.11361455187E+03 -0.80724229417E+02  0.14005924840E+03  0.47000000000E+01 0. -1.
         -5    1    3    3    0  501  0.30978653683E+02 -0.36218618820E+02  0.41984436493E+02  0.63688682204E+02  0.47000000000E+01 0. -1.
          5    1    4    4  502    0 -0.29625057483E+02  0.23594937771E+02  0.92227349805E+02  0.99811518230E+02  0.47000000000E+01 0. -1.
         -5    1    4    4    0  502 -0.14385689351E+02  0.12623823291E+03  0.17516316915E+02  0.12834309824E+03  0.47000000000E+01 0. -1.
<mgrwt>
<rscale>  0 0.42602613E+03</rscale>
<asrwt>0</asrwt>
<pdfrwt beam="1">  1       21 0.38685109E-01 0.42602613E+03</pdfrwt>
<pdfrwt beam="2">  1       21 0.27761436E-01 0.42602613E+03</pdfrwt>
<totfact> 0.74430543E+04</totfact>
</mgrwt>
</event>
<event>
 8    1  0.9400004E-006  0.2834240E+03  0.7546771E-02  0.1093833E+00
         21   -1    0    0  504  503  0.00000000000E+00  0.00000000000E+00  0.34452177830E+03  0.34452177830E+03  0.00000000000E+00 0.  1.
         21   -1    0    0  503  504 -0.00000000000E+00 -0.00000000000E+00 -0.58290345816E+02  0.58290345816E+02  0.00000000000E+00 0.  1.
         25    2    1    2    0    0  0.40041616720E+02  0.53368699866E+02  0.13997023421E+03  0.19917223205E+03  0.12500544933E+03 0.  0.
         25    2    1    2    0    0 -0.40041616720E+02 -0.53368699866E+02  0.14626119828E+03  0.20363989207E+03  0.12500127329E+03 0.  0.
          5    1    3    3  501    0  0.22502237407E+02  0.79459813599E+02  0.14505255820E+03  0.16698067944E+03  0.47000000000E+01 0. -1.
         -5    1    3    3    0  501  0.17539379313E+02 -0.26091113733E+02 -0.50823239923E+01  0.32191552613E+02  0.47000000000E+01 0. -1.
          5    1    4    4  502    0 -0.28718752365E+02 -0.15523312736E+02  0.15859653677E+03  0.16198978811E+03  0.47000000000E+01 0. -1.
         -5    1    4    4    0  502 -0.11322864355E+02 -0.37845387130E+02 -0.12335338490E+02  0.41650103960E+02  0.47000000000E+01 0. -1.
<mgrwt>
<rscale>  0 0.28342402E+03</rscale>
<asrwt>0</asrwt>
<pdfrwt beam="1">  1       21 0.53003349E-01 0.28342402E+03</pdfrwt>
<pdfrwt beam="2">  1       21 0.89677457E-02 0.28342402E+03</pdfrwt>
<totfact> 0.32447951E+05</totfact>
</mgrwt>
</event>
<event>
 8    1  0.9400004E-006  0.3032897E+03  0.7546771E-02  0.1083608E+00
         21   -1    0    0  504  503  0.00000000000E+00  0.00000000000E+00  0.28774276853E+03  0.28774276853E+03  0.00000000000E+00 0. -1.
         21   -1    0    0  503  504 -0.00000000000E+00 -0.00000000000E+00 -0.79919163894E+02  0.79919163894E+02  0.00000000000E+00 0. -1.
         25    2    1    2    0    0 -0.64763229831E+02  0.39640684059E+02  0.15248830041E+03  0.21128937238E+03  0.12499942940E+03 0.  0.
         25    2    1    2    0    0  0.64763229831E+02 -0.39640684059E+02  0.55335304230E+02  0.15637256004E+03  0.12499888747E+03 0.  0.
          5    1    3    3  501    0 -0.83546089617E+02  0.30267160135E+02  0.16422575212E+03  0.18678393328E+03  0.47000000000E+01 0.  1.
         -5    1    3    3    0  501  0.18782859786E+02  0.93735239240E+01 -0.11737451717E+02  0.24505439096E+02  0.47000000000E+01 0.  1.
          5    1    4    4  502    0 -0.16919824376E+02 -0.40090390981E+02  0.60176783144E+02  0.74410047275E+02  0.47000000000E+01 0.  1.
         -5    1    4    4    0  502  0.81683054207E+02  0.44970692265E+00 -0.48414789145E+01  0.81962512767E+02  0.47000000000E+01 0.  1.
<mgrwt>
<rscale>  0 0.30328971E+03</rscale>
<asrwt>0</asrwt>
<pdfrwt beam="1">  1       21 0.44268118E-01 0.30328971E+03</pdfrwt>
<pdfrwt beam="2">  1       21 0.12295256E-01 0.30328971E+03</pdfrwt>
<totfact> 0.26804725E+05</totfact>
</mgrwt>
</event>
<event>
 8    1  0.9400004E-006  0.6604166E+03  0.7546771E-02  0.9787427E-01
         21   -1    0    0  504  503  0.00000000000E+00  0.00000000000E+00  0.13238883717E+03  0.13238883717E+03  0.00000000000E+00 0. -1.
         21   -1    0    0  503  504 -0.00000000000E+00 -0.00000000000E+00 -0.82361561402E+03  0.82361561402E+03  0.00000000000E+00 0. -1.
         25    2    1    2    0    0  0.21119398220E+03 -0.18689040045E+03 -0.17506339308E+03  0.35468858736E+03  0.12500352998E+03 0.  0.
         25    2    1    2    0    0 -0.21119398220E+03  0.18689040045E+03 -0.51616338377E+03  0.60131586383E+03  0.12500083777E+03 0.  0.
          5    1    3    3  501    0  0.45280429890E+02 -0.60030776524E+01 -0.78375745012E+02  0.90836125405E+02  0.47000000000E+01 0. -1.
         -5    1    3    3    0  501  0.16591355231E+03 -0.18088732280E+03 -0.96687648069E+02  0.26385246196E+03  0.47000000000E+01 0. -1.
          5    1    4    4  502    0  0.74990697920E+01  0.37052077752E+02 -0.34003938703E+02  0.51063199673E+02  0.47000000000E+01 0. -1.
         -5    1    4    4    0  502 -0.21869305199E+03  0.14983832270E+03 -0.48215944507E+03  0.55025266416E+03  0.47000000000E+01 0. -1.
<mgrwt>
<rscale>  0 0.66041658E+03</rscale>
<asrwt>0</asrwt>
<pdfrwt beam="1">  1       21 0.20367513E-01 0.66041658E+03</pdfrwt>
<pdfrwt beam="2">  1       21 0.12671009E+00 0.66041658E+03</pdfrwt>
<totfact> 0.86249139E+03</totfact>
</mgrwt>
</event>
<event>
 8    1  0.9400004E-006  0.3556224E+03  0.7546771E-02  0.1060331E+00
         21   -1    0    0  504  503  0.00000000000E+00  0.00000000000E+00  0.12173564334E+02  0.12173564334E+02  0.00000000000E+00 0.  1.
         21   -1    0    0  503  504 -0.00000000000E+00 -0.00000000000E+00 -0.25971712373E+04  0.25971712373E+04  0.00000000000E+00 0.  1.
         25    2    1    2    0    0  0.60898949826E+01 -0.75212722483E+02 -0.54790166873E+03  0.56702269667E+03  0.12499783798E+03 0.  0.
         25    2    1    2    0    0 -0.60898949826E+01  0.75212722483E+02 -0.20370960042E+04  0.20423221049E+04  0.12500163798E+03 0.  0.
          5    1    3    3  501    0  0.14143462319E+02 -0.10030730425E+03 -0.51357435019E+03  0.52349049274E+03  0.47000000000E+01 0.  1.
         -5    1    3    3    0  501 -0.80535673364E+01  0.25094581772E+02 -0.34327318538E+02  0.43532203932E+02  0.47000000000E+01 0.  1.
          5    1    4    4  502    0  0.56906407672E+02  0.38679130640E+02 -0.75205282303E+03  0.75520854935E+03  0.47000000000E+01 0.  1.
         -5    1    4    4    0  502 -0.62996302655E+02  0.36533591843E+02 -0.12850431812E+04  0.12871135556E+04  0.47000000000E+01 0.  1.
<mgrwt>
<rscale>  0 0.35562245E+03</rscale>
<asrwt>0</asrwt>
<pdfrwt beam="1">  1       21 0.18728548E-02 0.35562245E+03</pdfrwt>
<pdfrwt beam="2">  1       21 0.39956507E+00 0.35562245E+03</pdfrwt>
<totfact> 0.10354739E+04</totfact>
</mgrwt>
</event>
<event>
 8    1  0.9400004E-006  0.2772632E+03  0.7546771E-02  0.1097193E+00
         21   -1    0    0  504  503  0.00000000000E+00  0.00000000000E+00  0.28206430202E+03  0.28206430202E+03  0.00000000000E+00 0. -1.
         21   -1    0    0  503  504 -0.00000000000E+00 -0.00000000000E+00 -0.68135941744E+02  0.68135941744E+02  0.00000000000E+00 0. -1.
         25    2    1    2    0    0 -0.25446255065E+02 -0.53703925000E+02  0.11647148239E+03  0.18092501841E+03  0.12504652183E+03 0.  0.
         25    2    1    2    0    0  0.25446255065E+02  0.53703925000E+02  0.97456877885E+02  0.16927522535E+03  0.12499854164E+03 0.  0.
          5    1    3    3  501    0 -0.19158943180E+02 -0.73821152382E+02  0.15883138073E+02  0.78044805835E+02  0.47000000000E+01 0. -1.
         -5    1    3    3    0  501 -0.62873118857E+01  0.20117227382E+02  0.10058834431E+03  0.10288021258E+03  0.47000000000E+01 0. -1.
          5    1    4    4  502    0 -0.38888427671E+02  0.65916512756E+01 -0.42517735160E+01  0.39949058203E+02  0.47000000000E+01 0.  1.
         -5    1    4    4    0  502  0.64334682737E+02  0.47112273724E+02  0.10170865140E+03  0.12932616714E+03  0.47000000000E+01 0.  1.
<mgrwt>
<rscale>  0 0.27726317E+03</rscale>
<asrwt>0</asrwt>
<pdfrwt beam="1">  1       21 0.43394507E-01 0.27726317E+03</pdfrwt>
<pdfrwt beam="2">  1       21 0.10482453E-01 0.27726317E+03</pdfrwt>
<totfact> 0.37404531E+05</totfact>
</mgrwt>
</event>
<event>
 8    1  0.9400004E-006  0.4971515E+03  0.7546771E-02  0.1014525E+00
         21   -1    0    0  504  503  0.00000000000E+00  0.00000000000E+00  0.19080535244E+03  0.19080535244E+03  0.00000000000E+00 0. -1.
         21   -1    0    0  503  504 -0.00000000000E+00 -0.00000000000E+00 -0.32383734539E+03  0.32383734539E+03  0.00000000000E+00 0. -1.
         25    2    1    2    0    0  0.19254710728E+03 -0.94619125612E+02 -0.54339391893E+02  0.25417441470E+03  0.12499878447E+03 0.  0.
         25    2    1    2    0    0 -0.19254710728E+03  0.94619125612E+02 -0.78692601054E+02  0.26046828313E+03  0.12499613435E+03 0.  0.
          5    1    3    3  501    0  0.80742614159E+02 -0.16742100273E+02  0.36550949513E+02  0.90320150426E+02  0.47000000000E+01 0.  1.
         -5    1    3    3    0  501  0.11180449312E+03 -0.77877025339E+02 -0.90890341406E+02  0.16385426427E+03  0.47000000000E+01 0.  1.
          5    1    4    4  502    0 -0.46445295050E+02 -0.30599498774E+02 -0.18106666736E+02  0.58680798714E+02  0.47000000000E+01 0. -1.
         -5    1    4    4    0  502 -0.14610181223E+03  0.12521862439E+03 -0.60585934318E+02  0.20178748442E+03  0.47000000000E+01 0. -1.
<mgrwt>
<rscale>  0 0.49715148E+03</rscale>
<asrwt>0</asrwt>
<pdfrwt beam="1">  1       21 0.29354670E-01 0.49715148E+03</pdfrwt>
<pdfrwt beam="2">  1       21 0.49821130E-01 0.49715148E+03</pdfrwt>
<totfact> 0.38718745E+04</totfact>
</mgrwt>
</event>
<event>
 8    1  0.9400004E-006  0.3226268E+03  0.7546771E-02  0.1074447E+00
         21   -1    0    0  504  503  0.00000000000E+00  0.00000000000E+00  0.71371648962E+02  0.71371648962E+02  0.00000000000E+00 0. -1.
         21   -1    0    0  503  504 -0.00000000000E+00 -0.00000000000E+00 -0.36459864239E+03  0.36459864239E+03  0.00000000000E+00 0. -1.
         25    2    1    2    0    0 -0.98412114115E+02  0.90724753428E+01 -0.11270869702E+03  0.19517970421E+03  0.12499845014E+03 0.  0.
         25    2    1    2    0    0  0.98412114115E+02 -0.90724753428E+01 -0.18051829640E+03  0.24079058714E+03  0.12500398996E+03 0.  0.
          5    1    3    3  501    0 -0.26916429497E+02 -0.37143241024E+02  0.85989975312E+01  0.46905727679E+02  0.47000000000E+01 0.  1.
         -5    1    3    3    0  501 -0.71495684618E+02  0.46215716366E+02 -0.12130769455E+03  0.14827397653E+03  0.47000000000E+01 0.  1.
          5    1    4    4  502    0  0.11181827838E+03 -0.22517107752E+02 -0.82525516257E+02  0.14086482299E+03  0.47000000000E+01 0.  1.
         -5    1    4    4    0  502 -0.13406164265E+02  0.13444632410E+02 -0.97992780144E+02  0.99925764151E+02  0.47000000000E+01 0.  1.
<mgrwt>
<rscale>  0 0.32262676E+03</rscale>
<asrwt>0</asrwt>
<pdfrwt beam="1">  1       21 0.10980253E-01 0.32262676E+03</pdfrwt>
<pdfrwt beam="2">  1       21 0.56092100E-01 0.32262676E+03</pdfrwt>
<totfact> 0.19872668E+05</totfact>
</mgrwt>
</event>
<event>
 8    1  0.9400004E-006  0.2999369E+03  0.7546771E-02  0.1085272E+00
         21   -1    0    0  504  503  0.00000000000E+00  0.00000000000E+00  0.37945910039E+02  0.37945910039E+02  0.00000000000E+00 0. -1.
         21   -1    0    0  503  504 -0.00000000000E+00 -0.00000000000E+00 -0.59269997007E+03  0.59269997007E+03  0.00000000000E+00 0. -1.
         25    2    1    2    0    0 -0.34249622667E+01  0.29888123865E+02 -0.11507270858E+03  0.17254575196E+03  0.12500111178E+03 0.  0.
         25    2    1    2    0    0  0.34249622667E+01 -0.29888123865E+02 -0.43968135146E+03  0.45810012815E+03  0.12502402281E+03 0.  0.
          5    1    3    3  501    0  0.35536608830E+02  0.65644049037E+02 -0.75971659495E+02  0.10661038780E+03  0.47000000000E+01 0.  1.
         -5    1    3    3    0  501 -0.38961571096E+02 -0.35755925172E+02 -0.39101049082E+02  0.65935364157E+02  0.47000000000E+01 0.  1.
          5    1    4    4  502    0 -0.20476890216E+02 -0.19859582293E+02 -0.14939322478E+02  0.32541963645E+02  0.47000000000E+01 0.  1.
         -5    1    4    4    0  502  0.23901852483E+02 -0.10028541572E+02 -0.42474202898E+03  0.42555816451E+03  0.47000000000E+01 0.  1.
<mgrwt>
<rscale>  0 0.29993693E+03</rscale>
<asrwt>0</asrwt>
<pdfrwt beam="1">  1       21 0.58378331E-02 0.29993693E+03</pdfrwt>
<pdfrwt beam="2">  1       21 0.91184598E-01 0.29993693E+03</pdfrwt>
<totfact> 0.20413459E+05</totfact>
</mgrwt>
</event>
<event>
 8    1  0.9400004E-006  0.3043671E+03  0.7546771E-02  0.1083078E+00
         21   -1    0    0  504  503  0.00000000000E+00  0.00000000000E+00  0.18553130378E+03  0.18553130378E+03  0.00000000000E+00 0.  1.
         21   -1    0    0  503  504 -0.00000000000E+00 -0.00000000000E+00 -0.12482974611E+03  0.12482974611E+03  0.00000000000E+00 0.  1.
         25    2    1    2    0    0 -0.43042253439E+02  0.69236809120E+02 -0.41036608158E-01  0.14923229599E+03  0.12499562058E+03 0.  0.
         25    2    1    2    0    0  0.43042253439E+02 -0.69236809120E+02  0.60742594271E+02  0.16112875390E+03  0.12500576490E+03 0.  0.
          5    1    3    3  501    0 -0.32541224343E+02  0.50251848030E+02  0.60200021042E+02  0.85031241585E+02  0.47000000000E+01 0. -1.
         -5    1    3    3    0  501 -0.10501029097E+02  0.18984961090E+02 -0.60241057650E+02  0.64201054403E+02  0.47000000000E+01 0. -1.
          5    1    4    4  502    0  0.49132128119E+02 -0.36895027765E+02  0.95100846082E+02  0.11332021008E+03  0.47000000000E+01 0. -1.
         -5    1    4    4    0  502 -0.60898746800E+01 -0.32341781355E+02 -0.34358251811E+02  0.47808543821E+02  0.47000000000E+01 0. -1.
<mgrwt>
<rscale>  0 0.30436705E+03</rscale>
<asrwt>0</asrwt>
<pdfrwt beam="1">  1       21 0.28543278E-01 0.30436705E+03</pdfrwt>
<pdfrwt beam="2">  1       21 0.19204576E-01 0.30436705E+03</pdfrwt>
<totfact> 0.28475239E+05</totfact>
</mgrwt>
</event>
<event>
 8    1  0.9400004E-006  0.2683794E+03  0.7546771E-02  0.1102211E+00
         21   -1    0    0  504  503  0.00000000000E+00  0.00000000000E+00  0.42141859476E+02  0.42141859476E+02  0.00000000000E+00 0.  1.
         21   -1    0    0  503  504 -0.00000000000E+00 -0.00000000000E+00 -0.42729197801E+03  0.42729197801E+03  0.00000000000E+00 0.  1.
         25    2    1    2    0    0 -0.35195573537E+02  0.33815447581E+02 -0.19317359148E+03  0.23520937952E+03  0.12500081150E+03 0.  0.
         25    2    1    2    0    0  0.35195573537E+02 -0.33815447581E+02 -0.19197652706E+03  0.23422445797E+03  0.12499558744E+03 0.  0.
          5    1    3    3  501    0 -0.33051878078E+02 -0.39857292219E+02 -0.41546303159E+02  0.66552353029E+02  0.47000000000E+01 0. -1.
         -5    1    3    3    0  501 -0.21436954595E+01  0.73672739800E+02 -0.15162728832E+03  0.16865702649E+03  0.47000000000E+01 0. -1.
          5    1    4    4  502    0  0.38031202608E+02  0.51769268198E+01 -0.19095864173E+03  0.19483445741E+03  0.47000000000E+01 0.  1.
         -5    1    4    4    0  502 -0.28356290708E+01 -0.38992374401E+02 -0.10178853248E+01  0.39390000561E+02  0.47000000000E+01 0.  1.
<mgrwt>
<rscale>  0 0.26837942E+03</rscale>
<asrwt>0</asrwt>
<pdfrwt beam="1">  1       21 0.64833630E-02 0.26837942E+03</pdfrwt>
<pdfrwt beam="2">  1       21 0.65737227E-01 0.26837942E+03</pdfrwt>
<totfact> 0.36057937E+05</totfact>
</mgrwt>
</event>
<event>
 8    1  0.9400004E-006  0.2848920E+03  0.7546771E-02  0.1093047E+00
         21   -1    0    0  504  503  0.00000000000E+00  0.00000000000E+00  0.80883217508E+02  0.80883217508E+02  0.00000000000E+00 0. -1.
         21   -1    0    0  503  504 -0.00000000000E+00 -0.00000000000E+00 -0.25086611873E+03  0.25086611873E+03  0.00000000000E+00 0. -1.
         25    2    1    2    0    0 -0.41076153830E+01 -0.42680320777E+02 -0.23052352703E+02  0.13413435921E+03  0.12498853176E+03 0.  0.
         25    2    1    2    0    0  0.41076153830E+01  0.42680320777E+02 -0.14693054852E+03  0.19761497703E+03  0.12499844307E+03 0.  0.
          5    1    3    3  501    0  0.47667508463E+02 -0.16446545514E+02 -0.48922572340E+02  0.70414404114E+02  0.47000000000E+01 0. -1.
         -5    1    3    3    0  501 -0.51775123846E+02 -0.26233775263E+02  0.25870219637E+02  0.63719955100E+02  0.47000000000E+01 0. -1.
          5    1    4    4  502    0  0.59701301601E+01  0.79508739473E+02 -0.51079068317E+02  0.94807401223E+02  0.47000000000E+01 0. -1.
         -5    1    4    4    0  502 -0.18625147771E+01 -0.36828418695E+02 -0.95851480206E+02  0.10280757580E+03  0.47000000000E+01 0. -1.
<mgrwt>
<rscale>  0 0.28489197E+03</rscale>
<asrwt>0</asrwt>
<pdfrwt beam="1">  1       21 0.12443572E-01 0.28489197E+03</pdfrwt>
<pdfrwt beam="2">  1       21 0.38594787E-01 0.28489197E+03</pdfrwt>
<totfact> 0.34872379E+05</totfact>
</mgrwt>
</event>
<event>
 8    1  0.9400004E-006  0.2759777E+03  0.7546771E-02  0.1097906E+00
         21   -1    0    0  504  503  0.00000000000E+00  0.00000000000E+00  0.19441447800E+03  0.19441447800E+03  0.00000000000E+00 0. -1.
         21   -1    0    0  503  504 -0.00000000000E+00 -0.00000000000E+00 -0.97939826630E+02  0.97939826630E+02  0.00000000000E+00 0. -1.
         25    2    1    2    0    0 -0.50088825356E+02  0.29694233077E+02  0.43336547503E+02  0.14454535493E+03  0.12499866151E+03 0.  0.
         25    2    1    2    0    0  0.50088825356E+02 -0.29694233077E+02  0.53138103871E+02  0.14780894970E+03  0.12503275421E+03 0.  0.
          5    1    3    3  501    0 -0.53924302992E+02 -0.18914126418E+02 -0.23257327670E+02  0.61875422598E+02  0.47000000000E+01 0. -1.
         -5    1    3    3    0  501  0.38354776360E+01  0.48608359495E+02  0.66593875173E+02  0.82669932334E+02  0.47000000000E+01 0. -1.
          5    1    4    4  502    0  0.35539447430E+02  0.45169071292E+02  0.58762462636E+01  0.57964796171E+02  0.47000000000E+01 0.  1.
         -5    1    4    4    0  502  0.14549377927E+02 -0.74863304369E+02  0.47261857607E+02  0.89844153530E+02  0.47000000000E+01 0.  1.
<mgrwt>
<rscale>  0 0.27597768E+03</rscale>
<asrwt>0</asrwt>
<pdfrwt beam="1">  1       21 0.29909920E-01 0.27597768E+03</pdfrwt>
<pdfrwt beam="2">  1       21 0.15067666E-01 0.27597768E+03</pdfrwt>
<totfact> 0.40987892E+05</totfact>
</mgrwt>
</event>
<event>
 8    1  0.9400004E-006  0.3470232E+03  0.7546771E-02  0.1063844E+00
         21   -1    0    0  504  503  0.00000000000E+00  0.00000000000E+00  0.18165550008E+03  0.18165550008E+03  0.00000000000E+00 0.  1.
         21   -1    0    0  503  504 -0.00000000000E+00 -0.00000000000E+00 -0.16573279383E+03  0.16573279383E+03  0.00000000000E+00 0.  1.
         25    2    1    2    0    0 -0.16185563995E+02  0.24290934200E+02  0.12483910805E+03  0.17903241424E+03  0.12496311649E+03 0.  0.
         25    2    1    2    0    0  0.16185563995E+02 -0.24290934200E+02 -0.10891640181E+03  0.16835587967E+03  0.12501558971E+03 0.  0.
          5    1    3    3  501    0 -0.28501747420E+02  0.68767847055E+02  0.10447876421E+03  0.12837160342E+03  0.47000000000E+01 0. -1.
         -5    1    3    3    0  501  0.12316183425E+02 -0.44476912854E+02  0.20360343848E+02  0.50660810819E+02  0.47000000000E+01 0. -1.
          5    1    4    4  502    0  0.12538979807E+02 -0.22261079443E+02 -0.13706954324E+03  0.13950961026E+03  0.47000000000E+01 0. -1.
         -5    1    4    4    0  502  0.36465841881E+01 -0.20298547575E+01  0.28153141426E+02  0.28846269407E+02  0.47000000000E+01 0. -1.
<mgrwt>
<rscale>  0 0.34702319E+03</rscale>
<asrwt>0</asrwt>
<pdfrwt beam="1">  1       21 0.27947000E-01 0.34702319E+03</pdfrwt>
<pdfrwt beam="2">  1       21 0.25497353E-01 0.34702319E+03</pdfrwt>
<totfact> 0.17129733E+05</totfact>
</mgrwt>
</event>
<event>
 8    1  0.9400004E-006  0.3183694E+03  0.7546771E-02  0.1076402E+00
         21   -1    0    0  504  503  0.00000000000E+00  0.00000000000E+00  0.59358038733E+03  0.59358038733E+03  0.00000000000E+00 0. -1.
         21   -1    0    0  503  504 -0.00000000000E+00 -0.00000000000E+00 -0.42689708221E+02  0.42689708221E+02  0.00000000000E+00 0. -1.
         25    2    1    2    0    0 -0.57460057697E+01  0.94415204588E+02  0.33091322272E+03  0.36615818628E+03  0.12498403485E+03 0.  0.
         25    2    1    2    0    0  0.57460057697E+01 -0.94415204588E+02  0.21997745639E+03  0.27011190927E+03  0.12499245886E+03 0.  0.
          5    1    3    3  501    0 -0.43093017661E+02 -0.98908286608E+01  0.11799121286E+03  0.12609065380E+03  0.47000000000E+01 0. -1.
         -5    1    3    3    0  501  0.37347011891E+02  0.10430603325E+03  0.21292200986E+03  0.24006753248E+03  0.47000000000E+01 0. -1.
          5    1    4    4  502    0  0.36410952330E+02 -0.60582873117E+02  0.21199881718E+03  0.22352098437E+03  0.47000000000E+01 0. -1.
         -5    1    4    4    0  502 -0.30664946560E+02 -0.33832331471E+02  0.79786392086E+01  0.46590924910E+02  0.47000000000E+01 0. -1.
<mgrwt>
<rscale>  0 0.31836943E+03</rscale>
<asrwt>0</asrwt>
<pdfrwt beam="1">  1       21 0.91320053E-01 0.31836943E+03</pdfrwt>
<pdfrwt beam="2">  1       21 0.65676479E-02 0.31836943E+03</pdfrwt>
<totfact> 0.16513207E+05</totfact>
</mgrwt>
</event>
<event>
 8    1  0.9400004E-006  0.4494465E+03  0.7546771E-02  0.1027887E+00
         21   -1    0    0  504  503  0.00000000000E+00  0.00000000000E+00  0.35163032310E+03  0.35163032310E+03  0.00000000000E+00 0.  1.
         21   -1    0    0  503  504 -0.00000000000E+00 -0.00000000000E+00 -0.14361824437E+03  0.14361824437E+03  0.00000000000E+00 0.  1.
         25    2    1    2    0    0 -0.84215382525E+02  0.14881559739E+03  0.21280895063E+02  0.21287990429E+03  0.12500665772E+03 0.  0.
         25    2    1    2    0    0  0.84215382525E+02 -0.14881559739E+03  0.18673118367E+03  0.28236866318E+03  0.12500085724E+03 0.  0.
          5    1    3    3  501    0 -0.70239062614E+02  0.15816135160E+02 -0.16134844041E+02  0.73933072711E+02  0.47000000000E+01 0. -1.
         -5    1    3    3    0  501 -0.13976319911E+02  0.13299946223E+03  0.37415739104E+02  0.13894683158E+03  0.47000000000E+01 0. -1.
          5    1    4    4  502    0  0.45788003819E+02 -0.20447410093E+02 -0.25271651834E+01  0.50429301374E+02  0.47000000000E+01 0. -1.
         -5    1    4    4    0  502  0.38427378706E+02 -0.12836818730E+03  0.18925834885E+03  0.23193936181E+03  0.47000000000E+01 0. -1.
<mgrwt>
<rscale>  0 0.44944646E+03</rscale>
<asrwt>0</asrwt>
<pdfrwt beam="1">  1       21 0.54096973E-01 0.44944646E+03</pdfrwt>
<pdfrwt beam="2">  1       21 0.22095115E-01 0.44944646E+03</pdfrwt>
<totfact> 0.57092338E+04</totfact>
</mgrwt>
</event>
<event>
 8    1  0.9400004E-006  0.3045297E+03  0.7546771E-02  0.1082998E+00
         21   -1    0    0  504  503  0.00000000000E+00  0.00000000000E+00  0.32484801576E+03  0.32484801576E+03  0.00000000000E+00 0. -1.
         21   -1    0    0  503  504 -0.00000000000E+00 -0.00000000000E+00 -0.71370574335E+02  0.71370574335E+02  0.00000000000E+00 0. -1.
         25    2    1    2    0    0  0.54365927597E+02 -0.42607265433E+01  0.21484702953E+03  0.25447608670E+03  0.12500009893E+03 0.  0.
         25    2    1    2    0    0 -0.54365927597E+02  0.42607265433E+01  0.38630411903E+02  0.14174250340E+03  0.12499928268E+03 0.  0.
          5    1    3    3  501    0 -0.47878062850E+01  0.44951930144E+02  0.13934613902E+03  0.14657092335E+03  0.47000000000E+01 0.  1.
         -5    1    3    3    0  501  0.59153733882E+02 -0.49212656688E+02  0.75500890511E+02  0.10790516335E+03  0.47000000000E+01 0.  1.
          5    1    4    4  502    0 -0.18741125982E+00  0.58456090862E+02  0.25067184863E+02  0.63777766023E+02  0.47000000000E+01 0. -1.
         -5    1    4    4    0  502 -0.54178516337E+02 -0.54195364319E+02  0.13563227040E+02  0.77964737375E+02  0.47000000000E+01 0. -1.
<mgrwt>
<rscale>  0 0.30452973E+03</rscale>
<asrwt>0</asrwt>
<pdfrwt beam="1">  1       21 0.49976617E-01 0.30452973E+03</pdfrwt>
<pdfrwt beam="2">  1       21 0.10980089E-01 0.30452973E+03</pdfrwt>
<totfact> 0.25504900E+05</totfact>
</mgrwt>
</event>
<event>
 8    1  0.9400004E-006  0.3132343E+03  0.7546771E-02  0.1078806E+00
         21   -1    0    0  504  503  0.00000000000E+00  0.00000000000E+00  0.45888387764E+02  0.45888387764E+02  0.00000000000E+00 0. -1.
         21   -1    0    0  503  504 -0.00000000000E+00 -0.00000000000E+00 -0.53453475425E+03  0.53453475425E+03  0.00000000000E+00 0. -1.
         25    2    1    2    0    0  0.53070198906E+02 -0.32815147470E+02 -0.11317478241E+03  0.17979738683E+03  0.12500115608E+03 0.  0.
         25    2    1    2    0    0 -0.53070198906E+02  0.32815147470E+02 -0.37547158408E+03  0.40062575519E+03  0.12501522048E+03 0.  0.
          5    1    3    3  501    0  0.85228351432E+01 -0.65127447697E+02 -0.10503183467E+03  0.12396773555E+03  0.47000000000E+01 0.  1.
         -5    1    3    3    0  501  0.44547363763E+02  0.32312300227E+02 -0.81429477330E+01  0.55829651279E+02  0.47000000000E+01 0.  1.
          5    1    4    4  502    0 -0.56002860438E+02 -0.35227900485E+01 -0.35317148009E+03  0.35763237378E+03  0.47000000000E+01 0.  1.
         -5    1    4    4    0  502  0.29326615320E+01  0.36337937519E+02 -0.22300103992E+02  0.42993381407E+02  0.47000000000E+01 0.  1.
<mgrwt>
<rscale>  0 0.31323434E+03</rscale>
<asrwt>0</asrwt>
<pdfrwt beam="1">  1       21 0.70597516E-02 0.31323434E+03</pdfrwt>
<pdfrwt beam="2">  1       21 0.82236120E-01 0.31323434E+03</pdfrwt>
<totfact> 0.18603989E+05</totfact>
</mgrwt>
</event>
<event>
 8    1  0.9400004E-006  0.3972301E+03  0.7546771E-02  0.1044743E+00
         21   -1    0    0  504  503  0.00000000000E+00  0.00000000000E+00  0.17338770254E+03  0.17338770254E+03  0.00000000000E+00 0. -1.
         21   -1    0    0  503  504 -0.00000000000E+00 -0.00000000000E+00 -0.22751285969E+03  0.22751285969E+03  0.00000000000E+00 0. -1.
         25    2    1    2    0    0 -0.61262680296E+02  0.39705883476E+02  0.11014480831E+03  0.18189713379E+03  0.12500006122E+03 0.  0.
         25    2    1    2    0    0  0.61262680296E+02 -0.39705883476E+02 -0.16426996547E+03  0.21900342844E+03  0.12509279328E+03 0.  0.
          5    1    3    3  501    0 -0.26937700881E+02  0.26472213919E+02 -0.22467802593E+02  0.44196266718E+02  0.47000000000E+01 0. -1.
         -5    1    3    3    0  501 -0.34324979415E+02  0.13233669558E+02  0.13261261091E+03  0.13770086708E+03  0.47000000000E+01 0. -1.
          5    1    4    4  502    0 -0.17211469516E+02  0.31218342632E+02 -0.62722980823E+02  0.72298561001E+02  0.47000000000E+01 0. -1.
         -5    1    4    4    0  502  0.78474149811E+02 -0.70924226108E+02 -0.10154698465E+03  0.14670486743E+03  0.47000000000E+01 0. -1.
<mgrwt>
<rscale>  0 0.39723007E+03</rscale>
<asrwt>0</asrwt>
<pdfrwt beam="1">  1       21 0.26675031E-01 0.39723007E+03</pdfrwt>
<pdfrwt beam="2">  1       21 0.35001979E-01 0.39723007E+03</pdfrwt>
<totfact> 0.99236651E+04</totfact>
</mgrwt>
</event>
<event>
 8    1  0.9400004E-006  0.3193291E+03  0.7546771E-02  0.1075958E+00
         21   -1    0    0  504  503  0.00000000000E+00  0.00000000000E+00  0.31353280320E+02  0.31353280320E+02  0.00000000000E+00 0. -1.
         21   -1    0    0  503  504 -0.00000000000E+00 -0.00000000000E+00 -0.81308162701E+03  0.81308162701E+03  0.00000000000E+00 0. -1.
         25    2    1    2    0    0  0.30630427808E+02 -0.93950038088E+02 -0.41773114949E+03  0.44708905447E+03  0.12499790642E+03 0.  0.
         25    2    1    2    0    0 -0.30630427808E+02  0.93950038088E+02 -0.36399719719E+03  0.39734585285E+03  0.12499973780E+03 0.  0.
          5    1    3    3  501    0 -0.95248791932E+01 -0.84386088188E+02 -0.38476569667E+03  0.39405388786E+03  0.47000000000E+01 0.  1.
         -5    1    3    3    0  501  0.40155307001E+02 -0.95639498998E+01 -0.32965452825E+02  0.53035166616E+02  0.47000000000E+01 0.  1.
          5    1    4    4  502    0 -0.10942240933E+02  0.34292510464E+02 -0.31617689140E+03  0.31825402678E+03  0.47000000000E+01 0. -1.
         -5    1    4    4    0  502 -0.19688186874E+02  0.59657527624E+02 -0.47820305798E+02  0.79091826071E+02  0.47000000000E+01 0. -1.
<mgrwt>
<rscale>  0 0.31932915E+03</rscale>
<asrwt>0</asrwt>
<pdfrwt beam="1">  1       21 0.48235818E-02 0.31932915E+03</pdfrwt>
<pdfrwt beam="2">  1       21 0.12508947E+00 0.31932915E+03</pdfrwt>
<totfact> 0.13026998E+05</totfact>
</mgrwt>
</event>
<event>
 8    1  0.9400004E-006  0.3743166E+03  0.7546771E-02  0.1053055E+00
         21   -1    0    0  504  503  0.00000000000E+00  0.00000000000E+00  0.65202743467E+02  0.65202743467E+02  0.00000000000E+00 0.  1.
         21   -1    0    0  503  504 -0.00000000000E+00 -0.00000000000E+00 -0.53722024547E+03  0.53722024547E+03  0.00000000000E+00 0.  1.
         25    2    1    2    0    0  0.76804933550E+02  0.11355181858E+03 -0.19603298401E+03  0.26987638327E+03  0.12494526045E+03 0.  0.
         25    2    1    2    0    0 -0.76804933550E+02 -0.11355181858E+03 -0.27598451799E+03  0.33254660567E+03  0.12500710959E+03 0.  0.
          5    1    3    3  501    0  0.10688477974E+03  0.10601066995E+03 -0.13984490568E+03  0.20552689831E+03  0.47000000000E+01 0. -1.
         -5    1    3    3    0  501 -0.30079846187E+02  0.75411486303E+01 -0.56188078325E+02  0.64349484964E+02  0.47000000000E+01 0. -1.
          5    1    4    4  502    0 -0.48820400375E+01 -0.10830077378E+03 -0.12761399408E+03  0.16751212912E+03  0.47000000000E+01 0.  1.
         -5    1    4    4    0  502 -0.71922893512E+02 -0.52510447946E+01 -0.14837052391E+03  0.16503447655E+03  0.47000000000E+01 0.  1.
<mgrwt>
<rscale>  0 0.37431662E+03</rscale>
<asrwt>0</asrwt>
<pdfrwt beam="1">  1       21 0.10031192E-01 0.37431662E+03</pdfrwt>
<pdfrwt beam="2">  1       21 0.82649264E-01 0.37431662E+03</pdfrwt>
<totfact> 0.97396365E+04</totfact>
</mgrwt>
</event>
<event>
 8    1  0.9400004E-006  0.2988680E+03  0.7546771E-02  0.1085808E+00
         21   -1    0    0  504  503  0.00000000000E+00  0.00000000000E+00  0.22863243900E+03  0.22863243900E+03  0.00000000000E+00 0. -1.
         21   -1    0    0  503  504 -0.00000000000E+00 -0.00000000000E+00 -0.97669987804E+02  0.97669987804E+02  0.00000000000E+00 0. -1.
         25    2    1    2    0    0 -0.31336308794E+02 -0.44703094799E+02 -0.11519666922E+01  0.13640702691E+03  0.12500087611E+03 0.  0.
         25    2    1    2    0    0  0.31336308794E+02  0.44703094799E+02  0.13211441788E+03  0.18989539989E+03  0.12500285019E+03 0.  0.
          5    1    3    3  501    0 -0.35720390912E+02 -0.31718238337E+01 -0.56394610464E+02  0.66995887059E+02  0.47000000000E+01 0.  1.
         -5    1    3    3    0  501  0.43840821185E+01 -0.41531270966E+02  0.55242643772E+02  0.69411139848E+02  0.47000000000E+01 0.  1.
          5    1    4    4  502    0  0.59551261814E+02  0.33947387839E+02  0.14202296011E+03  0.15777005141E+03  0.47000000000E+01 0.  1.
         -5    1    4    4    0  502 -0.28214953020E+02  0.10755706961E+02 -0.99085422229E+01  0.32125348483E+02  0.47000000000E+01 0.  1.
<mgrwt>
<rscale>  0 0.29886805E+03</rscale>
<asrwt>0</asrwt>
<pdfrwt beam="1">  1       21 0.35174221E-01 0.29886805E+03</pdfrwt>
<pdfrwt beam="2">  1       21 0.15026152E-01 0.29886805E+03</pdfrwt>
<totfact> 0.29728303E+05</totfact>
</mgrwt>
</event>
<event>
 8    1  0.9400004E-006  0.3550081E+03  0.7546771E-02  0.1060578E+00
         21   -1    0    0  504  503  0.00000000000E+00  0.00000000000E+00  0.11929796679E+03  0.11929796679E+03  0.00000000000E+00 0.  1.
         21   -1    0    0  503  504 -0.00000000000E+00 -0.00000000000E+00 -0.26410912472E+03  0.26410912472E+03  0.00000000000E+00 0.  1.
         25    2    1    2    0    0 -0.63802987031E+02 -0.56550165138E+02  0.27831839764E+02  0.15384588565E+03  0.12500081157E+03 0.  0.
         25    2    1    2    0    0  0.63802987031E+02  0.56550165138E+02 -0.17264299769E+03  0.22956120586E+03  0.12499600095E+03 0.  0.
          5    1    3    3  501    0 -0.12300860441E+02 -0.75013149311E+02  0.53656719541E+02  0.93163390283E+02  0.47000000000E+01 0.  1.
         -5    1    3    3    0  501 -0.51502126591E+02  0.18462984173E+02 -0.25824879777E+02  0.60682495362E+02  0.47000000000E+01 0.  1.
          5    1    4    4  502    0  0.23025391099E+02  0.97286537236E+01 -0.16485932268E+03  0.16680977673E+03  0.47000000000E+01 0. -1.
         -5    1    4    4    0  502  0.40777595932E+02  0.46821511414E+02 -0.77836750071E+01  0.62751429129E+02  0.47000000000E+01 0. -1.
<mgrwt>
<rscale>  0 0.35500807E+03</rscale>
<asrwt>0</asrwt>
<pdfrwt beam="1">  1       21 0.18353533E-01 0.35500807E+03</pdfrwt>
<pdfrwt beam="2">  1       21 0.40632173E-01 0.35500807E+03</pdfrwt>
<totfact> 0.15123465E+05</totfact>
</mgrwt>
</event>
<event>
 8    1  0.9400004E-006  0.3658126E+03  0.7546771E-02  0.1056306E+00
         21   -1    0    0  504  503  0.00000000000E+00  0.00000000000E+00  0.68324077663E+02  0.68324077663E+02  0.00000000000E+00 0.  1.
         21   -1    0    0  503  504 -0.00000000000E+00 -0.00000000000E+00 -0.48964756013E+03  0.48964756013E+03  0.00000000000E+00 0.  1.
         25    2    1    2    0    0 -0.35111987437E+02 -0.12852404647E+03 -0.22427400886E+03  0.28926049997E+03  0.12498609366E+03 0.  0.
         25    2    1    2    0    0  0.35111987437E+02  0.12852404647E+03 -0.19704947361E+03  0.26871113783E+03  0.12500359338E+03 0.  0.
          5    1    3    3  501    0 -0.70472064626E+02 -0.69214072560E+02 -0.18477252346E+03  0.20957069251E+03  0.47000000000E+01 0.  1.
         -5    1    3    3    0  501  0.35360077189E+02 -0.59309973914E+02 -0.39501485402E+02  0.79689807463E+02  0.47000000000E+01 0.  1.
          5    1    4    4  502    0 -0.31195394742E+02  0.10589847780E+03 -0.10078047986E+03  0.14955412189E+03  0.47000000000E+01 0.  1.
         -5    1    4    4    0  502  0.66307382180E+02  0.22625568676E+02 -0.96268993748E+02  0.11915701594E+03  0.47000000000E+01 0.  1.
<mgrwt>
<rscale>  0 0.36581262E+03</rscale>
<asrwt>0</asrwt>
<pdfrwt beam="1">  1       21 0.10511397E-01 0.36581262E+03</pdfrwt>
<pdfrwt beam="2">  1       21 0.75330393E-01 0.36581262E+03</pdfrwt>
<totfact> 0.11098644E+05</totfact>
</mgrwt>
</event>
<event>
 8    1  0.9400004E-006  0.3606672E+03  0.7546771E-02  0.1058320E+00
         21   -1    0    0  504  503  0.00000000000E+00  0.00000000000E+00  0.75938177149E+02  0.75938177149E+02  0.00000000000E+00 0. -1.
         21   -1    0    0  503  504 -0.00000000000E+00 -0.00000000000E+00 -0.42824577287E+03  0.42824577287E+03  0.00000000000E+00 0. -1.
         25    2    1    2    0    0 -0.96564841236E+02  0.79981649238E+02 -0.22403656634E+03  0.28555162589E+03  0.12500206083E+03 0.  0.
         25    2    1    2    0    0  0.96564841236E+02 -0.79981649238E+02 -0.12827102938E+03  0.21863232413E+03  0.12499921359E+03 0.  0.
          5    1    3    3  501    0 -0.73694955815E+02 -0.17826387612E+02 -0.85576822828E+02  0.11442993146E+03  0.47000000000E+01 0.  1.
         -5    1    3    3    0  501 -0.22869885421E+02  0.97808036850E+02 -0.13845974351E+03  0.17112169443E+03  0.47000000000E+01 0.  1.
          5    1    4    4  502    0  0.85287939915E+02 -0.10551094009E+03 -0.67529714206E+02  0.15162105221E+03  0.47000000000E+01 0.  1.
         -5    1    4    4    0  502  0.11276901322E+02  0.25529290852E+02 -0.60741315179E+02  0.67011271921E+02  0.47000000000E+01 0.  1.
<mgrwt>
<rscale>  0 0.36066718E+03</rscale>
<asrwt>0</asrwt>
<pdfrwt beam="1">  1       21 0.11682796E-01 0.36066718E+03</pdfrwt>
<pdfrwt beam="2">  1       21 0.65883966E-01 0.36066718E+03</pdfrwt>
<totfact> 0.12403260E+05</totfact>
</mgrwt>
</event>
<event>
 8    1  0.9400004E-006  0.4298486E+03  0.7546771E-02  0.1033908E+00
         21   -1    0    0  504  503  0.00000000000E+00  0.00000000000E+00  0.45128585848E+03  0.45128585848E+03  0.00000000000E+00 0. -1.
         21   -1    0    0  503  504 -0.00000000000E+00 -0.00000000000E+00 -0.10235741415E+03  0.10235741415E+03  0.00000000000E+00 0. -1.
         25    2    1    2    0    0 -0.15057464871E+03 -0.62455356063E+02  0.93060726268E+02  0.22550772345E+03  0.12498015134E+03 0.  0.
         25    2    1    2    0    0  0.15057464871E+03  0.62455356063E+02  0.25586771806E+03  0.32813554917E+03  0.12502501009E+03 0.  0.
          5    1    3    3  501    0 -0.18882886311E+02 -0.22869170132E+02  0.82169531868E+02  0.87484194604E+02  0.47000000000E+01 0. -1.
         -5    1    3    3    0  501 -0.13169176240E+03 -0.39586185931E+02  0.10891194399E+02  0.13802352885E+03  0.47000000000E+01 0. -1.
          5    1    4    4  502    0  0.14364868388E+02 -0.64482170740E+01 -0.11617190895E+02  0.20124066973E+02  0.47000000000E+01 0.  1.
         -5    1    4    4    0  502  0.13620978032E+03  0.68903573137E+02  0.26748490896E+03  0.30801148220E+03  0.47000000000E+01 0.  1.
<mgrwt>
<rscale>  0 0.42984859E+03</rscale>
<asrwt>0</asrwt>
<pdfrwt beam="1">  1       21 0.69428592E-01 0.42984859E+03</pdfrwt>
<pdfrwt beam="2">  1       21 0.15747295E-01 0.42984859E+03</pdfrwt>
<totfact> 0.62830139E+04</totfact>
</mgrwt>
</event>
<event>
 8    1  0.9400004E-006  0.4580637E+03  0.7546771E-02  0.1025344E+00
         21   -1    0    0  504  503  0.00000000000E+00  0.00000000000E+00  0.55149927420E+03  0.55149927420E+03  0.00000000000E+00 0.  1.
         21   -1    0    0  503  504 -0.00000000000E+00 -0.00000000000E+00 -0.95114531198E+02  0.95114531198E+02  0.00000000000E+00 0.  1.
         25    2    1    2    0    0  0.14984968668E+03 -0.60381004843E+02  0.37440912870E+03  0.42650487440E+03  0.12499367139E+03 0.  0.
         25    2    1    2    0    0 -0.14984968668E+03  0.60381004843E+02  0.81975614306E+02  0.22010893100E+03  0.12500858299E+03 0.  0.
          5    1    3    3  501    0  0.50529267990E+02 -0.36585135920E+02  0.28146245913E+03  0.28833120711E+03  0.47000000000E+01 0. -1.
         -5    1    3    3    0  501  0.99320418694E+02 -0.23795868923E+02  0.92946669564E+02  0.13817366728E+03  0.47000000000E+01 0. -1.
          5    1    4    4  502    0 -0.56174041826E+02  0.79154503104E+02  0.77595611954E+02  0.12435484442E+03  0.47000000000E+01 0. -1.
         -5    1    4    4    0  502 -0.93675644858E+02 -0.18773498261E+02  0.43800023516E+01  0.95754086582E+02  0.47000000000E+01 0. -1.
<mgrwt>
<rscale>  0 0.45806373E+03</rscale>
<asrwt>0</asrwt>
<pdfrwt beam="1">  1       21 0.84846040E-01 0.45806373E+03</pdfrwt>
<pdfrwt beam="2">  1       21 0.14633005E-01 0.45806373E+03</pdfrwt>
<totfact> 0.45191912E+04</totfact>
</mgrwt>
</event>
<event>
 8    1  0.9400004E-006  0.2680183E+03  0.7546771E-02  0.1102419E+00
         21   -1    0    0  504  503  0.00000000000E+00  0.00000000000E+00  0.70471141164E+01  0.70471141164E+01  0.00000000000E+00 0.  1.
         21   -1    0    0  503  504 -0.00000000000E+00 -0.00000000000E+00 -0.25483421078E+04  0.25483421078E+04  0.00000000000E+00 0.  1.
         25    2    1    2    0    0  0.46999836874E+02 -0.10447461611E+02 -0.13077268133E+04  0.13145693859E+04  0.12500047193E+03 0.  0.
         25    2    1    2    0    0 -0.46999836874E+02  0.10447461611E+02 -0.12335681804E+04  0.12408198360E+04  0.12500110277E+03 0.  0.
          5    1    3    3  501    0  0.45562864673E+02 -0.64716136060E+02 -0.80782114313E+03  0.81170268091E+03  0.47000000000E+01 0.  1.
         -5    1    3    3    0  501  0.14369722009E+01  0.54268674449E+02 -0.49990567020E+03  0.50286670501E+03  0.47000000000E+01 0.  1.
          5    1    4    4  502    0 -0.31546910639E+02 -0.29120855805E+02 -0.14217572422E+03  0.14859090945E+03  0.47000000000E+01 0.  1.
         -5    1    4    4    0  502 -0.15452926235E+02  0.39568317416E+02 -0.10913924562E+04  0.10922289266E+04  0.47000000000E+01 0.  1.
<mgrwt>
<rscale>  0 0.26801834E+03</rscale>
<asrwt>0</asrwt>
<pdfrwt beam="1">  1       21 0.10841705E-02 0.26801834E+03</pdfrwt>
<pdfrwt beam="2">  1       21 0.39205296E+00 0.26801834E+03</pdfrwt>
<totfact> 0.29908233E+04</totfact>
</mgrwt>
</event>
<event>
 8    1  0.9400004E-006  0.4031599E+03  0.7546771E-02  0.1042691E+00
         21   -1    0    0  504  503  0.00000000000E+00  0.00000000000E+00  0.83353387016E+02  0.83353387016E+02  0.00000000000E+00 0.  1.
         21   -1    0    0  503  504 -0.00000000000E+00 -0.00000000000E+00 -0.48749645175E+03  0.48749645175E+03  0.00000000000E+00 0.  1.
         25    2    1    2    0    0  0.16217067856E+02 -0.24747926672E+02  0.17897709972E+02  0.12969314347E+03  0.12499812109E+03 0.  0.
         25    2    1    2    0    0 -0.16217067856E+02  0.24747926672E+02 -0.42204077471E+03  0.44115669530E+03  0.12500144450E+03 0.  0.
          5    1    3    3  501    0 -0.28496454409E+02 -0.62491817279E+02  0.19832937727E+01  0.68871609498E+02  0.47000000000E+01 0. -1.
         -5    1    3    3    0  501  0.44713522265E+02  0.37743890607E+02  0.15914416199E+02  0.60821533970E+02  0.47000000000E+01 0. -1.
          5    1    4    4  502    0 -0.65198532025E+02  0.28330565461E+02 -0.16986631024E+03  0.18420131072E+03  0.47000000000E+01 0.  1.
         -5    1    4    4    0  502  0.48981464169E+02 -0.35826387892E+01 -0.25217446447E+03  0.25695538458E+03  0.47000000000E+01 0.  1.
<mgrwt>
<rscale>  0 0.40315992E+03</rscale>
<asrwt>0</asrwt>
<pdfrwt beam="1">  1       21 0.12823598E-01 0.40315992E+03</pdfrwt>
<pdfrwt beam="2">  1       21 0.74999453E-01 0.40315992E+03</pdfrwt>
<totfact> 0.77528843E+04</totfact>
</mgrwt>
</event>
<event>
 8    1  0.9400004E-006  0.2906980E+03  0.7546771E-02  0.1089985E+00
         21   -1    0    0  504  503  0.00000000000E+00  0.00000000000E+00  0.83370585829E+02  0.83370585829E+02  0.00000000000E+00 0. -1.
         21   -1    0    0  503  504 -0.00000000000E+00 -0.00000000000E+00 -0.25340265965E+03  0.25340265965E+03  0.00000000000E+00 0. -1.
         25    2    1    2    0    0  0.68109183769E+02 -0.27151144740E+02 -0.72058293962E+02  0.16184420462E+03  0.12500041307E+03 0.  0.
         25    2    1    2    0    0 -0.68109183769E+02  0.27151144740E+02 -0.97973779864E+02  0.17492904086E+03  0.12500104888E+03 0.  0.
          5    1    3    3  501    0  0.27545329175E+02 -0.88611705619E+01  0.35092949617E+02  0.45726038708E+02  0.47000000000E+01 0. -1.
         -5    1    3    3    0  501  0.40563854594E+02 -0.18289974178E+02 -0.10715124358E+03  0.11611816592E+03  0.47000000000E+01 0. -1.
          5    1    4    4  502    0  0.25545306229E+02  0.41040010033E+02 -0.45635952781E+02  0.66645144460E+02  0.47000000000E+01 0. -1.
         -5    1    4    4    0  502 -0.93654489998E+02 -0.13888865294E+02 -0.52337827083E+02  0.10828389640E+03  0.47000000000E+01 0. -1.
<mgrwt>
<rscale>  0 0.29069798E+03</rscale>
<asrwt>0</asrwt>
<pdfrwt beam="1">  1       21 0.12826244E-01 0.29069798E+03</pdfrwt>
<pdfrwt beam="2">  1       21 0.38985025E-01 0.29069798E+03</pdfrwt>
<totfact> 0.32306091E+05</totfact>
</mgrwt>
</event>
<event>
 8    1  0.9400004E-006  0.2838534E+03  0.7546771E-02  0.1093603E+00
         21   -1    0    0  504  503  0.00000000000E+00  0.00000000000E+00  0.12272680154E+03  0.12272680154E+03  0.00000000000E+00 0. -1.
         21   -1    0    0  503  504 -0.00000000000E+00 -0.00000000000E+00 -0.16413029307E+03  0.16413029307E+03  0.00000000000E+00 0. -1.
         25    2    1    2    0    0  0.44135117177E+02  0.33035275792E+01  0.30425746731E+02  0.13605074305E+03  0.12500102703E+03 0.  0.
         25    2    1    2    0    0 -0.44135117177E+02 -0.33035275792E+01 -0.71829238262E+02  0.15080635155E+03  0.12499717731E+03 0.  0.
          5    1    3    3  501    0 -0.41094464311E+02  0.18053329069E+02  0.31779499999E+01  0.45242314858E+02  0.47000000000E+01 0. -1.
         -5    1    3    3    0  501  0.85229581489E+02 -0.14749801490E+02  0.27247796731E+02  0.90808428196E+02  0.47000000000E+01 0. -1.
          5    1    4    4  502    0  0.11864698660E+02 -0.26571392708E+02 -0.83785146260E+02  0.88819202420E+02  0.47000000000E+01 0.  1.
         -5    1    4    4    0  502 -0.55999815837E+02  0.23267865129E+02  0.11955907999E+02  0.61987149132E+02  0.47000000000E+01 0.  1.
<mgrwt>
<rscale>  0 0.28385338E+03</rscale>
<asrwt>0</asrwt>
<pdfrwt beam="1">  1       21 0.18881046E-01 0.28385338E+03</pdfrwt>
<pdfrwt beam="2">  1       21 0.25250814E-01 0.28385338E+03</pdfrwt>
<totfact> 0.37450540E+05</totfact>
</mgrwt>
</event>
<event>
 8    1  0.9400004E-006  0.2688799E+03  0.7546771E-02  0.1101922E+00
         21   -1    0    0  504  503  0.00000000000E+00  0.00000000000E+00  0.19719504144E+02  0.19719504144E+02  0.00000000000E+00 0. -1.
         21   -1    0    0  503  504 -0.00000000000E+00 -0.00000000000E+00 -0.91655957918E+03  0.91655957918E+03  0.00000000000E+00 0. -1.
         25    2    1    2    0    0  0.21284175467E+02 -0.58632956807E+01 -0.29419871549E+03  0.32041714573E+03  0.12500747466E+03 0.  0.
         25    2    1    2    0    0 -0.21284175467E+02  0.58632956807E+01 -0.60264135955E+03  0.61586193759E+03  0.12498769370E+03 0.  0.
          5    1    3    3  501    0 -0.26427981472E+02 -0.97381220410E+01 -0.25960224986E+03  0.26116792943E+03  0.47000000000E+01 0. -1.
         -5    1    3    3    0  501  0.47712156939E+02  0.38748263602E+01 -0.34596465622E+02  0.59249216304E+02  0.47000000000E+01 0. -1.
          5    1    4    4  502    0 -0.21060712482E+02  0.57654348870E+02 -0.18450127516E+03  0.19450035499E+03  0.47000000000E+01 0. -1.
         -5    1    4    4    0  502 -0.22346298507E+00 -0.51791053190E+02 -0.41814008438E+03  0.42136158260E+03  0.47000000000E+01 0. -1.
<mgrwt>
<rscale>  0 0.26887990E+03</rscale>
<asrwt>0</asrwt>
<pdfrwt beam="1">  1       21 0.30337700E-02 0.26887990E+03</pdfrwt>
<pdfrwt beam="2">  1       21 0.14100916E+00 0.26887990E+03</pdfrwt>
<totfact> 0.21239080E+05</totfact>
</mgrwt>
</event>
<event>
 8    1  0.9400004E-006  0.2895476E+03  0.7546771E-02  0.1090586E+00
         21   -1    0    0  504  503  0.00000000000E+00  0.00000000000E+00  0.24260325451E+02  0.24260325451E+02  0.00000000000E+00 0.  1.
         21   -1    0    0  503  504 -0.00000000000E+00 -0.00000000000E+00 -0.86393974805E+03  0.86393974805E+03  0.00000000000E+00 0.  1.
         25    2    1    2    0    0  0.48079446713E+02 -0.20660412216E+02 -0.26339096173E+03  0.29619359589E+03  0.12496944305E+03 0.  0.
         25    2    1    2    0    0 -0.48079446713E+02  0.20660412216E+02 -0.57628846087E+03  0.59200647762E+03  0.12499917429E+03 0.  0.
          5    1    3    3  501    0  0.30681236376E+02 -0.37092640333E+02 -0.21251737312E+02  0.52829239737E+02  0.47000000000E+01 0.  1.
         -5    1    3    3    0  501  0.17398210337E+02  0.16432228117E+02 -0.24213922441E+03  0.24336435615E+03  0.47000000000E+01 0.  1.
          5    1    4    4  502    0 -0.14083611527E+01 -0.33253914113E+02 -0.40521044978E+03  0.40660226868E+03  0.47000000000E+01 0.  1.
         -5    1    4    4    0  502 -0.46671085561E+02  0.53914326329E+02 -0.17107801109E+03  0.18540420893E+03  0.47000000000E+01 0.  1.
<mgrwt>
<rscale>  0 0.28954764E+03</rscale>
<asrwt>0</asrwt>
<pdfrwt beam="1">  1       21 0.37323583E-02 0.28954764E+03</pdfrwt>
<pdfrwt beam="2">  1       21 0.13291379E+00 0.28954764E+03</pdfrwt>
<totfact> 0.17387016E+05</totfact>
</mgrwt>
</event>
<event>
 8    1  0.9400004E-006  0.2695042E+03  0.7546771E-02  0.1101564E+00
         21   -1    0    0  504  503  0.00000000000E+00  0.00000000000E+00  0.84923113979E+02  0.84923113979E+02  0.00000000000E+00 0.  1.
         21   -1    0    0  503  504 -0.00000000000E+00 -0.00000000000E+00 -0.21381848182E+03  0.21381848182E+03  0.00000000000E+00 0.  1.
         25    2    1    2    0    0 -0.25491619040E+02 -0.30807429834E+02 -0.30634464804E+02  0.13480209133E+03  0.12503684665E+03 0.  0.
         25    2    1    2    0    0  0.25491619040E+02  0.30807429834E+02 -0.98260903039E+02  0.16393950447E+03  0.12498814218E+03 0.  0.
          5    1    3    3  501    0 -0.33535104394E+02 -0.32528099801E+02  0.41126060802E+02  0.62418934471E+02  0.47000000000E+01 0. -1.
         -5    1    3    3    0  501  0.80434853538E+01  0.17206699665E+01 -0.71760525606E+02  0.72383156860E+02  0.47000000000E+01 0. -1.
          5    1    4    4  502    0 -0.19612422562E+02 -0.25831859191E+02 -0.83766610492E+02  0.89949247364E+02  0.47000000000E+01 0. -1.
         -5    1    4    4    0  502  0.45104041602E+02  0.56639289026E+02 -0.14494292547E+02  0.73990257106E+02  0.47000000000E+01 0. -1.
<mgrwt>
<rscale>  0 0.26950422E+03</rscale>
<asrwt>0</asrwt>
<pdfrwt beam="1">  1       21 0.13065095E-01 0.26950422E+03</pdfrwt>
<pdfrwt beam="2">  1       21 0.32895151E-01 0.26950422E+03</pdfrwt>
<totfact> 0.44118833E+05</totfact>
</mgrwt>
</event>
<event>
 8    1  0.9400004E-006  0.3065069E+03  0.7546771E-02  0.1082032E+00
         21   -1    0    0  504  503  0.00000000000E+00  0.00000000000E+00  0.63592482904E+03  0.63592482904E+03  0.00000000000E+00 0. -1.
         21   -1    0    0  503  504 -0.00000000000E+00 -0.00000000000E+00 -0.36933016998E+02  0.36933016998E+02  0.00000000000E+00 0. -1.
         25    2    1    2    0    0  0.22619117736E+02  0.41072603863E+02  0.46469715502E+03  0.48349480102E+03  0.12500077380E+03 0.  0.
         25    2    1    2    0    0 -0.22619117736E+02 -0.41072603863E+02  0.13429465702E+03  0.18936304502E+03  0.12499889855E+03 0.  0.
          5    1    3    3  501    0  0.39338037745E+02  0.17848999928E+02  0.44785821995E+03  0.44996126854E+03  0.47000000000E+01 0. -1.
         -5    1    3    3    0  501 -0.16718920009E+02  0.23223603935E+02  0.16838935073E+02  0.33533532477E+02  0.47000000000E+01 0. -1.
          5    1    4    4  502    0  0.11354471176E+02  0.29791431537E+02  0.97068184399E+02  0.10227793423E+03  0.47000000000E+01 0.  1.
         -5    1    4    4    0  502 -0.33973588912E+02 -0.70864035400E+02  0.37226472623E+02  0.87085110786E+02  0.47000000000E+01 0.  1.
<mgrwt>
<rscale>  0 0.30650692E+03</rscale>
<asrwt>0</asrwt>
<pdfrwt beam="1">  1       21 0.97834581E-01 0.30650692E+03</pdfrwt>
<pdfrwt beam="2">  1       21 0.56820031E-02 0.30650692E+03</pdfrwt>
<totfact> 0.18074627E+05</totfact>
</mgrwt>
</event>
<event>
 8    1  0.9400004E-006  0.2773157E+03  0.7546771E-02  0.1097164E+00
         21   -1    0    0  504  503  0.00000000000E+00  0.00000000000E+00  0.90202378920E+02  0.90202378920E+02  0.00000000000E+00 0. -1.
         21   -1    0    0  503  504 -0.00000000000E+00 -0.00000000000E+00 -0.21314290118E+03  0.21314290118E+03  0.00000000000E+00 0. -1.
         25    2    1    2    0    0  0.52750256355E+02 -0.98089261057E+01 -0.32087093810E+02  0.13976203502E+03  0.12500016106E+03 0.  0.
         25    2    1    2    0    0 -0.52750256355E+02  0.98089261057E+01 -0.90853428449E+02  0.16358324508E+03  0.12500531202E+03 0.  0.
          5    1    3    3  501    0  0.61817221619E+02 -0.32453202685E+02 -0.67022636377E+02  0.96895320011E+02  0.47000000000E+01 0. -1.
         -5    1    3    3    0  501 -0.90669652639E+01  0.22644276579E+02  0.34935542567E+02  0.42866715005E+02  0.47000000000E+01 0. -1.
          5    1    4    4  502    0 -0.50263233576E+01 -0.53623543786E+02 -0.21896247254E+02  0.58329100957E+02  0.47000000000E+01 0.  1.
         -5    1    4    4    0  502 -0.47723932997E+02  0.63432469892E+02 -0.68957181195E+02  0.10525414413E+03  0.47000000000E+01 0.  1.
<mgrwt>
<rscale>  0 0.27731568E+03</rscale>
<asrwt>0</asrwt>
<pdfrwt beam="1">  1       21 0.13877289E-01 0.27731568E+03</pdfrwt>
<pdfrwt beam="2">  1       21 0.32791215E-01 0.27731568E+03</pdfrwt>
<totfact> 0.39725614E+05</totfact>
</mgrwt>
</event>
<event>
 8    1  0.9400004E-006  0.3210413E+03  0.7546771E-02  0.1075171E+00
         21   -1    0    0  504  503  0.00000000000E+00  0.00000000000E+00  0.45436640814E+03  0.45436640814E+03  0.00000000000E+00 0. -1.
         21   -1    0    0  503  504 -0.00000000000E+00 -0.00000000000E+00 -0.56709486766E+02  0.56709486766E+02  0.00000000000E+00 0. -1.
         25    2    1    2    0    0 -0.46664052970E+02 -0.88415831516E+02  0.21814686754E+03  0.27056753306E+03  0.12499536401E+03 0.  0.
         25    2    1    2    0    0  0.46664052970E+02  0.88415831516E+02  0.17951005383E+03  0.24050836185E+03  0.12500207834E+03 0.  0.
          5    1    3    3  501    0 -0.80422324925E+02 -0.62828303730E+02  0.19931544749E+03  0.22397295307E+03  0.47000000000E+01 0. -1.
         -5    1    3    3    0  501  0.33758271955E+02 -0.25587527786E+02  0.18831420047E+02  0.46594579991E+02  0.47000000000E+01 0. -1.
          5    1    4    4  502    0  0.81898592768E+02  0.74908129184E+02  0.89030360540E+02  0.14236257378E+03  0.47000000000E+01 0.  1.
         -5    1    4    4    0  502 -0.35234539798E+02  0.13507702332E+02  0.90479693293E+02  0.98145788068E+02  0.47000000000E+01 0.  1.
<mgrwt>
<rscale>  0 0.32104134E+03</rscale>
<asrwt>0</asrwt>
<pdfrwt beam="1">  1       21 0.69902522E-01 0.32104134E+03</pdfrwt>
<pdfrwt beam="2">  1       21 0.87245367E-02 0.32104134E+03</pdfrwt>
<totfact> 0.18499689E+05</totfact>
</mgrwt>
</event>
<event>
 8    1  0.9400004E-006  0.3363694E+03  0.7546771E-02  0.1068353E+00
         21   -1    0    0  504  503  0.00000000000E+00  0.00000000000E+00  0.17918226125E+03  0.17918226125E+03  0.00000000000E+00 0. -1.
         21   -1    0    0  503  504 -0.00000000000E+00 -0.00000000000E+00 -0.15786210553E+03  0.15786210553E+03  0.00000000000E+00 0. -1.
         25    2    1    2    0    0 -0.79350271451E+02  0.14439370346E+02  0.89274857555E+02  0.17349398856E+03  0.12500081151E+03 0.  0.
         25    2    1    2    0    0  0.79350271451E+02 -0.14439370346E+02 -0.67954701840E+02  0.16355037822E+03  0.12500369482E+03 0.  0.
          5    1    3    3  501    0 -0.48486417884E+02 -0.37524447630E+02 -0.46922440508E+01  0.61669474162E+02  0.47000000000E+01 0.  1.
         -5    1    3    3    0  501 -0.30863853566E+02  0.51963817977E+02  0.93967101605E+02  0.11182451440E+03  0.47000000000E+01 0.  1.
          5    1    4    4  502    0  0.46980379259E+02  0.51213223280E+02 -0.10641880952E+02  0.70464813235E+02  0.47000000000E+01 0.  1.
         -5    1    4    4    0  502  0.32369892191E+02 -0.65652593626E+02 -0.57312820888E+02  0.93085564984E+02  0.47000000000E+01 0.  1.
<mgrwt>
<rscale>  0 0.33636937E+03</rscale>
<asrwt>0</asrwt>
<pdfrwt beam="1">  1       21 0.27566502E-01 0.33636937E+03</pdfrwt>
<pdfrwt beam="2">  1       21 0.24286478E-01 0.33636937E+03</pdfrwt>
<totfact> 0.19373244E+05</totfact>
</mgrwt>
</event>
<event>
 8    1  0.9400004E-006  0.2755470E+03  0.7546771E-02  0.1098146E+00
         21   -1    0    0  504  503  0.00000000000E+00  0.00000000000E+00  0.19943015892E+03  0.19943015892E+03  0.00000000000E+00 0.  1.
         21   -1    0    0  503  504 -0.00000000000E+00 -0.00000000000E+00 -0.95178901762E+02  0.95178901762E+02  0.00000000000E+00 0.  1.
         25    2    1    2    0    0 -0.56444722532E+02  0.55534003841E+01  0.39122463896E+02  0.14272913827E+03  0.12499677104E+03 0.  0.
         25    2    1    2    0    0  0.56444722532E+02 -0.55534003841E+01  0.65128793265E+02  0.15187992242E+03  0.12493560007E+03 0.  0.
          5    1    3    3  501    0 -0.78582437146E+02  0.35600584732E+02  0.54433360813E+02  0.10211602142E+03  0.47000000000E+01 0.  1.
         -5    1    3    3    0  501  0.22137714613E+02 -0.30047184348E+02 -0.15310896917E+02  0.40613116846E+02  0.47000000000E+01 0.  1.
          5    1    4    4  502    0  0.57277039488E+02 -0.39850538566E+02 -0.85641504136E+01  0.70456790651E+02  0.47000000000E+01 0.  1.
         -5    1    4    4    0  502 -0.83231695620E+00  0.34297138182E+02  0.73692943678E+02  0.81423131769E+02  0.47000000000E+01 0.  1.
<mgrwt>
<rscale>  0 0.27554705E+03</rscale>
<asrwt>0</asrwt>
<pdfrwt beam="1">  1       21 0.30681563E-01 0.27554705E+03</pdfrwt>
<pdfrwt beam="2">  1       21 0.14642908E-01 0.27554705E+03</pdfrwt>
<totfact> 0.41086790E+05</totfact>
</mgrwt>
</event>
<event>
 8    1  0.9400004E-006  0.2991079E+03  0.7546771E-02  0.1085687E+00
         21   -1    0    0  504  503  0.00000000000E+00  0.00000000000E+00  0.37433674091E+03  0.37433674091E+03  0.00000000000E+00 0. -1.
         21   -1    0    0  503  504 -0.00000000000E+00 -0.00000000000E+00 -0.59749353802E+02  0.59749353802E+02  0.00000000000E+00 0. -1.
         25    2    1    2    0    0  0.36071758428E+02  0.71118516596E+02  0.12897218242E+03  0.19651267457E+03  0.12499756906E+03 0.  0.
         25    2    1    2    0    0 -0.36071758428E+02 -0.71118516596E+02  0.18561520469E+03  0.23757342014E+03  0.12501644126E+03 0.  0.
          5    1    3    3  501    0  0.82168880765E+02  0.39693611904E+02  0.90314531490E+02  0.12847611603E+03  0.47000000000E+01 0. -1.
         -5    1    3    3    0  501 -0.46097122337E+02  0.31424904692E+02  0.38657650931E+02  0.68036558542E+02  0.47000000000E+01 0. -1.
          5    1    4    4  502    0  0.29643479216E+02 -0.76492145375E+02  0.10438235170E+03  0.13284407970E+03  0.47000000000E+01 0.  1.
         -5    1    4    4    0  502 -0.65715237644E+02  0.53736287786E+01  0.81232852986E+02  0.10472934044E+03  0.47000000000E+01 0.  1.
<mgrwt>
<rscale>  0 0.29910786E+03</rscale>
<asrwt>0</asrwt>
<pdfrwt beam="1">  1       21 0.57590267E-01 0.29910786E+03</pdfrwt>
<pdfrwt beam="2">  1       21 0.91922085E-02 0.29910786E+03</pdfrwt>
<totfact> 0.25921180E+05</totfact>
</mgrwt>
</event>
<event>
 8    1  0.9400004E-006  0.3163996E+03  0.7546771E-02  0.1077318E+00
         21   -1    0    0  504  503  0.00000000000E+00  0.00000000000E+00  0.53871980990E+02  0.53871980990E+02  0.00000000000E+00 0. -1.
         21   -1    0    0  503  504 -0.00000000000E+00 -0.00000000000E+00 -0.46456754707E+03  0.46456754707E+03  0.00000000000E+00 0. -1.
         25    2    1    2    0    0 -0.95679467902E+01 -0.20990333886E+02 -0.35971864479E+03  0.38151285814E+03  0.12498967075E+03 0.  0.
         25    2    1    2    0    0  0.95679467902E+01  0.20990333886E+02 -0.50976921292E+02  0.13692666992E+03  0.12497250381E+03 0.  0.
          5    1    3    3  501    0 -0.27219839436E+02  0.58661422925E-01 -0.35132083192E+03  0.35240507948E+03  0.47000000000E+01 0.  1.
         -5    1    3    3    0  501  0.17651892646E+02 -0.21048995309E+02 -0.83978128670E+01  0.29107778659E+02  0.47000000000E+01 0.  1.
          5    1    4    4  502    0  0.59454229584E+02 -0.17185258152E+02 -0.37476823054E+02  0.72503384607E+02  0.47000000000E+01 0.  1.
         -5    1    4    4    0  502 -0.49886282794E+02  0.38175592038E+02 -0.13500098239E+02  0.64423285316E+02  0.47000000000E+01 0.  1.
<mgrwt>
<rscale>  0 0.31639958E+03</rscale>
<asrwt>0</asrwt>
<pdfrwt beam="1">  1       21 0.82879970E-02 0.31639958E+03</pdfrwt>
<pdfrwt beam="2">  1       21 0.71471931E-01 0.31639958E+03</pdfrwt>
<totfact> 0.19294115E+05</totfact>
</mgrwt>
</event>
<event>
 8    1  0.9400004E-006  0.3417014E+03  0.7546771E-02  0.1066074E+00
         21   -1    0    0  504  503  0.00000000000E+00  0.00000000000E+00  0.11574281919E+04  0.11574281919E+04  0.00000000000E+00 0. -1.
         21   -1    0    0  503  504 -0.00000000000E+00 -0.00000000000E+00 -0.25219673759E+02  0.25219673759E+02  0.00000000000E+00 0. -1.
         25    2    1    2    0    0 -0.11576677889E+03 -0.51723832995E+00  0.52227482725E+03  0.54936023374E+03  0.12499382624E+03 0.  0.
         25    2    1    2    0    0  0.11576677889E+03  0.51723832995E+00  0.60993369086E+03  0.63328763189E+03  0.12502760828E+03 0.  0.
          5    1    3    3  501    0 -0.13955707348E+03 -0.17258228711E+01  0.48633726172E+03  0.50598930558E+03  0.47000000000E+01 0.  1.
         -5    1    3    3    0  501  0.23790294583E+02  0.12085845411E+01  0.35937565531E+02  0.43370928158E+02  0.47000000000E+01 0.  1.
          5    1    4    4  502    0  0.12554731241E+03 -0.37291285330E+02  0.46683174181E+03  0.48487805970E+03  0.47000000000E+01 0.  1.
         -5    1    4    4    0  502 -0.97805335188E+01  0.37808523660E+02  0.14310194905E+03  0.14840957219E+03  0.47000000000E+01 0.  1.
<mgrwt>
<rscale>  0 0.34170140E+03</rscale>
<asrwt>0</asrwt>
<pdfrwt beam="1">  1       21 0.17806583E+00 0.34170140E+03</pdfrwt>
<pdfrwt beam="2">  1       21 0.38799507E-02 0.34170140E+03</pdfrwt>
<totfact> 0.72426871E+04</totfact>
</mgrwt>
</event>
<event>
 8    1  0.9400004E-006  0.2973829E+03  0.7546771E-02  0.1086556E+00
         21   -1    0    0  504  503  0.00000000000E+00  0.00000000000E+00  0.43880950700E+02  0.43880950700E+02  0.00000000000E+00 0.  1.
         21   -1    0    0  503  504 -0.00000000000E+00 -0.00000000000E+00 -0.50384384363E+03  0.50384384363E+03  0.00000000000E+00 0.  1.
         25    2    1    2    0    0  0.59847031048E+02  0.17508439570E+02 -0.13614407047E+03  0.19506151389E+03  0.12500229475E+03 0.  0.
         25    2    1    2    0    0 -0.59847031048E+02 -0.17508439570E+02 -0.32381882246E+03  0.35266328044E+03  0.12499818804E+03 0.  0.
          5    1    3    3  501    0  0.42060117681E+02  0.46588354003E+02 -0.14623201556E+03  0.15920245162E+03  0.47000000000E+01 0. -1.
         -5    1    3    3    0  501  0.17786913367E+02 -0.29079914433E+02  0.10087945086E+02  0.35859062266E+02  0.47000000000E+01 0. -1.
          5    1    4    4  502    0  0.12666899594E+02 -0.46349961936E+02 -0.20369840332E+03  0.20934158410E+03  0.47000000000E+01 0. -1.
         -5    1    4    4    0  502 -0.72513930642E+02  0.28841522366E+02 -0.12012041914E+03  0.14332169634E+03  0.47000000000E+01 0. -1.
<mgrwt>
<rscale>  0 0.29738290E+03</rscale>
<asrwt>0</asrwt>
<pdfrwt beam="1">  1       21 0.67509152E-02 0.29738290E+03</pdfrwt>
<pdfrwt beam="2">  1       21 0.77514441E-01 0.29738290E+03</pdfrwt>
<totfact> 0.23109409E+05</totfact>
</mgrwt>
</event>
<event>
 8    1  0.9400004E-006  0.2917748E+03  0.7546771E-02  0.1089426E+00
         21   -1    0    0  504  503  0.00000000000E+00  0.00000000000E+00  0.72070417398E+02  0.72070417398E+02  0.00000000000E+00 0.  1.
         21   -1    0    0  503  504 -0.00000000000E+00 -0.00000000000E+00 -0.29531026248E+03  0.29531026248E+03  0.00000000000E+00 0.  1.
         25    2    1    2    0    0  0.54011130395E+01  0.71142273773E+02 -0.81663804896E+02  0.16548390914E+03  0.12500220804E+03 0.  0.
         25    2    1    2    0    0 -0.54011130395E+01 -0.71142273773E+02 -0.14157604019E+03  0.20189677073E+03  0.12501254232E+03 0.  0.
          5    1    3    3  501    0  0.34398633368E+02  0.21719509048E+02 -0.97582070451E+02  0.10582699809E+03  0.47000000000E+01 0.  1.
         -5    1    3    3    0  501 -0.28997520329E+02  0.49422764726E+02  0.15918265555E+02  0.59656911055E+02  0.47000000000E+01 0.  1.
          5    1    4    4  502    0  0.10060402022E+02 -0.75500241989E+00 -0.12791405425E+03  0.12839734029E+03  0.47000000000E+01 0. -1.
         -5    1    4    4    0  502 -0.15461515062E+02 -0.70387271353E+02 -0.13661985935E+02  0.73499430449E+02  0.47000000000E+01 0. -1.
<mgrwt>
<rscale>  0 0.29177480E+03</rscale>
<asrwt>0</asrwt>
<pdfrwt beam="1">  1       21 0.11087757E-01 0.29177480E+03</pdfrwt>
<pdfrwt beam="2">  1       21 0.45432347E-01 0.29177480E+03</pdfrwt>
<totfact> 0.30674320E+05</totfact>
</mgrwt>
</event>
<event>
 8    1  0.9400004E-006  0.4797287E+03  0.7546771E-02  0.1019210E+00
         21   -1    0    0  504  503  0.00000000000E+00  0.00000000000E+00  0.86883874909E+03  0.86883874909E+03  0.00000000000E+00 0. -1.
         21   -1    0    0  503  504 -0.00000000000E+00 -0.00000000000E+00 -0.66220462538E+02  0.66220462538E+02  0.00000000000E+00 0. -1.
         25    2    1    2    0    0  0.19232586032E+03 -0.20148205558E+02  0.27041314183E+03  0.35516808525E+03  0.12500365901E+03 0.  0.
         25    2    1    2    0    0 -0.19232586032E+03  0.20148205558E+02  0.53220514472E+03  0.57989112638E+03  0.12504485457E+03 0.  0.
          5    1    3    3  501    0  0.16358597498E+03  0.27026984418E+02  0.15449766472E+03  0.22667696729E+03  0.47000000000E+01 0. -1.
         -5    1    3    3    0  501  0.28739885344E+02 -0.47175189976E+02  0.11591547711E+03  0.12849111795E+03  0.47000000000E+01 0. -1.
          5    1    4    4  502    0 -0.65580044019E+02  0.65161946553E+02  0.26507855578E+03  0.28077669452E+03  0.47000000000E+01 0. -1.
         -5    1    4    4    0  502 -0.12674581630E+03 -0.45013740995E+02  0.26712658893E+03  0.29911443186E+03  0.47000000000E+01 0. -1.
<mgrwt>
<rscale>  0 0.47972869E+03</rscale>
<asrwt>0</asrwt>
<pdfrwt beam="1">  1       21 0.13366749E+00 0.47972869E+03</pdfrwt>
<pdfrwt beam="2">  1       21 0.10187764E-01 0.47972869E+03</pdfrwt>
<totfact> 0.28334099E+04</totfact>
</mgrwt>
</event>
<event>
 8    1  0.9400004E-006  0.3627669E+03  0.7546771E-02  0.1057494E+00
         21   -1    0    0  504  503  0.00000000000E+00  0.00000000000E+00  0.41225305271E+03  0.41225305271E+03  0.00000000000E+00 0. -1.
         21   -1    0    0  503  504 -0.00000000000E+00 -0.00000000000E+00 -0.79805231025E+02  0.79805231025E+02  0.00000000000E+00 0. -1.
         25    2    1    2    0    0  0.85913092693E+02 -0.98180392964E+02  0.18787033970E+03  0.26065426497E+03  0.12499972900E+03 0.  0.
         25    2    1    2    0    0 -0.85913092693E+02  0.98180392964E+02  0.14457748199E+03  0.23140401877E+03  0.12499889018E+03 0.  0.
          5    1    3    3  501    0  0.76471638834E+02 -0.64528502813E+02  0.19973525800E+03  0.22344597223E+03  0.47000000000E+01 0.  1.
         -5    1    3    3    0  501  0.94414538588E+01 -0.33651890151E+02 -0.11864918300E+02  0.37208292731E+02  0.47000000000E+01 0.  1.
          5    1    4    4  502    0 -0.41912119543E+02  0.11493734016E+03  0.13656922673E+03  0.18341336270E+03  0.47000000000E+01 0. -1.
         -5    1    4    4    0  502 -0.44000973150E+02 -0.16756947200E+02  0.80082552659E+01  0.47990656070E+02  0.47000000000E+01 0. -1.
<mgrwt>
<rscale>  0 0.36276687E+03</rscale>
<asrwt>0</asrwt>
<pdfrwt beam="1">  1       21 0.63423545E-01 0.36276687E+03</pdfrwt>
<pdfrwt beam="2">  1       21 0.12277728E-01 0.36276687E+03</pdfrwt>
<totfact> 0.12323055E+05</totfact>
</mgrwt>
</event>
<event>
 8    1  0.9400004E-006  0.4609268E+03  0.7546771E-02  0.1024513E+00
         21   -1    0    0  504  503  0.00000000000E+00  0.00000000000E+00  0.43797164188E+03  0.43797164188E+03  0.00000000000E+00 0.  1.
         21   -1    0    0  503  504 -0.00000000000E+00 -0.00000000000E+00 -0.12127129245E+03  0.12127129245E+03  0.00000000000E+00 0.  1.
         25    2    1    2    0    0  0.78840368484E+02 -0.55170647380E+02 -0.45498782270E+02  0.16418082928E+03  0.12500240590E+03 0.  0.
         25    2    1    2    0    0 -0.78840368484E+02  0.55170647380E+02  0.36219913170E+03  0.39506210505E+03  0.12500500713E+03 0.  0.
          5    1    3    3  501    0 -0.30590693530E+02 -0.29286280878E+02  0.45507748081E+00  0.42611898266E+02  0.47000000000E+01 0. -1.
         -5    1    3    3    0  501  0.10943106201E+03 -0.25884366502E+02 -0.45953859751E+02  0.12156893102E+03  0.47000000000E+01 0. -1.
          5    1    4    4  502    0 -0.44897808080E+02  0.97806879336E+01  0.32229252840E+03  0.32558568594E+03  0.47000000000E+01 0. -1.
         -5    1    4    4    0  502 -0.33942560403E+02  0.45389959446E+02  0.39906603301E+02  0.69476419110E+02  0.47000000000E+01 0. -1.
<mgrwt>
<rscale>  0 0.46092684E+03</rscale>
<asrwt>0</asrwt>
<pdfrwt beam="1">  1       21 0.67380252E-01 0.46092684E+03</pdfrwt>
<pdfrwt beam="2">  1       21 0.18657122E-01 0.46092684E+03</pdfrwt>
<totfact> 0.48560560E+04</totfact>
</mgrwt>
</event>
<event>
 8    1  0.9400004E-006  0.3316676E+03  0.7546771E-02  0.1070401E+00
         21   -1    0    0  504  503  0.00000000000E+00  0.00000000000E+00  0.80431821191E+02  0.80431821191E+02  0.00000000000E+00 0. -1.
         21   -1    0    0  503  504 -0.00000000000E+00 -0.00000000000E+00 -0.34191512534E+03  0.34191512534E+03  0.00000000000E+00 0. -1.
         25    2    1    2    0    0 -0.23696346479E+01  0.86939879363E+02 -0.47215190011E+02  0.15947568092E+03  0.12505623074E+03 0.  0.
         25    2    1    2    0    0  0.23696346479E+01 -0.86939879363E+02 -0.21426811414E+03  0.26287126561E+03  0.12500527890E+03 0.  0.
          5    1    3    3  501    0  0.50558358890E+01  0.30605124481E+02 -0.85315352770E+02  0.90901235081E+02  0.47000000000E+01 0. -1.
         -5    1    3    3    0  501 -0.74254705369E+01  0.56334754882E+02  0.38100162759E+02  0.68574445843E+02  0.47000000000E+01 0. -1.
          5    1    4    4  502    0  0.50085926439E+02 -0.63356294105E+01 -0.38561552190E+02  0.63701048144E+02  0.47000000000E+01 0. -1.
         -5    1    4    4    0  502 -0.47716291791E+02 -0.80604249953E+02 -0.17570656195E+03  0.19917021746E+03  0.47000000000E+01 0. -1.
<mgrwt>
<rscale>  0 0.33166764E+03</rscale>
<asrwt>0</asrwt>
<pdfrwt beam="1">  1       21 0.12374126E-01 0.33166764E+03</pdfrwt>
<pdfrwt beam="2">  1       21 0.52602327E-01 0.33166764E+03</pdfrwt>
<totfact> 0.18337084E+05</totfact>
</mgrwt>
</event>
<event>
 8    1  0.9400004E-006  0.2603383E+03  0.7546771E-02  0.1106940E+00
         21   -1    0    0  504  503  0.00000000000E+00  0.00000000000E+00  0.34892454753E+03  0.34892454753E+03  0.00000000000E+00 0. -1.
         21   -1    0    0  503  504 -0.00000000000E+00 -0.00000000000E+00 -0.48560648148E+02  0.48560648148E+02  0.00000000000E+00 0. -1.
         25    2    1    2    0    0 -0.28052882772E+02 -0.17058348804E+02  0.12638993799E+03  0.18076850714E+03  0.12499954102E+03 0.  0.
         25    2    1    2    0    0  0.28052882772E+02  0.17058348804E+02  0.17397396140E+03  0.21671668853E+03  0.12498492849E+03 0.  0.
          5    1    3    3  501    0 -0.10925297988E+02 -0.67747010468E+02  0.98804051471E+02  0.12038833062E+03  0.47000000000E+01 0. -1.
         -5    1    3    3    0  501 -0.17127584784E+02  0.50688661664E+02  0.27585886515E+02  0.60380176521E+02  0.47000000000E+01 0. -1.
          5    1    4    4  502    0  0.65493867871E+02  0.47177520470E+02  0.11282629178E+03  0.13880571776E+03  0.47000000000E+01 0. -1.
         -5    1    4    4    0  502 -0.37440985100E+02 -0.30119171666E+02  0.61147669621E+02  0.77910970775E+02  0.47000000000E+01 0. -1.
<mgrwt>
<rscale>  0 0.26033826E+03</rscale>
<asrwt>0</asrwt>
<pdfrwt beam="1">  1       21 0.53680698E-01 0.26033826E+03</pdfrwt>
<pdfrwt beam="2">  1       21 0.74708692E-02 0.26033826E+03</pdfrwt>
<totfact> 0.43729949E+05</totfact>
</mgrwt>
</event>
<event>
 8    1  0.9400004E-006  0.3172878E+03  0.7546771E-02  0.1076904E+00
         21   -1    0    0  504  503  0.00000000000E+00  0.00000000000E+00  0.22406110742E+03  0.22406110742E+03  0.00000000000E+00 0.  1.
         21   -1    0    0  503  504 -0.00000000000E+00 -0.00000000000E+00 -0.11232599491E+03  0.11232599491E+03  0.00000000000E+00 0.  1.
         25    2    1    2    0    0  0.37923290696E+02  0.76224713015E+02  0.51226168358E+01  0.15132645507E+03  0.12500028780E+03 0.  0.
         25    2    1    2    0    0 -0.37923290696E+02 -0.76224713015E+02  0.10661249567E+03  0.18506064726E+03  0.12503134038E+03 0.  0.
          5    1    3    3  501    0  0.38969453582E+02  0.76329625776E+01  0.53833960294E+02  0.67060164861E+02  0.47000000000E+01 0. -1.
         -5    1    3    3    0  501 -0.10461628862E+01  0.68591750437E+02 -0.48711343458E+02  0.84266290214E+02  0.47000000000E+01 0. -1.
          5    1    4    4  502    0 -0.60603089705E+02  0.10297746541E+02  0.45695087284E+02  0.76739227697E+02  0.47000000000E+01 0.  1.
         -5    1    4    4    0  502  0.22679799009E+02 -0.86522459556E+02  0.60917408388E+02  0.10832141956E+03  0.47000000000E+01 0.  1.
<mgrwt>
<rscale>  0 0.31728780E+03</rscale>
<asrwt>0</asrwt>
<pdfrwt beam="1">  1       21 0.34470940E-01 0.31728780E+03</pdfrwt>
<pdfrwt beam="2">  1       21 0.17280922E-01 0.31728780E+03</pdfrwt>
<totfact> 0.23811022E+05</totfact>
</mgrwt>
</event>
<event>
 8    1  0.9400004E-006  0.4814542E+03  0.7546771E-02  0.1018736E+00
         21   -1    0    0  504  503  0.00000000000E+00  0.00000000000E+00  0.14490603582E+03  0.14490603582E+03  0.00000000000E+00 0. -1.
         21   -1    0    0  503  504 -0.00000000000E+00 -0.00000000000E+00 -0.39991109353E+03  0.39991109353E+03  0.00000000000E+00 0. -1.
         25    2    1    2    0    0  0.15494959049E+03  0.39369173277E+02  0.19020138646E+02  0.20382772976E+03  0.12499868139E+03 0.  0.
         25    2    1    2    0    0 -0.15494959049E+03 -0.39369173277E+02 -0.27402519635E+03  0.34098939959E+03  0.12499861997E+03 0.  0.
          5    1    3    3  501    0  0.97185673385E+02 -0.46699831900E+01  0.65572742776E+02  0.11742545912E+03  0.47000000000E+01 0. -1.
         -5    1    3    3    0  501  0.57763917103E+02  0.44039156467E+02 -0.46552604129E+02  0.86402270645E+02  0.47000000000E+01 0. -1.
          5    1    4    4  502    0 -0.16008046101E+03  0.28225798580E+01 -0.21695048855E+03  0.26967262641E+03  0.47000000000E+01 0. -1.
         -5    1    4    4    0  502  0.51308705204E+01 -0.42191753135E+02 -0.57074707803E+02  0.71316773173E+02  0.47000000000E+01 0. -1.
<mgrwt>
<rscale>  0 0.48145418E+03</rscale>
<asrwt>0</asrwt>
<pdfrwt beam="1">  1       21 0.22293237E-01 0.48145418E+03</pdfrwt>
<pdfrwt beam="2">  1       21 0.61524782E-01 0.48145418E+03</pdfrwt>
<totfact> 0.42116307E+04</totfact>
</mgrwt>
</event>
<event>
 8    1  0.9400004E-006  0.3648631E+03  0.7546771E-02  0.1056675E+00
         21   -1    0    0  504  503  0.00000000000E+00  0.00000000000E+00  0.52571281069E+03  0.52571281069E+03  0.00000000000E+00 0.  1.
         21   -1    0    0  503  504 -0.00000000000E+00 -0.00000000000E+00 -0.63306950829E+02  0.63306950829E+02  0.00000000000E+00 0.  1.
         25    2    1    2    0    0  0.96241681678E+02 -0.96619572620E+01  0.84127559833E+02  0.17904989019E+03  0.12500240855E+03 0.  0.
         25    2    1    2    0    0 -0.96241681678E+02  0.96619572620E+01  0.37827830003E+03  0.40996987133E+03  0.12500003365E+03 0.  0.
          5    1    3    3  501    0 -0.26594659545E+02  0.13525035908E+02  0.39367584022E+01  0.30459654944E+02  0.47000000000E+01 0. -1.
         -5    1    3    3    0  501  0.12283634122E+03 -0.23186993170E+02  0.80190801430E+02  0.14859023525E+03  0.47000000000E+01 0. -1.
          5    1    4    4  502    0 -0.66703500081E+02 -0.12415324283E+02  0.63640287292E+02  0.93143294802E+02  0.47000000000E+01 0.  1.
         -5    1    4    4    0  502 -0.29538181598E+02  0.22077281545E+02  0.31463801274E+03  0.31682657653E+03  0.47000000000E+01 0.  1.
<mgrwt>
<rscale>  0 0.36486313E+03</rscale>
<asrwt>0</asrwt>
<pdfrwt beam="1">  1       21 0.80878891E-01 0.36486313E+03</pdfrwt>
<pdfrwt beam="2">  1       21 0.97395312E-02 0.36486313E+03</pdfrwt>
<totfact> 0.10818143E+05</totfact>
</mgrwt>
</event>
<event>
 8    1  0.9400004E-006  0.2650491E+03  0.7546771E-02  0.1104147E+00
         21   -1    0    0  504  503  0.00000000000E+00  0.00000000000E+00  0.62115661576E+02  0.62115661576E+02  0.00000000000E+00 0. -1.
         21   -1    0    0  503  504 -0.00000000000E+00 -0.00000000000E+00 -0.28274269817E+03  0.28274269817E+03  0.00000000000E+00 0. -1.
         25    2    1    2    0    0 -0.33233736694E+02  0.20717045692E+02 -0.13649081460E+03  0.18917636427E+03  0.12499710834E+03 0.  0.
         25    2    1    2    0    0  0.33233736694E+02 -0.20717045692E+02 -0.84136222002E+02  0.15568199548E+03  0.12499721047E+03 0.  0.
          5    1    3    3  501    0 -0.32228689020E+02  0.56007919371E+02 -0.13911598388E+03  0.15346309784E+03  0.47000000000E+01 0. -1.
         -5    1    3    3    0  501 -0.10050476739E+01 -0.35290873679E+02  0.26251692792E+01  0.35713266437E+02  0.47000000000E+01 0. -1.
          5    1    4    4  502    0 -0.15504797146E+02 -0.62535206440E+02 -0.55674081885E+02  0.85280385627E+02  0.47000000000E+01 0.  1.
         -5    1    4    4    0  502  0.48738533840E+02  0.41818160748E+02 -0.28462140117E+02  0.70401609849E+02  0.47000000000E+01 0.  1.
<mgrwt>
<rscale>  0 0.26504905E+03</rscale>
<asrwt>0</asrwt>
<pdfrwt beam="1">  1       21 0.95562558E-02 0.26504905E+03</pdfrwt>
<pdfrwt beam="2">  1       21 0.43498876E-01 0.26504905E+03</pdfrwt>
<totfact> 0.43984267E+05</totfact>
</mgrwt>
</event>
<event>
 8    1  0.9400004E-006  0.3048072E+03  0.7546771E-02  0.1082862E+00
         21   -1    0    0  504  503  0.00000000000E+00  0.00000000000E+00  0.44276526136E+03  0.44276526136E+03  0.00000000000E+00 0.  1.
         21   -1    0    0  503  504 -0.00000000000E+00 -0.00000000000E+00 -0.52458625662E+02  0.52458625662E+02  0.00000000000E+00 0.  1.
         25    2    1    2    0    0 -0.20944238099E+02  0.83929407260E+02  0.21285797167E+03  0.26156533763E+03  0.12500041292E+03 0.  0.
         25    2    1    2    0    0  0.20944238099E+02 -0.83929407260E+02  0.17744866403E+03  0.23365854940E+03  0.12500193130E+03 0.  0.
          5    1    3    3  501    0  0.86538355377E+01 -0.21046809946E+02  0.10289982967E+01  0.23259533871E+02  0.47000000000E+01 0.  1.
         -5    1    3    3    0  501 -0.29598073637E+02  0.10497621721E+03  0.21182897337E+03  0.23830580375E+03  0.47000000000E+01 0.  1.
          5    1    4    4  502    0 -0.13097086659E+02 -0.87376802701E+02  0.50031897614E+02  0.10164408546E+03  0.47000000000E+01 0. -1.
         -5    1    4    4    0  502  0.34041324758E+02  0.34473954403E+01  0.12741676641E+03  0.13201446394E+03  0.47000000000E+01 0. -1.
<mgrwt>
<rscale>  0 0.30480720E+03</rscale>
<asrwt>0</asrwt>
<pdfrwt beam="1">  1       21 0.68117730E-01 0.30480720E+03</pdfrwt>
<pdfrwt beam="2">  1       21 0.80705581E-02 0.30480720E+03</pdfrwt>
<totfact> 0.22565658E+05</totfact>
</mgrwt>
</event>
<event>
 8    1  0.9400004E-006  0.3771138E+03  0.7546771E-02  0.1052006E+00
         21   -1    0    0  504  503  0.00000000000E+00  0.00000000000E+00  0.16272842686E+03  0.16272842686E+03  0.00000000000E+00 0. -1.
         21   -1    0    0  503  504 -0.00000000000E+00 -0.00000000000E+00 -0.21848495614E+03  0.21848495614E+03  0.00000000000E+00 0. -1.
         25    2    1    2    0    0  0.49805594298E+02 -0.11590113468E+03  0.36170580798E+02  0.18123918990E+03  0.12500265115E+03 0.  0.
         25    2    1    2    0    0 -0.49805594298E+02  0.11590113468E+03 -0.91927110072E+02  0.19997419310E+03  0.12500165638E+03 0.  0.
          5    1    3    3  501    0 -0.18166141418E+02 -0.82040739709E+02 -0.20198187403E+02  0.86549109992E+02  0.47000000000E+01 0.  1.
         -5    1    3    3    0  501  0.67971735716E+02 -0.33860394973E+02  0.56368768201E+02  0.94690079906E+02  0.47000000000E+01 0.  1.
          5    1    4    4  502    0 -0.76134281454E+02  0.55634307169E+02 -0.10193532454E+02  0.94961060706E+02  0.47000000000E+01 0. -1.
         -5    1    4    4    0  502  0.26328687155E+02  0.60266827514E+02 -0.81733577618E+02  0.10501313240E+03  0.47000000000E+01 0. -1.
<mgrwt>
<rscale>  0 0.37711385E+03</rscale>
<asrwt>0</asrwt>
<pdfrwt beam="1">  1       21 0.25035143E-01 0.37711385E+03</pdfrwt>
<pdfrwt beam="2">  1       21 0.33613070E-01 0.37711385E+03</pdfrwt>
<totfact> 0.12232220E+05</totfact>
</mgrwt>
</event>
<event>
 8    1  0.9400004E-006  0.3469503E+03  0.7546771E-02  0.1063874E+00
         21   -1    0    0  504  503  0.00000000000E+00  0.00000000000E+00  0.28134374975E+03  0.28134374975E+03  0.00000000000E+00 0.  1.
         21   -1    0    0  503  504 -0.00000000000E+00 -0.00000000000E+00 -0.10696388475E+03  0.10696388475E+03  0.00000000000E+00 0.  1.
         25    2    1    2    0    0  0.59218951125E+01  0.93882326843E+02  0.17111308748E+03  0.23183769028E+03  0.12498026161E+03 0.  0.
         25    2    1    2    0    0 -0.59218951125E+01 -0.93882326843E+02  0.32667775227E+01  0.15646994422E+03  0.12499284569E+03 0.  0.
          5    1    3    3  501    0 -0.46423367998E+02  0.33672991485E+02  0.12955294041E+03  0.14175702388E+03  0.47000000000E+01 0.  1.
         -5    1    3    3    0  501  0.52345263111E+02  0.60209335358E+02  0.41560147077E+02  0.90080666402E+02  0.47000000000E+01 0.  1.
          5    1    4    4  502    0  0.63520326440E+00 -0.96876518971E+02 -0.45368867985E+02  0.10707888491E+03  0.47000000000E+01 0. -1.
         -5    1    4    4    0  502 -0.65570983769E+01  0.29941921281E+01  0.48635645508E+02  0.49391059309E+02  0.47000000000E+01 0. -1.
<mgrwt>
<rscale>  0 0.34695026E+03</rscale>
<asrwt>0</asrwt>
<pdfrwt beam="1">  1       21 0.43283654E-01 0.34695026E+03</pdfrwt>
<pdfrwt beam="2">  1       21 0.16455982E-01 0.34695026E+03</pdfrwt>
<totfact> 0.16304211E+05</totfact>
</mgrwt>
</event>
<event>
 8    1  0.9400004E-006  0.2576652E+03  0.7546771E-02  0.1108554E+00
         21   -1    0    0  504  503  0.00000000000E+00  0.00000000000E+00  0.51655733781E+03  0.51655733781E+03  0.00000000000E+00 0.  1.
         21   -1    0    0  503  504 -0.00000000000E+00 -0.00000000000E+00 -0.32131640694E+02  0.32131640694E+02  0.00000000000E+00 0.  1.
         25    2    1    2    0    0 -0.18614410091E+02 -0.13673665624E+02  0.19725116497E+03  0.23463737786E+03  0.12495283755E+03 0.  0.
         25    2    1    2    0    0  0.18614410091E+02  0.13673665624E+02  0.28717453215E+03  0.31405160065E+03  0.12500292220E+03 0.  0.
          5    1    3    3  501    0  0.45572832645E+02 -0.30424402621E+02  0.12429837251E+03  0.13592167877E+03  0.47000000000E+01 0. -1.
         -5    1    3    3    0  501 -0.64187242735E+02  0.16750736998E+02  0.72952792458E+02  0.98715699093E+02  0.47000000000E+01 0. -1.
          5    1    4    4  502    0  0.38821757326E+02 -0.82822336722E+01  0.28021649263E+03  0.28305316988E+03  0.47000000000E+01 0.  1.
         -5    1    4    4    0  502 -0.20207347235E+02  0.21955899296E+02  0.69580395213E+01  0.30998430769E+02  0.47000000000E+01 0.  1.
<mgrwt>
<rscale>  0 0.25766517E+03</rscale>
<asrwt>0</asrwt>
<pdfrwt beam="1">  1       21 0.79470353E-01 0.25766517E+03</pdfrwt>
<pdfrwt beam="2">  1       21 0.49433297E-02 0.25766517E+03</pdfrwt>
<totfact> 0.37680454E+05</totfact>
</mgrwt>
</event>
<event>
 8    1  0.9400004E-006  0.3438811E+03  0.7546771E-02  0.1065155E+00
         21   -1    0    0  504  503  0.00000000000E+00  0.00000000000E+00  0.17265684493E+03  0.17265684493E+03  0.00000000000E+00 0.  1.
         21   -1    0    0  503  504 -0.00000000000E+00 -0.00000000000E+00 -0.17122719124E+03  0.17122719124E+03  0.00000000000E+00 0.  1.
         25    2    1    2    0    0 -0.10017727581E+03 -0.18762654808E+02  0.60302394455E+02  0.17218803190E+03  0.12499926299E+03 0.  0.
         25    2    1    2    0    0  0.10017727581E+03  0.18762654808E+02 -0.58872740768E+02  0.17169600427E+03  0.12500397782E+03 0.  0.
          5    1    3    3  501    0 -0.72942784091E+02  0.46482891910E+02  0.51527351537E+02  0.10078922039E+03  0.47000000000E+01 0.  1.
         -5    1    3    3    0  501 -0.27234491721E+02 -0.65245546717E+02  0.87750429179E+01  0.71398811503E+02  0.47000000000E+01 0.  1.
          5    1    4    4  502    0  0.87483180342E+02  0.41546235081E+02  0.10409254236E+02  0.97518403729E+02  0.47000000000E+01 0. -1.
         -5    1    4    4    0  502  0.12694095470E+02 -0.22783580273E+02 -0.69281995003E+02  0.74177600538E+02  0.47000000000E+01 0. -1.
<mgrwt>
<rscale>  0 0.34388106E+03</rscale>
<asrwt>0</asrwt>
<pdfrwt beam="1">  1       21 0.26562592E-01 0.34388106E+03</pdfrwt>
<pdfrwt beam="2">  1       21 0.26342645E-01 0.34388106E+03</pdfrwt>
<totfact> 0.17767435E+05</totfact>
</mgrwt>
</event>
<event>
 8    1  0.9400004E-006  0.2579849E+03  0.7546771E-02  0.1108360E+00
         21   -1    0    0  504  503  0.00000000000E+00  0.00000000000E+00  0.31303023125E+02  0.31303023125E+02  0.00000000000E+00 0. -1.
         21   -1    0    0  503  504 -0.00000000000E+00 -0.00000000000E+00 -0.53154778738E+03  0.53154778738E+03  0.00000000000E+00 0. -1.
         25    2    1    2    0    0  0.11481504605E+02  0.44873596845E+01 -0.31424451216E+03  0.33841394534E+03  0.12498969411E+03 0.  0.
         25    2    1    2    0    0 -0.11481504605E+02 -0.44873596845E+01 -0.18600025210E+03  0.22443686516E+03  0.12499540519E+03 0.  0.
          5    1    3    3  501    0 -0.51139370593E+02 -0.22464166211E+02 -0.16518960625E+03  0.17444073492E+03  0.47000000000E+01 0. -1.
         -5    1    3    3    0  501  0.62620875198E+02  0.26951525895E+02 -0.14905490591E+03  0.16397321042E+03  0.47000000000E+01 0. -1.
          5    1    4    4  502    0 -0.42811711094E+02  0.46794350959E+02 -0.11395664145E+03  0.13050195408E+03  0.47000000000E+01 0. -1.
         -5    1    4    4    0  502  0.31330206489E+02 -0.51281710643E+02 -0.72043610649E+02  0.93934911085E+02  0.47000000000E+01 0. -1.
<mgrwt>
<rscale>  0 0.25798490E+03</rscale>
<asrwt>0</asrwt>
<pdfrwt beam="1">  1       21 0.48158501E-02 0.25798490E+03</pdfrwt>
<pdfrwt beam="2">  1       21 0.81776577E-01 0.25798490E+03</pdfrwt>
<totfact> 0.36904336E+05</totfact>
</mgrwt>
</event>
<event>
 8    1  0.9400004E-006  0.3302786E+03  0.7546771E-02  0.1071014E+00
         21   -1    0    0  504  503  0.00000000000E+00  0.00000000000E+00  0.85399300516E+02  0.85399300516E+02  0.00000000000E+00 0.  1.
         21   -1    0    0  503  504 -0.00000000000E+00 -0.00000000000E+00 -0.31933495502E+03  0.31933495502E+03  0.00000000000E+00 0.  1.
         25    2    1    2    0    0 -0.68837625470E+02  0.82843566718E+02 -0.10882418996E+03  0.19765920687E+03  0.12499913006E+03 0.  0.
         25    2    1    2    0    0  0.68837625470E+02 -0.82843566718E+02 -0.12511146454E+03  0.20707504866E+03  0.12500208794E+03 0.  0.
          5    1    3    3  501    0  0.33407483837E+02  0.14146065223E+02 -0.58688023731E+01  0.37050019959E+02  0.47000000000E+01 0. -1.
         -5    1    3    3    0  501 -0.10224510931E+03  0.68697501495E+02 -0.10295538759E+03  0.16060918692E+03  0.47000000000E+01 0. -1.
          5    1    4    4  502    0  0.10014914696E+03 -0.85894845475E+02 -0.90476270798E+02  0.16004943515E+03  0.47000000000E+01 0. -1.
         -5    1    4    4    0  502 -0.31311521486E+02  0.30512787571E+01 -0.34635193745E+02  0.47025613506E+02  0.47000000000E+01 0. -1.
<mgrwt>
<rscale>  0 0.33027856E+03</rscale>
<asrwt>0</asrwt>
<pdfrwt beam="1">  1       21 0.13138354E-01 0.33027856E+03</pdfrwt>
<pdfrwt beam="2">  1       21 0.49128454E-01 0.33027856E+03</pdfrwt>
<totfact> 0.19008713E+05</totfact>
</mgrwt>
</event>
<event>
 8    1  0.9400004E-006  0.3425223E+03  0.7546771E-02  0.1065727E+00
         21   -1    0    0  504  503  0.00000000000E+00  0.00000000000E+00  0.84199228929E+03  0.84199228929E+03  0.00000000000E+00 0. -1.
         21   -1    0    0  503  504 -0.00000000000E+00 -0.00000000000E+00 -0.34834491269E+02  0.34834491269E+02  0.00000000000E+00 0. -1.
         25    2    1    2    0    0  0.55360634311E+02 -0.83755006482E+02  0.55773717689E+03  0.58032308392E+03  0.12499768919E+03 0.  0.
         25    2    1    2    0    0 -0.55360634311E+02  0.83755006482E+02  0.24942062113E+03  0.29650369664E+03  0.12499637968E+03 0.  0.
          5    1    3    3  501    0 -0.96436053730E+01 -0.26364533089E+01 -0.17996190151E+01  0.11192794077E+02  0.47000000000E+01 0. -1.
         -5    1    3    3    0  501  0.65004239684E+02 -0.81118553173E+02  0.55953679590E+03  0.56913028984E+03  0.47000000000E+01 0. -1.
          5    1    4    4  502    0 -0.62044763894E+02  0.32880174441E+02  0.40234966581E+02  0.81065412684E+02  0.47000000000E+01 0.  1.
         -5    1    4    4    0  502  0.66841295827E+01  0.50874832041E+02  0.20918565455E+03  0.21543828396E+03  0.47000000000E+01 0.  1.
<mgrwt>
<rscale>  0 0.34252225E+03</rscale>
<asrwt>0</asrwt>
<pdfrwt beam="1">  1       21 0.12953726E+00 0.34252225E+03</pdfrwt>
<pdfrwt beam="2">  1       21 0.53591531E-02 0.34252225E+03</pdfrwt>
<totfact> 0.98795389E+04</totfact>
</mgrwt>
</event>
<event>
 8    1  0.9400004E-006  0.2534156E+03  0.7546771E-02  0.1111165E+00
         21   -1    0    0  504  503  0.00000000000E+00  0.00000000000E+00  0.98197994483E+02  0.98197994483E+02  0.00000000000E+00 0. -1.
         21   -1    0    0  503  504 -0.00000000000E+00 -0.00000000000E+00 -0.16349483058E+03  0.16349483058E+03  0.00000000000E+00 0. -1.
         25    2    1    2    0    0 -0.33189122765E+01 -0.90353307319E+01 -0.51618763478E+02  0.13558322570E+03  0.12500264785E+03 0.  0.
         25    2    1    2    0    0  0.33189122765E+01  0.90353307319E+01 -0.13678072619E+02  0.12610959936E+03  0.12499555592E+03 0.  0.
          5    1    3    3  501    0 -0.34895588879E+02 -0.54333806387E+02 -0.83643713044E+01  0.65283361946E+02  0.47000000000E+01 0. -1.
         -5    1    3    3    0  501  0.31576676603E+02  0.45298475655E+02 -0.43254392174E+02  0.70299863757E+02  0.47000000000E+01 0. -1.
          5    1    4    4  502    0 -0.22703241946E+02  0.42062531151E+02  0.36610013182E+02  0.60391032338E+02  0.47000000000E+01 0.  1.
         -5    1    4    4    0  502  0.26022154222E+02 -0.33027200420E+02 -0.50288085800E+02  0.65718567022E+02  0.47000000000E+01 0.  1.
<mgrwt>
<rscale>  0 0.25341558E+03</rscale>
<asrwt>0</asrwt>
<pdfrwt beam="1">  1       21 0.15107384E-01 0.25341558E+03</pdfrwt>
<pdfrwt beam="2">  1       21 0.25153051E-01 0.25341558E+03</pdfrwt>
<totfact> 0.57339617E+05</totfact>
</mgrwt>
</event>
<event>
 8    1  0.9400004E-006  0.3063737E+03  0.7546771E-02  0.1082097E+00
         21   -1    0    0  504  503  0.00000000000E+00  0.00000000000E+00  0.20070566292E+03  0.20070566292E+03  0.00000000000E+00 0.  1.
         21   -1    0    0  503  504 -0.00000000000E+00 -0.00000000000E+00 -0.11691852724E+03  0.11691852724E+03  0.00000000000E+00 0.  1.
         25    2    1    2    0    0  0.65823810455E+02  0.55977551400E+02  0.21859426400E+02  0.15352443457E+03  0.12500262879E+03 0.  0.
         25    2    1    2    0    0 -0.65823810455E+02 -0.55977551400E+02  0.61927709276E+02  0.16409975559E+03  0.12500971292E+03 0.  0.
          5    1    3    3  501    0  0.83733204301E+02  0.12118748901E+02  0.49836806149E+02  0.98305192256E+02  0.47000000000E+01 0. -1.
         -5    1    3    3    0  501 -0.17909393845E+02  0.43858802498E+02 -0.27977379749E+02  0.55219242318E+02  0.47000000000E+01 0. -1.
          5    1    4    4  502    0 -0.51592763549E+02 -0.75826331289E+02  0.88616705091E+02  0.12761840067E+03  0.47000000000E+01 0.  1.
         -5    1    4    4    0  502 -0.14231046906E+02  0.19848779889E+02 -0.26688995815E+02  0.36481354919E+02  0.47000000000E+01 0.  1.
<mgrwt>
<rscale>  0 0.30637370E+03</rscale>
<asrwt>0</asrwt>
<pdfrwt beam="1">  1       21 0.30877794E-01 0.30637370E+03</pdfrwt>
<pdfrwt beam="2">  1       21 0.17987466E-01 0.30637370E+03</pdfrwt>
<totfact> 0.27567986E+05</totfact>
</mgrwt>
</event>
<event>
 8    1  0.9400004E-006  0.3792346E+03  0.7546771E-02  0.1051217E+00
         21   -1    0    0  504  503  0.00000000000E+00  0.00000000000E+00  0.67128899536E+02  0.67128899536E+02  0.00000000000E+00 0. -1.
         21   -1    0    0  503  504 -0.00000000000E+00 -0.00000000000E+00 -0.53560718464E+03  0.53560718464E+03  0.00000000000E+00 0. -1.
         25    2    1    2    0    0 -0.44645806581E+01  0.75422307021E+02 -0.42058456860E+02  0.15199299194E+03  0.12499799570E+03 0.  0.
         25    2    1    2    0    0  0.44645806581E+01 -0.75422307021E+02 -0.42641982824E+03  0.45074309223E+03  0.12500803334E+03 0.  0.
          5    1    3    3  501    0 -0.27485855212E+02  0.68355727968E+02 -0.78692971127E+02  0.10790111903E+03  0.47000000000E+01 0. -1.
         -5    1    3    3    0  501  0.23021274554E+02  0.70665790531E+01  0.36634514267E+02  0.44091872916E+02  0.47000000000E+01 0. -1.
          5    1    4    4  502    0  0.43188350161E+02 -0.48671418429E+02 -0.90803502504E+02  0.11181013652E+03  0.47000000000E+01 0.  1.
         -5    1    4    4    0  502 -0.38723769503E+02 -0.26750888592E+02 -0.33561632574E+03  0.33893295571E+03  0.47000000000E+01 0.  1.
<mgrwt>
<rscale>  0 0.37923460E+03</rscale>
<asrwt>0</asrwt>
<pdfrwt beam="1">  1       21 0.10327523E-01 0.37923460E+03</pdfrwt>
<pdfrwt beam="2">  1       21 0.82401107E-01 0.37923460E+03</pdfrwt>
<totfact> 0.92977371E+04</totfact>
</mgrwt>
</event>
<event>
 8    1  0.9400004E-006  0.4479720E+03  0.7546771E-02  0.1028329E+00
         21   -1    0    0  504  503  0.00000000000E+00  0.00000000000E+00  0.22917652570E+03  0.22917652570E+03  0.00000000000E+00 0. -1.
         21   -1    0    0  503  504 -0.00000000000E+00 -0.00000000000E+00 -0.21891299896E+03  0.21891299896E+03  0.00000000000E+00 0. -1.
         25    2    1    2    0    0 -0.97548998632E+02  0.10751377764E+03 -0.11098192488E+03  0.22136935783E+03  0.12494953149E+03 0.  0.
         25    2    1    2    0    0  0.97548998632E+02 -0.10751377764E+03  0.12124545163E+03  0.22672016683E+03  0.12500621982E+03 0.  0.
          5    1    3    3  501    0  0.12132413136E+02  0.59411063487E+02 -0.44015854896E+01  0.60978142543E+02  0.47000000000E+01 0. -1.
         -5    1    3    3    0  501 -0.10968141177E+03  0.48102714148E+02 -0.10658033940E+03  0.16039121529E+03  0.47000000000E+01 0. -1.
          5    1    4    4  502    0  0.64975909267E+02 -0.90086494558E+02  0.12618643345E+02  0.11188728903E+03  0.47000000000E+01 0.  1.
         -5    1    4    4    0  502  0.32573089365E+02 -0.17427283077E+02  0.10862680828E+03  0.11483287780E+03  0.47000000000E+01 0.  1.
<mgrwt>
<rscale>  0 0.44797197E+03</rscale>
<asrwt>0</asrwt>
<pdfrwt beam="1">  1       21 0.35257927E-01 0.44797197E+03</pdfrwt>
<pdfrwt beam="2">  1       21 0.33678923E-01 0.44797197E+03</pdfrwt>
<totfact> 0.60923460E+04</totfact>
</mgrwt>
</event>
<event>
 8    1  0.9400004E-006  0.2793384E+03  0.7546771E-02  0.1096051E+00
         21   -1    0    0  504  503  0.00000000000E+00  0.00000000000E+00  0.10648339300E+04  0.10648339300E+04  0.00000000000E+00 0.  1.
         21   -1    0    0  503  504 -0.00000000000E+00 -0.00000000000E+00 -0.18319743489E+02  0.18319743489E+02  0.00000000000E+00 0.  1.
         25    2    1    2    0    0 -0.64065367771E+01 -0.44003031977E+02  0.35398731972E+03  0.37803366516E+03  0.12500047574E+03 0.  0.
         25    2    1    2    0    0  0.64065367771E+01  0.44003031977E+02  0.69252686682E+03  0.70512000835E+03  0.12499381737E+03 0.  0.
          5    1    3    3  501    0  0.70276269582E+01 -0.18308676616E+02  0.34733107433E+03  0.34791602489E+03  0.47000000000E+01 0.  1.
         -5    1    3    3    0  501 -0.13434163735E+02 -0.25694355362E+02  0.66562453882E+01  0.30117640269E+02  0.47000000000E+01 0.  1.
          5    1    4    4  502    0  0.64934693230E+02  0.14751468803E+02  0.32504738553E+03  0.33183130211E+03  0.47000000000E+01 0. -1.
         -5    1    4    4    0  502 -0.58528156453E+02  0.29251563174E+02  0.36747948128E+03  0.37328870625E+03  0.47000000000E+01 0. -1.
<mgrwt>
<rscale>  0 0.27933839E+03</rscale>
<asrwt>0</asrwt>
<pdfrwt beam="1">  1       21 0.16382056E+00 0.27933839E+03</pdfrwt>
<pdfrwt beam="2">  1       21 0.28184229E-02 0.27933839E+03</pdfrwt>
<totfact> 0.15997784E+05</totfact>
</mgrwt>
</event>
<event>
 8    1  0.9400004E-006  0.2622202E+03  0.7546771E-02  0.1105817E+00
         21   -1    0    0  504  503  0.00000000000E+00  0.00000000000E+00  0.19518709269E+02  0.19518709269E+02  0.00000000000E+00 0.  1.
         21   -1    0    0  503  504 -0.00000000000E+00 -0.00000000000E+00 -0.88068646195E+03  0.88068646195E+03  0.00000000000E+00 0.  1.
         25    2    1    2    0    0  0.18133644823E+02  0.54203695892E+01 -0.31127613566E+03  0.33597109313E+03  0.12500213321E+03 0.  0.
         25    2    1    2    0    0 -0.18133644823E+02 -0.54203695892E+01 -0.54989161702E+03  0.56423407809E+03  0.12498437872E+03 0.  0.
          5    1    3    3  501    0 -0.31147460489E+02 -0.34080168998E+02 -0.54893203274E+02  0.71881680417E+02  0.47000000000E+01 0.  1.
         -5    1    3    3    0  501  0.49281105313E+02  0.39500538587E+02 -0.25638293239E+03  0.26408941272E+03  0.47000000000E+01 0.  1.
          5    1    4    4  502    0  0.10675424421E+02 -0.61290767178E+02 -0.30865525558E+03  0.31489788762E+03  0.47000000000E+01 0.  1.
         -5    1    4    4    0  502 -0.28809069244E+02  0.55870397589E+02 -0.24123636144E+03  0.24933619047E+03  0.47000000000E+01 0.  1.
<mgrwt>
<rscale>  0 0.26222024E+03</rscale>
<asrwt>0</asrwt>
<pdfrwt beam="1">  1       21 0.30028778E-02 0.26222024E+03</pdfrwt>
<pdfrwt beam="2">  1       21 0.13549025E+00 0.26222024E+03</pdfrwt>
<totfact> 0.24017907E+05</totfact>
</mgrwt>
</event>
<event>
 8    1  0.9400004E-006  0.2960912E+03  0.7546771E-02  0.1087211E+00
         21   -1    0    0  504  503  0.00000000000E+00  0.00000000000E+00  0.35100723682E+03  0.35100723682E+03  0.00000000000E+00 0.  1.
         21   -1    0    0  503  504 -0.00000000000E+00 -0.00000000000E+00 -0.62441745587E+02  0.62441745587E+02  0.00000000000E+00 0.  1.
         25    2    1    2    0    0 -0.45665213670E+01 -0.78333844858E+02  0.12800716903E+03  0.19536305499E+03  0.12499537418E+03 0.  0.
         25    2    1    2    0    0  0.45665213670E+01  0.78333844858E+02  0.16055832220E+03  0.21808592741E+03  0.12500181014E+03 0.  0.
          5    1    3    3  501    0  0.11249113997E+02  0.28865831516E+02  0.59014198310E+02  0.66817246254E+02  0.47000000000E+01 0. -1.
         -5    1    3    3    0  501 -0.15815635364E+02 -0.10719967637E+03  0.68992970716E+02  0.12854580874E+03  0.47000000000E+01 0. -1.
          5    1    4    4  502    0  0.70821241684E+01  0.11042921896E+03  0.99434349284E+02  0.14884236192E+03  0.47000000000E+01 0. -1.
         -5    1    4    4    0  502 -0.25156028014E+01 -0.32095374105E+02  0.61123972920E+02  0.69243565491E+02  0.47000000000E+01 0. -1.
<mgrwt>
<rscale>  0 0.29609123E+03</rscale>
<asrwt>0</asrwt>
<pdfrwt beam="1">  1       21 0.54001112E-01 0.29609123E+03</pdfrwt>
<pdfrwt beam="2">  1       21 0.96064226E-02 0.29609123E+03</pdfrwt>
<totfact> 0.27530878E+05</totfact>
</mgrwt>
</event>
<event>
 8    1  0.9400004E-006  0.2650552E+03  0.7546771E-02  0.1104143E+00
         21   -1    0    0  504  503  0.00000000000E+00  0.00000000000E+00  0.29519162354E+03  0.29519162354E+03  0.00000000000E+00 0.  1.
         21   -1    0    0  503  504 -0.00000000000E+00 -0.00000000000E+00 -0.59498871574E+02  0.59498871574E+02  0.00000000000E+00 0.  1.
         25    2    1    2    0    0  0.18221484759E+02  0.40088005042E+02  0.11814964643E+03  0.17754746887E+03  0.12499877638E+03 0.  0.
         25    2    1    2    0    0 -0.18221484759E+02 -0.40088005042E+02  0.11754310553E+03  0.17714302624E+03  0.12499679769E+03 0.  0.
          5    1    3    3  501    0 -0.70145044182E+01  0.26982463663E+02 -0.21143133866E+02  0.35304089384E+02  0.47000000000E+01 0. -1.
         -5    1    3    3    0  501  0.25235989177E+02  0.13105541378E+02  0.13929278030E+03  0.14224337949E+03  0.47000000000E+01 0. -1.
          5    1    4    4  502    0  0.22831069994E+02 -0.55202564626E+02  0.11887585321E+03  0.13312452582E+03  0.47000000000E+01 0.  1.
         -5    1    4    4    0  502 -0.41052554753E+02  0.15114559584E+02 -0.13327476760E+01  0.44018500423E+02  0.47000000000E+01 0.  1.
<mgrwt>
<rscale>  0 0.26505523E+03</rscale>
<asrwt>0</asrwt>
<pdfrwt beam="1">  1       21 0.45414095E-01 0.26505523E+03</pdfrwt>
<pdfrwt beam="2">  1       21 0.91536727E-02 0.26505523E+03</pdfrwt>
<totfact> 0.43425785E+05</totfact>
</mgrwt>
</event>
<event>
 8    1  0.9400004E-006  0.7359438E+03  0.7546771E-02  0.9657664E-01
         21   -1    0    0  504  503  0.00000000000E+00  0.00000000000E+00  0.70080636694E+03  0.70080636694E+03  0.00000000000E+00 0. -1.
         21   -1    0    0  503  504 -0.00000000000E+00 -0.00000000000E+00 -0.19321072562E+03  0.19321072562E+03  0.00000000000E+00 0. -1.
         25    2    1    2    0    0  0.80857656319E+02  0.32964223819E+03  0.17162475528E+03  0.40035364799E+03  0.12500408415E+03 0.  0.
         25    2    1    2    0    0 -0.80857656319E+02 -0.32964223819E+03  0.33597088604E+03  0.49366344457E+03  0.12500077781E+03 0.  0.
          5    1    3    3  501    0  0.17170221827E+02  0.23227749080E+03  0.63509230715E+02  0.24146047634E+03  0.47000000000E+01 0.  1.
         -5    1    3    3    0  501  0.63687434492E+02  0.97364747396E+02  0.10811552456E+03  0.15889317166E+03  0.47000000000E+01 0.  1.
          5    1    4    4  502    0 -0.35296029295E+02 -0.27373667890E+02  0.85815457707E+01  0.45725925967E+02  0.47000000000E+01 0.  1.
         -5    1    4    4    0  502 -0.45561627024E+02 -0.30226857030E+03  0.32738934027E+03  0.44793751860E+03  0.47000000000E+01 0.  1.
<mgrwt>
<rscale>  0 0.73594377E+03</rscale>
<asrwt>0</asrwt>
<pdfrwt beam="1">  1       21 0.10781636E+00 0.73594377E+03</pdfrwt>
<pdfrwt beam="2">  1       21 0.29724727E-01 0.73594377E+03</pdfrwt>
<totfact> 0.61113420E+03</totfact>
</mgrwt>
</event>
<event>
 8    1  0.9400004E-006  0.2891487E+03  0.7546771E-02  0.1090794E+00
         21   -1    0    0  504  503  0.00000000000E+00  0.00000000000E+00  0.35905812349E+02  0.35905812349E+02  0.00000000000E+00 0.  1.
         21   -1    0    0  503  504 -0.00000000000E+00 -0.00000000000E+00 -0.58212685236E+03  0.58212685236E+03  0.00000000000E+00 0.  1.
         25    2    1    2    0    0  0.66957528199E+01  0.22224540988E+02 -0.12596925719E+03  0.17898212082E+03  0.12501032952E+03 0.  0.
         25    2    1    2    0    0 -0.66957528199E+01 -0.22224540988E+02 -0.42025178283E+03  0.43905054390E+03  0.12496021686E+03 0.  0.
          5    1    3    3  501    0  0.88468480348E+01  0.51906704486E+01 -0.14924994415E+03  0.14967580168E+03  0.47000000000E+01 0.  1.
         -5    1    3    3    0  501 -0.21510952149E+01  0.17033870540E+02  0.23280686960E+02  0.29306319140E+02  0.47000000000E+01 0.  1.
          5    1    4    4  502    0  0.41653938374E+02 -0.48194497873E+02 -0.14661209116E+03  0.15992171673E+03  0.47000000000E+01 0.  1.
         -5    1    4    4    0  502 -0.48349691194E+02  0.25969956885E+02 -0.27363969167E+03  0.27912882717E+03  0.47000000000E+01 0.  1.
<mgrwt>
<rscale>  0 0.28914866E+03</rscale>
<asrwt>0</asrwt>
<pdfrwt beam="1">  1       21 0.55239717E-02 0.28914866E+03</pdfrwt>
<pdfrwt beam="2">  1       21 0.89557968E-01 0.28914866E+03</pdfrwt>
<totfact> 0.23479942E+05</totfact>
</mgrwt>
</event>
<event>
 8    1  0.9400004E-006  0.3773971E+03  0.7546771E-02  0.1051900E+00
         21   -1    0    0  504  503  0.00000000000E+00  0.00000000000E+00  0.48534668526E+02  0.48534668526E+02  0.00000000000E+00 0. -1.
         21   -1    0    0  503  504 -0.00000000000E+00 -0.00000000000E+00 -0.73364351738E+03  0.73364351738E+03  0.00000000000E+00 0. -1.
         25    2    1    2    0    0  0.97210102590E+02  0.10085316646E+03 -0.30313659500E+03  0.35656222336E+03  0.12499463457E+03 0.  0.
         25    2    1    2    0    0 -0.97210102590E+02 -0.10085316646E+03 -0.38197225386E+03  0.42561596255E+03  0.12499991851E+03 0.  0.
          5    1    3    3  501    0  0.16831390612E+02  0.77801462808E+02 -0.23636071592E+03  0.24944907567E+03  0.47000000000E+01 0. -1.
         -5    1    3    3    0  501  0.80378711978E+02  0.23051703650E+02 -0.66775879077E+02  0.10711314768E+03  0.47000000000E+01 0. -1.
          5    1    4    4  502    0 -0.10662960227E+02 -0.65045111244E+02 -0.27735664762E+03  0.28511991371E+03  0.47000000000E+01 0.  1.
         -5    1    4    4    0  502 -0.86547142363E+02 -0.35808055214E+02 -0.10461560624E+03  0.14049604883E+03  0.47000000000E+01 0.  1.
<mgrwt>
<rscale>  0 0.37739711E+03</rscale>
<asrwt>0</asrwt>
<pdfrwt beam="1">  1       21 0.74668728E-02 0.37739711E+03</pdfrwt>
<pdfrwt beam="2">  1       21 0.11286822E+00 0.37739711E+03</pdfrwt>
<totfact> 0.77850154E+04</totfact>
</mgrwt>
</event>
<event>
 8    1  0.9400004E-006  0.2656017E+03  0.7546771E-02  0.1103824E+00
         21   -1    0    0  504  503  0.00000000000E+00  0.00000000000E+00  0.15677941741E+02  0.15677941741E+02  0.00000000000E+00 0.  1.
         21   -1    0    0  503  504 -0.00000000000E+00 -0.00000000000E+00 -0.11248967102E+04  0.11248967102E+04  0.00000000000E+00 0.  1.
         25    2    1    2    0    0 -0.40097271884E+02 -0.13910015900E+02 -0.49165120158E+03  0.50906520379E+03  0.12500079177E+03 0.  0.
         25    2    1    2    0    0  0.40097271884E+02  0.13910015900E+02 -0.61756756690E+03  0.63150944817E+03  0.12495280583E+03 0.  0.
          5    1    3    3  501    0  0.29941945974E+01  0.50442433459E+02 -0.13887681196E+03  0.14785893005E+03  0.47000000000E+01 0. -1.
         -5    1    3    3    0  501 -0.43091466481E+02 -0.64352449359E+02 -0.35277438961E+03  0.36120627374E+03  0.47000000000E+01 0. -1.
          5    1    4    4  502    0  0.22616484367E+02  0.56691312857E+02 -0.51838817769E+03  0.52199023275E+03  0.47000000000E+01 0.  1.
         -5    1    4    4    0  502  0.17480787517E+02 -0.42781296957E+02 -0.99179389211E+02  0.10951921542E+03  0.47000000000E+01 0.  1.
<mgrwt>
<rscale>  0 0.26560169E+03</rscale>
<asrwt>0</asrwt>
<pdfrwt beam="1">  1       21 0.24119917E-02 0.26560169E+03</pdfrwt>
<pdfrwt beam="2">  1       21 0.17306099E+00 0.26560169E+03</pdfrwt>
<totfact> 0.17861474E+05</totfact>
</mgrwt>
</event>
<event>
 8    1  0.9400004E-006  0.3414639E+03  0.7546771E-02  0.1066174E+00
         21   -1    0    0  504  503  0.00000000000E+00  0.00000000000E+00  0.75079581209E+02  0.75079581209E+02  0.00000000000E+00 0.  1.
         21   -1    0    0  503  504 -0.00000000000E+00 -0.00000000000E+00 -0.38824677286E+03  0.38824677286E+03  0.00000000000E+00 0.  1.
         25    2    1    2    0    0  0.35009195775E+02  0.87913212371E+02 -0.24831086113E+03  0.29366388917E+03  0.12500327735E+03 0.  0.
         25    2    1    2    0    0 -0.35009195775E+02 -0.87913212371E+02 -0.64856330521E+02  0.16966246490E+03  0.12499852675E+03 0.  0.
          5    1    3    3  501    0 -0.18153007784E+02  0.79097515472E+02 -0.69825499076E+02  0.10716174208E+03  0.47000000000E+01 0. -1.
         -5    1    3    3    0  501  0.53162203559E+02  0.88156968992E+01 -0.17848536205E+03  0.18650214708E+03  0.47000000000E+01 0. -1.
          5    1    4    4  502    0  0.22880510913E+02 -0.11657489058E+00 -0.59881403068E+02  0.64275997096E+02  0.47000000000E+01 0.  1.
         -5    1    4    4    0  502 -0.57889706688E+02 -0.87796637480E+02 -0.49749274532E+01  0.10538646781E+03  0.47000000000E+01 0.  1.
<mgrwt>
<rscale>  0 0.34146394E+03</rscale>
<asrwt>0</asrwt>
<pdfrwt beam="1">  1       21 0.11550705E-01 0.34146394E+03</pdfrwt>
<pdfrwt beam="2">  1       21 0.59730272E-01 0.34146394E+03</pdfrwt>
<totfact> 0.15769249E+05</totfact>
</mgrwt>
</event>
<event>
 8    1  0.9400004E-006  0.2944281E+03  0.7546771E-02  0.1088060E+00
         21   -1    0    0  504  503  0.00000000000E+00  0.00000000000E+00  0.36415625160E+02  0.36415625160E+02  0.00000000000E+00 0.  1.
         21   -1    0    0  503  504 -0.00000000000E+00 -0.00000000000E+00 -0.59512851889E+03  0.59512851889E+03  0.00000000000E+00 0.  1.
         25    2    1    2    0    0 -0.60006265477E+02  0.32453188948E+02 -0.35939993852E+03  0.38658625401E+03  0.12500661830E+03 0.  0.
         25    2    1    2    0    0  0.60006265477E+02 -0.32453188948E+02 -0.19931295521E+03  0.24495789004E+03  0.12499900962E+03 0.  0.
          5    1    3    3  501    0  0.31505096066E+02 -0.92824656193E+01 -0.41563882114E+02  0.53182530426E+02  0.47000000000E+01 0.  1.
         -5    1    3    3    0  501 -0.91511361543E+02  0.41735654567E+02 -0.31783605640E+03  0.33340372359E+03  0.47000000000E+01 0.  1.
          5    1    4    4  502    0  0.33215954796E+02  0.16827245339E+02 -0.18234568860E+03  0.18616792417E+03  0.47000000000E+01 0.  1.
         -5    1    4    4    0  502  0.26790310681E+02 -0.49280434287E+02 -0.16967266609E+02  0.58789965862E+02  0.47000000000E+01 0.  1.
<mgrwt>
<rscale>  0 0.29442810E+03</rscale>
<asrwt>0</asrwt>
<pdfrwt beam="1">  1       21 0.56024042E-02 0.29442810E+03</pdfrwt>
<pdfrwt beam="2">  1       21 0.91558228E-01 0.29442810E+03</pdfrwt>
<totfact> 0.21733224E+05</totfact>
</mgrwt>
</event>
<event>
 8    1  0.9400004E-006  0.3547008E+03  0.7546771E-02  0.1060702E+00
         21   -1    0    0  504  503  0.00000000000E+00  0.00000000000E+00  0.71543747384E+03  0.71543747384E+03  0.00000000000E+00 0.  1.
         21   -1    0    0  503  504 -0.00000000000E+00 -0.00000000000E+00 -0.43963539812E+02  0.43963539812E+02  0.00000000000E+00 0.  1.
         25    2    1    2    0    0 -0.93195468954E+02 -0.61146694886E+02  0.21081530475E+03  0.26924254992E+03  0.12499657692E+03 0.  0.
         25    2    1    2    0    0  0.93195468954E+02  0.61146694886E+02  0.46065862928E+03  0.49015846373E+03  0.12499853243E+03 0.  0.
          5    1    3    3  501    0 -0.74672906891E+02  0.24809262252E+02  0.11094652174E+03  0.13609835856E+03  0.47000000000E+01 0. -1.
         -5    1    3    3    0  501 -0.18522562063E+02 -0.85955957138E+02  0.99868783012E+02  0.13314419136E+03  0.47000000000E+01 0. -1.
          5    1    4    4  502    0  0.33167460313E+02 -0.17497872282E+02  0.29989677453E+02  0.48246520203E+02  0.47000000000E+01 0.  1.
         -5    1    4    4    0  502  0.60028008642E+02  0.78644567168E+02  0.43066895182E+03  0.44191194353E+03  0.47000000000E+01 0.  1.
<mgrwt>
<rscale>  0 0.35470080E+03</rscale>
<asrwt>0</asrwt>
<pdfrwt beam="1">  1       21 0.11006730E+00 0.35470080E+03</pdfrwt>
<pdfrwt beam="2">  1       21 0.67636220E-02 0.35470080E+03</pdfrwt>
<totfact> 0.99095668E+04</totfact>
</mgrwt>
</event>
<event>
 8    1  0.9400004E-006  0.4192761E+03  0.7546771E-02  0.1037302E+00
         21   -1    0    0  504  503  0.00000000000E+00  0.00000000000E+00  0.24298464473E+03  0.24298464473E+03  0.00000000000E+00 0.  1.
         21   -1    0    0  503  504 -0.00000000000E+00 -0.00000000000E+00 -0.18086781423E+03  0.18086781423E+03  0.00000000000E+00 0.  1.
         25    2    1    2    0    0  0.14581688143E+03 -0.36640998812E+02 -0.45368865964E+02  0.20072890002E+03  0.12501452555E+03 0.  0.
         25    2    1    2    0    0 -0.14581688143E+03  0.36640998812E+02  0.10748569646E+03  0.22312355895E+03  0.12500328760E+03 0.  0.
          5    1    3    3  501    0  0.20557673871E+02  0.25469870697E+02  0.27489491939E+02  0.43001098072E+02  0.47000000000E+01 0.  1.
         -5    1    3    3    0  501  0.12525920756E+03 -0.62110869509E+02 -0.72858357903E+02  0.15772780194E+03  0.47000000000E+01 0.  1.
          5    1    4    4  502    0 -0.13182722431E+03  0.76358733758E+02  0.75868148067E+02  0.17025609881E+03  0.47000000000E+01 0.  1.
         -5    1    4    4    0  502 -0.13989657123E+02 -0.39717734947E+02  0.31617548395E+02  0.52867460145E+02  0.47000000000E+01 0.  1.
<mgrwt>
<rscale>  0 0.41927605E+03</rscale>
<asrwt>0</asrwt>
<pdfrwt beam="1">  1       21 0.37382253E-01 0.41927605E+03</pdfrwt>
<pdfrwt beam="2">  1       21 0.27825818E-01 0.41927605E+03</pdfrwt>
<totfact> 0.79573675E+04</totfact>
</mgrwt>
</event>
<event>
 8    1  0.9400004E-006  0.2996006E+03  0.7546771E-02  0.1085440E+00
         21   -1    0    0  504  503  0.00000000000E+00  0.00000000000E+00  0.16850764454E+03  0.16850764454E+03  0.00000000000E+00 0.  1.
         21   -1    0    0  503  504 -0.00000000000E+00 -0.00000000000E+00 -0.13316983951E+03  0.13316983951E+03  0.00000000000E+00 0.  1.
         25    2    1    2    0    0  0.44721300022E+02  0.95898625683E+01  0.86874098183E+02  0.15894736119E+03  0.12500077822E+03 0.  0.
         25    2    1    2    0    0 -0.44721300022E+02 -0.95898625683E+01 -0.51536293160E+02  0.14273012286E+03  0.12499575320E+03 0.  0.
          5    1    3    3  501    0  0.39352705943E+02  0.21459107842E+02 -0.21329247768E+02  0.49861363647E+02  0.47000000000E+01 0.  1.
         -5    1    3    3    0  501  0.53685940791E+01 -0.11869245274E+02  0.10820334595E+03  0.10908599755E+03  0.47000000000E+01 0.  1.
          5    1    4    4  502    0 -0.77029794646E+02 -0.63501224081E+01 -0.70597911013E+02  0.10478582136E+03  0.47000000000E+01 0. -1.
         -5    1    4    4    0  502  0.32308494623E+02 -0.32397401602E+01  0.19061617853E+02  0.37944301500E+02  0.47000000000E+01 0. -1.
<mgrwt>
<rscale>  0 0.29960064E+03</rscale>
<asrwt>0</asrwt>
<pdfrwt beam="1">  1       21 0.25924253E-01 0.29960064E+03</pdfrwt>
<pdfrwt beam="2">  1       21 0.20487668E-01 0.29960064E+03</pdfrwt>
<totfact> 0.30429333E+05</totfact>
</mgrwt>
</event>
<event>
 8    1  0.9400004E-006  0.2786135E+03  0.7546771E-02  0.1096449E+00
         21   -1    0    0  504  503  0.00000000000E+00  0.00000000000E+00  0.41533500978E+02  0.41533500978E+02  0.00000000000E+00 0.  1.
         21   -1    0    0  503  504 -0.00000000000E+00 -0.00000000000E+00 -0.46724612337E+03  0.46724612337E+03  0.00000000000E+00 0.  1.
         25    2    1    2    0    0 -0.87394523755E+01  0.49729107244E+02 -0.14896497880E+03  0.20094259458E+03  0.12505198628E+03 0.  0.
         25    2    1    2    0    0  0.87394523755E+01 -0.49729107244E+02 -0.27674764359E+03  0.30783702977E+03  0.12500006612E+03 0.  0.
          5    1    3    3  501    0 -0.58233931373E+02  0.58461891126E+02 -0.76435753616E+02  0.11257663127E+03  0.47000000000E+01 0.  1.
         -5    1    3    3    0  501  0.49494478997E+02 -0.87327838813E+01 -0.72529225188E+02  0.88365963311E+02  0.47000000000E+01 0.  1.
          5    1    4    4  502    0  0.64167415413E+02 -0.84171458247E+01 -0.11895886919E+03  0.13550501136E+03  0.47000000000E+01 0. -1.
         -5    1    4    4    0  502 -0.55427963038E+02 -0.41311961420E+02 -0.15778877439E+03  0.17233201841E+03  0.47000000000E+01 0. -1.
<mgrwt>
<rscale>  0 0.27861348E+03</rscale>
<asrwt>0</asrwt>
<pdfrwt beam="1">  1       21 0.63897691E-02 0.27861348E+03</pdfrwt>
<pdfrwt beam="2">  1       21 0.71884022E-01 0.27861348E+03</pdfrwt>
<totfact> 0.30261686E+05</totfact>
</mgrwt>
</event>
<event>
 8    1  0.9400004E-006  0.2896995E+03  0.7546771E-02  0.1090506E+00
         21   -1    0    0  504  503  0.00000000000E+00  0.00000000000E+00  0.26770839544E+03  0.26770839544E+03  0.00000000000E+00 0.  1.
         21   -1    0    0  503  504 -0.00000000000E+00 -0.00000000000E+00 -0.78374245066E+02  0.78374245066E+02  0.00000000000E+00 0.  1.
         25    2    1    2    0    0  0.54262154284E+02  0.13040084029E+02  0.38095103580E+02  0.14209133272E+03  0.12499713892E+03 0.  0.
         25    2    1    2    0    0 -0.54262154284E+02 -0.13040084029E+02  0.15123904679E+03  0.20399130779E+03  0.12499911679E+03 0.  0.
          5    1    3    3  501    0  0.27378374601E+02 -0.55763606727E+02  0.10965051214E+02  0.63257233413E+02  0.47000000000E+01 0. -1.
         -5    1    3    3    0  501  0.26883779683E+02  0.68803690756E+02  0.27130052366E+02  0.78834099304E+02  0.47000000000E+01 0. -1.
          5    1    4    4  502    0 -0.90813915311E+02 -0.23248884825E+02  0.80830394869E+02  0.12386815811E+03  0.47000000000E+01 0.  1.
         -5    1    4    4    0  502  0.36551761028E+02  0.10208800796E+02  0.70408651925E+02  0.80123149675E+02  0.47000000000E+01 0.  1.
<mgrwt>
<rscale>  0 0.28969945E+03</rscale>
<asrwt>0</asrwt>
<pdfrwt beam="1">  1       21 0.41185906E-01 0.28969945E+03</pdfrwt>
<pdfrwt beam="2">  1       21 0.12057576E-01 0.28969945E+03</pdfrwt>
<totfact> 0.32305954E+05</totfact>
</mgrwt>
</event>
<event>
 8    1  0.9400004E-006  0.3320312E+03  0.7546771E-02  0.1070242E+00
         21   -1    0    0  504  503  0.00000000000E+00  0.00000000000E+00  0.22195116074E+03  0.22195116074E+03  0.00000000000E+00 0.  1.
         21   -1    0    0  503  504 -0.00000000000E+00 -0.00000000000E+00 -0.12417679128E+03  0.12417679128E+03  0.00000000000E+00 0.  1.
         25    2    1    2    0    0  0.63033262391E+02 -0.88813227932E+02  0.39905481599E+02  0.17052808102E+03  0.12500558920E+03 0.  0.
         25    2    1    2    0    0 -0.63033262391E+02  0.88813227932E+02  0.57868887861E+02  0.17559987101E+03  0.12500209955E+03 0.  0.
          5    1    3    3  501    0  0.38307440575E+02  0.22387544472E+02 -0.10551621348E+02  0.45848542659E+02  0.47000000000E+01 0.  1.
         -5    1    3    3    0  501  0.24725821816E+02 -0.11120077240E+03  0.50457102947E+02  0.12467953836E+03  0.47000000000E+01 0.  1.
          5    1    4    4  502    0  0.25254086156E+02  0.25439024498E+01  0.44375393637E+02  0.51337178221E+02  0.47000000000E+01 0.  1.
         -5    1    4    4    0  502 -0.88287348547E+02  0.86269325482E+02  0.13493494224E+02  0.12426269279E+03  0.47000000000E+01 0.  1.
<mgrwt>
<rscale>  0 0.33203122E+03</rscale>
<asrwt>0</asrwt>
<pdfrwt beam="1">  1       21 0.34146332E-01 0.33203122E+03</pdfrwt>
<pdfrwt beam="2">  1       21 0.19104122E-01 0.33203122E+03</pdfrwt>
<totfact> 0.20051697E+05</totfact>
</mgrwt>
</event>
<event>
 8    1  0.9400004E-006  0.2611840E+03  0.7546771E-02  0.1106434E+00
         21   -1    0    0  504  503  0.00000000000E+00  0.00000000000E+00  0.10753842639E+03  0.10753842639E+03  0.00000000000E+00 0.  1.
         21   -1    0    0  503  504 -0.00000000000E+00 -0.00000000000E+00 -0.15858771487E+03  0.15858771487E+03  0.00000000000E+00 0.  1.
         25    2    1    2    0    0 -0.37010086078E+02 -0.64865558576E+01 -0.21340308998E+02  0.13226414486E+03  0.12500629323E+03 0.  0.
         25    2    1    2    0    0  0.37010086078E+02  0.64865558576E+01 -0.29708979487E+02  0.13386199640E+03  0.12499835495E+03 0.  0.
          5    1    3    3  501    0 -0.68429245792E+02 -0.11898463377E+02 -0.52688509679E+02  0.87305808298E+02  0.47000000000E+01 0. -1.
         -5    1    3    3    0  501  0.31419159713E+02  0.54119075196E+01  0.31348200681E+02  0.44958336558E+02  0.47000000000E+01 0. -1.
          5    1    4    4  502    0 -0.42984173685E+02 -0.74359768026E+01 -0.28876569770E+02  0.52525034223E+02  0.47000000000E+01 0.  1.
         -5    1    4    4    0  502  0.79994259764E+02  0.13922532660E+02 -0.83240971655E+00  0.81336962180E+02  0.47000000000E+01 0.  1.
<mgrwt>
<rscale>  0 0.26118402E+03</rscale>
<asrwt>0</asrwt>
<pdfrwt beam="1">  1       21 0.16544373E-01 0.26118402E+03</pdfrwt>
<pdfrwt beam="2">  1       21 0.24398110E-01 0.26118402E+03</pdfrwt>
<totfact> 0.51364035E+05</totfact>
</mgrwt>
</event>
<event>
 8    1  0.9400004E-006  0.2569047E+03  0.7546771E-02  0.1109017E+00
         21   -1    0    0  504  503  0.00000000000E+00  0.00000000000E+00  0.64337737804E+02  0.64337737804E+02  0.00000000000E+00 0.  1.
         21   -1    0    0  503  504 -0.00000000000E+00 -0.00000000000E+00 -0.25645919957E+03  0.25645919957E+03  0.00000000000E+00 0.  1.
         25    2    1    2    0    0  0.23029122880E+02  0.92453785431E+01 -0.11615440819E+03  0.17243636304E+03  0.12500654076E+03 0.  0.
         25    2    1    2    0    0 -0.23029122880E+02 -0.92453785431E+01 -0.75967053570E+02  0.14836057433E+03  0.12499619699E+03 0.  0.
          5    1    3    3  501    0  0.50398234378E+02  0.52947900308E+02 -0.84148495011E+02  0.11156397890E+03  0.47000000000E+01 0. -1.
         -5    1    3    3    0  501 -0.27369111498E+02 -0.43702521765E+02 -0.32005913183E+02  0.60872384145E+02  0.47000000000E+01 0. -1.
          5    1    4    4  502    0  0.11911127046E+02 -0.62311895458E+02 -0.34849058685E+02  0.72534089601E+02  0.47000000000E+01 0. -1.
         -5    1    4    4    0  502 -0.34940249927E+02  0.53066516915E+02 -0.41117994885E+02  0.75826484725E+02  0.47000000000E+01 0. -1.
<mgrwt>
<rscale>  0 0.25690469E+03</rscale>
<asrwt>0</asrwt>
<pdfrwt beam="1">  1       21 0.98981136E-02 0.25690469E+03</pdfrwt>
<pdfrwt beam="2">  1       21 0.39455261E-01 0.25690469E+03</pdfrwt>
<totfact> 0.50525005E+05</totfact>
</mgrwt>
</event>
<event>
 8    1  0.9400004E-006  0.2625927E+03  0.7546771E-02  0.1105595E+00
         21   -1    0    0  504  503  0.00000000000E+00  0.00000000000E+00  0.41406766656E+02  0.41406766656E+02  0.00000000000E+00 0. -1.
         21   -1    0    0  503  504 -0.00000000000E+00 -0.00000000000E+00 -0.41632647153E+03  0.41632647153E+03  0.00000000000E+00 0. -1.
         25    2    1    2    0    0 -0.19715960030E+02 -0.22710350878E+02 -0.23395396237E+03  0.26695293976E+03  0.12499974568E+03 0.  0.
         25    2    1    2    0    0  0.19715960030E+02  0.22710350878E+02 -0.14096574251E+03  0.19078029843E+03  0.12498520950E+03 0.  0.
          5    1    3    3  501    0 -0.37816892518E+02 -0.34950421429E+02 -0.26138987667E+02  0.57939502881E+02  0.47000000000E+01 0.  1.
         -5    1    3    3    0  501  0.18100932489E+02  0.12240070551E+02 -0.20781497470E+03  0.20901343688E+03  0.47000000000E+01 0.  1.
          5    1    4    4  502    0  0.80283581383E+01  0.68708707153E+02 -0.12019859410E+03  0.13876286606E+03  0.47000000000E+01 0. -1.
         -5    1    4    4    0  502  0.11687601891E+02 -0.45998356275E+02 -0.20767148409E+02  0.52017432376E+02  0.47000000000E+01 0. -1.
<mgrwt>
<rscale>  0 0.26259271E+03</rscale>
<asrwt>0</asrwt>
<pdfrwt beam="1">  1       21 0.63702718E-02 0.26259271E+03</pdfrwt>
<pdfrwt beam="2">  1       21 0.64050227E-01 0.26259271E+03</pdfrwt>
<totfact> 0.39401926E+05</totfact>
</mgrwt>
</event>
<event>
 8    1  0.9400004E-006  0.2549106E+03  0.7546771E-02  0.1110240E+00
         21   -1    0    0  504  503  0.00000000000E+00  0.00000000000E+00  0.34993787850E+02  0.34993787850E+02  0.00000000000E+00 0.  1.
         21   -1    0    0  503  504 -0.00000000000E+00 -0.00000000000E+00 -0.46422107659E+03  0.46422107659E+03  0.00000000000E+00 0.  1.
         25    2    1    2    0    0 -0.24246736373E+02 -0.48775159772E+01 -0.21805851831E+03  0.25258096085E+03  0.12504371232E+03 0.  0.
         25    2    1    2    0    0  0.24246736373E+02  0.48775159772E+01 -0.21116877043E+03  0.24663390359E+03  0.12499735360E+03 0.  0.
          5    1    3    3  501    0 -0.11841296549E+02  0.41338206932E+02 -0.18045798532E+02  0.46870081086E+02  0.47000000000E+01 0. -1.
         -5    1    3    3    0  501 -0.12405439824E+02 -0.46215722909E+02 -0.20001271977E+03  0.20571087976E+03  0.47000000000E+01 0. -1.
          5    1    4    4  502    0  0.37281804533E+02 -0.24463549593E+02 -0.14233608209E+02  0.47043424733E+02  0.47000000000E+01 0.  1.
         -5    1    4    4    0  502 -0.13035068160E+02  0.29341065570E+02 -0.19693516222E+03  0.19959047886E+03  0.47000000000E+01 0.  1.
<mgrwt>
<rscale>  0 0.25491060E+03</rscale>
<asrwt>0</asrwt>
<pdfrwt beam="1">  1       21 0.53836600E-02 0.25491060E+03</pdfrwt>
<pdfrwt beam="2">  1       21 0.71418623E-01 0.25491060E+03</pdfrwt>
<totfact> 0.41449217E+05</totfact>
</mgrwt>
</event>
<event>
 8    1  0.9400004E-006  0.3792689E+03  0.7546771E-02  0.1051204E+00
         21   -1    0    0  504  503  0.00000000000E+00  0.00000000000E+00  0.53515980100E+02  0.53515980100E+02  0.00000000000E+00 0.  1.
         21   -1    0    0  503  504 -0.00000000000E+00 -0.00000000000E+00 -0.67197166159E+03  0.67197166159E+03  0.00000000000E+00 0.  1.
         25    2    1    2    0    0 -0.16747012056E+02 -0.12129482680E+03 -0.44902488043E+03  0.48191643456E+03  0.12500883662E+03 0.  0.
         25    2    1    2    0    0  0.16747012056E+02  0.12129482680E+03 -0.16943080106E+03  0.24357120713E+03  0.12500895638E+03 0.  0.
          5    1    3    3  501    0 -0.65541445320E+02 -0.36095587449E+02 -0.22828205676E+03  0.24027767255E+03  0.47000000000E+01 0. -1.
         -5    1    3    3    0  501  0.48794433265E+02 -0.85199239347E+02 -0.22074282367E+03  0.24163876201E+03  0.47000000000E+01 0. -1.
          5    1    4    4  502    0 -0.52161735130E+02  0.42900989755E+02 -0.45962107223E+02  0.81828765321E+02  0.47000000000E+01 0. -1.
         -5    1    4    4    0  502  0.68908747185E+02  0.78393837041E+02 -0.12346869384E+03  0.16174244181E+03  0.47000000000E+01 0. -1.
<mgrwt>
<rscale>  0 0.37926889E+03</rscale>
<asrwt>0</asrwt>
<pdfrwt beam="1">  1       21 0.82332275E-02 0.37926889E+03</pdfrwt>
<pdfrwt beam="2">  1       21 0.10338026E+00 0.37926889E+03</pdfrwt>
<totfact> 0.81296403E+04</totfact>
</mgrwt>
</event>
<event>
 8    1  0.9400004E-006  0.3164717E+03  0.7546771E-02  0.1077285E+00
         21   -1    0    0  504  503  0.00000000000E+00  0.00000000000E+00  0.15184818117E+03  0.15184818117E+03  0.00000000000E+00 0. -1.
         21   -1    0    0  503  504 -0.00000000000E+00 -0.00000000000E+00 -0.16489226423E+03  0.16489226423E+03  0.00000000000E+00 0. -1.
         25    2    1    2    0    0  0.52111028179E+02  0.61132258185E+02 -0.60972663882E+02  0.16061058004E+03  0.12500152172E+03 0.  0.
         25    2    1    2    0    0 -0.52111028179E+02 -0.61132258185E+02  0.47928580819E+02  0.15612986535E+03  0.12500669481E+03 0.  0.
          5    1    3    3  501    0  0.85960181480E+02  0.61535909342E+02 -0.67911037782E+02  0.12573710666E+03  0.47000000000E+01 0.  1.
         -5    1    3    3    0  501 -0.33849153301E+02 -0.40365115632E+00  0.69383738993E+01  0.34873473383E+02  0.47000000000E+01 0.  1.
          5    1    4    4  502    0 -0.27250364916E+02  0.35345844811E+02  0.32017517204E+02  0.55128237241E+02  0.47000000000E+01 0.  1.
         -5    1    4    4    0  502 -0.24860663264E+02 -0.96478102996E+02  0.15911063615E+02  0.10100162811E+03  0.47000000000E+01 0.  1.
<mgrwt>
<rscale>  0 0.31647174E+03</rscale>
<asrwt>0</asrwt>
<pdfrwt beam="1">  1       21 0.23361259E-01 0.31647174E+03</pdfrwt>
<pdfrwt beam="2">  1       21 0.25368041E-01 0.31647174E+03</pdfrwt>
<totfact> 0.24634001E+05</totfact>
</mgrwt>
</event>
<event>
 8    1  0.9400004E-006  0.3726106E+03  0.7546771E-02  0.1053699E+00
         21   -1    0    0  504  503  0.00000000000E+00  0.00000000000E+00  0.23845226848E+03  0.23845226848E+03  0.00000000000E+00 0.  1.
         21   -1    0    0  503  504 -0.00000000000E+00 -0.00000000000E+00 -0.14556234498E+03  0.14556234498E+03  0.00000000000E+00 0.  1.
         25    2    1    2    0    0  0.54391134189E+02  0.90936387535E+02 -0.44908887974E+02  0.16991006089E+03  0.12499919407E+03 0.  0.
         25    2    1    2    0    0 -0.54391134189E+02 -0.90936387535E+02  0.13779881148E+03  0.21410455257E+03  0.12499769969E+03 0.  0.
          5    1    3    3  501    0  0.45118743371E+02 -0.38316285390E+01  0.24767805757E+02  0.51825829300E+02  0.47000000000E+01 0.  1.
         -5    1    3    3    0  501  0.92723908182E+01  0.94768016074E+02 -0.69676693731E+02  0.11808423159E+03  0.47000000000E+01 0.  1.
          5    1    4    4  502    0 -0.57290538941E+02 -0.30293959785E+02  0.13874225074E+03  0.15320389026E+03  0.47000000000E+01 0.  1.
         -5    1    4    4    0  502  0.28994047521E+01 -0.60642427750E+02 -0.94343925809E+00  0.60900662303E+02  0.47000000000E+01 0.  1.
<mgrwt>
<rscale>  0 0.37261064E+03</rscale>
<asrwt>0</asrwt>
<pdfrwt beam="1">  1       21 0.36684964E-01 0.37261064E+03</pdfrwt>
<pdfrwt beam="2">  1       21 0.22394207E-01 0.37261064E+03</pdfrwt>
<totfact> 0.12724611E+05</totfact>
</mgrwt>
</event>
<event>
 8    1  0.9400004E-006  0.2693575E+03  0.7546771E-02  0.1101648E+00
         21   -1    0    0  504  503  0.00000000000E+00  0.00000000000E+00  0.36434004284E+03  0.36434004284E+03  0.00000000000E+00 0.  1.
         21   -1    0    0  503  504 -0.00000000000E+00 -0.00000000000E+00 -0.49784181249E+02  0.49784181249E+02  0.00000000000E+00 0.  1.
         25    2    1    2    0    0  0.43417487094E+00  0.21219629277E+01  0.80271245014E+02  0.14857127338E+03  0.12500103705E+03 0.  0.
         25    2    1    2    0    0 -0.43417487094E+00 -0.21219629277E+01  0.23428461658E+03  0.26555295071E+03  0.12499758730E+03 0.  0.
          5    1    3    3  501    0  0.13783380649E+02  0.39633779584E+02  0.96488359533E+02  0.10532289206E+03  0.47000000000E+01 0.  1.
         -5    1    3    3    0  501 -0.13349205778E+02 -0.37511816656E+02 -0.16217114519E+02  0.43248381323E+02  0.47000000000E+01 0.  1.
          5    1    4    4  502    0 -0.26117886658E+02  0.33998720128E+02  0.21081510749E+03  0.21518168259E+03  0.47000000000E+01 0. -1.
         -5    1    4    4    0  502  0.25683711787E+02 -0.36120683056E+02  0.23469509088E+02  0.50371268124E+02  0.47000000000E+01 0. -1.
<mgrwt>
<rscale>  0 0.26935754E+03</rscale>
<asrwt>0</asrwt>
<pdfrwt beam="1">  1       21 0.56052313E-01 0.26935754E+03</pdfrwt>
<pdfrwt beam="2">  1       21 0.76591050E-02 0.26935754E+03</pdfrwt>
<totfact> 0.38116165E+05</totfact>
</mgrwt>
</event>
<event>
 8    1  0.9400004E-006  0.3530588E+03  0.7546771E-02  0.1061367E+00
         21   -1    0    0  504  503  0.00000000000E+00  0.00000000000E+00  0.74643934486E+02  0.74643934486E+02  0.00000000000E+00 0.  1.
         21   -1    0    0  503  504 -0.00000000000E+00 -0.00000000000E+00 -0.41748363289E+03  0.41748363289E+03  0.00000000000E+00 0.  1.
         25    2    1    2    0    0  0.50897081098E+02  0.80760930476E+01 -0.32962952976E+03  0.35627694103E+03  0.12498758209E+03 0.  0.
         25    2    1    2    0    0 -0.50897081098E+02 -0.80760930476E+01 -0.13210168641E+02  0.13585062634E+03  0.12500059191E+03 0.  0.
          5    1    3    3  501    0 -0.32930172395E+02  0.32644388292E+02 -0.13709795355E+03  0.14480328452E+03  0.47000000000E+01 0.  1.
         -5    1    3    3    0  501  0.83827253493E+02 -0.24568295244E+02 -0.19253157621E+03  0.21147365651E+03  0.47000000000E+01 0.  1.
          5    1    4    4  502    0  0.14522698789E+02  0.31731698020E+02 -0.41185281569E+02  0.54186039321E+02  0.47000000000E+01 0.  1.
         -5    1    4    4    0  502 -0.65419779887E+02 -0.39807791067E+02  0.27975112928E+02  0.81664587022E+02  0.47000000000E+01 0.  1.
<mgrwt>
<rscale>  0 0.35305875E+03</rscale>
<asrwt>0</asrwt>
<pdfrwt beam="1">  1       21 0.11483682E-01 0.35305875E+03</pdfrwt>
<pdfrwt beam="2">  1       21 0.64228252E-01 0.35305875E+03</pdfrwt>
<totfact> 0.13558287E+05</totfact>
</mgrwt>
</event>
<event>
 8    1  0.9400004E-006  0.4137188E+03  0.7546771E-02  0.1039130E+00
         21   -1    0    0  504  503  0.00000000000E+00  0.00000000000E+00  0.77144873803E+03  0.77144873803E+03  0.00000000000E+00 0. -1.
         21   -1    0    0  503  504 -0.00000000000E+00 -0.00000000000E+00 -0.55468123749E+02  0.55468123749E+02  0.00000000000E+00 0. -1.
         25    2    1    2    0    0  0.15001891107E+03  0.63358106781E+02  0.30716784885E+03  0.36945546916E+03  0.12500133181E+03 0.  0.
         25    2    1    2    0    0 -0.15001891107E+03 -0.63358106781E+02  0.40881276543E+03  0.45746139262E+03  0.12499250050E+03 0.  0.
          5    1    3    3  501    0  0.14275161127E+03  0.21906180790E+02  0.28952549447E+03  0.32358152795E+03  0.47000000000E+01 0.  1.
         -5    1    3    3    0  501  0.72672997981E+01  0.41451925990E+02  0.17642354372E+02  0.45873941213E+02  0.47000000000E+01 0.  1.
          5    1    4    4  502    0  0.19775866736E+02 -0.19049865287E+02  0.37219845679E+02  0.46490743003E+02  0.47000000000E+01 0.  1.
         -5    1    4    4    0  502 -0.16979477780E+03 -0.44308241494E+02  0.37159291976E+03  0.41097064962E+03  0.47000000000E+01 0.  1.
<mgrwt>
<rscale>  0 0.41371881E+03</rscale>
<asrwt>0</asrwt>
<pdfrwt beam="1">  1       21 0.11868441E+00 0.41371881E+03</pdfrwt>
<pdfrwt beam="2">  1       21 0.85335581E-02 0.41371881E+03</pdfrwt>
<totfact> 0.53734542E+04</totfact>
</mgrwt>
</event>
<event>
 8    1  0.9400004E-006  0.4902622E+03  0.7546771E-02  0.1016352E+00
         21   -1    0    0  504  503  0.00000000000E+00  0.00000000000E+00  0.77012147093E+03  0.77012147093E+03  0.00000000000E+00 0. -1.
         21   -1    0    0  503  504 -0.00000000000E+00 -0.00000000000E+00 -0.78025692795E+02  0.78025692795E+02  0.00000000000E+00 0. -1.
         25    2    1    2    0    0 -0.19438728147E+03  0.70399362004E+02  0.41786682495E+03  0.48267886372E+03  0.12499486680E+03 0.  0.
         25    2    1    2    0    0  0.19438728147E+03 -0.70399362004E+02  0.27422895319E+03  0.36546830001E+03  0.12499229646E+03 0.  0.
          5    1    3    3  501    0 -0.14367633561E+03  0.40154449308E+02  0.16296818104E+03  0.22098865863E+03  0.47000000000E+01 0. -1.
         -5    1    3    3    0  501 -0.50710945860E+02  0.30244912696E+02  0.25489864391E+03  0.26169020509E+03  0.47000000000E+01 0. -1.
          5    1    4    4  502    0  0.13998657641E+03  0.98550628972E+00  0.10939933235E+03  0.17772877290E+03  0.47000000000E+01 0. -1.
         -5    1    4    4    0  502  0.54400705054E+02 -0.71384868294E+02  0.16482962084E+03  0.18773952710E+03  0.47000000000E+01 0. -1.
<mgrwt>
<rscale>  0 0.49026222E+03</rscale>
<asrwt>0</asrwt>
<pdfrwt beam="1">  1       21 0.11848022E+00 0.49026222E+03</pdfrwt>
<pdfrwt beam="2">  1       21 0.12003953E-01 0.49026222E+03</pdfrwt>
<totfact> 0.28650268E+04</totfact>
</mgrwt>
</event>
<event>
 8    1  0.9400004E-006  0.4122112E+03  0.7546771E-02  0.1039632E+00
         21   -1    0    0  504  503  0.00000000000E+00  0.00000000000E+00  0.14799060196E+03  0.14799060196E+03  0.00000000000E+00 0. -1.
         21   -1    0    0  503  504 -0.00000000000E+00 -0.00000000000E+00 -0.28704205245E+03  0.28704205245E+03  0.00000000000E+00 0. -1.
         25    2    1    2    0    0  0.31691575066E+02  0.42034581718E+01  0.10008192933E+03  0.16331355987E+03  0.12503160108E+03 0.  0.
         25    2    1    2    0    0 -0.31691575066E+02 -0.42034581718E+01 -0.23913337982E+03  0.27171909453E+03  0.12499787198E+03 0.  0.
          5    1    3    3  501    0 -0.15703608981E+02  0.13272776785E+01 -0.24726143420E+02  0.29695743289E+02  0.47000000000E+01 0.  1.
         -5    1    3    3    0  501  0.47395184047E+02  0.28761804933E+01  0.12480807275E+03  0.13361781658E+03  0.47000000000E+01 0.  1.
          5    1    4    4  502    0  0.37411748894E+02 -0.26754366169E+02 -0.14799289108E+03  0.15504651197E+03  0.47000000000E+01 0.  1.
         -5    1    4    4    0  502 -0.69103323960E+02  0.22550907997E+02 -0.91140488742E+02  0.11667258256E+03  0.47000000000E+01 0.  1.
<mgrwt>
<rscale>  0 0.41221124E+03</rscale>
<asrwt>0</asrwt>
<pdfrwt beam="1">  1       21 0.22767785E-01 0.41221124E+03</pdfrwt>
<pdfrwt beam="2">  1       21 0.44160316E-01 0.41221124E+03</pdfrwt>
<totfact> 0.83493644E+04</totfact>
</mgrwt>
</event>
<event>
 8    1  0.9400004E-006  0.4253780E+03  0.7546771E-02  0.1035330E+00
         21   -1    0    0  504  503  0.00000000000E+00  0.00000000000E+00  0.15014730714E+04  0.15014730714E+04  0.00000000000E+00 0. -1.
         21   -1    0    0  503  504 -0.00000000000E+00 -0.00000000000E+00 -0.30128146687E+02  0.30128146687E+02  0.00000000000E+00 0. -1.
         25    2    1    2    0    0 -0.71929757214E+00  0.12797731744E+03  0.11499129645E+04  0.11637470272E+04  0.12501442461E+03 0.  0.
         25    2    1    2    0    0  0.71929757214E+00 -0.12797731744E+03  0.32143196027E+03  0.36785419088E+03  0.12497795606E+03 0.  0.
          5    1    3    3  501    0  0.42564789654E+02  0.17908524689E+01  0.37241881773E+03  0.37487709222E+03  0.47000000000E+01 0.  1.
         -5    1    3    3    0  501 -0.43284087226E+02  0.12618646497E+03  0.77749414674E+03  0.78886993501E+03  0.47000000000E+01 0.  1.
          5    1    4    4  502    0  0.15710855384E+02 -0.14918627191E+03  0.29205261956E+03  0.32835985945E+03  0.47000000000E+01 0.  1.
         -5    1    4    4    0  502 -0.14991557812E+02  0.21208954468E+02  0.29379340708E+02  0.39494331437E+02  0.47000000000E+01 0.  1.
<mgrwt>
<rscale>  0 0.42537795E+03</rscale>
<asrwt>0</asrwt>
<pdfrwt beam="1">  1       21 0.23099580E+00 0.42537795E+03</pdfrwt>
<pdfrwt beam="2">  1       21 0.46351007E-02 0.42537795E+03</pdfrwt>
<totfact> 0.23280858E+04</totfact>
</mgrwt>
</event>
<event>
 8    1  0.9400004E-006  0.2749090E+03  0.7546771E-02  0.1098502E+00
         21   -1    0    0  504  503  0.00000000000E+00  0.00000000000E+00  0.50668865194E+02  0.50668865194E+02  0.00000000000E+00 0. -1.
         21   -1    0    0  503  504 -0.00000000000E+00 -0.00000000000E+00 -0.37288669692E+03  0.37288669692E+03  0.00000000000E+00 0. -1.
         25    2    1    2    0    0 -0.36483630632E+02  0.63670155904E+01 -0.94007688948E+02  0.16073204703E+03  0.12500300464E+03 0.  0.
         25    2    1    2    0    0  0.36483630632E+02 -0.63670155904E+01 -0.22821014278E+03  0.26282351509E+03  0.12499894649E+03 0.  0.
          5    1    3    3  501    0 -0.54662917215E+02  0.27881070277E+02 -0.11141972173E+03  0.12728642107E+03  0.47000000000E+01 0. -1.
         -5    1    3    3    0  501  0.18179286583E+02 -0.21514054686E+02  0.17412032786E+02  0.33445625954E+02  0.47000000000E+01 0. -1.
          5    1    4    4  502    0 -0.16323163212E+02 -0.70729311199E+01  0.84853685301E+01  0.20262366371E+02  0.47000000000E+01 0.  1.
         -5    1    4    4    0  502  0.52806793843E+02  0.70591552948E+00 -0.23669551131E+03  0.24256114872E+03  0.47000000000E+01 0.  1.
<mgrwt>
<rscale>  0 0.27490905E+03</rscale>
<asrwt>0</asrwt>
<pdfrwt beam="1">  1       21 0.77952101E-02 0.27490905E+03</pdfrwt>
<pdfrwt beam="2">  1       21 0.57367184E-01 0.27490905E+03</pdfrwt>
<totfact> 0.35126976E+05</totfact>
</mgrwt>
</event>
<event>
 8    1  0.9400004E-006  0.2593894E+03  0.7546771E-02  0.1107511E+00
         21   -1    0    0  504  503  0.00000000000E+00  0.00000000000E+00  0.24097541912E+03  0.24097541912E+03  0.00000000000E+00 0.  1.
         21   -1    0    0  503  504 -0.00000000000E+00 -0.00000000000E+00 -0.69802593407E+02  0.69802593407E+02  0.00000000000E+00 0.  1.
         25    2    1    2    0    0  0.33486260165E+02  0.35455278557E+00  0.95784079951E+02  0.16101570490E+03  0.12502004609E+03 0.  0.
         25    2    1    2    0    0 -0.33486260165E+02 -0.35455278557E+00  0.75388745763E+02  0.14976230763E+03  0.12499532180E+03 0.  0.
          5    1    3    3  501    0 -0.12412629434E+00  0.54295368682E+02  0.12095368025E+02  0.55824639680E+02  0.47000000000E+01 0.  1.
         -5    1    3    3    0  501  0.33610386459E+02 -0.53940815897E+02  0.83688711926E+02  0.10519106522E+03  0.47000000000E+01 0.  1.
          5    1    4    4  502    0  0.23398978124E+02  0.41724423702E+02  0.60555864545E+02  0.77314568105E+02  0.47000000000E+01 0.  1.
         -5    1    4    4    0  502 -0.56885238288E+02 -0.42078976488E+02  0.14832881218E+02  0.72447739527E+02  0.47000000000E+01 0.  1.
<mgrwt>
<rscale>  0 0.25938935E+03</rscale>
<asrwt>0</asrwt>
<pdfrwt beam="1">  1       21 0.37073141E-01 0.25938935E+03</pdfrwt>
<pdfrwt beam="2">  1       21 0.10738861E-01 0.25938935E+03</pdfrwt>
<totfact> 0.49532620E+05</totfact>
</mgrwt>
</event>
<event>
 8    1  0.9400004E-006  0.2687056E+03  0.7546771E-02  0.1102023E+00
         21   -1    0    0  504  503  0.00000000000E+00  0.00000000000E+00  0.59260437641E+03  0.59260437641E+03  0.00000000000E+00 0.  1.
         21   -1    0    0  503  504 -0.00000000000E+00 -0.00000000000E+00 -0.30459913540E+02  0.30459913540E+02  0.00000000000E+00 0.  1.
         25    2    1    2    0    0 -0.43405869072E+02  0.23141606400E+02  0.28430621035E+03  0.31445685935E+03  0.12503396232E+03 0.  0.
         25    2    1    2    0    0  0.43405869072E+02 -0.23141606400E+02  0.27783825252E+03  0.30860743060E+03  0.12499939296E+03 0.  0.
          5    1    3    3  501    0 -0.44239661239E+02  0.71727254902E+02  0.19917496541E+03  0.21632083480E+03  0.47000000000E+01 0. -1.
         -5    1    3    3    0  501  0.83379216691E+00 -0.48585648502E+02  0.85131244933E+02  0.98136024545E+02  0.47000000000E+01 0. -1.
          5    1    4    4  502    0 -0.11668565793E+01 -0.51265330917E+02  0.40695166286E+02  0.65632935843E+02  0.47000000000E+01 0. -1.
         -5    1    4    4    0  502  0.44572725651E+02  0.28123724517E+02  0.23714308624E+03  0.24297449476E+03  0.47000000000E+01 0. -1.
<mgrwt>
<rscale>  0 0.26870562E+03</rscale>
<asrwt>0</asrwt>
<pdfrwt beam="1">  1       21 0.91169896E-01 0.26870562E+03</pdfrwt>
<pdfrwt beam="2">  1       21 0.46861410E-02 0.26870562E+03</pdfrwt>
<totfact> 0.29982560E+05</totfact>
</mgrwt>
</event>
<event>
 8    1  0.9400004E-006  0.3844013E+03  0.7546771E-02  0.1049319E+00
         21   -1    0    0  504  503  0.00000000000E+00  0.00000000000E+00  0.48992245223E+03  0.48992245223E+03  0.00000000000E+00 0.  1.
         21   -1    0    0  503  504 -0.00000000000E+00 -0.00000000000E+00 -0.75401912522E+02  0.75401912522E+02  0.00000000000E+00 0.  1.
         25    2    1    2    0    0  0.12969973163E+03 -0.57008773991E+02  0.25912312971E+03  0.32068889017E+03  0.12499818889E+03 0.  0.
         25    2    1    2    0    0 -0.12969973163E+03  0.57008773991E+02  0.15539741000E+03  0.24463547459E+03  0.12500455870E+03 0.  0.
          5    1    3    3  501    0  0.80864741937E+02 -0.43210426252E+02  0.25326284928E+03  0.26938895346E+03  0.47000000000E+01 0.  1.
         -5    1    3    3    0  501  0.48834989695E+02 -0.13798347739E+02  0.58602804361E+01  0.51299936702E+02  0.47000000000E+01 0.  1.
          5    1    4    4  502    0  0.59098699873E+01  0.50593199601E+02  0.27587502424E+02  0.58118488445E+02  0.47000000000E+01 0.  1.
         -5    1    4    4    0  502 -0.13560960162E+03  0.64155743905E+01  0.12780990758E+03  0.18651698615E+03  0.47000000000E+01 0.  1.
<mgrwt>
<rscale>  0 0.38440130E+03</rscale>
<asrwt>0</asrwt>
<pdfrwt beam="1">  1       21 0.75372683E-01 0.38440130E+03</pdfrwt>
<pdfrwt beam="2">  1       21 0.11600295E-01 0.38440130E+03</pdfrwt>
<totfact> 0.92389706E+04</totfact>
</mgrwt>
</event>
<event>
 8    1  0.9400004E-006  0.4959504E+03  0.7546771E-02  0.1014841E+00
         21   -1    0    0  504  503  0.00000000000E+00  0.00000000000E+00  0.15097265818E+04  0.15097265818E+04  0.00000000000E+00 0.  1.
         21   -1    0    0  503  504 -0.00000000000E+00 -0.00000000000E+00 -0.40730359833E+02  0.40730359833E+02  0.00000000000E+00 0.  1.
         25    2    1    2    0    0 -0.24159257346E+02  0.16541516428E+03  0.11530170509E+04  0.11717583242E+04  0.12499361718E+03 0.  0.
         25    2    1    2    0    0  0.24159257346E+02 -0.16541516428E+03  0.31597917106E+03  0.37869861744E+03  0.12499584002E+03 0.  0.
          5    1    3    3  501    0 -0.51542541725E+02  0.17794322438E+02  0.21874989355E+03  0.22549252193E+03  0.47000000000E+01 0. -1.
         -5    1    3    3    0  501  0.27383284379E+02  0.14762084184E+03  0.93426715737E+03  0.94626580227E+03  0.47000000000E+01 0. -1.
          5    1    4    4  502    0  0.19291768944E+02 -0.20286314188E+02  0.17139038964E+03  0.17372525019E+03  0.47000000000E+01 0.  1.
         -5    1    4    4    0  502  0.48674884028E+01 -0.14512885009E+03  0.14458878142E+03  0.20497336725E+03  0.47000000000E+01 0.  1.
<mgrwt>
<rscale>  0 0.49595043E+03</rscale>
<asrwt>0</asrwt>
<pdfrwt beam="1">  1       21 0.23226558E+00 0.49595043E+03</pdfrwt>
<pdfrwt beam="2">  1       21 0.62662104E-02 0.49595043E+03</pdfrwt>
<totfact> 0.13224499E+04</totfact>
</mgrwt>
</event>
<event>
 8    1  0.9400004E-006  0.3590675E+03  0.7546771E-02  0.1058954E+00
         21   -1    0    0  504  503  0.00000000000E+00  0.00000000000E+00  0.16321825081E+02  0.16321825081E+02  0.00000000000E+00 0.  1.
         21   -1    0    0  503  504 -0.00000000000E+00 -0.00000000000E+00 -0.19748021344E+04  0.19748021344E+04  0.00000000000E+00 0.  1.
         25    2    1    2    0    0  0.21073628700E+02 -0.12059222797E+03 -0.12025537001E+04  0.12152149842E+04  0.12500189181E+03 0.  0.
         25    2    1    2    0    0 -0.21073628700E+02  0.12059222797E+03 -0.75592660929E+03  0.77590897534E+03  0.12499246420E+03 0.  0.
          5    1    3    3  501    0 -0.31499109943E+02  0.10308150927E+02 -0.20184907067E+03  0.20460593645E+03  0.47000000000E+01 0.  1.
         -5    1    3    3    0  501  0.52572738644E+02 -0.13090037890E+03 -0.10007046294E+04  0.10106090477E+04  0.47000000000E+01 0.  1.
          5    1    4    4  502    0  0.33885381034E+02  0.98315228426E+02 -0.33503633454E+03  0.35083548659E+03  0.47000000000E+01 0. -1.
         -5    1    4    4    0  502 -0.54959009734E+02  0.22276999543E+02 -0.42089027475E+03  0.42507348875E+03  0.47000000000E+01 0. -1.
<mgrwt>
<rscale>  0 0.35906754E+03</rscale>
<asrwt>0</asrwt>
<pdfrwt beam="1">  1       21 0.25110491E-02 0.35906754E+03</pdfrwt>
<pdfrwt beam="2">  1       21 0.30381583E+00 0.35906754E+03</pdfrwt>
<totfact> 0.24469846E+04</totfact>
</mgrwt>
</event>
<event>
 8    1  0.9400004E-006  0.2615491E+03  0.7546771E-02  0.1106216E+00
         21   -1    0    0  504  503  0.00000000000E+00  0.00000000000E+00  0.11724218436E+02  0.11724218436E+02  0.00000000000E+00 0.  1.
         21   -1    0    0  503  504 -0.00000000000E+00 -0.00000000000E+00 -0.14586890276E+04  0.14586890276E+04  0.00000000000E+00 0.  1.
         25    2    1    2    0    0  0.21504559946E+02 -0.62083236476E+01 -0.54784288915E+03  0.56236824198E+03  0.12500087605E+03 0.  0.
         25    2    1    2    0    0 -0.21504559946E+02  0.62083236476E+01 -0.89912192002E+03  0.90804500406E+03  0.12499805184E+03 0.  0.
          5    1    3    3  501    0 -0.45747366709E+02 -0.14118863380E+02 -0.34806450386E+03  0.35137323847E+03  0.47000000000E+01 0.  1.
         -5    1    3    3    0  501  0.67251926655E+02  0.79105397320E+01 -0.19977838529E+03  0.21099500351E+03  0.47000000000E+01 0.  1.
          5    1    4    4  502    0  0.36724007662E+02 -0.16788080610E+01 -0.68368951316E+03  0.68469329743E+03  0.47000000000E+01 0.  1.
         -5    1    4    4    0  502 -0.58228567608E+02  0.78871317087E+01 -0.21543240686E+03  0.22335170663E+03  0.47000000000E+01 0.  1.
<mgrwt>
<rscale>  0 0.26154914E+03</rscale>
<asrwt>0</asrwt>
<pdfrwt beam="1">  1       21 0.18037271E-02 0.26154914E+03</pdfrwt>
<pdfrwt beam="2">  1       21 0.22441355E+00 0.26154914E+03</pdfrwt>
<totfact> 0.13263956E+05</totfact>
</mgrwt>
</event>
<event>
 8    1  0.9400004E-006  0.3524926E+03  0.7546771E-02  0.1061597E+00
         21   -1    0    0  504  503  0.00000000000E+00  0.00000000000E+00  0.32186352485E+02  0.32186352485E+02  0.00000000000E+00 0. -1.
         21   -1    0    0  503  504 -0.00000000000E+00 -0.00000000000E+00 -0.96509096254E+03  0.96509096254E+03  0.00000000000E+00 0. -1.
         25    2    1    2    0    0 -0.72451053445E+02  0.78765462696E+01 -0.75113914583E+03  0.76494823101E+03  0.12499833836E+03 0.  0.
         25    2    1    2    0    0  0.72451053445E+02 -0.78765462696E+01 -0.18176546423E+03  0.23232908402E+03  0.12500769645E+03 0.  0.
          5    1    3    3  501    0 -0.10798915030E+03  0.15603076101E+01 -0.54443845785E+03  0.55506703696E+03  0.47000000000E+01 0. -1.
         -5    1    3    3    0  501  0.35538096855E+02  0.63162386595E+01 -0.20670068799E+03  0.20988119404E+03  0.47000000000E+01 0. -1.
          5    1    4    4  502    0  0.61707548224E+02  0.34581243353E+01 -0.19910199823E+03  0.20852691872E+03  0.47000000000E+01 0.  1.
         -5    1    4    4    0  502  0.10743505221E+02 -0.11334670605E+02  0.17336533999E+02  0.23802165306E+02  0.47000000000E+01 0.  1.
<mgrwt>
<rscale>  0 0.35249260E+03</rscale>
<asrwt>0</asrwt>
<pdfrwt beam="1">  1       21 0.49517472E-02 0.35249260E+03</pdfrwt>
<pdfrwt beam="2">  1       21 0.14847551E+00 0.35249260E+03</pdfrwt>
<totfact> 0.78864830E+04</totfact>
</mgrwt>
</event>
<event>
 8    1  0.9400004E-006  0.2994461E+03  0.7546771E-02  0.1085518E+00
         21   -1    0    0  504  503  0.00000000000E+00  0.00000000000E+00  0.12802758639E+03  0.12802758639E+03  0.00000000000E+00 0. -1.
         21   -1    0    0  503  504 -0.00000000000E+00 -0.00000000000E+00 -0.17509500706E+03  0.17509500706E+03  0.00000000000E+00 0. -1.
         25    2    1    2    0    0  0.13874893503E+02  0.72733868007E+02 -0.60290279360E+02  0.15730169135E+03  0.12500470427E+03 0.  0.
         25    2    1    2    0    0 -0.13874893503E+02 -0.72733868007E+02  0.13222858688E+02  0.14582090210E+03  0.12492463037E+03 0.  0.
          5    1    3    3  501    0 -0.42855598968E+02  0.76950150489E+02 -0.36043816509E+02  0.95284703556E+02  0.47000000000E+01 0. -1.
         -5    1    3    3    0  501  0.56730492471E+02 -0.42162824817E+01 -0.24246462851E+02  0.62016987792E+02  0.47000000000E+01 0. -1.
          5    1    4    4  502    0 -0.29907629195E+01 -0.15313602927E+02  0.65360283616E+02  0.67361025614E+02  0.47000000000E+01 0.  1.
         -5    1    4    4    0  502 -0.10884130584E+02 -0.57420265080E+02 -0.52137424928E+02  0.78459876488E+02  0.47000000000E+01 0.  1.
<mgrwt>
<rscale>  0 0.29944610E+03</rscale>
<asrwt>0</asrwt>
<pdfrwt beam="1">  1       21 0.19696552E-01 0.29944610E+03</pdfrwt>
<pdfrwt beam="2">  1       21 0.26937693E-01 0.29944610E+03</pdfrwt>
<totfact> 0.30428510E+05</totfact>
</mgrwt>
</event>
<event>
 8    1  0.9400004E-006  0.2721253E+03  0.7546771E-02  0.1100069E+00
         21   -1    0    0  504  503  0.00000000000E+00  0.00000000000E+00  0.15680899837E+03  0.15680899837E+03  0.00000000000E+00 0.  1.
         21   -1    0    0  503  504 -0.00000000000E+00 -0.00000000000E+00 -0.11806113058E+03  0.11806113058E+03  0.00000000000E+00 0.  1.
         25    2    1    2    0    0 -0.47805818420E+02  0.13516794067E+02 -0.13196438384E+01  0.13451830887E+03  0.12500133585E+03 0.  0.
         25    2    1    2    0    0  0.47805818420E+02 -0.13516794067E+02  0.40067511625E+02  0.14035182009E+03  0.12500051167E+03 0.  0.
          5    1    3    3  501    0 -0.55502742736E+01  0.62001196231E+02 -0.22935909414E+02  0.66506389311E+02  0.47000000000E+01 0.  1.
         -5    1    3    3    0  501 -0.42255544147E+02 -0.48484402164E+02  0.21616265576E+02  0.68011919557E+02  0.47000000000E+01 0.  1.
          5    1    4    4  502    0  0.74527501003E+02  0.29981241797E+02  0.10449325997E+02  0.81144942413E+02  0.47000000000E+01 0.  1.
         -5    1    4    4    0  502 -0.26721682583E+02 -0.43498035864E+02  0.29618185627E+02  0.59206877674E+02  0.47000000000E+01 0.  1.
<mgrwt>
<rscale>  0 0.27212532E+03</rscale>
<asrwt>0</asrwt>
<pdfrwt beam="1">  1       21 0.24124461E-01 0.27212532E+03</pdfrwt>
<pdfrwt beam="2">  1       21 0.18163251E-01 0.27212532E+03</pdfrwt>
<totfact> 0.44050787E+05</totfact>
</mgrwt>
</event>
<event>
 8    1  0.9400004E-006  0.2625068E+03  0.7546771E-02  0.1105646E+00
         21   -1    0    0  504  503  0.00000000000E+00  0.00000000000E+00  0.11393819170E+02  0.11393819170E+02  0.00000000000E+00 0. -1.
         21   -1    0    0  503  504 -0.00000000000E+00 -0.00000000000E+00 -0.15119995827E+04  0.15119995827E+04  0.00000000000E+00 0. -1.
         25    2    1    2    0    0 -0.11279241300E+02 -0.25760050306E+02 -0.91559589022E+03  0.92451667990E+03  0.12499782297E+03 0.  0.
         25    2    1    2    0    0  0.11279241300E+02  0.25760050306E+02 -0.58500987328E+03  0.59887672194E+03  0.12500389903E+03 0.  0.
          5    1    3    3  501    0  0.45716603772E+02 -0.26731840635E+02 -0.68006938309E+03  0.68214445316E+03  0.47000000000E+01 0.  1.
         -5    1    3    3    0  501 -0.56995845073E+02  0.97179032887E+00 -0.23552650713E+03  0.24237222674E+03  0.47000000000E+01 0.  1.
          5    1    4    4  502    0 -0.50761133449E+01  0.29710406822E+02 -0.57986258436E+03  0.58066443144E+03  0.47000000000E+01 0.  1.
         -5    1    4    4    0  502  0.16355354645E+02 -0.39503565166E+01 -0.51472889252E+01  0.18212290506E+02  0.47000000000E+01 0.  1.
<mgrwt>
<rscale>  0 0.26250676E+03</rscale>
<asrwt>0</asrwt>
<pdfrwt beam="1">  1       21 0.17528953E-02 0.26250676E+03</pdfrwt>
<pdfrwt beam="2">  1       21 0.23261531E+00 0.26250676E+03</pdfrwt>
<totfact> 0.12368703E+05</totfact>
</mgrwt>
</event>
<event>
 8    1  0.9400004E-006  0.3000851E+03  0.7546771E-02  0.1085198E+00
         21   -1    0    0  504  503  0.00000000000E+00  0.00000000000E+00  0.24084616392E+03  0.24084616392E+03  0.00000000000E+00 0. -1.
         21   -1    0    0  503  504 -0.00000000000E+00 -0.00000000000E+00 -0.93473612093E+02  0.93473612093E+02  0.00000000000E+00 0. -1.
         25    2    1    2    0    0  0.38849444175E+02 -0.21105308603E+02  0.15193289712E+03  0.20164918517E+03  0.12499630110E+03 0.  0.
         25    2    1    2    0    0 -0.38849444175E+02  0.21105308603E+02 -0.45603452934E+01  0.13267059084E+03  0.12500390218E+03 0.  0.
          5    1    3    3  501    0  0.11281984029E+02 -0.27783785826E+02  0.16662091520E+03  0.16936304586E+03  0.47000000000E+01 0.  1.
         -5    1    3    3    0  501  0.27567460146E+02  0.66784772229E+01 -0.14688018082E+02  0.32286139319E+02  0.47000000000E+01 0.  1.
          5    1    4    4  502    0 -0.63314871563E+02  0.15066806748E+02 -0.48840157986E+02  0.81506028358E+02  0.47000000000E+01 0. -1.
         -5    1    4    4    0  502  0.24465427388E+02  0.60385018545E+01  0.44279812692E+02  0.51164562482E+02  0.47000000000E+01 0. -1.
<mgrwt>
<rscale>  0 0.30008506E+03</rscale>
<asrwt>0</asrwt>
<pdfrwt beam="1">  1       21 0.37053256E-01 0.30008506E+03</pdfrwt>
<pdfrwt beam="2">  1       21 0.14380556E-01 0.30008506E+03</pdfrwt>
<totfact> 0.29012185E+05</totfact>
</mgrwt>
</event>
<event>
 8    1  0.9400004E-006  0.2548907E+03  0.7546771E-02  0.1110252E+00
         21   -1    0    0  504  503  0.00000000000E+00  0.00000000000E+00  0.68752791312E+03  0.68752791312E+03  0.00000000000E+00 0.  1.
         21   -1    0    0  503  504 -0.00000000000E+00 -0.00000000000E+00 -0.23624227269E+02  0.23624227269E+02  0.00000000000E+00 0.  1.
         25    2    1    2    0    0 -0.16856796976E+02  0.14627897672E+02  0.30136983296E+03  0.32702451417E+03  0.12499251841E+03 0.  0.
         25    2    1    2    0    0  0.16856796976E+02 -0.14627897672E+02  0.36253385289E+03  0.38412762622E+03  0.12500044694E+03 0.  0.
          5    1    3    3  501    0 -0.47828778038E+02 -0.19461620559E+02  0.52145145009E+02  0.73536064835E+02  0.47000000000E+01 0. -1.
         -5    1    3    3    0  501  0.30971981061E+02  0.34089518231E+02  0.24922468795E+03  0.25348844934E+03  0.47000000000E+01 0. -1.
          5    1    4    4  502    0  0.14705898128E+02  0.39427369104E+02  0.44250124407E+02  0.61244953949E+02  0.47000000000E+01 0.  1.
         -5    1    4    4    0  502  0.21508988482E+01 -0.54055266775E+02  0.31828372849E+03  0.32288267227E+03  0.47000000000E+01 0.  1.
<mgrwt>
<rscale>  0 0.25489069E+03</rscale>
<asrwt>0</asrwt>
<pdfrwt beam="1">  1       21 0.10577351E+00 0.25489069E+03</pdfrwt>
<pdfrwt beam="2">  1       21 0.36344970E-02 0.25489069E+03</pdfrwt>
<totfact> 0.32443148E+05</totfact>
</mgrwt>
</event>
<event>
 8    1  0.9400004E-006  0.3382720E+03  0.7546771E-02  0.1067534E+00
         21   -1    0    0  504  503  0.00000000000E+00  0.00000000000E+00  0.22161478346E+03  0.22161478346E+03  0.00000000000E+00 0.  1.
         21   -1    0    0  503  504 -0.00000000000E+00 -0.00000000000E+00 -0.12908431040E+03  0.12908431040E+03  0.00000000000E+00 0.  1.
         25    2    1    2    0    0 -0.18596600618E+02 -0.91383266413E+02 -0.21582018705E+02  0.15745678296E+03  0.12502047846E+03 0.  0.
         25    2    1    2    0    0  0.18596600618E+02  0.91383266413E+02  0.11411249176E+03  0.19324231090E+03  0.12499678001E+03 0.  0.
          5    1    3    3  501    0 -0.18598076045E+02 -0.90150687251E+01  0.46103615625E+02  0.50742420817E+02  0.47000000000E+01 0.  1.
         -5    1    3    3    0  501  0.14754268187E-02 -0.82368197688E+02 -0.67685634330E+02  0.10671436214E+03  0.47000000000E+01 0.  1.
          5    1    4    4  502    0  0.65692821981E+02  0.31341233944E+02  0.83545815265E+02  0.11090452224E+03  0.47000000000E+01 0.  1.
         -5    1    4    4    0  502 -0.47096221364E+02  0.60042032469E+02  0.30566676496E+02  0.82337788662E+02  0.47000000000E+01 0.  1.
<mgrwt>
<rscale>  0 0.33827203E+03</rscale>
<asrwt>0</asrwt>
<pdfrwt beam="1">  1       21 0.34094582E-01 0.33827203E+03</pdfrwt>
<pdfrwt beam="2">  1       21 0.19859125E-01 0.33827203E+03</pdfrwt>
<totfact> 0.18670585E+05</totfact>
</mgrwt>
</event>
<event>
 8    1  0.9400004E-006  0.5052917E+03  0.7546771E-02  0.1012407E+00
         21   -1    0    0  504  503  0.00000000000E+00  0.00000000000E+00  0.48750871517E+03  0.48750871517E+03  0.00000000000E+00 0.  1.
         21   -1    0    0  503  504 -0.00000000000E+00 -0.00000000000E+00 -0.13093083765E+03  0.13093083765E+03  0.00000000000E+00 0.  1.
         25    2    1    2    0    0  0.17545546299E+03 -0.86514766324E+02  0.30029111634E+03  0.37956233982E+03  0.12499356374E+03 0.  0.
         25    2    1    2    0    0 -0.17545546299E+03  0.86514766324E+02  0.56286761188E+02  0.23887721300E+03  0.12499879647E+03 0.  0.
          5    1    3    3  501    0  0.62905291659E+02 -0.34998825876E+01  0.19975007941E+02  0.66260213093E+02  0.47000000000E+01 0. -1.
         -5    1    3    3    0  501  0.11255017133E+03 -0.83014883736E+02  0.28031610839E+03  0.31330212673E+03  0.47000000000E+01 0. -1.
          5    1    4    4  502    0 -0.92905941546E+02 -0.32369996510E+01 -0.19670063852E+02  0.95136709809E+02  0.47000000000E+01 0.  1.
         -5    1    4    4    0  502 -0.82549521444E+02  0.89751765975E+02  0.75956825040E+02  0.14374050319E+03  0.47000000000E+01 0.  1.
<mgrwt>
<rscale>  0 0.50529170E+03</rscale>
<asrwt>0</asrwt>
<pdfrwt beam="1">  1       21 0.75001340E-01 0.50529170E+03</pdfrwt>
<pdfrwt beam="2">  1       21 0.20143206E-01 0.50529170E+03</pdfrwt>
<totfact> 0.32629560E+04</totfact>
</mgrwt>
</event>
<event>
 8    1  0.9400004E-006  0.2711560E+03  0.7546771E-02  0.1100620E+00
         21   -1    0    0  504  503  0.00000000000E+00  0.00000000000E+00  0.81927420804E+03  0.81927420804E+03  0.00000000000E+00 0. -1.
         21   -1    0    0  503  504 -0.00000000000E+00 -0.00000000000E+00 -0.22436199609E+02  0.22436199609E+02  0.00000000000E+00 0. -1.
         25    2    1    2    0    0 -0.30641678928E+02  0.27777760566E+02  0.49884064886E+03  0.51592239510E+03  0.12499363322E+03 0.  0.
         25    2    1    2    0    0  0.30641678928E+02 -0.27777760566E+02  0.29799735957E+03  0.32578801254E+03  0.12499954535E+03 0.  0.
          5    1    3    3  501    0  0.39342682411E+02 -0.15323043614E+02  0.25613862629E+03  0.25963768640E+03  0.47000000000E+01 0.  1.
         -5    1    3    3    0  501 -0.69984361340E+02  0.43100804180E+02  0.24270202257E+03  0.25628470870E+03  0.47000000000E+01 0.  1.
          5    1    4    4  502    0 -0.13670525055E+02  0.32566431050E+02  0.27293592592E+02  0.44883024443E+02  0.47000000000E+01 0.  1.
         -5    1    4    4    0  502  0.44312203983E+02 -0.60344191616E+02  0.27070376698E+03  0.28090498810E+03  0.47000000000E+01 0.  1.
<mgrwt>
<rscale>  0 0.27115604E+03</rscale>
<asrwt>0</asrwt>
<pdfrwt beam="1">  1       21 0.12604216E+00 0.27115604E+03</pdfrwt>
<pdfrwt beam="2">  1       21 0.34517236E-02 0.27115604E+03</pdfrwt>
<totfact> 0.22827747E+05</totfact>
</mgrwt>
</event>
<event>
 8    1  0.9400004E-006  0.3206298E+03  0.7546771E-02  0.1075360E+00
         21   -1    0    0  504  503  0.00000000000E+00  0.00000000000E+00  0.24560152015E+02  0.24560152015E+02  0.00000000000E+00 0.  1.
         21   -1    0    0  503  504 -0.00000000000E+00 -0.00000000000E+00 -0.10464457483E+04  0.10464457483E+04  0.00000000000E+00 0.  1.
         25    2    1    2    0    0 -0.87390526833E+02 -0.23961593784E+02 -0.65512586492E+03  0.67307265270E+03  0.12500253903E+03 0.  0.
         25    2    1    2    0    0  0.87390526833E+02  0.23961593784E+02 -0.36675973136E+03  0.39793324761E+03  0.12500762717E+03 0.  0.
          5    1    3    3  501    0 -0.72804051399E+02 -0.45063135128E+02 -0.63326049438E+03  0.63903995163E+03  0.47000000000E+01 0.  1.
         -5    1    3    3    0  501 -0.14586475434E+02  0.21101541344E+02 -0.21865370550E+02  0.34032701068E+02  0.47000000000E+01 0.  1.
          5    1    4    4  502    0  0.84886732348E+02  0.12555155735E+02 -0.10417877557E+03  0.13505071841E+03  0.47000000000E+01 0. -1.
         -5    1    4    4    0  502  0.25037944850E+01  0.11406438048E+02 -0.26258095579E+03  0.26288252920E+03  0.47000000000E+01 0. -1.
<mgrwt>
<rscale>  0 0.32062980E+03</rscale>
<asrwt>0</asrwt>
<pdfrwt beam="1">  1       21 0.37784848E-02 0.32062980E+03</pdfrwt>
<pdfrwt beam="2">  1       21 0.16099166E+00 0.32062980E+03</pdfrwt>
<totfact> 0.10129359E+05</totfact>
</mgrwt>
</event>
<event>
 8    1  0.9400004E-006  0.3835950E+03  0.7546771E-02  0.1049613E+00
         21   -1    0    0  504  503  0.00000000000E+00  0.00000000000E+00  0.91767370864E+02  0.91767370864E+02  0.00000000000E+00 0.  1.
         21   -1    0    0  503  504 -0.00000000000E+00 -0.00000000000E+00 -0.40086458915E+03  0.40086458915E+03  0.00000000000E+00 0.  1.
         25    2    1    2    0    0  0.21783040734E+02  0.12543176555E+03 -0.24492251089E+03  0.30301731731E+03  0.12499931829E+03 0.  0.
         25    2    1    2    0    0 -0.21783040734E+02 -0.12543176555E+03 -0.64174707400E+02  0.18961464271E+03  0.12501076348E+03 0.  0.
          5    1    3    3  501    0  0.52544247168E+02  0.11012262794E+02 -0.11570437529E+03  0.12763918013E+03  0.47000000000E+01 0. -1.
         -5    1    3    3    0  501 -0.30761206433E+02  0.11441950276E+03 -0.12921813560E+03  0.17537813718E+03  0.47000000000E+01 0. -1.
          5    1    4    4  502    0  0.77635759858E+01 -0.44416564013E+02  0.35609200139E+02  0.57647284458E+02  0.47000000000E+01 0. -1.
         -5    1    4    4    0  502 -0.29546616720E+02 -0.81015201541E+02 -0.99783907539E+02  0.13196735825E+03  0.47000000000E+01 0. -1.
<mgrwt>
<rscale>  0 0.38359504E+03</rscale>
<asrwt>0</asrwt>
<pdfrwt beam="1">  1       21 0.14118057E-01 0.38359504E+03</pdfrwt>
<pdfrwt beam="2">  1       21 0.61671475E-01 0.38359504E+03</pdfrwt>
<totfact> 0.10105358E+05</totfact>
</mgrwt>
</event>
<event>
 8    1  0.9400004E-006  0.2735281E+03  0.7546771E-02  0.1099277E+00
         21   -1    0    0  504  503  0.00000000000E+00  0.00000000000E+00  0.48213133338E+03  0.48213133338E+03  0.00000000000E+00 0.  1.
         21   -1    0    0  503  504 -0.00000000000E+00 -0.00000000000E+00 -0.38795242192E+02  0.38795242192E+02  0.00000000000E+00 0.  1.
         25    2    1    2    0    0 -0.44886705018E+02 -0.68068792435E+01  0.28245148826E+03  0.31219500135E+03  0.12500290299E+03 0.  0.
         25    2    1    2    0    0  0.44886705018E+02  0.68068792435E+01  0.16088460293E+03  0.20873157422E+03  0.12499545882E+03 0.  0.
          5    1    3    3  501    0  0.21444818720E+02  0.29160350778E+02  0.25952573902E+02  0.44786520288E+02  0.47000000000E+01 0. -1.
         -5    1    3    3    0  501 -0.66331523738E+02 -0.35967230021E+02  0.25649891436E+03  0.26740848106E+03  0.47000000000E+01 0. -1.
          5    1    4    4  502    0 -0.15231550547E+02  0.54054848218E+02  0.66333613797E+02  0.87041168807E+02  0.47000000000E+01 0. -1.
         -5    1    4    4    0  502  0.60118255565E+02 -0.47247968975E+02  0.94550989132E+02  0.12169040542E+03  0.47000000000E+01 0. -1.
<mgrwt>
<rscale>  0 0.27352807E+03</rscale>
<asrwt>0</asrwt>
<pdfrwt beam="1">  1       21 0.74174047E-01 0.27352807E+03</pdfrwt>
<pdfrwt beam="2">  1       21 0.59684991E-02 0.27352807E+03</pdfrwt>
<totfact> 0.31770303E+05</totfact>
</mgrwt>
</event>
<event>
 8    1  0.9400004E-006  0.2970928E+03  0.7546771E-02  0.1086703E+00
         21   -1    0    0  504  503  0.00000000000E+00  0.00000000000E+00  0.95795579160E+03  0.95795579160E+03  0.00000000000E+00 0. -1.
         21   -1    0    0  503  504 -0.00000000000E+00 -0.00000000000E+00 -0.23034505089E+02  0.23034505089E+02  0.00000000000E+00 0. -1.
         25    2    1    2    0    0  0.16191890582E+02 -0.64425571417E+02  0.31894548440E+03  0.34895731366E+03  0.12502860937E+03 0.  0.
         25    2    1    2    0    0 -0.16191890582E+02  0.64425571417E+02  0.61597580211E+03  0.63203298303E+03  0.12500668496E+03 0.  0.
          5    1    3    3  501    0  0.26523009466E+02  0.30778475075E+02  0.58130058719E+02  0.71077269825E+02  0.47000000000E+01 0. -1.
         -5    1    3    3    0  501 -0.10331118884E+02 -0.95204046492E+02  0.26081542568E+03  0.27788004383E+03  0.47000000000E+01 0. -1.
          5    1    4    4  502    0 -0.59320083794E+00 -0.80935962282E+01  0.45088057808E+03  0.45097809690E+03  0.47000000000E+01 0. -1.
         -5    1    4    4    0  502 -0.15598689744E+02  0.72519167645E+02  0.16509522402E+03  0.18105488613E+03  0.47000000000E+01 0. -1.
<mgrwt>
<rscale>  0 0.29709283E+03</rscale>
<asrwt>0</asrwt>
<pdfrwt beam="1">  1       21 0.14737778E+00 0.29709283E+03</pdfrwt>
<pdfrwt beam="2">  1       21 0.35437708E-02 0.29709283E+03</pdfrwt>
<totfact> 0.14442921E+05</totfact>
</mgrwt>
</event>
<event>
 8    1  0.9400004E-006  0.5293616E+03  0.7546771E-02  0.1006387E+00
         21   -1    0    0  504  503  0.00000000000E+00  0.00000000000E+00  0.29562563287E+03  0.29562563287E+03  0.00000000000E+00 0.  1.
         21   -1    0    0  503  504 -0.00000000000E+00 -0.00000000000E+00 -0.23697516381E+03  0.23697516381E+03  0.00000000000E+00 0.  1.
         25    2    1    2    0    0  0.14905778233E+03 -0.17201475357E+03 -0.22201012814E+02  0.26062489567E+03  0.12500061341E+03 0.  0.
         25    2    1    2    0    0 -0.14905778233E+03  0.17201475357E+03  0.80851481874E+02  0.27197590100E+03  0.12500652256E+03 0.  0.
          5    1    3    3  501    0  0.14866084377E+03 -0.91609145766E+02  0.73316898481E+01  0.17483742658E+03  0.47000000000E+01 0.  1.
         -5    1    3    3    0  501  0.39693856919E+00 -0.80405607807E+02 -0.29532702663E+02  0.85787469094E+02  0.47000000000E+01 0.  1.
          5    1    4    4  502    0 -0.92239727232E+01 -0.84683789873E+01 -0.18589607361E+02  0.22901061488E+02  0.47000000000E+01 0.  1.
         -5    1    4    4    0  502 -0.13983380961E+03  0.18048313256E+03  0.99441089235E+02  0.24907483951E+03  0.47000000000E+01 0.  1.
<mgrwt>
<rscale>  0 0.52936163E+03</rscale>
<asrwt>0</asrwt>
<pdfrwt beam="1">  1       21 0.45480867E-01 0.52936163E+03</pdfrwt>
<pdfrwt beam="2">  1       21 0.36457717E-01 0.52936163E+03</pdfrwt>
<totfact> 0.30161977E+04</totfact>
</mgrwt>
</event>
<event>
 8    1  0.9400004E-006  0.2851617E+03  0.7546771E-02  0.1092903E+00
         21   -1    0    0  504  503  0.00000000000E+00  0.00000000000E+00  0.37612168447E+02  0.37612168447E+02  0.00000000000E+00 0. -1.
         21   -1    0    0  503  504 -0.00000000000E+00 -0.00000000000E+00 -0.54049785305E+03  0.54049785305E+03  0.00000000000E+00 0. -1.
         25    2    1    2    0    0 -0.23170257878E+02  0.60384931287E+02 -0.20521307365E+03  0.24884151168E+03  0.12500596610E+03 0.  0.
         25    2    1    2    0    0  0.23170257878E+02 -0.60384931287E+02 -0.29767261095E+03  0.32926850982E+03  0.12500226986E+03 0.  0.
          5    1    3    3  501    0 -0.25587894831E+02 -0.54878359097E+01 -0.17352900037E+03  0.17555415311E+03  0.47000000000E+01 0.  1.
         -5    1    3    3    0  501  0.24176369527E+01  0.65872767197E+02 -0.31684073284E+02  0.73287358572E+02  0.47000000000E+01 0.  1.
          5    1    4    4  502    0 -0.47376094416E+02 -0.27108667380E+02 -0.72158798890E+02  0.90599980279E+02  0.47000000000E+01 0. -1.
         -5    1    4    4    0  502  0.70546352294E+02 -0.33276263907E+02 -0.22551381206E+03  0.23866852954E+03  0.47000000000E+01 0. -1.
<mgrwt>
<rscale>  0 0.28516168E+03</rscale>
<asrwt>0</asrwt>
<pdfrwt beam="1">  1       21 0.57864875E-02 0.28516168E+03</pdfrwt>
<pdfrwt beam="2">  1       21 0.83153515E-01 0.28516168E+03</pdfrwt>
<totfact> 0.25773313E+05</totfact>
</mgrwt>
</event>
<event>
 8    1  0.9400004E-006  0.4176761E+03  0.7546771E-02  0.1037825E+00
         21   -1    0    0  504  503  0.00000000000E+00  0.00000000000E+00  0.68935816687E+02  0.68935816687E+02  0.00000000000E+00 0.  1.
         21   -1    0    0  503  504 -0.00000000000E+00 -0.00000000000E+00 -0.63266576946E+03  0.63266576946E+03  0.00000000000E+00 0.  1.
         25    2    1    2    0    0 -0.33918895220E+02  0.24437234547E+02 -0.97632167597E+01  0.13216687111E+03  0.12500036613E+03 0.  0.
         25    2    1    2    0    0  0.33918895220E+02 -0.24437234547E+02 -0.55396673602E+03  0.56943471504E+03  0.12501631972E+03 0.  0.
          5    1    3    3  501    0 -0.21925380244E+02 -0.25191624293E+02  0.45594295521E+02  0.56712168160E+02  0.47000000000E+01 0. -1.
         -5    1    3    3    0  501 -0.11993514975E+02  0.49628858840E+02 -0.55357512280E+02  0.75454702949E+02  0.47000000000E+01 0. -1.
          5    1    4    4  502    0  0.47418503238E+02 -0.51984310223E+02 -0.51409072040E+03  0.51890484846E+03  0.47000000000E+01 0.  1.
         -5    1    4    4    0  502 -0.13499608018E+02  0.27547075676E+02 -0.39876015622E+02  0.50529866583E+02  0.47000000000E+01 0.  1.
<mgrwt>
<rscale>  0 0.41767610E+03</rscale>
<asrwt>0</asrwt>
<pdfrwt beam="1">  1       21 0.10605511E-01 0.41767610E+03</pdfrwt>
<pdfrwt beam="2">  1       21 0.97333191E-01 0.41767610E+03</pdfrwt>
<totfact> 0.59301031E+04</totfact>
</mgrwt>
</event>
<event>
 8    1  0.9400004E-006  0.2588050E+03  0.7546771E-02  0.1107863E+00
         21   -1    0    0  504  503  0.00000000000E+00  0.00000000000E+00  0.23976295926E+02  0.23976295926E+02  0.00000000000E+00 0. -1.
         21   -1    0    0  503  504 -0.00000000000E+00 -0.00000000000E+00 -0.69839853559E+03  0.69839853559E+03  0.00000000000E+00 0. -1.
         25    2    1    2    0    0  0.24577480126E+02  0.22541734800E+02 -0.34526622324E+03  0.36870818406E+03  0.12499911097E+03 0.  0.
         25    2    1    2    0    0 -0.24577480126E+02 -0.22541734800E+02 -0.32915601643E+03  0.35366664746E+03  0.12499692812E+03 0.  0.
          5    1    3    3  501    0  0.27570696236E+02  0.41658960302E+02 -0.34516717689E+03  0.34879518670E+03  0.47000000000E+01 0. -1.
         -5    1    3    3    0  501 -0.29932161106E+01 -0.19117225502E+02 -0.99046352651E-01  0.19912997358E+02  0.47000000000E+01 0. -1.
          5    1    4    4  502    0  0.32469583197E+02  0.13132156356E+02 -0.23614656360E+03  0.23877608101E+03  0.47000000000E+01 0. -1.
         -5    1    4    4    0  502 -0.57047063323E+02 -0.35673891156E+02 -0.93009452830E+02  0.11489056645E+03  0.47000000000E+01 0. -1.
<mgrwt>
<rscale>  0 0.25880502E+03</rscale>
<asrwt>0</asrwt>
<pdfrwt beam="1">  1       21 0.36886610E-02 0.25880502E+03</pdfrwt>
<pdfrwt beam="2">  1       21 0.10744593E+00 0.25880502E+03</pdfrwt>
<totfact> 0.30433453E+05</totfact>
</mgrwt>
</event>
<event>
 8    1  0.9400004E-006  0.2707542E+03  0.7546771E-02  0.1100849E+00
         21   -1    0    0  504  503  0.00000000000E+00  0.00000000000E+00  0.47397977903E+02  0.47397977903E+02  0.00000000000E+00 0. -1.
         21   -1    0    0  503  504 -0.00000000000E+00 -0.00000000000E+00 -0.38666114510E+03  0.38666114510E+03  0.00000000000E+00 0. -1.
         25    2    1    2    0    0  0.22657099683E+02 -0.10020852213E+02 -0.96376148736E+02  0.15977447473E+03  0.12500303631E+03 0.  0.
         25    2    1    2    0    0 -0.22657099683E+02  0.10020852213E+02 -0.24288701846E+03  0.27428464827E+03  0.12499681154E+03 0.  0.
          5    1    3    3  501    0  0.59570815232E+02 -0.29892909622E+02 -0.15549660151E+02  0.68601384854E+02  0.47000000000E+01 0.  1.
         -5    1    3    3    0  501 -0.36913715549E+02  0.19872057409E+02 -0.80826488585E+02  0.91173089880E+02  0.47000000000E+01 0.  1.
          5    1    4    4  502    0 -0.41479777563E+02  0.42473150604E+00 -0.24845325912E+03  0.25193623064E+03  0.47000000000E+01 0.  1.
         -5    1    4    4    0  502  0.18822677880E+02  0.95961207067E+01  0.55662406616E+01  0.22348417624E+02  0.47000000000E+01 0.  1.
<mgrwt>
<rscale>  0 0.27075418E+03</rscale>
<asrwt>0</asrwt>
<pdfrwt beam="1">  1       21 0.72919963E-02 0.27075418E+03</pdfrwt>
<pdfrwt beam="2">  1       21 0.59486332E-01 0.27075418E+03</pdfrwt>
<totfact> 0.36533537E+05</totfact>
</mgrwt>
</event>
<event>
 8    1  0.9400004E-006  0.2999496E+03  0.7546771E-02  0.1085266E+00
         21   -1    0    0  504  503  0.00000000000E+00  0.00000000000E+00  0.37593348524E+03  0.37593348524E+03  0.00000000000E+00 0.  1.
         21   -1    0    0  503  504 -0.00000000000E+00 -0.00000000000E+00 -0.59830901657E+02  0.59830901657E+02  0.00000000000E+00 0.  1.
         25    2    1    2    0    0 -0.73424431118E+02 -0.16933170335E+02  0.10794106026E+03  0.18152820868E+03  0.12499335468E+03 0.  0.
         25    2    1    2    0    0  0.73424431118E+02  0.16933170335E+02  0.20816152332E+03  0.25423617821E+03  0.12500774047E+03 0.  0.
          5    1    3    3  501    0 -0.20636561980E+02  0.16018021449E+02  0.11564235342E+03  0.11864943576E+03  0.47000000000E+01 0. -1.
         -5    1    3    3    0  501 -0.52787869139E+02 -0.32951191784E+02 -0.77012931597E+01  0.62878772925E+02  0.47000000000E+01 0. -1.
          5    1    4    4  502    0 -0.27777590684E+02 -0.21803610786E+02  0.35215145643E+02  0.50091800428E+02  0.47000000000E+01 0. -1.
         -5    1    4    4    0  502  0.10120202180E+03  0.38736781121E+02  0.17294637768E+03  0.20414437778E+03  0.47000000000E+01 0. -1.
<mgrwt>
<rscale>  0 0.29994959E+03</rscale>
<asrwt>0</asrwt>
<pdfrwt beam="1">  1       21 0.57835919E-01 0.29994959E+03</pdfrwt>
<pdfrwt beam="2">  1       21 0.92047543E-02 0.29994959E+03</pdfrwt>
<totfact> 0.25617644E+05</totfact>
</mgrwt>
</event>
<event>
 8    1  0.9400004E-006  0.2683709E+03  0.7546771E-02  0.1102216E+00
         21   -1    0    0  504  503  0.00000000000E+00  0.00000000000E+00  0.36454885023E+03  0.36454885023E+03  0.00000000000E+00 0. -1.
         21   -1    0    0  503  504 -0.00000000000E+00 -0.00000000000E+00 -0.49391833711E+02  0.49391833711E+02  0.00000000000E+00 0. -1.
         25    2    1    2    0    0 -0.32377307917E+02  0.33129065493E+02  0.13366229631E+03  0.18877338487E+03  0.12499582526E+03 0.  0.
         25    2    1    2    0    0  0.32377307917E+02 -0.33129065493E+02  0.18149472021E+03  0.22516729907E+03  0.12495660870E+03 0.  0.
          5    1    3    3  501    0 -0.68106792698E+02  0.50022152752E+02  0.55930926984E+02  0.10144510619E+03  0.47000000000E+01 0. -1.
         -5    1    3    3    0  501  0.35729484782E+02 -0.16893087259E+02  0.77731369323E+02  0.87328278678E+02  0.47000000000E+01 0. -1.
          5    1    4    4  502    0  0.31343404761E+02 -0.54759614294E+02  0.26498541385E+02  0.68595095125E+02  0.47000000000E+01 0. -1.
         -5    1    4    4    0  502  0.10339031558E+01  0.21630548800E+02  0.15499617883E+03  0.15657220395E+03  0.47000000000E+01 0. -1.
<mgrwt>
<rscale>  0 0.26837091E+03</rscale>
<asrwt>0</asrwt>
<pdfrwt beam="1">  1       21 0.56084437E-01 0.26837091E+03</pdfrwt>
<pdfrwt beam="2">  1       21 0.75987439E-02 0.26837091E+03</pdfrwt>
<totfact> 0.38607428E+05</totfact>
</mgrwt>
</event>
<event>
 8    1  0.9400004E-006  0.4619551E+03  0.7546771E-02  0.1024216E+00
         21   -1    0    0  504  503  0.00000000000E+00  0.00000000000E+00  0.36191616374E+03  0.36191616374E+03  0.00000000000E+00 0.  1.
         21   -1    0    0  503  504 -0.00000000000E+00 -0.00000000000E+00 -0.14741156114E+03  0.14741156114E+03  0.00000000000E+00 0.  1.
         25    2    1    2    0    0 -0.36942788702E+00 -0.17736673123E+03  0.19453653069E+03  0.29142527915E+03  0.12500055092E+03 0.  0.
         25    2    1    2    0    0  0.36942788702E+00  0.17736673123E+03  0.19968071911E+02  0.21790244573E+03  0.12499463242E+03 0.  0.
          5    1    3    3  501    0 -0.19006418664E+02 -0.54055463418E+02  0.14706165522E+03  0.15790015045E+03  0.47000000000E+01 0.  1.
         -5    1    3    3    0  501  0.18636990777E+02 -0.12331126781E+03  0.47474875473E+02  0.13352512870E+03  0.47000000000E+01 0.  1.
          5    1    4    4  502    0  0.19145611430E+02 -0.78489103309E+01 -0.18025656752E+02  0.27841949138E+02  0.47000000000E+01 0. -1.
         -5    1    4    4    0  502 -0.18776183543E+02  0.18521564156E+03  0.37993728664E+02  0.19006049659E+03  0.47000000000E+01 0. -1.
<mgrwt>
<rscale>  0 0.46195509E+03</rscale>
<asrwt>0</asrwt>
<pdfrwt beam="1">  1       21 0.55679409E-01 0.46195509E+03</pdfrwt>
<pdfrwt beam="2">  1       21 0.22678702E-01 0.46195509E+03</pdfrwt>
<totfact> 0.50887299E+04</totfact>
</mgrwt>
</event>
<event>
 8    1  0.9400004E-006  0.2725255E+03  0.7546771E-02  0.1099843E+00
         21   -1    0    0  504  503  0.00000000000E+00  0.00000000000E+00  0.82020008626E+02  0.82020008626E+02  0.00000000000E+00 0. -1.
         21   -1    0    0  503  504 -0.00000000000E+00 -0.00000000000E+00 -0.22637806144E+03  0.22637806144E+03  0.00000000000E+00 0. -1.
         25    2    1    2    0    0  0.32077683533E+02 -0.92103712120E+01 -0.12058183825E+03  0.17685919115E+03  0.12500154022E+03 0.  0.
         25    2    1    2    0    0 -0.32077683533E+02  0.92103712120E+01 -0.23776214556E+02  0.13153887891E+03  0.12499343810E+03 0.  0.
          5    1    3    3  501    0 -0.45713893701E+02  0.16422029181E+01 -0.22730826499E+02  0.51295588319E+02  0.47000000000E+01 0. -1.
         -5    1    3    3    0  501  0.77791577233E+02 -0.10852574130E+02 -0.97851011755E+02  0.12556360283E+03  0.47000000000E+01 0. -1.
          5    1    4    4  502    0 -0.40411350177E+02  0.62782711649E+02 -0.10736988640E+02  0.75578561974E+02  0.47000000000E+01 0.  1.
         -5    1    4    4    0  502  0.83336666443E+01 -0.53572340436E+02 -0.13039225917E+02  0.55960316941E+02  0.47000000000E+01 0.  1.
<mgrwt>
<rscale>  0 0.27252545E+03</rscale>
<asrwt>0</asrwt>
<pdfrwt beam="1">  1       21 0.12618463E-01 0.27252545E+03</pdfrwt>
<pdfrwt beam="2">  1       21 0.34827394E-01 0.27252545E+03</pdfrwt>
<totfact> 0.41914121E+05</totfact>
</mgrwt>
</event>
<event>
 8    1  0.9400004E-006  0.2792416E+03  0.7546771E-02  0.1096104E+00
         21   -1    0    0  504  503  0.00000000000E+00  0.00000000000E+00  0.10697145827E+03  0.10697145827E+03  0.00000000000E+00 0. -1.
         21   -1    0    0  503  504 -0.00000000000E+00 -0.00000000000E+00 -0.18223520696E+03  0.18223520696E+03  0.00000000000E+00 0. -1.
         25    2    1    2    0    0  0.38305100589E+00  0.28658587058E+02 -0.94788822544E+02  0.15947968035E+03  0.12500954454E+03 0.  0.
         25    2    1    2    0    0 -0.38305100589E+00 -0.28658587058E+02  0.19525073857E+02  0.12972698488E+03  0.12500560290E+03 0.  0.
          5    1    3    3  501    0  0.33270571090E+02  0.67876386216E+02 -0.66623611941E+02  0.10087085989E+03  0.47000000000E+01 0. -1.
         -5    1    3    3    0  501 -0.32887520084E+02 -0.39217799157E+02 -0.28165210602E+02  0.58608820465E+02  0.47000000000E+01 0. -1.
          5    1    4    4  502    0 -0.27762492100E+01 -0.52570463938E+02  0.61525350398E+02  0.81109925286E+02  0.47000000000E+01 0. -1.
         -5    1    4    4    0  502  0.23931982041E+01  0.23911876879E+02 -0.42000276541E+02  0.48617059589E+02  0.47000000000E+01 0. -1.
<mgrwt>
<rscale>  0 0.27924159E+03</rscale>
<asrwt>0</asrwt>
<pdfrwt beam="1">  1       21 0.16457147E-01 0.27924159E+03</pdfrwt>
<pdfrwt beam="2">  1       21 0.28036186E-01 0.27924159E+03</pdfrwt>
<totfact> 0.39517852E+05</totfact>
</mgrwt>
</event>
<event>
 8    1  0.9400004E-006  0.2794827E+03  0.7546771E-02  0.1095972E+00
         21   -1    0    0  504  503  0.00000000000E+00  0.00000000000E+00  0.38365425053E+02  0.38365425053E+02  0.00000000000E+00 0.  1.
         21   -1    0    0  503  504 -0.00000000000E+00 -0.00000000000E+00 -0.50899056730E+03  0.50899056730E+03  0.00000000000E+00 0.  1.
         25    2    1    2    0    0 -0.30015888558E+02 -0.30510644036E+02 -0.32443739152E+03  0.35030888748E+03  0.12499937065E+03 0.  0.
         25    2    1    2    0    0  0.30015888558E+02  0.30510644036E+02 -0.14618775073E+03  0.19704710488E+03  0.12499940045E+03 0.  0.
          5    1    3    3  501    0  0.17566402486E+02 -0.67238993524E+02 -0.20511094212E+03  0.21661544110E+03  0.47000000000E+01 0.  1.
         -5    1    3    3    0  501 -0.47582291045E+02  0.36728349488E+02 -0.11932644940E+03  0.13369344637E+03  0.47000000000E+01 0.  1.
          5    1    4    4  502    0 -0.45008032875E+02  0.19640403955E+02 -0.28481232733E+02  0.56962611499E+02  0.47000000000E+01 0.  1.
         -5    1    4    4    0  502  0.75023921433E+02  0.10870240080E+02 -0.11770651800E+03  0.14008449338E+03  0.47000000000E+01 0.  1.
<mgrwt>
<rscale>  0 0.27948266E+03</rscale>
<asrwt>0</asrwt>
<pdfrwt beam="1">  1       21 0.59023733E-02 0.27948266E+03</pdfrwt>
<pdfrwt beam="2">  1       21 0.78306239E-01 0.27948266E+03</pdfrwt>
<totfact> 0.28612501E+05</totfact>
</mgrwt>
</event>
<event>
 8    1  0.9400004E-006  0.3291674E+03  0.7546771E-02  0.1071506E+00
         21   -1    0    0  504  503  0.00000000000E+00  0.00000000000E+00  0.70042090087E+03  0.70042090087E+03  0.00000000000E+00 0.  1.
         21   -1    0    0  503  504 -0.00000000000E+00 -0.00000000000E+00 -0.38673604085E+02  0.38673604085E+02  0.00000000000E+00 0.  1.
         25    2    1    2    0    0  0.15257222423E+02  0.88645188210E+02  0.20031728141E+03  0.25264536266E+03  0.12494764429E+03 0.  0.
         25    2    1    2    0    0 -0.15257222423E+02 -0.88645188210E+02  0.46143001537E+03  0.48644914229E+03  0.12499742686E+03 0.  0.
          5    1    3    3  501    0 -0.18401470842E+01  0.70948295675E+02  0.21300290228E+03  0.22456485295E+03  0.47000000000E+01 0. -1.
         -5    1    3    3    0  501  0.17097369508E+02  0.17696892535E+02 -0.12685620862E+02  0.28080509720E+02  0.47000000000E+01 0. -1.
          5    1    4    4  502    0 -0.61920252259E+02 -0.14411610700E+02  0.15263841242E+03  0.16541580066E+03  0.47000000000E+01 0.  1.
         -5    1    4    4    0  502  0.46663029835E+02 -0.74233577510E+02  0.30879160296E+03  0.32103334163E+03  0.47000000000E+01 0.  1.
<mgrwt>
<rscale>  0 0.32916744E+03</rscale>
<asrwt>0</asrwt>
<pdfrwt beam="1">  1       21 0.10775705E+00 0.32916744E+03</pdfrwt>
<pdfrwt beam="2">  1       21 0.59497858E-02 0.32916744E+03</pdfrwt>
<totfact> 0.13132659E+05</totfact>
</mgrwt>
</event>
<event>
 8    1  0.9400004E-006  0.2805365E+03  0.7546771E-02  0.1095396E+00
         21   -1    0    0  504  503  0.00000000000E+00  0.00000000000E+00  0.14378889923E+03  0.14378889923E+03  0.00000000000E+00 0. -1.
         21   -1    0    0  503  504 -0.00000000000E+00 -0.00000000000E+00 -0.13683382526E+03  0.13683382526E+03  0.00000000000E+00 0. -1.
         25    2    1    2    0    0 -0.49815546509E+02 -0.38478438418E+01 -0.36009090290E+02  0.13931606749E+03  0.12496366472E+03 0.  0.
         25    2    1    2    0    0  0.49815546509E+02  0.38478438418E+01  0.42964164269E+02  0.14130665700E+03  0.12500102930E+03 0.  0.
          5    1    3    3  501    0 -0.54995446719E+02 -0.31959679647E+02  0.27542228014E+02  0.69473625261E+02  0.47000000000E+01 0.  1.
         -5    1    3    3    0  501  0.51799002095E+01  0.28111835805E+02 -0.63551318304E+02  0.69842442230E+02  0.47000000000E+01 0.  1.
          5    1    4    4  502    0  0.17501986145E+02 -0.45396604704E+02  0.62254017656E+02  0.79150640882E+02  0.47000000000E+01 0.  1.
         -5    1    4    4    0  502  0.32313560364E+02  0.49244448546E+02 -0.19289853388E+02  0.62156016118E+02  0.47000000000E+01 0.  1.
<mgrwt>
<rscale>  0 0.28053652E+03</rscale>
<asrwt>0</asrwt>
<pdfrwt beam="1">  1       21 0.22121369E-01 0.28053652E+03</pdfrwt>
<pdfrwt beam="2">  1       21 0.21051358E-01 0.28053652E+03</pdfrwt>
<totfact> 0.39333013E+05</totfact>
</mgrwt>
</event>
<event>
 8    1  0.9400004E-006  0.5122912E+03  0.7546771E-02  0.1010620E+00
         21   -1    0    0  504  503  0.00000000000E+00  0.00000000000E+00  0.63979151691E+03  0.63979151691E+03  0.00000000000E+00 0.  1.
         21   -1    0    0  503  504 -0.00000000000E+00 -0.00000000000E+00 -0.10254991330E+03  0.10254991330E+03  0.00000000000E+00 0.  1.
         25    2    1    2    0    0  0.12016594667E+03  0.12707406034E+03  0.47044020712E+03  0.51722860276E+03  0.12499506987E+03 0.  0.
         25    2    1    2    0    0 -0.12016594667E+03 -0.12707406034E+03  0.66801396499E+02  0.22511282745E+03  0.12500274780E+03 0.  0.
          5    1    3    3  501    0  0.94489121764E+02  0.19744797253E+02  0.28983369310E+03  0.30552202998E+03  0.47000000000E+01 0. -1.
         -5    1    3    3    0  501  0.25676824904E+02  0.10732926308E+03  0.18060651402E+03  0.21170657278E+03  0.47000000000E+01 0. -1.
          5    1    4    4  502    0 -0.10547357451E+03 -0.15223359843E+03  0.60918033875E+02  0.19502010220E+03  0.47000000000E+01 0. -1.
         -5    1    4    4    0  502 -0.14692372156E+02  0.25159538096E+02  0.58833626240E+01  0.30092725243E+02  0.47000000000E+01 0. -1.
<mgrwt>
<rscale>  0 0.51229119E+03</rscale>
<asrwt>0</asrwt>
<pdfrwt beam="1">  1       21 0.98429461E-01 0.51229119E+03</pdfrwt>
<pdfrwt beam="2">  1       21 0.15776910E-01 0.51229119E+03</pdfrwt>
<totfact> 0.27253292E+04</totfact>
</mgrwt>
</event>
<event>
 8    1  0.9400004E-006  0.3035043E+03  0.7546771E-02  0.1083502E+00
         21   -1    0    0  504  503  0.00000000000E+00  0.00000000000E+00  0.39644026199E+02  0.39644026199E+02  0.00000000000E+00 0. -1.
         21   -1    0    0  503  504 -0.00000000000E+00 -0.00000000000E+00 -0.58088723070E+03  0.58088723070E+03  0.00000000000E+00 0. -1.
         25    2    1    2    0    0 -0.64433088410E+02  0.13603184495E+02 -0.15739161762E+03  0.21150403906E+03  0.12500067091E+03 0.  0.
         25    2    1    2    0    0  0.64433088410E+02 -0.13603184495E+02 -0.38385158688E+03  0.40902721784E+03  0.12499821869E+03 0.  0.
          5    1    3    3  501    0 -0.62393906402E+02 -0.41601214100E+02 -0.12882324839E+03  0.14913477092E+03  0.47000000000E+01 0.  1.
         -5    1    3    3    0  501 -0.20391820080E+01  0.55204398595E+02 -0.28568369230E+02  0.62369268137E+02  0.47000000000E+01 0.  1.
          5    1    4    4  502    0 -0.10031298206E+02 -0.40786726767E+02 -0.48180155385E+02  0.64090571826E+02  0.47000000000E+01 0. -1.
         -5    1    4    4    0  502  0.74464386617E+02  0.27183542272E+02 -0.33567143149E+03  0.34493664602E+03  0.47000000000E+01 0. -1.
<mgrwt>
<rscale>  0 0.30350426E+03</rscale>
<asrwt>0</asrwt>
<pdfrwt beam="1">  1       21 0.60990814E-02 0.30350426E+03</pdfrwt>
<pdfrwt beam="2">  1       21 0.89367259E-01 0.30350426E+03</pdfrwt>
<totfact> 0.19824465E+05</totfact>
</mgrwt>
</event>
<event>
 8    1  0.9400004E-006  0.2662859E+03  0.7546771E-02  0.1103424E+00
         21   -1    0    0  504  503  0.00000000000E+00  0.00000000000E+00  0.83916422522E+03  0.83916422522E+03  0.00000000000E+00 0. -1.
         21   -1    0    0  503  504 -0.00000000000E+00 -0.00000000000E+00 -0.21124639297E+02  0.21124639297E+02  0.00000000000E+00 0. -1.
         25    2    1    2    0    0  0.40011654178E+02 -0.93993660026E+01  0.34339044577E+03  0.36773877998E+03  0.12500212599E+03 0.  0.
         25    2    1    2    0    0 -0.40011654178E+02  0.93993660026E+01  0.47464914015E+03  0.49255008454E+03  0.12499799590E+03 0.  0.
          5    1    3    3  501    0 -0.36354246593E+02  0.28281508406E+02  0.12156945502E+03  0.13008726823E+03  0.47000000000E+01 0. -1.
         -5    1    3    3    0  501  0.76365900770E+02 -0.37680874409E+02  0.22182099075E+03  0.23765151175E+03  0.47000000000E+01 0. -1.
          5    1    4    4  502    0 -0.23341381782E+02  0.64110046106E+01  0.85179835762E+01  0.26087681534E+02  0.47000000000E+01 0. -1.
         -5    1    4    4    0  502 -0.16670272396E+02  0.29883613920E+01  0.46613115658E+03  0.46646240300E+03  0.47000000000E+01 0. -1.
<mgrwt>
<rscale>  0 0.26628587E+03</rscale>
<asrwt>0</asrwt>
<pdfrwt beam="1">  1       21 0.12910216E+00 0.26628587E+03</pdfrwt>
<pdfrwt beam="2">  1       21 0.32499452E-02 0.26628587E+03</pdfrwt>
<totfact> 0.23790565E+05</totfact>
</mgrwt>
</event>
<event>
 8    1  0.9400004E-006  0.2732987E+03  0.7546771E-02  0.1099406E+00
         21   -1    0    0  504  503  0.00000000000E+00  0.00000000000E+00  0.13503172915E+03  0.13503172915E+03  0.00000000000E+00 0. -1.
         21   -1    0    0  503  504 -0.00000000000E+00 -0.00000000000E+00 -0.13828630464E+03  0.13828630464E+03  0.00000000000E+00 0. -1.
         25    2    1    2    0    0  0.87294134067E+01 -0.28541627509E+02  0.44749860962E+02  0.13608177348E+03  0.12499948743E+03 0.  0.
         25    2    1    2    0    0 -0.87294134067E+01  0.28541627509E+02 -0.48004436452E+02  0.13723626030E+03  0.12505414053E+03 0.  0.
          5    1    3    3  501    0 -0.33303363253E+02 -0.56898703479E+02  0.52712782748E+02  0.84541728907E+02  0.47000000000E+01 0.  1.
         -5    1    3    3    0  501  0.42032776660E+02  0.28357075970E+02 -0.79629217865E+01  0.51540044574E+02  0.47000000000E+01 0.  1.
          5    1    4    4  502    0 -0.42497447262E+02  0.64280476532E+02 -0.17424936160E+02  0.79143736879E+02  0.47000000000E+01 0. -1.
         -5    1    4    4    0  502  0.33768033855E+02 -0.35738849023E+02 -0.30579500291E+02  0.58092523426E+02  0.47000000000E+01 0. -1.
<mgrwt>
<rscale>  0 0.27329866E+03</rscale>
<asrwt>0</asrwt>
<pdfrwt beam="1">  1       21 0.20774112E-01 0.27329866E+03</pdfrwt>
<pdfrwt beam="2">  1       21 0.21274816E-01 0.27329866E+03</pdfrwt>
<totfact> 0.43488818E+05</totfact>
</mgrwt>
</event>
<event>
 8    1  0.9400004E-006  0.2646214E+03  0.7546771E-02  0.1104398E+00
         21   -1    0    0  504  503  0.00000000000E+00  0.00000000000E+00  0.27472078332E+02  0.27472078332E+02  0.00000000000E+00 0.  1.
         21   -1    0    0  503  504 -0.00000000000E+00 -0.00000000000E+00 -0.63723311974E+03  0.63723311974E+03  0.00000000000E+00 0.  1.
         25    2    1    2    0    0 -0.26809917905E+02  0.19587482700E+02 -0.37503899508E+03  0.39670895965E+03  0.12498523777E+03 0.  0.
         25    2    1    2    0    0  0.26809917905E+02 -0.19587482700E+02 -0.23472204633E+03  0.26799623842E+03  0.12500041440E+03 0.  0.
          5    1    3    3  501    0  0.47881503676E+02  0.60594424171E+01 -0.96847370346E+02  0.10830908724E+03  0.47000000000E+01 0. -1.
         -5    1    3    3    0  501 -0.74691421581E+02  0.13528040282E+02 -0.27819162473E+03  0.28839987241E+03  0.47000000000E+01 0. -1.
          5    1    4    4  502    0 -0.33013008985E+02  0.28479409739E+02 -0.13582633372E+03  0.14272987940E+03  0.47000000000E+01 0.  1.
         -5    1    4    4    0  502  0.59822926890E+02 -0.48066892438E+02 -0.98895712601E+02  0.12526635902E+03  0.47000000000E+01 0.  1.
<mgrwt>
<rscale>  0 0.26462138E+03</rscale>
<asrwt>0</asrwt>
<pdfrwt beam="1">  1       21 0.42264741E-02 0.26462138E+03</pdfrwt>
<pdfrwt beam="2">  1       21 0.98035853E-01 0.26462138E+03</pdfrwt>
<totfact> 0.30127604E+05</totfact>
</mgrwt>
</event>
<event>
 8    1  0.9400004E-006  0.3126363E+03  0.7546771E-02  0.1079089E+00
         21   -1    0    0  504  503  0.00000000000E+00  0.00000000000E+00  0.34829915685E+02  0.34829915685E+02  0.00000000000E+00 0.  1.
         21   -1    0    0  503  504 -0.00000000000E+00 -0.00000000000E+00 -0.70156265621E+03  0.70156265621E+03  0.00000000000E+00 0.  1.
         25    2    1    2    0    0 -0.54950565231E+02 -0.65143473251E+02 -0.42592122685E+03  0.45199300208E+03  0.12500218289E+03 0.  0.
         25    2    1    2    0    0  0.54950565231E+02  0.65143473251E+02 -0.24081151368E+03  0.28439956981E+03  0.12501877244E+03 0.  0.
          5    1    3    3  501    0 -0.26583749075E+02  0.19201068634E+02 -0.27299800607E+03  0.27500068740E+03  0.47000000000E+01 0. -1.
         -5    1    3    3    0  501 -0.28366816157E+02 -0.84344541885E+02 -0.15292322078E+03  0.17699231469E+03  0.47000000000E+01 0. -1.
          5    1    4    4  502    0  0.56568412513E+02  0.90560812815E+01 -0.27386611066E+02  0.63671927630E+02  0.47000000000E+01 0.  1.
         -5    1    4    4    0  502 -0.16178472818E+01  0.56087391969E+02 -0.21342490261E+03  0.22072764218E+03  0.47000000000E+01 0.  1.
<mgrwt>
<rscale>  0 0.31263633E+03</rscale>
<asrwt>0</asrwt>
<pdfrwt beam="1">  1       21 0.53584485E-02 0.31263633E+03</pdfrwt>
<pdfrwt beam="2">  1       21 0.10793272E+00 0.31263633E+03</pdfrwt>
<totfact> 0.15735870E+05</totfact>
</mgrwt>
</event>
<event>
 8    1  0.9400004E-006  0.2904974E+03  0.7546771E-02  0.1090090E+00
         21   -1    0    0  504  503  0.00000000000E+00  0.00000000000E+00  0.23418180329E+03  0.23418180329E+03  0.00000000000E+00 0.  1.
         21   -1    0    0  503  504 -0.00000000000E+00 -0.00000000000E+00 -0.90088897952E+02  0.90088897952E+02  0.00000000000E+00 0.  1.
         25    2    1    2    0    0 -0.52386103176E+02 -0.28992639420E+02  0.23577160340E+02  0.14059175706E+03  0.12500113087E+03 0.  0.
         25    2    1    2    0    0  0.52386103176E+02  0.28992639420E+02  0.12051574500E+03  0.18367894418E+03  0.12501613014E+03 0.  0.
          5    1    3    3  501    0 -0.12993302325E+01 -0.70904715909E+02  0.21729269969E+02  0.74319702438E+02  0.47000000000E+01 0.  1.
         -5    1    3    3    0  501 -0.51086772943E+02  0.41912076489E+02  0.18478903710E+01  0.66272054625E+02  0.47000000000E+01 0.  1.
          5    1    4    4  502    0  0.10333296738E+02 -0.41008523063E+02  0.60317250272E+01  0.42976129328E+02  0.47000000000E+01 0. -1.
         -5    1    4    4    0  502  0.42052806438E+02  0.70001162483E+02  0.11448401997E+03  0.14070281485E+03  0.47000000000E+01 0. -1.
<mgrwt>
<rscale>  0 0.29049737E+03</rscale>
<asrwt>0</asrwt>
<pdfrwt beam="1">  1       21 0.36027969E-01 0.29049737E+03</pdfrwt>
<pdfrwt beam="2">  1       21 0.13859831E-01 0.29049737E+03</pdfrwt>
<totfact> 0.32905478E+05</totfact>
</mgrwt>
</event>
<event>
 8    1  0.9400004E-006  0.3662708E+03  0.7546771E-02  0.1056128E+00
         21   -1    0    0  504  503  0.00000000000E+00  0.00000000000E+00  0.60833471961E+03  0.60833471961E+03  0.00000000000E+00 0.  1.
         21   -1    0    0  503  504 -0.00000000000E+00 -0.00000000000E+00 -0.55131781833E+02  0.55131781833E+02  0.00000000000E+00 0.  1.
         25    2    1    2    0    0 -0.85044499984E+02  0.18761338717E+01  0.89440616138E+02  0.17567218327E+03  0.12500002121E+03 0.  0.
         25    2    1    2    0    0  0.85044499984E+02 -0.18761338717E+01  0.46376232164E+03  0.48779431817E+03  0.12502687318E+03 0.  0.
          5    1    3    3  501    0  0.83852001797E+01 -0.45112970437E+02  0.21653470216E+02  0.50955416357E+02  0.47000000000E+01 0. -1.
         -5    1    3    3    0  501 -0.93429700163E+02  0.46989104309E+02  0.67787145922E+02  0.12471676691E+03  0.47000000000E+01 0. -1.
          5    1    4    4  502    0  0.87689555756E+02 -0.48594056549E+02  0.26056366529E+03  0.27922455871E+03  0.47000000000E+01 0.  1.
         -5    1    4    4    0  502 -0.26450557727E+01  0.46717922678E+02  0.20319865635E+03  0.20856975946E+03  0.47000000000E+01 0.  1.
<mgrwt>
<rscale>  0 0.36627081E+03</rscale>
<asrwt>0</asrwt>
<pdfrwt beam="1">  1       21 0.93589952E-01 0.36627081E+03</pdfrwt>
<pdfrwt beam="2">  1       21 0.84818130E-02 0.36627081E+03</pdfrwt>
<totfact> 0.98311171E+04</totfact>
</mgrwt>
</event>
<event>
 8    1  0.9400004E-006  0.2722524E+03  0.7546771E-02  0.1099997E+00
         21   -1    0    0  504  503  0.00000000000E+00  0.00000000000E+00  0.35962498359E+03  0.35962498359E+03  0.00000000000E+00 0. -1.
         21   -1    0    0  503  504 -0.00000000000E+00 -0.00000000000E+00 -0.51526847179E+02  0.51526847179E+02  0.00000000000E+00 0. -1.
         25    2    1    2    0    0 -0.24130980077E+02  0.42601526178E+02  0.18807239485E+03  0.23107322799E+03  0.12500566690E+03 0.  0.
         25    2    1    2    0    0  0.24130980077E+02 -0.42601526178E+02  0.12002574156E+03  0.18007860278E+03  0.12499972124E+03 0.  0.
          5    1    3    3  501    0  0.56905950716E+01 -0.41774482512E+02  0.81098243700E+02  0.91523250558E+02  0.47000000000E+01 0. -1.
         -5    1    3    3    0  501 -0.29821575149E+02  0.84376008690E+02  0.10697415115E+03  0.13954997743E+03  0.47000000000E+01 0. -1.
          5    1    4    4  502    0  0.65307085113E+01 -0.81914788575E+02  0.10667801356E+03  0.13474038488E+03  0.47000000000E+01 0.  1.
         -5    1    4    4    0  502  0.17600271566E+02  0.39313262397E+02  0.13347728003E+02  0.45338217900E+02  0.47000000000E+01 0.  1.
<mgrwt>
<rscale>  0 0.27225239E+03</rscale>
<asrwt>0</asrwt>
<pdfrwt beam="1">  1       21 0.55326919E-01 0.27225239E+03</pdfrwt>
<pdfrwt beam="2">  1       21 0.79272075E-02 0.27225239E+03</pdfrwt>
<totfact> 0.36879552E+05</totfact>
</mgrwt>
</event>
<event>
 8    1  0.9400004E-006  0.2545342E+03  0.7546771E-02  0.1110472E+00
         21   -1    0    0  504  503  0.00000000000E+00  0.00000000000E+00  0.27447806795E+02  0.27447806795E+02  0.00000000000E+00 0. -1.
         21   -1    0    0  503  504 -0.00000000000E+00 -0.00000000000E+00 -0.59009850660E+03  0.59009850660E+03  0.00000000000E+00 0. -1.
         25    2    1    2    0    0 -0.56777255802E+01 -0.21646244582E+02 -0.26034170620E+03  0.28966393156E+03  0.12500637100E+03 0.  0.
         25    2    1    2    0    0  0.56777255802E+01  0.21646244582E+02 -0.30230899361E+03  0.32788238183E+03  0.12496132293E+03 0.  0.
          5    1    3    3  501    0  0.25958025741E+02 -0.65916826987E+02 -0.16789176363E+03  0.18228708532E+03  0.47000000000E+01 0. -1.
         -5    1    3    3    0  501 -0.31635751321E+02  0.44270582405E+02 -0.92449942569E+02  0.10737684624E+03  0.47000000000E+01 0. -1.
          5    1    4    4  502    0  0.20764172382E+02  0.46917512602E+02 -0.43691925451E+02  0.67553520952E+02  0.47000000000E+01 0. -1.
         -5    1    4    4    0  502 -0.15086446801E+02 -0.25271268020E+02 -0.25861706816E+03  0.26032886088E+03  0.47000000000E+01 0. -1.
<mgrwt>
<rscale>  0 0.25453416E+03</rscale>
<asrwt>0</asrwt>
<pdfrwt beam="1">  1       21 0.42227396E-02 0.25453416E+03</pdfrwt>
<pdfrwt beam="2">  1       21 0.90784383E-01 0.25453416E+03</pdfrwt>
<totfact> 0.36253732E+05</totfact>
</mgrwt>
</event>
<event>
 8    1  0.9400004E-006  0.2642897E+03  0.7546771E-02  0.1104593E+00
         21   -1    0    0  504  503  0.00000000000E+00  0.00000000000E+00  0.65414418477E+02  0.65414418477E+02  0.00000000000E+00 0.  1.
         21   -1    0    0  503  504 -0.00000000000E+00 -0.00000000000E+00 -0.26694822097E+03  0.26694822097E+03  0.00000000000E+00 0.  1.
         25    2    1    2    0    0  0.39704349889E+02  0.15647410974E+02 -0.95721181433E+02  0.16312228355E+03  0.12500023178E+03 0.  0.
         25    2    1    2    0    0 -0.39704349889E+02 -0.15647410974E+02 -0.10581262106E+03  0.16924035590E+03  0.12499884167E+03 0.  0.
          5    1    3    3  501    0  0.56109732438E+02  0.46743383743E+02 -0.14651723996E+02  0.74632493018E+02  0.47000000000E+01 0.  1.
         -5    1    3    3    0  501 -0.16405382548E+02 -0.31095972769E+02 -0.81069457438E+02  0.88489790531E+02  0.47000000000E+01 0.  1.
          5    1    4    4  502    0  0.45094374349E+02 -0.11093574958E+02 -0.31633592359E+02  0.56385673436E+02  0.47000000000E+01 0. -1.
         -5    1    4    4    0  502 -0.84798724238E+02 -0.45538360154E+01 -0.74179028699E+02  0.11285468246E+03  0.47000000000E+01 0. -1.
<mgrwt>
<rscale>  0 0.26428971E+03</rscale>
<asrwt>0</asrwt>
<pdfrwt beam="1">  1       21 0.10063757E-01 0.26428971E+03</pdfrwt>
<pdfrwt beam="2">  1       21 0.41068958E-01 0.26428971E+03</pdfrwt>
<totfact> 0.45148475E+05</totfact>
</mgrwt>
</event>
<event>
 8    1  0.9400004E-006  0.3774225E+03  0.7546771E-02  0.1051891E+00
         21   -1    0    0  504  503  0.00000000000E+00  0.00000000000E+00  0.58505414608E+02  0.58505414608E+02  0.00000000000E+00 0. -1.
         21   -1    0    0  503  504 -0.00000000000E+00 -0.00000000000E+00 -0.60869480172E+03  0.60869480172E+03  0.00000000000E+00 0. -1.
         25    2    1    2    0    0 -0.69621503630E+02 -0.90656663809E+02 -0.42213580095E+03  0.45485979813E+03  0.12503206409E+03 0.  0.
         25    2    1    2    0    0  0.69621503630E+02  0.90656663809E+02 -0.12805358616E+03  0.21234041820E+03  0.12499979124E+03 0.  0.
          5    1    3    3  501    0 -0.11869369917E+02 -0.10403591375E+03 -0.31934305425E+03  0.33610478959E+03  0.47000000000E+01 0. -1.
         -5    1    3    3    0  501 -0.57752133713E+02  0.13379249943E+02 -0.10279274671E+03  0.11875500854E+03  0.47000000000E+01 0. -1.
          5    1    4    4  502    0  0.95225659387E+02  0.50585240794E+02 -0.12398743136E+03  0.16438298552E+03  0.47000000000E+01 0.  1.
         -5    1    4    4    0  502 -0.25604155757E+02  0.40071423015E+02 -0.40661547991E+01  0.47957432681E+02  0.47000000000E+01 0.  1.
<mgrwt>
<rscale>  0 0.37742253E+03</rscale>
<asrwt>0</asrwt>
<pdfrwt beam="1">  1       21 0.90008325E-02 0.37742253E+03</pdfrwt>
<pdfrwt beam="2">  1       21 0.93645360E-01 0.37742253E+03</pdfrwt>
<totfact> 0.88111146E+04</totfact>
</mgrwt>
</event>
<event>
 8    1  0.9400004E-006  0.2866772E+03  0.7546771E-02  0.1092097E+00
         21   -1    0    0  504  503  0.00000000000E+00  0.00000000000E+00  0.61766946493E+02  0.61766946493E+02  0.00000000000E+00 0. -1.
         21   -1    0    0  503  504 -0.00000000000E+00 -0.00000000000E+00 -0.33263672607E+03  0.33263672607E+03  0.00000000000E+00 0. -1.
         25    2    1    2    0    0 -0.43746557139E+02 -0.31115445276E+02 -0.19755650679E+03  0.23986749409E+03  0.12500363655E+03 0.  0.
         25    2    1    2    0    0  0.43746557139E+02  0.31115445276E+02 -0.73313272781E+02  0.15453617847E+03  0.12499864916E+03 0.  0.
          5    1    3    3  501    0  0.93005411955E-01 -0.73269561358E+02 -0.89292234491E+02  0.11560116960E+03  0.47000000000E+01 0.  1.
         -5    1    3    3    0  501 -0.43839562551E+02  0.42154116082E+02 -0.10826427230E+03  0.12426632450E+03  0.47000000000E+01 0.  1.
          5    1    4    4  502    0 -0.37545732999E+02  0.81355803735E+01 -0.56162392858E+02  0.68206847940E+02  0.47000000000E+01 0.  1.
         -5    1    4    4    0  502  0.81292290138E+02  0.22979864903E+02 -0.17150879923E+02  0.86329330525E+02  0.47000000000E+01 0.  1.
<mgrwt>
<rscale>  0 0.28667720E+03</rscale>
<asrwt>0</asrwt>
<pdfrwt beam="1">  1       21 0.95026074E-02 0.28667720E+03</pdfrwt>
<pdfrwt beam="2">  1       21 0.51174880E-01 0.28667720E+03</pdfrwt>
<totfact> 0.31520590E+05</totfact>
</mgrwt>
</event>
<event>
 8    1  0.9400004E-006  0.3455506E+03  0.7546771E-02  0.1064456E+00
         21   -1    0    0  504  503  0.00000000000E+00  0.00000000000E+00  0.33993932376E+02  0.33993932376E+02  0.00000000000E+00 0. -1.
         21   -1    0    0  503  504 -0.00000000000E+00 -0.00000000000E+00 -0.87813627285E+03  0.87813627285E+03  0.00000000000E+00 0. -1.
         25    2    1    2    0    0  0.88149796891E+02 -0.77910442878E+02 -0.37017386604E+03  0.40803709183E+03  0.12500061363E+03 0.  0.
         25    2    1    2    0    0 -0.88149796891E+02  0.77910442878E+02 -0.47396847443E+03  0.50409311339E+03  0.12499331348E+03 0.  0.
          5    1    3    3  501    0  0.73962883728E+02  0.15904124586E+02 -0.14423856971E+03  0.16294264126E+03  0.47000000000E+01 0. -1.
         -5    1    3    3    0  501  0.14186913163E+02 -0.93814567464E+02 -0.22593529633E+03  0.24509445057E+03  0.47000000000E+01 0. -1.
          5    1    4    4  502    0  0.11580099386E+02 -0.23079331979E+02 -0.43495171313E+02  0.50800336553E+02  0.47000000000E+01 0. -1.
         -5    1    4    4    0  502 -0.99729896277E+02  0.10098977486E+03 -0.43047330312E+03  0.45329277684E+03  0.47000000000E+01 0. -1.
<mgrwt>
<rscale>  0 0.34555060E+03</rscale>
<asrwt>0</asrwt>
<pdfrwt beam="1">  1       21 0.52298362E-02 0.34555060E+03</pdfrwt>
<pdfrwt beam="2">  1       21 0.13509788E+00 0.34555060E+03</pdfrwt>
<totfact> 0.92359739E+04</totfact>
</mgrwt>
</event>
<event>
 8    1  0.9400004E-006  0.2545937E+03  0.7546771E-02  0.1110436E+00
         21   -1    0    0  504  503  0.00000000000E+00  0.00000000000E+00  0.16426579886E+03  0.16426579886E+03  0.00000000000E+00 0.  1.
         21   -1    0    0  503  504 -0.00000000000E+00 -0.00000000000E+00 -0.98647941329E+02  0.98647941329E+02  0.00000000000E+00 0.  1.
         25    2    1    2    0    0  0.27548666199E+00  0.18639473981E+00  0.57648401346E+02  0.13766556386E+03  0.12501343392E+03 0.  0.
         25    2    1    2    0    0 -0.27548666199E+00 -0.18639473981E+00  0.79694561815E+01  0.12524817632E+03  0.12499393107E+03 0.  0.
          5    1    3    3  501    0  0.23046818849E+02  0.42284676862E+02  0.72649325515E+02  0.87287824204E+02  0.47000000000E+01 0.  1.
         -5    1    3    3    0  501 -0.22771332187E+02 -0.42098282122E+02 -0.15000924169E+02  0.50377739659E+02  0.47000000000E+01 0.  1.
          5    1    4    4  502    0 -0.57521127472E+02 -0.24402129186E+02  0.41693477200E+01  0.62798228278E+02  0.47000000000E+01 0. -1.
         -5    1    4    4    0  502  0.57245640810E+02  0.24215734446E+02  0.38001084615E+01  0.62449948045E+02  0.47000000000E+01 0. -1.
<mgrwt>
<rscale>  0 0.25459366E+03</rscale>
<asrwt>0</asrwt>
<pdfrwt beam="1">  1       21 0.25271661E-01 0.25459366E+03</pdfrwt>
<pdfrwt beam="2">  1       21 0.15176606E-01 0.25459366E+03</pdfrwt>
<totfact> 0.56337744E+05</totfact>
</mgrwt>
</event>
<event>
 8    1  0.9400004E-006  0.3112347E+03  0.7546771E-02  0.1079756E+00
         21   -1    0    0  504  503  0.00000000000E+00  0.00000000000E+00  0.11427893334E+03  0.11427893334E+03  0.00000000000E+00 0. -1.
         21   -1    0    0  503  504 -0.00000000000E+00 -0.00000000000E+00 -0.21190926599E+03  0.21190926599E+03  0.00000000000E+00 0. -1.
         25    2    1    2    0    0 -0.11150418142E+02 -0.28850800811E+02  0.42761217574E+02  0.13568444352E+03  0.12500018381E+03 0.  0.
         25    2    1    2    0    0  0.11150418142E+02  0.28850800811E+02 -0.14039155023E+03  0.19050375581E+03  0.12500077227E+03 0.  0.
          5    1    3    3  501    0  0.13986740886E+02 -0.73773134892E+02  0.13984472991E+02  0.76522936674E+02  0.47000000000E+01 0.  1.
         -5    1    3    3    0  501 -0.25137159028E+02  0.44922334081E+02  0.28776744583E+02  0.59161506844E+02  0.47000000000E+01 0.  1.
          5    1    4    4  502    0  0.32378595007E+02 -0.23961757951E+02 -0.17869730977E+01  0.40593380391E+02  0.47000000000E+01 0.  1.
         -5    1    4    4    0  502 -0.21228176866E+02  0.52812558761E+02 -0.13860457713E+03  0.14991037541E+03  0.47000000000E+01 0.  1.
<mgrwt>
<rscale>  0 0.31123473E+03</rscale>
<asrwt>0</asrwt>
<pdfrwt beam="1">  1       21 0.17581375E-01 0.31123473E+03</pdfrwt>
<pdfrwt beam="2">  1       21 0.32601425E-01 0.31123473E+03</pdfrwt>
<totfact> 0.25805503E+05</totfact>
</mgrwt>
</event>
<event>
 8    1  0.9400004E-006  0.4413778E+03  0.7546771E-02  0.1030325E+00
         21   -1    0    0  504  503  0.00000000000E+00  0.00000000000E+00  0.37963370078E+03  0.37963370078E+03  0.00000000000E+00 0.  1.
         21   -1    0    0  503  504 -0.00000000000E+00 -0.00000000000E+00 -0.12829099881E+03  0.12829099881E+03  0.00000000000E+00 0.  1.
         25    2    1    2    0    0  0.84322158144E+02  0.60540653347E+02  0.29752723398E+03  0.33900404022E+03  0.12500354900E+03 0.  0.
         25    2    1    2    0    0 -0.84322158144E+02 -0.60540653347E+02 -0.46184532008E+02  0.16892065937E+03  0.12500312438E+03 0.  0.
          5    1    3    3  501    0 -0.17495024813E+01  0.36300028406E+02  0.10186351466E+02  0.38034255315E+02  0.47000000000E+01 0. -1.
         -5    1    3    3    0  501  0.86071660626E+02  0.24240624942E+02  0.28734088251E+03  0.30096978490E+03  0.47000000000E+01 0. -1.
          5    1    4    4  502    0 -0.53950142831E+00 -0.76621948665E+02 -0.26767778940E+02  0.81300787625E+02  0.47000000000E+01 0.  1.
         -5    1    4    4    0  502 -0.83782656716E+02  0.16081295318E+02 -0.19416753068E+02  0.87619871748E+02  0.47000000000E+01 0.  1.
<mgrwt>
<rscale>  0 0.44137778E+03</rscale>
<asrwt>0</asrwt>
<pdfrwt beam="1">  1       21 0.58405184E-01 0.44137778E+03</pdfrwt>
<pdfrwt beam="2">  1       21 0.19737077E-01 0.44137778E+03</pdfrwt>
<totfact> 0.60102757E+04</totfact>
</mgrwt>
</event>
<event>
 8    1  0.9400004E-006  0.2865831E+03  0.7546771E-02  0.1092147E+00
         21   -1    0    0  504  503  0.00000000000E+00  0.00000000000E+00  0.11193456836E+02  0.11193456836E+02  0.00000000000E+00 0.  1.
         21   -1    0    0  503  504 -0.00000000000E+00 -0.00000000000E+00 -0.18343282073E+04  0.18343282073E+04  0.00000000000E+00 0.  1.
         25    2    1    2    0    0 -0.22762381200E+02 -0.53950886767E+02 -0.11592427117E+04  0.11674312667E+04  0.12499309483E+03 0.  0.
         25    2    1    2    0    0  0.22762381200E+02  0.53950886767E+02 -0.66389203878E+03  0.67809039741E+03  0.12500049489E+03 0.  0.
          5    1    3    3  501    0  0.39758831707E+01 -0.82298213352E+02 -0.47903041139E+03  0.48608747012E+03  0.47000000000E+01 0.  1.
         -5    1    3    3    0  501 -0.26738264371E+02  0.28347326584E+02 -0.68021230029E+03  0.68134379660E+03  0.47000000000E+01 0.  1.
          5    1    4    4  502    0  0.51563817527E+02  0.63608140377E+02 -0.25110090182E+03  0.26415634707E+03  0.47000000000E+01 0. -1.
         -5    1    4    4    0  502 -0.28801436327E+02 -0.96572536092E+01 -0.41279113696E+03  0.41393405034E+03  0.47000000000E+01 0. -1.
<mgrwt>
<rscale>  0 0.28658314E+03</rscale>
<asrwt>0</asrwt>
<pdfrwt beam="1">  1       21 0.17220700E-02 0.28658314E+03</pdfrwt>
<pdfrwt beam="2">  1       21 0.28220438E+00 0.28658314E+03</pdfrwt>
<totfact> 0.63580852E+04</totfact>
</mgrwt>
</event>
<event>
 8    1  0.9400004E-006  0.2645993E+03  0.7546771E-02  0.1104411E+00
         21   -1    0    0  504  503  0.00000000000E+00  0.00000000000E+00  0.34206366346E+03  0.34206366346E+03  0.00000000000E+00 0.  1.
         21   -1    0    0  503  504 -0.00000000000E+00 -0.00000000000E+00 -0.51169400642E+02  0.51169400642E+02  0.00000000000E+00 0.  1.
         25    2    1    2    0    0  0.70395559758E+01 -0.33875574469E+02  0.10668727276E+03  0.16794123743E+03  0.12499990066E+03 0.  0.
         25    2    1    2    0    0 -0.70395559758E+01  0.33875574469E+02  0.18420699006E+03  0.22529182668E+03  0.12500832807E+03 0.  0.
          5    1    3    3  501    0 -0.55636905912E+02 -0.28321138320E+02  0.32466462397E+02  0.70524558530E+02  0.47000000000E+01 0.  1.
         -5    1    3    3    0  501  0.62676461888E+02 -0.55544361482E+01  0.74220810365E+02  0.97416678896E+02  0.47000000000E+01 0.  1.
          5    1    4    4  502    0  0.51508182143E+02 -0.13097853883E+02  0.91436701446E+02  0.10586504133E+03  0.47000000000E+01 0. -1.
         -5    1    4    4    0  502 -0.58547738119E+02  0.46973428352E+02  0.92770288609E+02  0.11942678535E+03  0.47000000000E+01 0. -1.
<mgrwt>
<rscale>  0 0.26459926E+03</rscale>
<asrwt>0</asrwt>
<pdfrwt beam="1">  1       21 0.52625178E-01 0.26459926E+03</pdfrwt>
<pdfrwt beam="2">  1       21 0.78722157E-02 0.26459926E+03</pdfrwt>
<totfact> 0.41588967E+05</totfact>
</mgrwt>
</event>
<event>
 8    1  0.9400004E-006  0.2746691E+03  0.7546771E-02  0.1098637E+00
         21   -1    0    0  504  503  0.00000000000E+00  0.00000000000E+00  0.18270957260E+03  0.18270957260E+03  0.00000000000E+00 0.  1.
         21   -1    0    0  503  504 -0.00000000000E+00 -0.00000000000E+00 -0.10322821600E+03  0.10322821600E+03  0.00000000000E+00 0.  1.
         25    2    1    2    0    0 -0.37862221192E+02 -0.41331551540E+02  0.49867459017E+02  0.14578785618E+03  0.12500196236E+03 0.  0.
         25    2    1    2    0    0  0.37862221192E+02  0.41331551540E+02  0.29613897585E+02  0.14014993242E+03  0.12499270252E+03 0.  0.
          5    1    3    3  501    0  0.21436253801E+02  0.17589943558E+02  0.55136729572E+02  0.61895622134E+02  0.47000000000E+01 0. -1.
         -5    1    3    3    0  501 -0.59298474993E+02 -0.58921495098E+02 -0.52692705554E+01  0.83892234046E+02  0.47000000000E+01 0. -1.
          5    1    4    4  502    0  0.81613776847E+02  0.11835400482E+02  0.27765809371E+02  0.87143074571E+02  0.47000000000E+01 0.  1.
         -5    1    4    4    0  502 -0.43751555654E+02  0.29496151059E+02  0.18480882148E+01  0.53006857853E+02  0.47000000000E+01 0.  1.
<mgrwt>
<rscale>  0 0.27466913E+03</rscale>
<asrwt>0</asrwt>
<pdfrwt beam="1">  1       21 0.28109165E-01 0.27466913E+03</pdfrwt>
<pdfrwt beam="2">  1       21 0.15881264E-01 0.27466913E+03</pdfrwt>
<totfact> 0.42026690E+05</totfact>
</mgrwt>
</event>
<event>
 8    1  0.9400004E-006  0.3058827E+03  0.7546771E-02  0.1082336E+00
         21   -1    0    0  504  503  0.00000000000E+00  0.00000000000E+00  0.39977523844E+03  0.39977523844E+03  0.00000000000E+00 0. -1.
         21   -1    0    0  503  504 -0.00000000000E+00 -0.00000000000E+00 -0.58510509059E+02  0.58510509059E+02  0.00000000000E+00 0. -1.
         25    2    1    2    0    0  0.46849369362E+01 -0.87717390076E+02  0.16006323489E+03  0.22127239394E+03  0.12499977600E+03 0.  0.
         25    2    1    2    0    0 -0.46849369362E+01  0.87717390076E+02  0.18120149449E+03  0.23701335356E+03  0.12500023601E+03 0.  0.
          5    1    3    3  501    0  0.11667225993E+02 -0.81585294714E+02  0.18041921964E+03  0.19840733175E+03  0.47000000000E+01 0. -1.
         -5    1    3    3    0  501 -0.69822890565E+01 -0.61320953618E+01 -0.20355984749E+02  0.22865062193E+02  0.47000000000E+01 0. -1.
          5    1    4    4  502    0  0.12943405346E+02 -0.52896868744E+01 -0.13798915046E+02  0.20199321415E+02  0.47000000000E+01 0.  1.
         -5    1    4    4    0  502 -0.17628342282E+02  0.93007076951E+02  0.19500040953E+03  0.21681403214E+03  0.47000000000E+01 0.  1.
<mgrwt>
<rscale>  0 0.30588267E+03</rscale>
<asrwt>0</asrwt>
<pdfrwt beam="1">  1       21 0.61503881E-01 0.30588267E+03</pdfrwt>
<pdfrwt beam="2">  1       21 0.90016170E-02 0.30588267E+03</pdfrwt>
<totfact> 0.23293821E+05</totfact>
</mgrwt>
</event>
<event>
 8    1  0.9400004E-006  0.4407148E+03  0.7546771E-02  0.1030528E+00
         21   -1    0    0  504  503  0.00000000000E+00  0.00000000000E+00  0.10525615351E+04  0.10525615351E+04  0.00000000000E+00 0.  1.
         21   -1    0    0  503  504 -0.00000000000E+00 -0.00000000000E+00 -0.46132576701E+02  0.46132576701E+02  0.00000000000E+00 0.  1.
         25    2    1    2    0    0 -0.43162769451E+02  0.10425155703E+03  0.85754472922E+03  0.87392092893E+03  0.12499366219E+03 0.  0.
         25    2    1    2    0    0  0.43162769451E+02 -0.10425155703E+03  0.14888422915E+03  0.22477318285E+03  0.12500023291E+03 0.  0.
          5    1    3    3  501    0 -0.73668541743E+02  0.91120718466E+02  0.45107368662E+03  0.46606823549E+03  0.47000000000E+01 0. -1.
         -5    1    3    3    0  501  0.30505772292E+02  0.13130838562E+02  0.40647104261E+03  0.40785269344E+03  0.47000000000E+01 0. -1.
          5    1    4    4  502    0  0.16390302662E+02 -0.10735270096E+03  0.16147858205E+03  0.19465525137E+03  0.47000000000E+01 0.  1.
         -5    1    4    4    0  502  0.26772466789E+02  0.31011439296E+01 -0.12594352901E+02  0.30117931480E+02  0.47000000000E+01 0.  1.
<mgrwt>
<rscale>  0 0.44071476E+03</rscale>
<asrwt>0</asrwt>
<pdfrwt beam="1">  1       21 0.16193253E+00 0.44071476E+03</pdfrwt>
<pdfrwt beam="2">  1       21 0.70973203E-02 0.44071476E+03</pdfrwt>
<totfact> 0.32435434E+04</totfact>
</mgrwt>
</event>
<event>
 8    1  0.9400004E-006  0.3160795E+03  0.7546771E-02  0.1077468E+00
         21   -1    0    0  504  503  0.00000000000E+00  0.00000000000E+00  0.58380365652E+02  0.58380365652E+02  0.00000000000E+00 0.  1.
         21   -1    0    0  503  504 -0.00000000000E+00 -0.00000000000E+00 -0.42782476164E+03  0.42782476164E+03  0.00000000000E+00 0.  1.
         25    2    1    2    0    0 -0.16952160336E+02  0.89728582544E+02 -0.23363180112E+03  0.28026324333E+03  0.12500029119E+03 0.  0.
         25    2    1    2    0    0  0.16952160336E+02 -0.89728582544E+02 -0.13581259486E+03  0.20594188397E+03  0.12501361679E+03 0.  0.
          5    1    3    3  501    0 -0.42357228135E+02 -0.14716947444E+02 -0.91446505614E+02  0.10195722979E+03  0.47000000000E+01 0.  1.
         -5    1    3    3    0  501  0.25405067798E+02  0.10444552999E+03 -0.14218529551E+03  0.17830601354E+03  0.47000000000E+01 0.  1.
          5    1    4    4  502    0 -0.37038172823E+02 -0.58079306990E+02 -0.16283616703E+02  0.70938553125E+02  0.47000000000E+01 0. -1.
         -5    1    4    4    0  502  0.53990333160E+02 -0.31649275554E+02 -0.11952897816E+03  0.13500333084E+03  0.47000000000E+01 0. -1.
<mgrwt>
<rscale>  0 0.31607952E+03</rscale>
<asrwt>0</asrwt>
<pdfrwt beam="1">  1       21 0.89815948E-02 0.31607952E+03</pdfrwt>
<pdfrwt beam="2">  1       21 0.65819194E-01 0.31607952E+03</pdfrwt>
<totfact> 0.20107393E+05</totfact>
</mgrwt>
</event>
<event>
 8    1  0.9400004E-006  0.3301262E+03  0.7546771E-02  0.1071081E+00
         21   -1    0    0  504  503  0.00000000000E+00  0.00000000000E+00  0.37688828783E+03  0.37688828783E+03  0.00000000000E+00 0.  1.
         21   -1    0    0  503  504 -0.00000000000E+00 -0.00000000000E+00 -0.72291528677E+02  0.72291528677E+02  0.00000000000E+00 0.  1.
         25    2    1    2    0    0  0.61361541312E+02 -0.69881713564E+02  0.78113474337E+02  0.17428154389E+03  0.12499459598E+03 0.  0.
         25    2    1    2    0    0 -0.61361541312E+02  0.69881713564E+02  0.22648328481E+03  0.27489827261E+03  0.12500275734E+03 0.  0.
          5    1    3    3  501    0  0.42043707367E+02  0.26669815657E+01  0.88707854741E+02  0.98315612253E+02  0.47000000000E+01 0. -1.
         -5    1    3    3    0  501  0.19317833944E+02 -0.72548695130E+02 -0.10594380405E+02  0.75965931637E+02  0.47000000000E+01 0. -1.
          5    1    4    4  502    0 -0.82083033627E+02  0.52880525019E+01  0.15910942689E+03  0.17917446144E+03  0.47000000000E+01 0. -1.
         -5    1    4    4    0  502  0.20721492315E+02  0.64593661062E+02  0.67373857924E+02  0.95723811169E+02  0.47000000000E+01 0. -1.
<mgrwt>
<rscale>  0 0.33012622E+03</rscale>
<asrwt>0</asrwt>
<pdfrwt beam="1">  1       21 0.57982812E-01 0.33012622E+03</pdfrwt>
<pdfrwt beam="2">  1       21 0.11121774E-01 0.33012622E+03</pdfrwt>
<totfact> 0.18051172E+05</totfact>
</mgrwt>
</event>
<event>
 8    1  0.9400004E-006  0.3968470E+03  0.7546771E-02  0.1044877E+00
         21   -1    0    0  504  503  0.00000000000E+00  0.00000000000E+00  0.64647851500E+03  0.64647851500E+03  0.00000000000E+00 0. -1.
         21   -1    0    0  503  504 -0.00000000000E+00 -0.00000000000E+00 -0.60902079656E+02  0.60902079656E+02  0.00000000000E+00 0. -1.
         25    2    1    2    0    0 -0.18716452088E+02  0.13276088386E+03  0.15735500014E+03  0.24157727042E+03  0.12499289441E+03 0.  0.
         25    2    1    2    0    0  0.18716452088E+02 -0.13276088386E+03  0.42822143520E+03  0.46580332423E+03  0.12499352558E+03 0.  0.
          5    1    3    3  501    0 -0.65201603362E+01 -0.23874403927E+02  0.30741747079E+02  0.39744743893E+02  0.47000000000E+01 0. -1.
         -5    1    3    3    0  501 -0.12196291751E+02  0.15663528779E+03  0.12661325306E+03  0.20183252653E+03  0.47000000000E+01 0. -1.
          5    1    4    4  502    0 -0.37755183418E+02 -0.47310037402E+02  0.67467518284E+02  0.90761498100E+02  0.47000000000E+01 0. -1.
         -5    1    4    4    0  502  0.56471635506E+02 -0.85450846461E+02  0.36075391692E+03  0.37504182613E+03  0.47000000000E+01 0. -1.
<mgrwt>
<rscale>  0 0.39684700E+03</rscale>
<asrwt>0</asrwt>
<pdfrwt beam="1">  1       21 0.99458228E-01 0.39684700E+03</pdfrwt>
<pdfrwt beam="2">  1       21 0.93695512E-02 0.39684700E+03</pdfrwt>
<totfact> 0.70669311E+04</totfact>
</mgrwt>
</event>
<event>
 8    1  0.9400004E-006  0.3514882E+03  0.7546771E-02  0.1062006E+00
         21   -1    0    0  504  503  0.00000000000E+00  0.00000000000E+00  0.97162027097E+02  0.97162027097E+02  0.00000000000E+00 0. -1.
         21   -1    0    0  503  504 -0.00000000000E+00 -0.00000000000E+00 -0.31788125201E+03  0.31788125201E+03  0.00000000000E+00 0. -1.
         25    2    1    2    0    0  0.10647224525E+03  0.16369450822E+00 -0.36382253559E+02  0.16817965449E+03  0.12499744800E+03 0.  0.
         25    2    1    2    0    0 -0.10647224525E+03 -0.16369450822E+00 -0.18433697135E+03  0.24686362461E+03  0.12500065738E+03 0.  0.
          5    1    3    3  501    0  0.77005024780E+02  0.32657742925E+02 -0.72789289999E+02  0.11098050618E+03  0.47000000000E+01 0.  1.
         -5    1    3    3    0  501  0.29467220471E+02 -0.32494048417E+02  0.36407036440E+02  0.57199148308E+02  0.47000000000E+01 0.  1.
          5    1    4    4  502    0 -0.10537007109E+03  0.26811084395E+02 -0.70253386989E+02  0.12953499339E+03  0.47000000000E+01 0.  1.
         -5    1    4    4    0  502 -0.11021741610E+01 -0.26974778903E+02 -0.11408358436E+03  0.11732863123E+03  0.47000000000E+01 0.  1.
<mgrwt>
<rscale>  0 0.35148819E+03</rscale>
<asrwt>0</asrwt>
<pdfrwt beam="1">  1       21 0.14948004E-01 0.35148819E+03</pdfrwt>
<pdfrwt beam="2">  1       21 0.48904809E-01 0.35148819E+03</pdfrwt>
<totfact> 0.15079259E+05</totfact>
</mgrwt>
</event>
<event>
 8    1  0.9400004E-006  0.2635832E+03  0.7546771E-02  0.1105009E+00
         21   -1    0    0  504  503  0.00000000000E+00  0.00000000000E+00  0.11875319438E+03  0.11875319438E+03  0.00000000000E+00 0.  1.
         21   -1    0    0  503  504 -0.00000000000E+00 -0.00000000000E+00 -0.14626156581E+03  0.14626156581E+03  0.00000000000E+00 0.  1.
         25    2    1    2    0    0 -0.87366703067E+00  0.29400863406E+02  0.16047848116E+02  0.12941187755E+03  0.12499890623E+03 0.  0.
         25    2    1    2    0    0  0.87366703067E+00 -0.29400863406E+02 -0.43556219544E+02  0.13560288264E+03  0.12500329378E+03 0.  0.
          5    1    3    3  501    0 -0.27056527300E+02  0.64883979672E+02 -0.18902317665E+02  0.72947749114E+02  0.47000000000E+01 0. -1.
         -5    1    3    3    0  501  0.26182860269E+02 -0.35483116266E+02  0.34950165781E+02  0.56464128435E+02  0.47000000000E+01 0. -1.
          5    1    4    4  502    0  0.28098760888E+02 -0.11295416614E+02 -0.80445858386E+02  0.86085730126E+02  0.47000000000E+01 0.  1.
         -5    1    4    4    0  502 -0.27225093857E+02 -0.18105446792E+02  0.36889638841E+02  0.49517152512E+02  0.47000000000E+01 0.  1.
<mgrwt>
<rscale>  0 0.26358322E+03</rscale>
<asrwt>0</asrwt>
<pdfrwt beam="1">  1       21 0.18269722E-01 0.26358322E+03</pdfrwt>
<pdfrwt beam="2">  1       21 0.22501779E-01 0.26358322E+03</pdfrwt>
<totfact> 0.49845908E+05</totfact>
</mgrwt>
</event>
<event>
 8    1  0.9400004E-006  0.3331718E+03  0.7546771E-02  0.1069742E+00
         21   -1    0    0  504  503  0.00000000000E+00  0.00000000000E+00  0.37180759484E+03  0.37180759484E+03  0.00000000000E+00 0. -1.
         21   -1    0    0  503  504 -0.00000000000E+00 -0.00000000000E+00 -0.74637688585E+02  0.74637688585E+02  0.00000000000E+00 0. -1.
         25    2    1    2    0    0 -0.10859369329E+03 -0.17990948690E+02  0.14441000754E+03  0.22044289447E+03  0.12499821992E+03 0.  0.
         25    2    1    2    0    0  0.10859369329E+03  0.17990948690E+02  0.15275989871E+03  0.22600238896E+03  0.12500091482E+03 0.  0.
          5    1    3    3  501    0 -0.58805858022E+02 -0.65529106374E+02  0.11628325837E+03  0.14593176110E+03  0.47000000000E+01 0.  1.
         -5    1    3    3    0  501 -0.49787835267E+02  0.47538157684E+02  0.28126749174E+02  0.74511133367E+02  0.47000000000E+01 0.  1.
          5    1    4    4  502    0  0.50678549219E+02 -0.51783379175E+02  0.89935009728E+02  0.11558645978E+03  0.47000000000E+01 0. -1.
         -5    1    4    4    0  502  0.57915144070E+02  0.69774327864E+02  0.62824888987E+02  0.11041592918E+03  0.47000000000E+01 0. -1.
<mgrwt>
<rscale>  0 0.33317178E+03</rscale>
<asrwt>0</asrwt>
<pdfrwt beam="1">  1       21 0.57201167E-01 0.33317178E+03</pdfrwt>
<pdfrwt beam="2">  1       21 0.11482722E-01 0.33317178E+03</pdfrwt>
<totfact> 0.17536903E+05</totfact>
</mgrwt>
</event>
<event>
 8    1  0.9400004E-006  0.2580920E+03  0.7546771E-02  0.1108295E+00
         21   -1    0    0  504  503  0.00000000000E+00  0.00000000000E+00  0.34887285215E+02  0.34887285215E+02  0.00000000000E+00 0.  1.
         21   -1    0    0  503  504 -0.00000000000E+00 -0.00000000000E+00 -0.47733366505E+03  0.47733366505E+03  0.00000000000E+00 0.  1.
         25    2    1    2    0    0  0.15105900717E+02 -0.56665339969E+01 -0.27639961043E+03  0.30378053469E+03  0.12500228303E+03 0.  0.
         25    2    1    2    0    0 -0.15105900717E+02  0.56665339969E+01 -0.16604676940E+03  0.20844041558E+03  0.12496231181E+03 0.  0.
          5    1    3    3  501    0  0.42939449665E+02  0.47220627544E+02 -0.11501423536E+03  0.13162047082E+03  0.47000000000E+01 0.  1.
         -5    1    3    3    0  501 -0.27833548948E+02 -0.52887161540E+02 -0.16138537507E+03  0.17216006387E+03  0.47000000000E+01 0.  1.
          5    1    4    4  502    0 -0.16954162218E+02  0.43167468560E+01 -0.18647553682E+03  0.18735339269E+03  0.47000000000E+01 0. -1.
         -5    1    4    4    0  502  0.18482615016E+01  0.13497871409E+01  0.20428767421E+02  0.21087022887E+02  0.47000000000E+01 0. -1.
<mgrwt>
<rscale>  0 0.25809204E+03</rscale>
<asrwt>0</asrwt>
<pdfrwt beam="1">  1       21 0.53672751E-02 0.25809204E+03</pdfrwt>
<pdfrwt beam="2">  1       21 0.73435943E-01 0.25809204E+03</pdfrwt>
<totfact> 0.39124829E+05</totfact>
</mgrwt>
</event>
<event>
 8    1  0.9400004E-006  0.2744856E+03  0.7546771E-02  0.1098739E+00
         21   -1    0    0  504  503  0.00000000000E+00  0.00000000000E+00  0.65201670725E+02  0.65201670725E+02  0.00000000000E+00 0. -1.
         21   -1    0    0  503  504 -0.00000000000E+00 -0.00000000000E+00 -0.28888195050E+03  0.28888195050E+03  0.00000000000E+00 0. -1.
         25    2    1    2    0    0 -0.51542348823E+02 -0.19699450864E+02 -0.12839158398E+03  0.18749416106E+03  0.12499991803E+03 0.  0.
         25    2    1    2    0    0  0.51542348823E+02  0.19699450864E+02 -0.95288695795E+02  0.16658946017E+03  0.12500972204E+03 0.  0.
          5    1    3    3  501    0 -0.20869367235E+02  0.34391787708E+02 -0.11737756464E+03  0.12416886981E+03  0.47000000000E+01 0. -1.
         -5    1    3    3    0  501 -0.30672981588E+02 -0.54091238572E+02 -0.11014019346E+02  0.63325291250E+02  0.47000000000E+01 0. -1.
          5    1    4    4  502    0  0.41040102893E+02  0.20229209242E+02 -0.12581682682E+03  0.13396072134E+03  0.47000000000E+01 0. -1.
         -5    1    4    4    0  502  0.10502245930E+02 -0.52975837777E+00  0.30528131022E+02  0.32628738824E+02  0.47000000000E+01 0. -1.
<mgrwt>
<rscale>  0 0.27448560E+03</rscale>
<asrwt>0</asrwt>
<pdfrwt beam="1">  1       21 0.10031026E-01 0.27448560E+03</pdfrwt>
<pdfrwt beam="2">  1       21 0.44443377E-01 0.27448560E+03</pdfrwt>
<totfact> 0.38533955E+05</totfact>
</mgrwt>
</event>
<event>
 8    1  0.9400004E-006  0.2687445E+03  0.7546771E-02  0.1102000E+00
         21   -1    0    0  504  503  0.00000000000E+00  0.00000000000E+00  0.10930419006E+03  0.10930419006E+03  0.00000000000E+00 0. -1.
         21   -1    0    0  503  504 -0.00000000000E+00 -0.00000000000E+00 -0.16518952579E+03  0.16518952579E+03  0.00000000000E+00 0. -1.
         25    2    1    2    0    0 -0.14490382349E+02  0.15508767573E+02 -0.73443022910E+02  0.14652148236E+03  0.12499669647E+03 0.  0.
         25    2    1    2    0    0  0.14490382349E+02 -0.15508767573E+02  0.17557687174E+02  0.12797223349E+03  0.12497250542E+03 0.  0.
          5    1    3    3  501    0  0.11657224879E+02  0.59600639319E+02 -0.53300160237E+01  0.61144306112E+02  0.47000000000E+01 0.  1.
         -5    1    3    3    0  501 -0.26147607228E+02 -0.44091871745E+02 -0.68113006886E+02  0.85377176253E+02  0.47000000000E+01 0.  1.
          5    1    4    4  502    0 -0.25398723403E+02 -0.44612704703E+02  0.47446593708E+02  0.70061814320E+02  0.47000000000E+01 0.  1.
         -5    1    4    4    0  502  0.39889105752E+02  0.29103937129E+02 -0.29888906534E+02  0.57910419165E+02  0.47000000000E+01 0.  1.
<mgrwt>
<rscale>  0 0.26874454E+03</rscale>
<asrwt>0</asrwt>
<pdfrwt beam="1">  1       21 0.16816029E-01 0.26874454E+03</pdfrwt>
<pdfrwt beam="2">  1       21 0.25413773E-01 0.26874454E+03</pdfrwt>
<totfact> 0.46020333E+05</totfact>
</mgrwt>
</event>
<event>
 8    1  0.9400004E-006  0.4510613E+03  0.7546771E-02  0.1027406E+00
         21   -1    0    0  504  503  0.00000000000E+00  0.00000000000E+00  0.39363348514E+03  0.39363348514E+03  0.00000000000E+00 0.  1.
         21   -1    0    0  503  504 -0.00000000000E+00 -0.00000000000E+00 -0.12921683506E+03  0.12921683506E+03  0.00000000000E+00 0.  1.
         25    2    1    2    0    0  0.13501842790E+02  0.16381691964E+03  0.23730551932E+03  0.31457455043E+03  0.12499982143E+03 0.  0.
         25    2    1    2    0    0 -0.13501842790E+02 -0.16381691964E+03  0.27111130761E+02  0.20827576977E+03  0.12500199975E+03 0.  0.
          5    1    3    3  501    0  0.55282864987E+02  0.88519186570E+02  0.68236585302E+02  0.12478045971E+03  0.47000000000E+01 0. -1.
         -5    1    3    3    0  501 -0.41781022197E+02  0.75297733070E+02  0.16906893402E+03  0.18979409072E+03  0.47000000000E+01 0. -1.
          5    1    4    4  502    0  0.10324891045E+02 -0.65947277507E+02 -0.48158166064E+02  0.82443591287E+02  0.47000000000E+01 0.  1.
         -5    1    4    4    0  502 -0.23826733836E+02 -0.97869642133E+02  0.75269296825E+02  0.12583217848E+03  0.47000000000E+01 0.  1.
<mgrwt>
<rscale>  0 0.45106130E+03</rscale>
<asrwt>0</asrwt>
<pdfrwt beam="1">  1       21 0.60558997E-01 0.45106130E+03</pdfrwt>
<pdfrwt beam="2">  1       21 0.19879513E-01 0.45106130E+03</pdfrwt>
<totfact> 0.54656807E+04</totfact>
</mgrwt>
</event>
<event>
 8    1  0.9400004E-006  0.2812129E+03  0.7546771E-02  0.1095028E+00
         21   -1    0    0  504  503  0.00000000000E+00  0.00000000000E+00  0.71215596901E+03  0.71215596901E+03  0.00000000000E+00 0. -1.
         21   -1    0    0  503  504 -0.00000000000E+00 -0.00000000000E+00 -0.27761019856E+02  0.27761019856E+02  0.00000000000E+00 0. -1.
         25    2    1    2    0    0 -0.60150168045E+02  0.14807006031E+02  0.29580286135E+03  0.32705138328E+03  0.12500393746E+03 0.  0.
         25    2    1    2    0    0  0.60150168045E+02 -0.14807006031E+02  0.38859208781E+03  0.41286560559E+03  0.12496762551E+03 0.  0.
          5    1    3    3  501    0 -0.63719058553E+02 -0.30565046355E+02  0.25847142186E+03  0.26799982537E+03  0.47000000000E+01 0.  1.
         -5    1    3    3    0  501  0.35688905088E+01  0.45372052386E+02  0.37331439488E+02  0.59051557909E+02  0.47000000000E+01 0.  1.
          5    1    4    4  502    0 -0.25832704923E+02 -0.24481750090E+02  0.40367077677E+02  0.54021067106E+02  0.47000000000E+01 0.  1.
         -5    1    4    4    0  502  0.85982872967E+02  0.96747440589E+01  0.34822501013E+03  0.35884453848E+03  0.47000000000E+01 0.  1.
<mgrwt>
<rscale>  0 0.28121292E+03</rscale>
<asrwt>0</asrwt>
<pdfrwt beam="1">  1       21 0.10956244E+00 0.28121292E+03</pdfrwt>
<pdfrwt beam="2">  1       21 0.42709267E-02 0.28121292E+03</pdfrwt>
<totfact> 0.22527161E+05</totfact>
</mgrwt>
</event>
<event>
 8    1  0.9400004E-006  0.2590805E+03  0.7546771E-02  0.1107697E+00
         21   -1    0    0  504  503  0.00000000000E+00  0.00000000000E+00  0.92654483001E+02  0.92654483001E+02  0.00000000000E+00 0. -1.
         21   -1    0    0  503  504 -0.00000000000E+00 -0.00000000000E+00 -0.18111023033E+03  0.18111023033E+03  0.00000000000E+00 0. -1.
         25    2    1    2    0    0  0.30209151624E+02  0.41303729948E+01 -0.28354820294E+02  0.13175346263E+03  0.12500130502E+03 0.  0.
         25    2    1    2    0    0 -0.30209151624E+02 -0.41303729948E+01 -0.60100927039E+02  0.14201125071E+03  0.12500168429E+03 0.  0.
          5    1    3    3  501    0  0.52850590655E+01  0.60369254278E+02 -0.34268852420E+02  0.69776951479E+02  0.47000000000E+01 0. -1.
         -5    1    3    3    0  501  0.24924092558E+02 -0.56238881284E+02  0.59140321267E+01  0.61976511146E+02  0.47000000000E+01 0. -1.
          5    1    4    4  502    0  0.32966914116E+02  0.13534606655E+02 -0.66847011908E+02  0.75898722023E+02  0.47000000000E+01 0.  1.
         -5    1    4    4    0  502 -0.63176065740E+02 -0.17664979650E+02  0.67460848690E+01  0.66112528688E+02  0.47000000000E+01 0.  1.
<mgrwt>
<rscale>  0 0.25908049E+03</rscale>
<asrwt>0</asrwt>
<pdfrwt beam="1">  1       21 0.14254536E-01 0.25908049E+03</pdfrwt>
<pdfrwt beam="2">  1       21 0.27863112E-01 0.25908049E+03</pdfrwt>
<totfact> 0.52272080E+05</totfact>
</mgrwt>
</event>
<event>
 8    1  0.9400004E-006  0.2920014E+03  0.7546771E-02  0.1089309E+00
         21   -1    0    0  504  503  0.00000000000E+00  0.00000000000E+00  0.34313595523E+03  0.34313595523E+03  0.00000000000E+00 0. -1.
         21   -1    0    0  503  504 -0.00000000000E+00 -0.00000000000E+00 -0.62121750851E+02  0.62121750851E+02  0.00000000000E+00 0. -1.
         25    2    1    2    0    0  0.49415381157E+02  0.38142831805E+02  0.81736117037E+02  0.16187779579E+03  0.12500748949E+03 0.  0.
         25    2    1    2    0    0 -0.49415381157E+02 -0.38142831805E+02  0.19927808735E+03  0.24337991030E+03  0.12500107650E+03 0.  0.
          5    1    3    3  501    0  0.41780281071E+02 -0.10143042503E+02 -0.20946215149E+02  0.48055250771E+02  0.47000000000E+01 0. -1.
         -5    1    3    3    0  501  0.76351000861E+01  0.48285874309E+02  0.10268233219E+03  0.11382254502E+03  0.47000000000E+01 0. -1.
          5    1    4    4  502    0 -0.61498367646E+01  0.33707069547E+01 -0.16953693658E+02  0.18939373967E+02  0.47000000000E+01 0.  1.
         -5    1    4    4    0  502 -0.43265544392E+02 -0.41513538760E+02  0.21623178101E+03  0.22444053633E+03  0.47000000000E+01 0.  1.
<mgrwt>
<rscale>  0 0.29200141E+03</rscale>
<asrwt>0</asrwt>
<pdfrwt beam="1">  1       21 0.52790146E-01 0.29200141E+03</pdfrwt>
<pdfrwt beam="2">  1       21 0.95571927E-02 0.29200141E+03</pdfrwt>
<totfact> 0.29181887E+05</totfact>
</mgrwt>
</event>
<event>
 8    1  0.9400004E-006  0.2576863E+03  0.7546771E-02  0.1108541E+00
         21   -1    0    0  504  503  0.00000000000E+00  0.00000000000E+00  0.26613897097E+03  0.26613897097E+03  0.00000000000E+00 0. -1.
         21   -1    0    0  503  504 -0.00000000000E+00 -0.00000000000E+00 -0.62375508844E+02  0.62375508844E+02  0.00000000000E+00 0. -1.
         25    2    1    2    0    0 -0.23217306715E+02 -0.14241005827E+01  0.12845843934E+03  0.18074456218E+03  0.12500381884E+03 0.  0.
         25    2    1    2    0    0  0.23217306715E+02  0.14241005827E+01  0.75305022779E+02  0.14776991764E+03  0.12499612277E+03 0.  0.
          5    1    3    3  501    0 -0.59148115994E+02 -0.31649489030E+01  0.13153749523E+03  0.14433543978E+03  0.47000000000E+01 0. -1.
         -5    1    3    3    0  501  0.35930809279E+02  0.17408483203E+01 -0.30790558814E+01  0.36409122393E+02  0.47000000000E+01 0. -1.
          5    1    4    4  502    0  0.64983588794E+02  0.27004435758E+02  0.19094130107E+02  0.73066970429E+02  0.47000000000E+01 0. -1.
         -5    1    4    4    0  502 -0.41766282079E+02 -0.25580335175E+02  0.56210892672E+02  0.74702947206E+02  0.47000000000E+01 0. -1.
<mgrwt>
<rscale>  0 0.25768627E+03</rscale>
<asrwt>0</asrwt>
<pdfrwt beam="1">  1       21 0.40944456E-01 0.25768627E+03</pdfrwt>
<pdfrwt beam="2">  1       21 0.95962323E-02 0.25768627E+03</pdfrwt>
<totfact> 0.49494923E+05</totfact>
</mgrwt>
</event>
<event>
 8    1  0.9400004E-006  0.3289275E+03  0.7546771E-02  0.1071612E+00
         21   -1    0    0  504  503  0.00000000000E+00  0.00000000000E+00  0.11383961850E+03  0.11383961850E+03  0.00000000000E+00 0. -1.
         21   -1    0    0  503  504 -0.00000000000E+00 -0.00000000000E+00 -0.23760031685E+03  0.23760031685E+03  0.00000000000E+00 0. -1.
         25    2    1    2    0    0 -0.39685631879E+02  0.86358725897E+02 -0.96550455663E+01  0.15732705987E+03  0.12500321974E+03 0.  0.
         25    2    1    2    0    0  0.39685631879E+02 -0.86358725897E+02 -0.11410565278E+03  0.19411287548E+03  0.12500771781E+03 0.  0.
          5    1    3    3  501    0 -0.48415716076E+02  0.66480823924E-02 -0.42316448855E+02  0.64473664787E+02  0.47000000000E+01 0. -1.
         -5    1    3    3    0  501  0.87300841969E+01  0.86352077814E+02  0.32661403288E+02  0.92853395079E+02  0.47000000000E+01 0. -1.
          5    1    4    4  502    0  0.42153607234E+02 -0.10671988019E+03 -0.47522698257E+02  0.12428417550E+03  0.47000000000E+01 0. -1.
         -5    1    4    4    0  502 -0.24679753551E+01  0.20361154295E+02 -0.66582954526E+02  0.69828699974E+02  0.47000000000E+01 0. -1.
<mgrwt>
<rscale>  0 0.32892753E+03</rscale>
<asrwt>0</asrwt>
<pdfrwt beam="1">  1       21 0.17513788E-01 0.32892753E+03</pdfrwt>
<pdfrwt beam="2">  1       21 0.36553895E-01 0.32892753E+03</pdfrwt>
<totfact> 0.20589052E+05</totfact>
</mgrwt>
</event>
<event>
 8    1  0.9400004E-006  0.5148967E+03  0.7546771E-02  0.1009962E+00
         21   -1    0    0  504  503  0.00000000000E+00  0.00000000000E+00  0.14499471754E+03  0.14499471754E+03  0.00000000000E+00 0. -1.
         21   -1    0    0  503  504 -0.00000000000E+00 -0.00000000000E+00 -0.45711765266E+03  0.45711765266E+03  0.00000000000E+00 0. -1.
         25    2    1    2    0    0 -0.21200851309E+03  0.75387145398E+02 -0.16157027845E+03  0.30390805746E+03  0.12499728478E+03 0.  0.
         25    2    1    2    0    0  0.21200851309E+03 -0.75387145398E+02 -0.15055265667E+03  0.29820431273E+03  0.12501551260E+03 0.  0.
          5    1    3    3  501    0 -0.14463607516E+02 -0.29290639477E+02 -0.13186484134E+02  0.35540271062E+02  0.47000000000E+01 0.  1.
         -5    1    3    3    0  501 -0.19754490557E+03  0.10467778487E+03 -0.14838379431E+03  0.26836778640E+03  0.47000000000E+01 0.  1.
          5    1    4    4  502    0  0.56099582035E+02 -0.71438726369E+02 -0.97655926552E+02  0.13345195660E+03  0.47000000000E+01 0. -1.
         -5    1    4    4    0  502  0.15590893105E+03 -0.39484190283E+01 -0.52896730118E+02  0.16475235613E+03  0.47000000000E+01 0. -1.
<mgrwt>
<rscale>  0 0.51489667E+03</rscale>
<asrwt>0</asrwt>
<pdfrwt beam="1">  1       21 0.22306880E-01 0.51489667E+03</pdfrwt>
<pdfrwt beam="2">  1       21 0.70325792E-01 0.51489667E+03</pdfrwt>
<totfact> 0.30993293E+04</totfact>
</mgrwt>
</event>
<event>
 8    1  0.9400004E-006  0.3480656E+03  0.7546771E-02  0.1063412E+00
         21   -1    0    0  504  503  0.00000000000E+00  0.00000000000E+00  0.33111166794E+03  0.33111166794E+03  0.00000000000E+00 0.  1.
         21   -1    0    0  503  504 -0.00000000000E+00 -0.00000000000E+00 -0.91471893551E+02  0.91471893551E+02  0.00000000000E+00 0.  1.
         25    2    1    2    0    0  0.10360685012E+02 -0.11267763488E+03  0.17215558069E+03  0.24097068749E+03  0.12500294025E+03 0.  0.
         25    2    1    2    0    0 -0.10360685012E+02  0.11267763488E+03  0.67484193704E+02  0.18161287401E+03  0.12500210562E+03 0.  0.
          5    1    3    3  501    0  0.11618350620E+02 -0.88775825236E+02  0.19043831441E+03  0.21048746949E+03  0.47000000000E+01 0.  1.
         -5    1    3    3    0  501 -0.12576656086E+01 -0.23901809640E+02 -0.18282733723E+02  0.30483217994E+02  0.47000000000E+01 0.  1.
          5    1    4    4  502    0  0.13186345634E+02  0.13795303091E+02 -0.33125003368E+02  0.38516826799E+02  0.47000000000E+01 0.  1.
         -5    1    4    4    0  502 -0.23547030645E+02  0.98882331784E+02  0.10060919707E+03  0.14309604721E+03  0.47000000000E+01 0.  1.
<mgrwt>
<rscale>  0 0.34806558E+03</rscale>
<asrwt>0</asrwt>
<pdfrwt beam="1">  1       21 0.50940256E-01 0.34806558E+03</pdfrwt>
<pdfrwt beam="2">  1       21 0.14072599E-01 0.34806558E+03</pdfrwt>
<totfact> 0.15469659E+05</totfact>
</mgrwt>
</event>
<event>
 8    1  0.9400004E-006  0.4997446E+03  0.7546771E-02  0.1013846E+00
         21   -1    0    0  504  503  0.00000000000E+00  0.00000000000E+00  0.79319276535E+03  0.79319276535E+03  0.00000000000E+00 0. -1.
         21   -1    0    0  503  504 -0.00000000000E+00 -0.00000000000E+00 -0.78715008562E+02  0.78715008562E+02  0.00000000000E+00 0. -1.
         25    2    1    2    0    0 -0.21020429821E+03  0.49963423649E+02  0.37706909154E+03  0.45220458511E+03  0.12500278520E+03 0.  0.
         25    2    1    2    0    0  0.21020429821E+03 -0.49963423649E+02  0.33740866524E+03  0.41970318880E+03  0.12499587441E+03 0.  0.
          5    1    3    3  501    0 -0.11786430266E+03 -0.15821687227E+02  0.11014418969E+03  0.16216088354E+03  0.47000000000E+01 0.  1.
         -5    1    3    3    0  501 -0.92339995548E+02  0.65785110876E+02  0.26692490185E+03  0.29004370156E+03  0.47000000000E+01 0.  1.
          5    1    4    4  502    0  0.15542751217E+03  0.10164841237E+02  0.27860898620E+03  0.31922733706E+03  0.47000000000E+01 0.  1.
         -5    1    4    4    0  502  0.54776786040E+02 -0.60128264885E+02  0.58799679041E+02  0.10047585174E+03  0.47000000000E+01 0.  1.
<mgrwt>
<rscale>  0 0.49974464E+03</rscale>
<asrwt>0</asrwt>
<pdfrwt beam="1">  1       21 0.12202965E+00 0.49974464E+03</pdfrwt>
<pdfrwt beam="2">  1       21 0.12110002E-01 0.49974464E+03</pdfrwt>
<totfact> 0.26086119E+04</totfact>
</mgrwt>
</event>
<event>
 8    1  0.9400004E-006  0.3125269E+03  0.7546771E-02  0.1079141E+00
         21   -1    0    0  504  503  0.00000000000E+00  0.00000000000E+00  0.21009469822E+03  0.21009469822E+03  0.00000000000E+00 0. -1.
         21   -1    0    0  503  504 -0.00000000000E+00 -0.00000000000E+00 -0.11622505985E+03  0.11622505985E+03  0.00000000000E+00 0. -1.
         25    2    1    2    0    0 -0.53229139414E+02 -0.30642584225E+02 -0.27048869574E+02  0.14187822115E+03  0.12500191615E+03 0.  0.
         25    2    1    2    0    0  0.53229139414E+02  0.30642584225E+02  0.12091850794E+03  0.18444153693E+03  0.12500034292E+03 0.  0.
          5    1    3    3  501    0 -0.15956814664E+02 -0.62875841456E+02 -0.54872021894E+02  0.85094184054E+02  0.47000000000E+01 0. -1.
         -5    1    3    3    0  501 -0.37272324750E+02  0.32233257230E+02  0.27823152320E+02  0.56784037096E+02  0.47000000000E+01 0. -1.
          5    1    4    4  502    0 -0.19223601483E+02 -0.35389020611E+02  0.43263614125E+02  0.59293844039E+02  0.47000000000E+01 0. -1.
         -5    1    4    4    0  502  0.72452740897E+02  0.66031604837E+02  0.77654893819E+02  0.12514769289E+03  0.47000000000E+01 0. -1.
<mgrwt>
<rscale>  0 0.31252692E+03</rscale>
<asrwt>0</asrwt>
<pdfrwt beam="1">  1       21 0.32322261E-01 0.31252692E+03</pdfrwt>
<pdfrwt beam="2">  1       21 0.17880778E-01 0.31252692E+03</pdfrwt>
<totfact> 0.25429694E+05</totfact>
</mgrwt>
</event>
<event>
 8    1  0.9400004E-006  0.5533590E+03  0.7546771E-02  0.1000719E+00
         21   -1    0    0  504  503  0.00000000000E+00  0.00000000000E+00  0.64828986277E+03  0.64828986277E+03  0.00000000000E+00 0. -1.
         21   -1    0    0  503  504 -0.00000000000E+00 -0.00000000000E+00 -0.11808228977E+03  0.11808228977E+03  0.00000000000E+00 0. -1.
         25    2    1    2    0    0 -0.11353820088E+01 -0.18201795005E+03  0.34184405537E+02  0.22343642018E+03  0.12499374803E+03 0.  0.
         25    2    1    2    0    0  0.11353820088E+01  0.18201795005E+03  0.49602316746E+03  0.54293573236E+03  0.12493359670E+03 0.  0.
          5    1    3    3  501    0 -0.39352862048E+01 -0.68185105756E+02 -0.47410377804E+02  0.83273819704E+02  0.47000000000E+01 0. -1.
         -5    1    3    3    0  501  0.27999041960E+01 -0.11383284429E+03  0.81594783341E+02  0.14016260047E+03  0.47000000000E+01 0. -1.
          5    1    4    4  502    0 -0.26766396823E+02  0.11803477513E+03  0.43002601076E+03  0.44675844488E+03  0.47000000000E+01 0. -1.
         -5    1    4    4    0  502  0.27901778831E+02  0.63983174923E+02  0.65997156697E+02  0.96177287481E+02  0.47000000000E+01 0. -1.
<mgrwt>
<rscale>  0 0.55335902E+03</rscale>
<asrwt>0</asrwt>
<pdfrwt beam="1">  1       21 0.99736900E-01 0.55335902E+03</pdfrwt>
<pdfrwt beam="2">  1       21 0.18166506E-01 0.55335902E+03</pdfrwt>
<totfact> 0.20063965E+04</totfact>
</mgrwt>
</event>
<event>
 8    1  0.9400004E-006  0.2545694E+03  0.7546771E-02  0.1110451E+00
         21   -1    0    0  504  503  0.00000000000E+00  0.00000000000E+00  0.19854117271E+03  0.19854117271E+03  0.00000000000E+00 0.  1.
         21   -1    0    0  503  504 -0.00000000000E+00 -0.00000000000E+00 -0.81602198966E+02  0.81602198966E+02  0.00000000000E+00 0.  1.
         25    2    1    2    0    0 -0.14893828069E+02 -0.15198233016E+02  0.70650092408E+02  0.14515997611E+03  0.12500868252E+03 0.  0.
         25    2    1    2    0    0  0.14893828069E+02  0.15198233016E+02  0.46288881340E+02  0.13498339557E+03  0.12500017657E+03 0.  0.
          5    1    3    3  501    0 -0.15035639748E+02  0.13997252839E+02 -0.32010936867E+02  0.38324713029E+02  0.47000000000E+01 0.  1.
         -5    1    3    3    0  501  0.14181167855E+00 -0.29195485855E+02  0.10266102928E+03  0.10683526308E+03  0.47000000000E+01 0.  1.
          5    1    4    4  502    0  0.38517698484E+02  0.59547905737E+02  0.45722781015E+02  0.84511708526E+02  0.47000000000E+01 0.  1.
         -5    1    4    4    0  502 -0.23623870415E+02 -0.44349672721E+02  0.56610032539E+00  0.50471687048E+02  0.47000000000E+01 0.  1.
<mgrwt>
<rscale>  0 0.25456941E+03</rscale>
<asrwt>0</asrwt>
<pdfrwt beam="1">  1       21 0.30544796E-01 0.25456941E+03</pdfrwt>
<pdfrwt beam="2">  1       21 0.12554184E-01 0.25456941E+03</pdfrwt>
<totfact> 0.55046931E+05</totfact>
</mgrwt>
</event>
<event>
 8    1  0.9400004E-006  0.3223768E+03  0.7546771E-02  0.1074561E+00
         21   -1    0    0  504  503  0.00000000000E+00  0.00000000000E+00  0.63172009774E+02  0.63172009774E+02  0.00000000000E+00 0.  1.
         21   -1    0    0  503  504 -0.00000000000E+00 -0.00000000000E+00 -0.41128492709E+03  0.41128492709E+03  0.00000000000E+00 0.  1.
         25    2    1    2    0    0 -0.17268452473E+02 -0.85177191477E+02 -0.25199182417E+03  0.29440854148E+03  0.12499262559E+03 0.  0.
         25    2    1    2    0    0  0.17268452473E+02  0.85177191477E+02 -0.96121093140E+02  0.18004839538E+03  0.12499922693E+03 0.  0.
          5    1    3    3  501    0 -0.51237114893E+02 -0.62712375277E+02 -0.23742826556E+03  0.25090307938E+03  0.47000000000E+01 0.  1.
         -5    1    3    3    0  501  0.33968662420E+02 -0.22464816200E+02 -0.14563558613E+02  0.43505462105E+02  0.47000000000E+01 0.  1.
          5    1    4    4  502    0  0.65836112519E+02  0.64014189701E+02 -0.86019556709E+02  0.12591133520E+03  0.47000000000E+01 0.  1.
         -5    1    4    4    0  502 -0.48567660046E+02  0.21163001776E+02 -0.10101536431E+02  0.54137060179E+02  0.47000000000E+01 0.  1.
<mgrwt>
<rscale>  0 0.32237677E+03</rscale>
<asrwt>0</asrwt>
<pdfrwt beam="1">  1       21 0.97187709E-02 0.32237677E+03</pdfrwt>
<pdfrwt beam="2">  1       21 0.63274603E-01 0.32237677E+03</pdfrwt>
<totfact> 0.19033969E+05</totfact>
</mgrwt>
</event>
<event>
 8    1  0.9400004E-006  0.3111356E+03  0.7546771E-02  0.1079803E+00
         21   -1    0    0  504  503  0.00000000000E+00  0.00000000000E+00  0.15337825364E+03  0.15337825364E+03  0.00000000000E+00 0. -1.
         21   -1    0    0  503  504 -0.00000000000E+00 -0.00000000000E+00 -0.15778862972E+03  0.15778862972E+03  0.00000000000E+00 0. -1.
         25    2    1    2    0    0  0.69274649000E+02 -0.40650378986E+02  0.43896243572E+02  0.15492994213E+03  0.12499990585E+03 0.  0.
         25    2    1    2    0    0 -0.69274649000E+02  0.40650378986E+02 -0.48306619649E+02  0.15623694123E+03  0.12500008798E+03 0.  0.
          5    1    3    3  501    0  0.28016172478E+02 -0.68458240322E+02  0.66962454449E+02  0.99887421101E+02  0.47000000000E+01 0. -1.
         -5    1    3    3    0  501  0.41258476522E+02  0.27807861337E+02 -0.23066210877E+02  0.55042521029E+02  0.47000000000E+01 0. -1.
          5    1    4    4  502    0 -0.62098530826E+02  0.49278252294E+02 -0.85745040065E+02  0.11687119224E+03  0.47000000000E+01 0. -1.
         -5    1    4    4    0  502 -0.71761181747E+01 -0.86278733086E+01  0.37438420416E+02  0.39365748985E+02  0.47000000000E+01 0. -1.
<mgrwt>
<rscale>  0 0.31113563E+03</rscale>
<asrwt>0</asrwt>
<pdfrwt beam="1">  1       21 0.23596654E-01 0.31113563E+03</pdfrwt>
<pdfrwt beam="2">  1       21 0.24275174E-01 0.31113563E+03</pdfrwt>
<totfact> 0.26334972E+05</totfact>
</mgrwt>
</event>
<event>
 8    1  0.9400004E-006  0.2729202E+03  0.7546771E-02  0.1099620E+00
         21   -1    0    0  504  503  0.00000000000E+00  0.00000000000E+00  0.74379489874E+02  0.74379489874E+02  0.00000000000E+00 0.  1.
         21   -1    0    0  503  504 -0.00000000000E+00 -0.00000000000E+00 -0.25035613339E+03  0.25035613339E+03  0.00000000000E+00 0.  1.
         25    2    1    2    0    0  0.38718356642E+02  0.34690541101E+02 -0.67702617772E+02  0.15140718448E+03  0.12505177439E+03 0.  0.
         25    2    1    2    0    0 -0.38718356642E+02 -0.34690541101E+02 -0.10827402575E+03  0.17332843878E+03  0.12496774887E+03 0.  0.
          5    1    3    3  501    0 -0.37707069938E+02 -0.42385157360E+01  0.53994981284E+01  0.38613892824E+02  0.47000000000E+01 0. -1.
         -5    1    3    3    0  501  0.76425426580E+02  0.38929056837E+02 -0.73102115900E+02  0.11279329166E+03  0.47000000000E+01 0. -1.
          5    1    4    4  502    0 -0.64924487974E+02  0.18014538376E+02 -0.26702634248E+02  0.72628048351E+02  0.47000000000E+01 0.  1.
         -5    1    4    4    0  502  0.26206131332E+02 -0.52705079477E+02 -0.81571391498E+02  0.10070039043E+03  0.47000000000E+01 0.  1.
<mgrwt>
<rscale>  0 0.27292022E+03</rscale>
<asrwt>0</asrwt>
<pdfrwt beam="1">  1       21 0.11442999E-01 0.27292022E+03</pdfrwt>
<pdfrwt beam="2">  1       21 0.38516328E-01 0.27292022E+03</pdfrwt>
<totfact> 0.40822824E+05</totfact>
</mgrwt>
</event>
<event>
 8    1  0.9400004E-006  0.2568859E+03  0.7546771E-02  0.1109029E+00
         21   -1    0    0  504  503  0.00000000000E+00  0.00000000000E+00  0.24393820664E+03  0.24393820664E+03  0.00000000000E+00 0. -1.
         21   -1    0    0  503  504 -0.00000000000E+00 -0.00000000000E+00 -0.67630208880E+02  0.67630208880E+02  0.00000000000E+00 0. -1.
         25    2    1    2    0    0 -0.16293757309E+02 -0.14251031054E+02  0.63741662058E+02  0.14196850211E+03  0.12499391064E+03 0.  0.
         25    2    1    2    0    0  0.16293757309E+02  0.14251031054E+02  0.11256633570E+03  0.16959991340E+03  0.12499748910E+03 0.  0.
          5    1    3    3  501    0  0.86240840019E+00 -0.95546022891E+01 -0.37539470036E+02  0.39029937020E+02  0.47000000000E+01 0.  1.
         -5    1    3    3    0  501 -0.17156165709E+02 -0.46964287644E+01  0.10128113209E+03  0.10293856509E+03  0.47000000000E+01 0.  1.
          5    1    4    4  502    0  0.50385538143E+02 -0.13201815738E+02  0.11413812378E+03  0.12554916046E+03  0.47000000000E+01 0.  1.
         -5    1    4    4    0  502 -0.34091780833E+02  0.27452846792E+02 -0.15717880768E+01  0.44050752946E+02  0.47000000000E+01 0.  1.
<mgrwt>
<rscale>  0 0.25688590E+03</rscale>
<asrwt>0</asrwt>
<pdfrwt beam="1">  1       21 0.37528954E-01 0.25688590E+03</pdfrwt>
<pdfrwt beam="2">  1       21 0.10404648E-01 0.25688590E+03</pdfrwt>
<totfact> 0.51156388E+05</totfact>
</mgrwt>
</event>
<event>
 8    1  0.9400004E-006  0.3112144E+03  0.7546771E-02  0.1079765E+00
         21   -1    0    0  504  503  0.00000000000E+00  0.00000000000E+00  0.18469158544E+03  0.18469158544E+03  0.00000000000E+00 0.  1.
         21   -1    0    0  503  504 -0.00000000000E+00 -0.00000000000E+00 -0.13110286441E+03  0.13110286441E+03  0.00000000000E+00 0.  1.
         25    2    1    2    0    0  0.19631369421E+02 -0.36582908710E+02 -0.57278387595E+02  0.14363014893E+03  0.12500042449E+03 0.  0.
         25    2    1    2    0    0 -0.19631369421E+02  0.36582908710E+02  0.11086710862E+03  0.17216430092E+03  0.12500132344E+03 0.  0.
          5    1    3    3  501    0  0.71164940908E+02 -0.16824332868E+02 -0.17225457719E+02  0.75274918695E+02  0.47000000000E+01 0. -1.
         -5    1    3    3    0  501 -0.51533571487E+02 -0.19758575841E+02 -0.40052929876E+02  0.68355230240E+02  0.47000000000E+01 0. -1.
          5    1    4    4  502    0  0.37778097722E+02  0.41941071423E+00 -0.44026766808E+01  0.38325371946E+02  0.47000000000E+01 0.  1.
         -5    1    4    4    0  502 -0.57409467143E+02  0.36163497995E+02  0.11526978530E+03  0.13383892897E+03  0.47000000000E+01 0.  1.
<mgrwt>
<rscale>  0 0.31121437E+03</rscale>
<asrwt>0</asrwt>
<pdfrwt beam="1">  1       21 0.28414090E-01 0.31121437E+03</pdfrwt>
<pdfrwt beam="2">  1       21 0.20169671E-01 0.31121437E+03</pdfrwt>
<totfact> 0.26157762E+05</totfact>
</mgrwt>
</event>
<event>
 8    1  0.9400004E-006  0.3446447E+03  0.7546771E-02  0.1064835E+00
         21   -1    0    0  504  503  0.00000000000E+00  0.00000000000E+00  0.25922844944E+03  0.25922844944E+03  0.00000000000E+00 0.  1.
         21   -1    0    0  503  504 -0.00000000000E+00 -0.00000000000E+00 -0.11455144719E+03  0.11455144719E+03  0.00000000000E+00 0.  1.
         25    2    1    2    0    0  0.91359030786E+02 -0.14658655675E+02  0.15284323147E+03  0.21805418536E+03  0.12500090262E+03 0.  0.
         25    2    1    2    0    0 -0.91359030786E+02  0.14658655675E+02 -0.81662292148E+01  0.15572571127E+03  0.12498984422E+03 0.  0.
          5    1    3    3  501    0  0.69795679895E+02 -0.67419943462E+02  0.82984160502E+02  0.12777067975E+03  0.47000000000E+01 0. -1.
         -5    1    3    3    0  501  0.21563350891E+02  0.52761287787E+02  0.69859070965E+02  0.90283505618E+02  0.47000000000E+01 0. -1.
          5    1    4    4  502    0  0.19597349497E+02 -0.14121081160E+02  0.26220020121E+02  0.35958872279E+02  0.47000000000E+01 0.  1.
         -5    1    4    4    0  502 -0.11095638028E+03  0.28779736835E+02 -0.34386249335E+02  0.11976683899E+03  0.47000000000E+01 0.  1.
<mgrwt>
<rscale>  0 0.34464471E+03</rscale>
<asrwt>0</asrwt>
<pdfrwt beam="1">  1       21 0.39881300E-01 0.34464471E+03</pdfrwt>
<pdfrwt beam="2">  1       21 0.17623300E-01 0.34464471E+03</pdfrwt>
<totfact> 0.16991859E+05</totfact>
</mgrwt>
</event>
<event>
 8    1  0.9400004E-006  0.3642433E+03  0.7546771E-02  0.1056916E+00
         21   -1    0    0  504  503  0.00000000000E+00  0.00000000000E+00  0.53173413544E+03  0.53173413544E+03  0.00000000000E+00 0.  1.
         21   -1    0    0  503  504 -0.00000000000E+00 -0.00000000000E+00 -0.62377596256E+02  0.62377596256E+02  0.00000000000E+00 0.  1.
         25    2    1    2    0    0 -0.68244356956E+02  0.59471401214E+02  0.76967364227E+02  0.17246479542E+03  0.12500396268E+03 0.  0.
         25    2    1    2    0    0  0.68244356956E+02 -0.59471401214E+02  0.39238917496E+03  0.42164693627E+03  0.12499093738E+03 0.  0.
          5    1    3    3  501    0 -0.29852367911E+02  0.37044199872E+02  0.10795423204E+03  0.11806626457E+03  0.47000000000E+01 0.  1.
         -5    1    3    3    0  501 -0.38391989045E+02  0.22427201341E+02 -0.30986867809E+02  0.54398530857E+02  0.47000000000E+01 0.  1.
          5    1    4    4  502    0  0.14071435863E+02 -0.58103363085E+02  0.34291513036E+03  0.34811906403E+03  0.47000000000E+01 0.  1.
         -5    1    4    4    0  502  0.54172921093E+02 -0.13680381287E+01  0.49474044591E+02  0.73527872241E+02  0.47000000000E+01 0.  1.
<mgrwt>
<rscale>  0 0.36424331E+03</rscale>
<asrwt>0</asrwt>
<pdfrwt beam="1">  1       21 0.81805249E-01 0.36424331E+03</pdfrwt>
<pdfrwt beam="2">  1       21 0.95965536E-02 0.36424331E+03</pdfrwt>
<totfact> 0.10821568E+05</totfact>
</mgrwt>
</event>
<event>
 8    1  0.9400004E-006  0.2890428E+03  0.7546771E-02  0.1090850E+00
         21   -1    0    0  504  503  0.00000000000E+00  0.00000000000E+00  0.10253091619E+04  0.10253091619E+04  0.00000000000E+00 0.  1.
         21   -1    0    0  503  504 -0.00000000000E+00 -0.00000000000E+00 -0.20370859784E+02  0.20370859784E+02  0.00000000000E+00 0.  1.
         25    2    1    2    0    0  0.60297074044E+01  0.70117133741E+02  0.43898626907E+03  0.46183170000E+03  0.12500721932E+03 0.  0.
         25    2    1    2    0    0 -0.60297074044E+01 -0.70117133741E+02  0.56595203304E+03  0.58384832167E+03  0.12499755678E+03 0.  0.
          5    1    3    3  501    0  0.18149542559E+02 -0.26794422534E+02  0.43407492794E+02  0.54347469165E+02  0.47000000000E+01 0.  1.
         -5    1    3    3    0  501 -0.12119835155E+02  0.96911556275E+02  0.39557877627E+03  0.40748423084E+03  0.47000000000E+01 0.  1.
          5    1    4    4  502    0 -0.27496754557E+02 -0.71654968716E+02  0.16227950541E+03  0.17957514842E+03  0.47000000000E+01 0. -1.
         -5    1    4    4    0  502  0.21467047152E+02  0.15378349751E+01  0.40367252763E+03  0.40427317326E+03  0.47000000000E+01 0. -1.
<mgrwt>
<rscale>  0 0.28904276E+03</rscale>
<asrwt>0</asrwt>
<pdfrwt beam="1">  1       21 0.15773983E+00 0.28904276E+03</pdfrwt>
<pdfrwt beam="2">  1       21 0.31339792E-02 0.28904276E+03</pdfrwt>
<totfact> 0.14820868E+05</totfact>
</mgrwt>
</event>
<event>
 8    1  0.9400004E-006  0.5126853E+03  0.7546771E-02  0.1010520E+00
         21   -1    0    0  504  503  0.00000000000E+00  0.00000000000E+00  0.17709495854E+03  0.17709495854E+03  0.00000000000E+00 0. -1.
         21   -1    0    0  503  504 -0.00000000000E+00 -0.00000000000E+00 -0.37105264708E+03  0.37105264708E+03  0.00000000000E+00 0. -1.
         25    2    1    2    0    0 -0.79411361470E+02  0.20697963057E+03 -0.64162005494E+02  0.26245872067E+03  0.12498434023E+03 0.  0.
         25    2    1    2    0    0  0.79411361470E+02 -0.20697963057E+03 -0.12979568305E+03  0.28568888495E+03  0.12499795135E+03 0.  0.
          5    1    3    3  501    0 -0.11140262934E+03  0.14410676160E+03 -0.59206539535E+02  0.19158499129E+03  0.47000000000E+01 0. -1.
         -5    1    3    3    0  501  0.31991267874E+02  0.62872868977E+02 -0.49554659594E+01  0.70873729381E+02  0.47000000000E+01 0. -1.
          5    1    4    4  502    0  0.10908588806E+03 -0.19090383818E+03 -0.10605600827E+03  0.24415972907E+03  0.47000000000E+01 0. -1.
         -5    1    4    4    0  502 -0.29674526593E+02 -0.16075792389E+02 -0.23739674776E+02  0.41529155878E+02  0.47000000000E+01 0. -1.
<mgrwt>
<rscale>  0 0.51268530E+03</rscale>
<asrwt>0</asrwt>
<pdfrwt beam="1">  1       21 0.27245379E-01 0.51268530E+03</pdfrwt>
<pdfrwt beam="2">  1       21 0.57085022E-01 0.51268530E+03</pdfrwt>
<totfact> 0.33365273E+04</totfact>
</mgrwt>
</event>
<event>
 8    1  0.9400004E-006  0.4008161E+03  0.7546771E-02  0.1043497E+00
         21   -1    0    0  504  503  0.00000000000E+00  0.00000000000E+00  0.28704918971E+03  0.28704918971E+03  0.00000000000E+00 0. -1.
         21   -1    0    0  503  504 -0.00000000000E+00 -0.00000000000E+00 -0.13991815118E+03  0.13991815118E+03  0.00000000000E+00 0. -1.
         25    2    1    2    0    0 -0.14487648368E+03 -0.57694586577E+02  0.89395965289E+02  0.21893648085E+03  0.12499473266E+03 0.  0.
         25    2    1    2    0    0  0.14487648368E+03  0.57694586577E+02  0.57735073247E+02  0.20803086004E+03  0.12500255678E+03 0.  0.
          5    1    3    3  501    0 -0.92805062935E+02 -0.91652824503E+02  0.86392601428E+02  0.15652089805E+03  0.47000000000E+01 0. -1.
         -5    1    3    3    0  501 -0.52071420748E+02  0.33958237926E+02  0.30033638606E+01  0.62415582800E+02  0.47000000000E+01 0. -1.
          5    1    4    4  502    0 -0.40709506431E+01  0.47460935368E+02  0.28857968545E+02  0.55892623607E+02  0.47000000000E+01 0. -1.
         -5    1    4    4    0  502  0.14894743433E+03  0.10233651209E+02  0.28877104702E+02  0.15213823643E+03  0.47000000000E+01 0. -1.
<mgrwt>
<rscale>  0 0.40081613E+03</rscale>
<asrwt>0</asrwt>
<pdfrwt beam="1">  1       21 0.44161414E-01 0.40081613E+03</pdfrwt>
<pdfrwt beam="2">  1       21 0.21525869E-01 0.40081613E+03</pdfrwt>
<totfact> 0.93196365E+04</totfact>
</mgrwt>
</event>
<event>
 8    1  0.9400004E-006  0.3960369E+03  0.7546771E-02  0.1045161E+00
         21   -1    0    0  504  503  0.00000000000E+00  0.00000000000E+00  0.18408235634E+03  0.18408235634E+03  0.00000000000E+00 0.  1.
         21   -1    0    0  503  504 -0.00000000000E+00 -0.00000000000E+00 -0.21300955681E+03  0.21300955681E+03  0.00000000000E+00 0.  1.
         25    2    1    2    0    0 -0.71680188693E+02 -0.33670231378E+01  0.12167839945E+03  0.18862813822E+03  0.12500222134E+03 0.  0.
         25    2    1    2    0    0  0.71680188693E+02  0.33670231378E+01 -0.15060559992E+03  0.20846377494E+03  0.12500284971E+03 0.  0.
          5    1    3    3  501    0 -0.10359912186E+03 -0.15934145270E+02  0.11017645626E+03  0.15214340784E+03  0.47000000000E+01 0.  1.
         -5    1    3    3    0  501  0.31918933170E+02  0.12567122132E+02  0.11501943189E+02  0.36484730375E+02  0.47000000000E+01 0.  1.
          5    1    4    4  502    0 -0.11371636938E+02  0.17057746403E+02 -0.11507028605E+03  0.11697667106E+03  0.47000000000E+01 0. -1.
         -5    1    4    4    0  502  0.83051825631E+02 -0.13690723265E+02 -0.35535313870E+02  0.91487103878E+02  0.47000000000E+01 0. -1.
<mgrwt>
<rscale>  0 0.39603687E+03</rscale>
<asrwt>0</asrwt>
<pdfrwt beam="1">  1       21 0.28320362E-01 0.39603687E+03</pdfrwt>
<pdfrwt beam="2">  1       21 0.32770701E-01 0.39603687E+03</pdfrwt>
<totfact> 0.10076176E+05</totfact>
</mgrwt>
</event>
<event>
 8    1  0.9400004E-006  0.2812711E+03  0.7546771E-02  0.1094997E+00
         21   -1    0    0  504  503  0.00000000000E+00  0.00000000000E+00  0.89980576194E+02  0.89980576194E+02  0.00000000000E+00 0. -1.
         21   -1    0    0  503  504 -0.00000000000E+00 -0.00000000000E+00 -0.21980704824E+03  0.21980704824E+03  0.00000000000E+00 0. -1.
         25    2    1    2    0    0 -0.40414369714E+02 -0.35050606331E+02 -0.25307904298E+02  0.13830446570E+03  0.12500307568E+03 0.  0.
         25    2    1    2    0    0  0.40414369714E+02  0.35050606331E+02 -0.10451856775E+03  0.17148315873E+03  0.12498190446E+03 0.  0.
          5    1    3    3  501    0 -0.33240565690E+02  0.43156180597E+02 -0.23754765863E+02  0.59613505452E+02  0.47000000000E+01 0.  1.
         -5    1    3    3    0  501 -0.71738040237E+01 -0.78206786928E+02 -0.15531384353E+01  0.78690960248E+02  0.47000000000E+01 0.  1.
          5    1    4    4  502    0  0.20107127271E+02  0.81804049826E+02 -0.58680532039E+02  0.10277010254E+03  0.47000000000E+01 0. -1.
         -5    1    4    4    0  502  0.20307242443E+02 -0.46753443495E+02 -0.45838035710E+02  0.68713056197E+02  0.47000000000E+01 0. -1.
<mgrwt>
<rscale>  0 0.28127115E+03</rscale>
<asrwt>0</asrwt>
<pdfrwt beam="1">  1       21 0.13843166E-01 0.28127115E+03</pdfrwt>
<pdfrwt beam="2">  1       21 0.33816469E-01 0.28127115E+03</pdfrwt>
<totfact> 0.37505292E+05</totfact>
</mgrwt>
</event>
<event>
 8    1  0.9400004E-006  0.3157381E+03  0.7546771E-02  0.1077628E+00
         21   -1    0    0  504  503  0.00000000000E+00  0.00000000000E+00  0.14161891680E+04  0.14161891680E+04  0.00000000000E+00 0.  1.
         21   -1    0    0  503  504 -0.00000000000E+00 -0.00000000000E+00 -0.17598385399E+02  0.17598385399E+02  0.00000000000E+00 0.  1.
         25    2    1    2    0    0 -0.11096451837E+02  0.16247456946E+02  0.11279296780E+04  0.11350047386E+04  0.12499314815E+03 0.  0.
         25    2    1    2    0    0  0.11096451837E+02 -0.16247456946E+02  0.27066110464E+03  0.29878281481E+03  0.12500650288E+03 0.  0.
          5    1    3    3  501    0 -0.45651658089E+02 -0.22782904657E+02  0.23398619422E+03  0.23953029812E+03  0.47000000000E+01 0. -1.
         -5    1    3    3    0  501  0.34555206252E+02  0.39030361602E+02  0.89394348377E+03  0.89547444050E+03  0.47000000000E+01 0. -1.
          5    1    4    4  502    0  0.45683298391E+02  0.34266283763E+02  0.79460166005E+02  0.97965044461E+02  0.47000000000E+01 0.  1.
         -5    1    4    4    0  502 -0.34586846553E+02 -0.50513740709E+02  0.19120093863E+03  0.20081777035E+03  0.47000000000E+01 0.  1.
<mgrwt>
<rscale>  0 0.31573814E+03</rscale>
<asrwt>0</asrwt>
<pdfrwt beam="1">  1       21 0.21787517E+00 0.31573814E+03</pdfrwt>
<pdfrwt beam="2">  1       21 0.27074450E-02 0.31573814E+03</pdfrwt>
<totfact> 0.72875980E+04</totfact>
</mgrwt>
</event>
<event>
 8    1  0.9400004E-006  0.5620240E+03  0.7546771E-02  0.9987485E-01
         21   -1    0    0  504  503  0.00000000000E+00  0.00000000000E+00  0.71027340819E+03  0.71027340819E+03  0.00000000000E+00 0.  1.
         21   -1    0    0  503  504 -0.00000000000E+00 -0.00000000000E+00 -0.11117937239E+03  0.11117937239E+03  0.00000000000E+00 0.  1.
         25    2    1    2    0    0 -0.90675292444E+02 -0.81762554171E+02  0.62121525623E+03  0.64532130203E+03  0.12499625734E+03 0.  0.
         25    2    1    2    0    0  0.90675292444E+02  0.81762554171E+02 -0.22121220427E+02  0.17613147855E+03  0.12500330163E+03 0.  0.
          5    1    3    3  501    0  0.17207736403E+01  0.23891611553E+01 -0.45546573787E+01  0.71766326912E+01  0.47000000000E+01 0. -1.
         -5    1    3    3    0  501 -0.92396066084E+02 -0.84151715326E+02  0.62576991361E+03  0.63814466934E+03  0.47000000000E+01 0. -1.
          5    1    4    4  502    0 -0.13944958524E+02 -0.22545808383E+02 -0.29933627233E+01  0.27089214907E+02  0.47000000000E+01 0.  1.
         -5    1    4    4    0  502  0.10462025097E+03  0.10430836255E+03 -0.19127857704E+02  0.14904226364E+03  0.47000000000E+01 0.  1.
<mgrwt>
<rscale>  0 0.56202403E+03</rscale>
<asrwt>0</asrwt>
<pdfrwt beam="1">  1       21 0.10927283E+00 0.56202403E+03</pdfrwt>
<pdfrwt beam="2">  1       21 0.17104519E-01 0.56202403E+03</pdfrwt>
<totfact> 0.17905097E+04</totfact>
</mgrwt>
</event>
<event>
 8    1  0.9400004E-006  0.2995648E+03  0.7546771E-02  0.1085458E+00
         21   -1    0    0  504  503  0.00000000000E+00  0.00000000000E+00  0.31299329554E+02  0.31299329554E+02  0.00000000000E+00 0.  1.
         21   -1    0    0  503  504 -0.00000000000E+00 -0.00000000000E+00 -0.71678125867E+03  0.71678125867E+03  0.00000000000E+00 0.  1.
         25    2    1    2    0    0 -0.48177353353E+02 -0.55561049367E+02 -0.24922456789E+03  0.28834868583E+03  0.12499596713E+03 0.  0.
         25    2    1    2    0    0  0.48177353353E+02  0.55561049367E+02 -0.43625736123E+03  0.45973190239E+03  0.12499939707E+03 0.  0.
          5    1    3    3  501    0 -0.68599400713E+02 -0.63311289192E+02 -0.97788976994E+02  0.13527368975E+03  0.47000000000E+01 0.  1.
         -5    1    3    3    0  501  0.20422047360E+02  0.77502398243E+01 -0.15143559089E+03  0.15307499608E+03  0.47000000000E+01 0.  1.
          5    1    4    4  502    0  0.51184795869E+02  0.40793566780E+02 -0.43885429923E+03  0.44373323559E+03  0.47000000000E+01 0. -1.
         -5    1    4    4    0  502 -0.30074425161E+01  0.14767482587E+02  0.25969379978E+01  0.15998666801E+02  0.47000000000E+01 0. -1.
<mgrwt>
<rscale>  0 0.29956484E+03</rscale>
<asrwt>0</asrwt>
<pdfrwt beam="1">  1       21 0.48152815E-02 0.29956484E+03</pdfrwt>
<pdfrwt beam="2">  1       21 0.11027404E+00 0.29956484E+03</pdfrwt>
<totfact> 0.17991490E+05</totfact>
</mgrwt>
</event>
<event>
 8    1  0.9400004E-006  0.3059797E+03  0.7546771E-02  0.1082289E+00
         21   -1    0    0  504  503  0.00000000000E+00  0.00000000000E+00  0.25726372996E+02  0.25726372996E+02  0.00000000000E+00 0.  1.
         21   -1    0    0  503  504 -0.00000000000E+00 -0.00000000000E+00 -0.90980148130E+03  0.90980148130E+03  0.00000000000E+00 0.  1.
         25    2    1    2    0    0 -0.69387047936E+02 -0.38443201759E+02 -0.55996763958E+03  0.57920728550E+03  0.12499952008E+03 0.  0.
         25    2    1    2    0    0  0.69387047936E+02  0.38443201759E+02 -0.32410746872E+03  0.35632056879E+03  0.12500501702E+03 0.  0.
          5    1    3    3  501    0 -0.22264853818E+01  0.37903722146E+02 -0.81521699173E+02  0.90052911256E+02  0.47000000000E+01 0. -1.
         -5    1    3    3    0  501 -0.67160562555E+02 -0.76346923905E+02 -0.47844594041E+03  0.48915437425E+03  0.47000000000E+01 0. -1.
          5    1    4    4  502    0  0.92591659858E+02  0.52812978441E+01 -0.14169541585E+03  0.16941307049E+03  0.47000000000E+01 0.  1.
         -5    1    4    4    0  502 -0.23204611922E+02  0.33161903915E+02 -0.18241205287E+03  0.18690749829E+03  0.47000000000E+01 0.  1.
<mgrwt>
<rscale>  0 0.30597969E+03</rscale>
<asrwt>0</asrwt>
<pdfrwt beam="1">  1       21 0.39579039E-02 0.30597969E+03</pdfrwt>
<pdfrwt beam="2">  1       21 0.13996945E+00 0.30597969E+03</pdfrwt>
<totfact> 0.13700954E+05</totfact>
</mgrwt>
</event>
<event>
 8    1  0.9400004E-006  0.3474415E+03  0.7546771E-02  0.1063670E+00
         21   -1    0    0  504  503  0.00000000000E+00  0.00000000000E+00  0.38384955563E+03  0.38384955563E+03  0.00000000000E+00 0.  1.
         21   -1    0    0  503  504 -0.00000000000E+00 -0.00000000000E+00 -0.78621685362E+02  0.78621685362E+02  0.00000000000E+00 0.  1.
         25    2    1    2    0    0 -0.95538979062E+01  0.67467273095E+02  0.28512131978E+03  0.31868417424E+03  0.12498930361E+03 0.  0.
         25    2    1    2    0    0  0.95538979062E+01 -0.67467273095E+02  0.20106550489E+02  0.14378706675E+03  0.12500934880E+03 0.  0.
          5    1    3    3  501    0  0.56018824862E+02  0.33558939299E+02  0.10219672914E+03  0.12136957029E+03  0.47000000000E+01 0.  1.
         -5    1    3    3    0  501 -0.65572722769E+02  0.33908333796E+02  0.18292459064E+03  0.19731460395E+03  0.47000000000E+01 0.  1.
          5    1    4    4  502    0 -0.69822916198E+01 -0.88977665929E+02  0.50596935075E+02  0.10270305385E+03  0.47000000000E+01 0. -1.
         -5    1    4    4    0  502  0.16536189526E+02  0.21510392834E+02 -0.30490384587E+02  0.41084012902E+02  0.47000000000E+01 0. -1.
<mgrwt>
<rscale>  0 0.34744150E+03</rscale>
<asrwt>0</asrwt>
<pdfrwt beam="1">  1       21 0.59053777E-01 0.34744150E+03</pdfrwt>
<pdfrwt beam="2">  1       21 0.12095644E-01 0.34744150E+03</pdfrwt>
<totfact> 0.14851258E+05</totfact>
</mgrwt>
</event>
<event>
 8    1  0.9400004E-006  0.2753056E+03  0.7546771E-02  0.1098281E+00
         21   -1    0    0  504  503  0.00000000000E+00  0.00000000000E+00  0.13916163441E+02  0.13916163441E+02  0.00000000000E+00 0. -1.
         21   -1    0    0  503  504 -0.00000000000E+00 -0.00000000000E+00 -0.13616035078E+04  0.13616035078E+04  0.00000000000E+00 0. -1.
         25    2    1    2    0    0 -0.71160387961E+01 -0.19324519930E+02 -0.40479232408E+03  0.42415247298E+03  0.12499767847E+03 0.  0.
         25    2    1    2    0    0  0.71160387961E+01  0.19324519930E+02 -0.94289502024E+03  0.95136719823E+03  0.12499780630E+03 0.  0.
          5    1    3    3  501    0  0.24836484556E+02 -0.65441488373E+02 -0.23712433616E+03  0.24728420929E+03  0.47000000000E+01 0.  1.
         -5    1    3    3    0  501 -0.31952523352E+02  0.46116968444E+02 -0.16766798792E+03  0.17686826369E+03  0.47000000000E+01 0.  1.
          5    1    4    4  502    0  0.54290639818E+02  0.63642219370E+01 -0.21763756003E+03  0.22444637317E+03  0.47000000000E+01 0.  1.
         -5    1    4    4    0  502 -0.47174601022E+02  0.12960297993E+02 -0.72525746022E+03  0.72692082506E+03  0.47000000000E+01 0.  1.
<mgrwt>
<rscale>  0 0.27530563E+03</rscale>
<asrwt>0</asrwt>
<pdfrwt beam="1">  1       21 0.21409486E-02 0.27530563E+03</pdfrwt>
<pdfrwt beam="2">  1       21 0.20947742E+00 0.27530563E+03</pdfrwt>
<totfact> 0.12356512E+05</totfact>
</mgrwt>
</event>
<event>
 8    1  0.9400004E-006  0.2756360E+03  0.7546771E-02  0.1098097E+00
         21   -1    0    0  504  503  0.00000000000E+00  0.00000000000E+00  0.11913222905E+03  0.11913222905E+03  0.00000000000E+00 0. -1.
         21   -1    0    0  503  504 -0.00000000000E+00 -0.00000000000E+00 -0.15943457462E+03  0.15943457462E+03  0.00000000000E+00 0. -1.
         25    2    1    2    0    0 -0.38285197879E+02 -0.39338990912E+02 -0.11273060688E+01  0.13653043308E+03  0.12500390297E+03 0.  0.
         25    2    1    2    0    0  0.38285197879E+02  0.39338990912E+02 -0.39175039503E+02  0.14203637058E+03  0.12500533695E+03 0.  0.
          5    1    3    3  501    0 -0.65730954056E+01 -0.57712641793E+02  0.47692635356E+02  0.75303599337E+02  0.47000000000E+01 0.  1.
         -5    1    3    3    0  501 -0.31712102474E+02  0.18373650881E+02 -0.48819941425E+02  0.61226833747E+02  0.47000000000E+01 0.  1.
          5    1    4    4  502    0 -0.25709263697E+01  0.76955240849E+02 -0.38689797627E+02  0.86300111222E+02  0.47000000000E+01 0.  1.
         -5    1    4    4    0  502  0.40856124249E+02 -0.37616249937E+02 -0.48524187563E+00  0.55736259362E+02  0.47000000000E+01 0.  1.
<mgrwt>
<rscale>  0 0.27563596E+03</rscale>
<asrwt>0</asrwt>
<pdfrwt beam="1">  1       21 0.18328035E-01 0.27563596E+03</pdfrwt>
<pdfrwt beam="2">  1       21 0.24528396E-01 0.27563596E+03</pdfrwt>
<totfact> 0.41929702E+05</totfact>
</mgrwt>
</event>
<event>
 8    1  0.9400004E-006  0.2675898E+03  0.7546771E-02  0.1102667E+00
         21   -1    0    0  504  503  0.00000000000E+00  0.00000000000E+00  0.58929640041E+02  0.58929640041E+02  0.00000000000E+00 0. -1.
         21   -1    0    0  503  504 -0.00000000000E+00 -0.00000000000E+00 -0.30377022452E+03  0.30377022452E+03  0.00000000000E+00 0. -1.
         25    2    1    2    0    0 -0.13847014042E+02  0.41090241878E+02 -0.95429708409E+02  0.16312968522E+03  0.12499726867E+03 0.  0.
         25    2    1    2    0    0  0.13847014042E+02 -0.41090241878E+02 -0.14941087607E+03  0.19957017935E+03  0.12499799527E+03 0.  0.
          5    1    3    3  501    0  0.18302510111E+02 -0.25300532307E+02 -0.82177761097E+02  0.88036204089E+02  0.47000000000E+01 0. -1.
         -5    1    3    3    0  501 -0.32149524153E+02  0.66390774185E+02 -0.13251947312E+02  0.75093481127E+02  0.47000000000E+01 0. -1.
          5    1    4    4  502    0 -0.53626989652E+02 -0.33100294680E+02 -0.84205125297E+02  0.10528094155E+03  0.47000000000E+01 0. -1.
         -5    1    4    4    0  502  0.67474003694E+02 -0.79899471974E+01 -0.65205750776E+02  0.94289237800E+02  0.47000000000E+01 0. -1.
<mgrwt>
<rscale>  0 0.26758976E+03</rscale>
<asrwt>0</asrwt>
<pdfrwt beam="1">  1       21 0.90660983E-02 0.26758976E+03</pdfrwt>
<pdfrwt beam="2">  1       21 0.46733882E-01 0.26758976E+03</pdfrwt>
<totfact> 0.41599261E+05</totfact>
</mgrwt>
</event>
<event>
 8    1  0.9400004E-006  0.2723535E+03  0.7546771E-02  0.1099940E+00
         21   -1    0    0  504  503  0.00000000000E+00  0.00000000000E+00  0.44113078111E+02  0.44113078111E+02  0.00000000000E+00 0.  1.
         21   -1    0    0  503  504 -0.00000000000E+00 -0.00000000000E+00 -0.42037658901E+03  0.42037658901E+03  0.00000000000E+00 0.  1.
         25    2    1    2    0    0  0.16386378732E+02 -0.26769119217E+02 -0.11310914583E+03  0.17147020232E+03  0.12499300886E+03 0.  0.
         25    2    1    2    0    0 -0.16386378732E+02  0.26769119217E+02 -0.26315436507E+03  0.29301946480E+03  0.12500035097E+03 0.  0.
          5    1    3    3  501    0  0.41403931970E+02  0.94939092893E+01  0.71296614583E+01  0.43328304475E+02  0.47000000000E+01 0.  1.
         -5    1    3    3    0  501 -0.25017553237E+02 -0.36263028507E+02 -0.12023880728E+03  0.12814189785E+03  0.47000000000E+01 0.  1.
          5    1    4    4  502    0 -0.43827654888E+02  0.56931389884E+02 -0.91000739444E+02  0.11603995461E+03  0.47000000000E+01 0. -1.
         -5    1    4    4    0  502  0.27441276156E+02 -0.30162270667E+02 -0.17215362563E+03  0.17697951019E+03  0.47000000000E+01 0. -1.
<mgrwt>
<rscale>  0 0.27235349E+03</rscale>
<asrwt>0</asrwt>
<pdfrwt beam="1">  1       21 0.67866273E-02 0.27235349E+03</pdfrwt>
<pdfrwt beam="2">  1       21 0.64673322E-01 0.27235349E+03</pdfrwt>
<totfact> 0.34495664E+05</totfact>
</mgrwt>
</event>
<event>
 8    1  0.9400004E-006  0.2925012E+03  0.7546771E-02  0.1089050E+00
         21   -1    0    0  504  503  0.00000000000E+00  0.00000000000E+00  0.65824769203E+02  0.65824769203E+02  0.00000000000E+00 0.  1.
         21   -1    0    0  503  504 -0.00000000000E+00 -0.00000000000E+00 -0.32494210045E+03  0.32494210045E+03  0.00000000000E+00 0.  1.
         25    2    1    2    0    0 -0.36268556915E+02 -0.12633362677E+02 -0.21703720153E+03  0.25339167894E+03  0.12500874384E+03 0.  0.
         25    2    1    2    0    0  0.36268556915E+02  0.12633362677E+02 -0.42080129715E+02  0.13737519071E+03  0.12500478244E+03 0.  0.
          5    1    3    3  501    0  0.51197204782E+01 -0.13702669230E+02 -0.21068236963E+03  0.21124186506E+03  0.47000000000E+01 0.  1.
         -5    1    3    3    0  501 -0.41388277393E+02  0.10693065531E+01 -0.63548319021E+01  0.42149813885E+02  0.47000000000E+01 0.  1.
          5    1    4    4  502    0  0.26405205984E+02 -0.13498057952E+02  0.40303720259E+02  0.50258455391E+02  0.47000000000E+01 0. -1.
         -5    1    4    4    0  502  0.98633509302E+01  0.26131420629E+02 -0.82383849974E+02  0.87116735316E+02  0.47000000000E+01 0. -1.
<mgrwt>
<rscale>  0 0.29250121E+03</rscale>
<asrwt>0</asrwt>
<pdfrwt beam="1">  1       21 0.10126888E-01 0.29250121E+03</pdfrwt>
<pdfrwt beam="2">  1       21 0.49991092E-01 0.29250121E+03</pdfrwt>
<totfact> 0.29534047E+05</totfact>
</mgrwt>
</event>
<event>
 8    1  0.9400004E-006  0.3652130E+03  0.7546771E-02  0.1056539E+00
         21   -1    0    0  504  503  0.00000000000E+00  0.00000000000E+00  0.11474706432E+03  0.11474706432E+03  0.00000000000E+00 0. -1.
         21   -1    0    0  503  504 -0.00000000000E+00 -0.00000000000E+00 -0.29059678464E+03  0.29059678464E+03  0.00000000000E+00 0. -1.
         25    2    1    2    0    0  0.64120928984E+02  0.11542275862E+03 -0.10668199351E+03  0.21081111741E+03  0.12500549085E+03 0.  0.
         25    2    1    2    0    0 -0.64120928984E+02 -0.11542275862E+03 -0.69167726807E+02  0.19453273156E+03  0.12499960990E+03 0.  0.
          5    1    3    3  501    0  0.33554469665E+02  0.11045237266E+03 -0.12837700496E+03  0.17270892989E+03  0.47000000000E+01 0. -1.
         -5    1    3    3    0  501  0.30566459319E+02  0.49703859616E+01  0.21695011449E+02  0.38102187519E+02  0.47000000000E+01 0. -1.
          5    1    4    4  502    0 -0.78069597401E+01 -0.48241941343E+02 -0.91597664217E+02  0.10392524051E+03  0.47000000000E+01 0.  1.
         -5    1    4    4    0  502 -0.56313969244E+02 -0.67180817277E+02  0.22429937410E+02  0.90607491049E+02  0.47000000000E+01 0.  1.
<mgrwt>
<rscale>  0 0.36521297E+03</rscale>
<asrwt>0</asrwt>
<pdfrwt beam="1">  1       21 0.17653394E-01 0.36521297E+03</pdfrwt>
<pdfrwt beam="2">  1       21 0.44707198E-01 0.36521297E+03</pdfrwt>
<totfact> 0.13320817E+05</totfact>
</mgrwt>
</event>
<event>
 8    1  0.9400004E-006  0.2921842E+03  0.7546771E-02  0.1089214E+00
         21   -1    0    0  504  503  0.00000000000E+00  0.00000000000E+00  0.13259891234E+03  0.13259891234E+03  0.00000000000E+00 0. -1.
         21   -1    0    0  503  504 -0.00000000000E+00 -0.00000000000E+00 -0.16095835957E+03  0.16095835957E+03  0.00000000000E+00 0. -1.
         25    2    1    2    0    0 -0.83883224548E+00  0.64675481484E+02 -0.53544923119E+02  0.15058171898E+03  0.12499669497E+03 0.  0.
         25    2    1    2    0    0  0.83883224548E+00 -0.64675481484E+02  0.25185475898E+02  0.14297555293E+03  0.12499631593E+03 0.  0.
          5    1    3    3  501    0 -0.35803104538E+02  0.46806326354E+02  0.23788521399E+02  0.63723451191E+02  0.47000000000E+01 0. -1.
         -5    1    3    3    0  501  0.34964272292E+02  0.17869155130E+02 -0.77333444518E+02  0.86858267787E+02  0.47000000000E+01 0. -1.
          5    1    4    4  502    0 -0.63986800789E+01  0.23665790838E+02 -0.29559295649E+02  0.38689206789E+02  0.47000000000E+01 0.  1.
         -5    1    4    4    0  502  0.72375123244E+01 -0.88341272322E+02  0.54744771547E+02  0.10428634614E+03  0.47000000000E+01 0.  1.
<mgrwt>
<rscale>  0 0.29218421E+03</rscale>
<asrwt>0</asrwt>
<pdfrwt beam="1">  1       21 0.20399833E-01 0.29218421E+03</pdfrwt>
<pdfrwt beam="2">  1       21 0.24762824E-01 0.29218421E+03</pdfrwt>
<totfact> 0.33563854E+05</totfact>
</mgrwt>
</event>
<event>
 8    1  0.9400004E-006  0.2689612E+03  0.7546771E-02  0.1101876E+00
         21   -1    0    0  504  503  0.00000000000E+00  0.00000000000E+00  0.11250376571E+03  0.11250376571E+03  0.00000000000E+00 0. -1.
         21   -1    0    0  503  504 -0.00000000000E+00 -0.00000000000E+00 -0.16075043104E+03  0.16075043104E+03  0.00000000000E+00 0. -1.
         25    2    1    2    0    0  0.41603411059E+02  0.26230045804E+02 -0.17631957830E+02  0.13548198089E+03  0.12500248836E+03 0.  0.
         25    2    1    2    0    0 -0.41603411059E+02 -0.26230045804E+02 -0.30614707500E+02  0.13777221585E+03  0.12500025613E+03 0.  0.
          5    1    3    3  501    0  0.11513388592E+02 -0.42713093706E+02  0.22760046849E+02  0.49970753680E+02  0.47000000000E+01 0.  1.
         -5    1    3    3    0  501  0.30090022467E+02  0.68943139510E+02 -0.40392004679E+02  0.85511227213E+02  0.47000000000E+01 0.  1.
          5    1    4    4  502    0  0.12250458784E+02 -0.65002999809E+02 -0.50589550395E+01  0.66506742144E+02  0.47000000000E+01 0.  1.
         -5    1    4    4    0  502 -0.53853869842E+02  0.38772954005E+02 -0.25555752461E+02  0.71265473710E+02  0.47000000000E+01 0.  1.
<mgrwt>
<rscale>  0 0.26896118E+03</rscale>
<asrwt>0</asrwt>
<pdfrwt beam="1">  1       21 0.17308272E-01 0.26896118E+03</pdfrwt>
<pdfrwt beam="2">  1       21 0.24730836E-01 0.26896118E+03</pdfrwt>
<totfact> 0.45969011E+05</totfact>
</mgrwt>
</event>
<event>
 8    1  0.9400004E-006  0.2766613E+03  0.7546771E-02  0.1097527E+00
         21   -1    0    0  504  503  0.00000000000E+00  0.00000000000E+00  0.47921972640E+02  0.47921972640E+02  0.00000000000E+00 0. -1.
         21   -1    0    0  503  504 -0.00000000000E+00 -0.00000000000E+00 -0.39930256953E+03  0.39930256953E+03  0.00000000000E+00 0. -1.
         25    2    1    2    0    0  0.52676019327E+01  0.92170932273E+01 -0.81459268192E+02  0.14957506806E+03  0.12499754467E+03 0.  0.
         25    2    1    2    0    0 -0.52676019327E+01 -0.92170932273E+01 -0.26992132869E+03  0.29764947411E+03  0.12499993326E+03 0.  0.
          5    1    3    3  501    0 -0.47514278988E+02 -0.39204901742E+01 -0.82009881435E+02  0.94977300466E+02  0.47000000000E+01 0.  1.
         -5    1    3    3    0  501  0.52781880921E+02  0.13137583401E+02  0.55061324255E+00  0.54597767593E+02  0.47000000000E+01 0.  1.
          5    1    4    4  502    0  0.25110205117E+02  0.56823118890E+01 -0.26104725867E+03  0.26235581246E+03  0.47000000000E+01 0. -1.
         -5    1    4    4    0  502 -0.30377807050E+02 -0.14899405116E+02 -0.88740700229E+01  0.35293661651E+02  0.47000000000E+01 0. -1.
<mgrwt>
<rscale>  0 0.27666129E+03</rscale>
<asrwt>0</asrwt>
<pdfrwt beam="1">  1       21 0.73726108E-02 0.27666129E+03</pdfrwt>
<pdfrwt beam="2">  1       21 0.61431168E-01 0.27666129E+03</pdfrwt>
<totfact> 0.33383117E+05</totfact>
</mgrwt>
</event>
<event>
 8    1  0.9400004E-006  0.3764858E+03  0.7546771E-02  0.1052240E+00
         21   -1    0    0  504  503  0.00000000000E+00  0.00000000000E+00  0.42224109007E+03  0.42224109007E+03  0.00000000000E+00 0.  1.
         21   -1    0    0  503  504 -0.00000000000E+00 -0.00000000000E+00 -0.83922168075E+02  0.83922168075E+02  0.00000000000E+00 0.  1.
         25    2    1    2    0    0 -0.19827899000E+01 -0.81433329978E+02  0.32350818768E+03  0.35623414414E+03  0.12493958248E+03 0.  0.
         25    2    1    2    0    0  0.19827899000E+01  0.81433329978E+02  0.14810734315E+02  0.14992911400E+03  0.12499625069E+03 0.  0.
          5    1    3    3  501    0 -0.27039419950E+02 -0.18496594260E+02  0.26363337498E+03  0.26570265455E+03  0.47000000000E+01 0. -1.
         -5    1    3    3    0  501  0.25056630050E+02 -0.62936735718E+02  0.59874812701E+02  0.90531489596E+02  0.47000000000E+01 0. -1.
          5    1    4    4  502    0 -0.45596607720E+02  0.85444847210E+02  0.26553907789E+02  0.10053393740E+03  0.47000000000E+01 0. -1.
         -5    1    4    4    0  502  0.47579397620E+02 -0.40115172317E+01 -0.11743173474E+02  0.49395176603E+02  0.47000000000E+01 0. -1.
<mgrwt>
<rscale>  0 0.37648579E+03</rscale>
<asrwt>0</asrwt>
<pdfrwt beam="1">  1       21 0.64960166E-01 0.37648579E+03</pdfrwt>
<pdfrwt beam="2">  1       21 0.12911103E-01 0.37648579E+03</pdfrwt>
<totfact> 0.10633368E+05</totfact>
</mgrwt>
</event>
<event>
 8    1  0.9400004E-006  0.3772440E+03  0.7546771E-02  0.1051957E+00
         21   -1    0    0  504  503  0.00000000000E+00  0.00000000000E+00  0.27545784825E+03  0.27545784825E+03  0.00000000000E+00 0. -1.
         21   -1    0    0  503  504 -0.00000000000E+00 -0.00000000000E+00 -0.12916043647E+03  0.12916043647E+03  0.00000000000E+00 0. -1.
         25    2    1    2    0    0 -0.13379754002E+03 -0.10102039992E+02  0.25787749492E+02  0.18517837796E+03  0.12498876235E+03 0.  0.
         25    2    1    2    0    0  0.13379754002E+03  0.10102039992E+02  0.12050966229E+03  0.21943990676E+03  0.12500984379E+03 0.  0.
          5    1    3    3  501    0 -0.12432578362E+02  0.35843766521E+02 -0.25072839824E+02  0.45717413531E+02  0.47000000000E+01 0.  1.
         -5    1    3    3    0  501 -0.12136496166E+03 -0.45945806513E+02  0.50860589316E+02  0.13946096443E+03  0.47000000000E+01 0.  1.
          5    1    4    4  502    0  0.12155433324E+03 -0.33130880920E+02  0.49853968665E+02  0.13557514297E+03  0.47000000000E+01 0. -1.
         -5    1    4    4    0  502  0.12243206776E+02  0.43232920912E+02  0.70655693626E+02  0.83864763784E+02  0.47000000000E+01 0. -1.
<mgrwt>
<rscale>  0 0.37724398E+03</rscale>
<asrwt>0</asrwt>
<pdfrwt beam="1">  1       21 0.42378130E-01 0.37724398E+03</pdfrwt>
<pdfrwt beam="2">  1       21 0.19870837E-01 0.37724398E+03</pdfrwt>
<totfact> 0.11881515E+05</totfact>
</mgrwt>
</event>
<event>
 8    1  0.9400004E-006  0.3085996E+03  0.7546771E-02  0.1081019E+00
         21   -1    0    0  504  503  0.00000000000E+00  0.00000000000E+00  0.12942227670E+03  0.12942227670E+03  0.00000000000E+00 0. -1.
         21   -1    0    0  503  504 -0.00000000000E+00 -0.00000000000E+00 -0.18395923600E+03  0.18395923600E+03  0.00000000000E+00 0. -1.
         25    2    1    2    0    0 -0.86998663499E+02 -0.24703843836E+02 -0.29413249117E+02  0.15706426172E+03  0.12499998294E+03 0.  0.
         25    2    1    2    0    0  0.86998663499E+02  0.24703843836E+02 -0.25123710175E+02  0.15631725098E+03  0.12499933915E+03 0.  0.
          5    1    3    3  501    0 -0.11310103140E+03 -0.13112477280E+02 -0.46920235402E+02  0.12323708393E+03  0.47000000000E+01 0. -1.
         -5    1    3    3    0  501  0.26102367903E+02 -0.11591366556E+02  0.17506986285E+02  0.33827177795E+02  0.47000000000E+01 0. -1.
          5    1    4    4  502    0  0.12412332844E+02  0.16086498375E+01 -0.66497216883E+02  0.67827897020E+02  0.47000000000E+01 0. -1.
         -5    1    4    4    0  502  0.74586330654E+02  0.23095193999E+02  0.41373506708E+02  0.88489353957E+02  0.47000000000E+01 0. -1.
<mgrwt>
<rscale>  0 0.30859957E+03</rscale>
<asrwt>0</asrwt>
<pdfrwt beam="1">  1       21 0.19911120E-01 0.30859957E+03</pdfrwt>
<pdfrwt beam="2">  1       21 0.28301421E-01 0.30859957E+03</pdfrwt>
<totfact> 0.27026187E+05</totfact>
</mgrwt>
</event>
<event>
 8    1  0.9400004E-006  0.3886694E+03  0.7546771E-02  0.1047775E+00
         21   -1    0    0  504  503  0.00000000000E+00  0.00000000000E+00  0.37130595737E+03  0.37130595737E+03  0.00000000000E+00 0.  1.
         21   -1    0    0  503  504 -0.00000000000E+00 -0.00000000000E+00 -0.10171121846E+03  0.10171121846E+03  0.00000000000E+00 0.  1.
         25    2    1    2    0    0  0.53919674817E+02 -0.20556406788E+02  0.30171084263E+03  0.33163920998E+03  0.12500094338E+03 0.  0.
         25    2    1    2    0    0 -0.53919674817E+02  0.20556406788E+02 -0.32116103718E+02  0.14137796585E+03  0.12500555154E+03 0.  0.
          5    1    3    3  501    0 -0.38726618915E+02  0.69523996191E+01  0.68207108931E+02  0.78882105587E+02  0.47000000000E+01 0. -1.
         -5    1    3    3    0  501  0.92646293732E+02 -0.27508806407E+02  0.23350373370E+03  0.25275710439E+03  0.47000000000E+01 0. -1.
          5    1    4    4  502    0  0.25429218132E+02  0.14542677944E+02 -0.51414089997E+02  0.59360199350E+02  0.47000000000E+01 0. -1.
         -5    1    4    4    0  502 -0.79348892948E+02  0.60137288437E+01  0.19297986279E+02  0.82017766497E+02  0.47000000000E+01 0. -1.
<mgrwt>
<rscale>  0 0.38866943E+03</rscale>
<asrwt>0</asrwt>
<pdfrwt beam="1">  1       21 0.57123993E-01 0.38866943E+03</pdfrwt>
<pdfrwt beam="2">  1       21 0.15647880E-01 0.38866943E+03</pdfrwt>
<totfact> 0.98635333E+04</totfact>
</mgrwt>
</event>
<event>
 8    1  0.9400004E-006  0.3847656E+03  0.7546771E-02  0.1049186E+00
         21   -1    0    0  504  503  0.00000000000E+00  0.00000000000E+00  0.15918112745E+03  0.15918112745E+03  0.00000000000E+00 0. -1.
         21   -1    0    0  503  504 -0.00000000000E+00 -0.00000000000E+00 -0.23250964134E+03  0.23250964134E+03  0.00000000000E+00 0. -1.
         25    2    1    2    0    0  0.68628633027E+02  0.10432967939E+03  0.40813935279E+02  0.18134286579E+03  0.12499954555E+03 0.  0.
         25    2    1    2    0    0 -0.68628633027E+02 -0.10432967939E+03 -0.11414244917E+03  0.21034790300E+03  0.12499268109E+03 0.  0.
          5    1    3    3  501    0 -0.31095752775E+02  0.43313015356E+01  0.22380917588E+02  0.38842006716E+02  0.47000000000E+01 0.  1.
         -5    1    3    3    0  501  0.99724385801E+02  0.99998377850E+02  0.18433017691E+02  0.14250085908E+03  0.47000000000E+01 0.  1.
          5    1    4    4  502    0 -0.52056958039E+02 -0.89304793007E+01  0.88333311509E+01  0.53756842170E+02  0.47000000000E+01 0. -1.
         -5    1    4    4    0  502 -0.16571674987E+02 -0.95399200085E+02 -0.12297578032E+03  0.15659106083E+03  0.47000000000E+01 0. -1.
<mgrwt>
<rscale>  0 0.38476563E+03</rscale>
<asrwt>0</asrwt>
<pdfrwt beam="1">  1       21 0.24489404E-01 0.38476563E+03</pdfrwt>
<pdfrwt beam="2">  1       21 0.35770714E-01 0.38476563E+03</pdfrwt>
<totfact> 0.11244327E+05</totfact>
</mgrwt>
</event>
<event>
 8    1  0.9400004E-006  0.3413284E+03  0.7546771E-02  0.1066232E+00
         21   -1    0    0  504  503  0.00000000000E+00  0.00000000000E+00  0.11791718482E+03  0.11791718482E+03  0.00000000000E+00 0.  1.
         21   -1    0    0  503  504 -0.00000000000E+00 -0.00000000000E+00 -0.24700613357E+03  0.24700613357E+03  0.00000000000E+00 0.  1.
         25    2    1    2    0    0 -0.86678289798E+02 -0.53205084764E+02 -0.12460624981E+03  0.20371017488E+03  0.12500884325E+03 0.  0.
         25    2    1    2    0    0  0.86678289798E+02  0.53205084764E+02 -0.44826989348E+01  0.16121314351E+03  0.12500270431E+03 0.  0.
          5    1    3    3  501    0  0.27711490542E+02  0.86935383482E+01 -0.34873618072E+02  0.45626347153E+02  0.47000000000E+01 0.  1.
         -5    1    3    3    0  501 -0.11438978034E+03 -0.61898623112E+02 -0.89732631739E+02  0.15808382773E+03  0.47000000000E+01 0.  1.
          5    1    4    4  502    0  0.39268837723E+02  0.91092121209E+02  0.58188122991E+01  0.99477458447E+02  0.47000000000E+01 0.  1.
         -5    1    4    4    0  502  0.47409452075E+02 -0.37887036446E+02 -0.10301511234E+02  0.61735685064E+02  0.47000000000E+01 0.  1.
<mgrwt>
<rscale>  0 0.34132839E+03</rscale>
<asrwt>0</asrwt>
<pdfrwt beam="1">  1       21 0.18141106E-01 0.34132839E+03</pdfrwt>
<pdfrwt beam="2">  1       21 0.38000943E-01 0.34132839E+03</pdfrwt>
<totfact> 0.17773666E+05</totfact>
</mgrwt>
</event>
<event>
 8    1  0.9400004E-006  0.4784750E+03  0.7546771E-02  0.1019555E+00
         21   -1    0    0  504  503  0.00000000000E+00  0.00000000000E+00  0.73359898229E+03  0.73359898229E+03  0.00000000000E+00 0.  1.
         21   -1    0    0  503  504 -0.00000000000E+00 -0.00000000000E+00 -0.78018908185E+02  0.78018908185E+02  0.00000000000E+00 0.  1.
         25    2    1    2    0    0 -0.33736988191E+01 -0.11191273403E+03  0.38558906027E+02  0.17218416609E+03  0.12499902374E+03 0.  0.
         25    2    1    2    0    0  0.33736988191E+01  0.11191273403E+03  0.61702116808E+03  0.63943372439E+03  0.12499809658E+03 0.  0.
          5    1    3    3  501    0  0.73998228951E+00 -0.35678688532E+02 -0.45838995906E+02  0.58282243735E+02  0.47000000000E+01 0. -1.
         -5    1    3    3    0  501 -0.41136811086E+01 -0.76234045494E+02  0.84397901933E+02  0.11390192235E+03  0.47000000000E+01 0. -1.
          5    1    4    4  502    0 -0.53681127407E+02  0.83493073614E+02  0.29986823060E+03  0.31590473644E+03  0.47000000000E+01 0. -1.
         -5    1    4    4    0  502  0.57054826226E+02  0.28419660413E+02  0.31715293748E+03  0.32352898795E+03  0.47000000000E+01 0. -1.
<mgrwt>
<rscale>  0 0.47847504E+03</rscale>
<asrwt>0</asrwt>
<pdfrwt beam="1">  1       21 0.11286138E+00 0.47847504E+03</pdfrwt>
<pdfrwt beam="2">  1       21 0.12002909E-01 0.47847504E+03</pdfrwt>
<totfact> 0.32461681E+04</totfact>
</mgrwt>
</event>
<event>
 8    1  0.9400004E-006  0.2897160E+03  0.7546771E-02  0.1090497E+00
         21   -1    0    0  504  503  0.00000000000E+00  0.00000000000E+00  0.18997490525E+03  0.18997490525E+03  0.00000000000E+00 0. -1.
         21   -1    0    0  503  504 -0.00000000000E+00 -0.00000000000E+00 -0.11045588063E+03  0.11045588063E+03  0.00000000000E+00 0. -1.
         25    2    1    2    0    0  0.49185765368E+02  0.15775762881E+01  0.95972668263E+02  0.16510019775E+03  0.12500237591E+03 0.  0.
         25    2    1    2    0    0 -0.49185765368E+02 -0.15775762881E+01 -0.16453643642E+02  0.13533058812E+03  0.12498766911E+03 0.  0.
          5    1    3    3  501    0  0.60215499464E+02  0.20142478185E+02 -0.29518436142E+01  0.63737188390E+02  0.47000000000E+01 0.  1.
         -5    1    3    3    0  501 -0.11029734096E+02 -0.18564901897E+02  0.98924511877E+02  0.10136300936E+03  0.47000000000E+01 0.  1.
          5    1    4    4  502    0 -0.46872490325E+02 -0.51753683474E+02 -0.38951775280E+02  0.80092477174E+02  0.47000000000E+01 0.  1.
         -5    1    4    4    0  502 -0.23132750434E+01  0.50176107186E+02  0.22498131638E+02  0.55238110947E+02  0.47000000000E+01 0.  1.
<mgrwt>
<rscale>  0 0.28971604E+03</rscale>
<asrwt>0</asrwt>
<pdfrwt beam="1">  1       21 0.29226909E-01 0.28971604E+03</pdfrwt>
<pdfrwt beam="2">  1       21 0.16993212E-01 0.28971604E+03</pdfrwt>
<totfact> 0.34260511E+05</totfact>
</mgrwt>
</event>
<event>
 8    1  0.9400004E-006  0.2765334E+03  0.7546771E-02  0.1097598E+00
         21   -1    0    0  504  503  0.00000000000E+00  0.00000000000E+00  0.54262114939E+03  0.54262114939E+03  0.00000000000E+00 0. -1.
         21   -1    0    0  503  504 -0.00000000000E+00 -0.00000000000E+00 -0.35232104828E+02  0.35232104828E+02  0.00000000000E+00 0. -1.
         25    2    1    2    0    0 -0.10978475495E+02 -0.23692172805E+02  0.14290651593E+03  0.19164868176E+03  0.12500039579E+03 0.  0.
         25    2    1    2    0    0  0.10978475495E+02  0.23692172805E+02  0.36448252863E+03  0.38620457246E+03  0.12499844852E+03 0.  0.
          5    1    3    3  501    0  0.56250402893E+02 -0.80997383889E+01  0.79317159605E+02  0.97688358546E+02  0.47000000000E+01 0. -1.
         -5    1    3    3    0  501 -0.67228878388E+02 -0.15592434416E+02  0.63589356320E+02  0.93960323209E+02  0.47000000000E+01 0. -1.
          5    1    4    4  502    0 -0.52642059948E+02 -0.12164713144E+02  0.16796617761E+03  0.17650465587E+03  0.47000000000E+01 0.  1.
         -5    1    4    4    0  502  0.63620535443E+02  0.35856885949E+02  0.19651635102E+03  0.20969991659E+03  0.47000000000E+01 0.  1.
<mgrwt>
<rscale>  0 0.27653344E+03</rscale>
<asrwt>0</asrwt>
<pdfrwt beam="1">  1       21 0.83480171E-01 0.27653344E+03</pdfrwt>
<pdfrwt beam="2">  1       21 0.54203242E-02 0.27653344E+03</pdfrwt>
<totfact> 0.28636745E+05</totfact>
</mgrwt>
</event>
<event>
 8    1  0.9400004E-006  0.3135045E+03  0.7546771E-02  0.1078678E+00
         21   -1    0    0  504  503  0.00000000000E+00  0.00000000000E+00  0.46976785933E+02  0.46976785933E+02  0.00000000000E+00 0.  1.
         21   -1    0    0  503  504 -0.00000000000E+00 -0.00000000000E+00 -0.52305126165E+03  0.52305126165E+03  0.00000000000E+00 0.  1.
         25    2    1    2    0    0 -0.40060686464E+02  0.66293891617E+02 -0.33676390023E+03  0.36746544367E+03  0.12498475556E+03 0.  0.
         25    2    1    2    0    0  0.40060686464E+02 -0.66293891617E+02 -0.13931057548E+03  0.20256260392E+03  0.12499773357E+03 0.  0.
          5    1    3    3  501    0  0.41389188495E+02 -0.27222586759E+00 -0.89799916101E+02  0.98991181238E+02  0.47000000000E+01 0.  1.
         -5    1    3    3    0  501 -0.81449874959E+02  0.66566117485E+02 -0.24696398413E+03  0.26847426243E+03  0.47000000000E+01 0.  1.
          5    1    4    4  502    0  0.35311266393E+02 -0.90670137805E+02 -0.14681641544E+03  0.17619622376E+03  0.47000000000E+01 0.  1.
         -5    1    4    4    0  502  0.47494200710E+01  0.24376246188E+02  0.75058399575E+01  0.26366380159E+02  0.47000000000E+01 0.  1.
<mgrwt>
<rscale>  0 0.31350450E+03</rscale>
<asrwt>0</asrwt>
<pdfrwt beam="1">  1       21 0.72271979E-02 0.31350450E+03</pdfrwt>
<pdfrwt beam="2">  1       21 0.80469424E-01 0.31350450E+03</pdfrwt>
<totfact> 0.18769520E+05</totfact>
</mgrwt>
</event>
<event>
 8    1  0.9400004E-006  0.4018949E+03  0.7546771E-02  0.1043126E+00
         21   -1    0    0  504  503  0.00000000000E+00  0.00000000000E+00  0.21187118749E+03  0.21187118749E+03  0.00000000000E+00 0. -1.
         21   -1    0    0  503  504 -0.00000000000E+00 -0.00000000000E+00 -0.19058689166E+03  0.19058689166E+03  0.00000000000E+00 0. -1.
         25    2    1    2    0    0 -0.12484243141E+03  0.94852319717E+02 -0.25060882523E+01  0.20053285454E+03  0.12499820013E+03 0.  0.
         25    2    1    2    0    0  0.12484243141E+03 -0.94852319717E+02  0.23790384082E+02  0.20192522461E+03  0.12500087489E+03 0.  0.
          5    1    3    3  501    0 -0.13914407119E+02 -0.10126975836E+02  0.38409155757E+02  0.42349965892E+02  0.47000000000E+01 0. -1.
         -5    1    3    3    0  501 -0.11092802429E+03  0.10497929555E+03 -0.40915244010E+02  0.15818288864E+03  0.47000000000E+01 0. -1.
          5    1    4    4  502    0  0.65539661942E+02 -0.11162088099E+02 -0.43108527991E+02  0.79375529502E+02  0.47000000000E+01 0.  1.
         -5    1    4    4    0  502  0.59302769466E+02 -0.83690231618E+02  0.66898912074E+02  0.12254969511E+03  0.47000000000E+01 0.  1.
<mgrwt>
<rscale>  0 0.40189487E+03</rscale>
<asrwt>0</asrwt>
<pdfrwt beam="1">  1       21 0.32595567E-01 0.40189487E+03</pdfrwt>
<pdfrwt beam="2">  1       21 0.29321060E-01 0.40189487E+03</pdfrwt>
<totfact> 0.94988880E+04</totfact>
</mgrwt>
</event>
<event>
 8    1  0.9400004E-006  0.2693104E+03  0.7546771E-02  0.1101675E+00
         21   -1    0    0  504  503  0.00000000000E+00  0.00000000000E+00  0.73712480272E+02  0.73712480272E+02  0.00000000000E+00 0. -1.
         21   -1    0    0  503  504 -0.00000000000E+00 -0.00000000000E+00 -0.24598307256E+03  0.24598307256E+03  0.00000000000E+00 0. -1.
         25    2    1    2    0    0 -0.36542887283E+02  0.29763340888E+02 -0.10623736292E+03  0.17068109516E+03  0.12499767955E+03 0.  0.
         25    2    1    2    0    0  0.36542887283E+02 -0.29763340888E+02 -0.66033229361E+02  0.14901445767E+03  0.12499472846E+03 0.  0.
          5    1    3    3  501    0  0.37026166968E+02 -0.21552995617E+02 -0.26654081473E+02  0.50675425203E+02  0.47000000000E+01 0. -1.
         -5    1    3    3    0  501 -0.73569054251E+02  0.51316336504E+02 -0.79583281450E+02  0.12000566996E+03  0.47000000000E+01 0. -1.
          5    1    4    4  502    0 -0.45364482563E+02 -0.19143653828E+02 -0.35286467893E+02  0.60758872410E+02  0.47000000000E+01 0. -1.
         -5    1    4    4    0  502  0.81907369845E+02 -0.10619687059E+02 -0.30746761468E+02  0.88255585257E+02  0.47000000000E+01 0. -1.
<mgrwt>
<rscale>  0 0.26931040E+03</rscale>
<asrwt>0</asrwt>
<pdfrwt beam="1">  1       21 0.11340382E-01 0.26931040E+03</pdfrwt>
<pdfrwt beam="2">  1       21 0.37843549E-01 0.26931040E+03</pdfrwt>
<totfact> 0.43023090E+05</totfact>
</mgrwt>
</event>
<event>
 8    1  0.9400004E-006  0.3566376E+03  0.7546771E-02  0.1059923E+00
         21   -1    0    0  504  503  0.00000000000E+00  0.00000000000E+00  0.41764438995E+03  0.41764438995E+03  0.00000000000E+00 0. -1.
         21   -1    0    0  503  504 -0.00000000000E+00 -0.00000000000E+00 -0.76135557258E+02  0.76135557258E+02  0.00000000000E+00 0. -1.
         25    2    1    2    0    0 -0.62109988185E+02 -0.54831909768E+02  0.30437508683E+03  0.33928768730E+03  0.12493099017E+03 0.  0.
         25    2    1    2    0    0  0.62109988185E+02  0.54831909768E+02  0.37133745859E+02  0.15449225991E+03  0.12499901731E+03 0.  0.
          5    1    3    3  501    0 -0.34431798559E+02  0.30812420075E+02  0.44875706908E+02  0.64582296749E+02  0.47000000000E+01 0.  1.
         -5    1    3    3    0  501 -0.27678189626E+02 -0.85644329842E+02  0.25949937992E+03  0.27470539055E+03  0.47000000000E+01 0.  1.
          5    1    4    4  502    0  0.95881515099E+02  0.40777331797E+02  0.49694100809E+02  0.11553202751E+03  0.47000000000E+01 0. -1.
         -5    1    4    4    0  502 -0.33771526913E+02  0.14054577970E+02 -0.12560354950E+02  0.38960232397E+02  0.47000000000E+01 0. -1.
<mgrwt>
<rscale>  0 0.35663757E+03</rscale>
<asrwt>0</asrwt>
<pdfrwt beam="1">  1       21 0.64252982E-01 0.35663757E+03</pdfrwt>
<pdfrwt beam="2">  1       21 0.11713163E-01 0.35663757E+03</pdfrwt>
<totfact> 0.13060199E+05</totfact>
</mgrwt>
</event>
<event>
 8    1  0.9400004E-006  0.2513761E+03  0.7546771E-02  0.1112438E+00
         21   -1    0    0  504  503  0.00000000000E+00  0.00000000000E+00  0.80038245210E+02  0.80038245210E+02  0.00000000000E+00 0.  1.
         21   -1    0    0  503  504 -0.00000000000E+00 -0.00000000000E+00 -0.19737418371E+03  0.19737418371E+03  0.00000000000E+00 0.  1.
         25    2    1    2    0    0  0.10593133290E+02 -0.77067931352E+01 -0.56005265983E+02  0.13755364737E+03  0.12495121830E+03 0.  0.
         25    2    1    2    0    0 -0.10593133290E+02  0.77067931352E+01 -0.61330672518E+02  0.13985878155E+03  0.12500967263E+03 0.  0.
          5    1    3    3  501    0  0.61265922791E+01 -0.40912657759E+02  0.25832658987E+02  0.48997928203E+02  0.47000000000E+01 0.  1.
         -5    1    3    3    0  501  0.44665410109E+01  0.33205864624E+02 -0.81837924970E+02  0.88555719168E+02  0.47000000000E+01 0.  1.
          5    1    4    4  502    0 -0.19898398159E+02 -0.88573726870E+01 -0.96808970895E+02  0.99340153744E+02  0.47000000000E+01 0.  1.
         -5    1    4    4    0  502  0.93052648694E+01  0.16564165822E+02  0.35478298376E+02  0.40518627807E+02  0.47000000000E+01 0.  1.
<mgrwt>
<rscale>  0 0.25137608E+03</rscale>
<asrwt>0</asrwt>
<pdfrwt beam="1">  1       21 0.12313576E-01 0.25137608E+03</pdfrwt>
<pdfrwt beam="2">  1       21 0.30365259E-01 0.25137608E+03</pdfrwt>
<totfact> 0.57698671E+05</totfact>
</mgrwt>
</event>
<event>
 8    1  0.9400004E-006  0.2671043E+03  0.7546771E-02  0.1102948E+00
         21   -1    0    0  504  503  0.00000000000E+00  0.00000000000E+00  0.82024412867E+01  0.82024412867E+01  0.00000000000E+00 0.  1.
         21   -1    0    0  503  504 -0.00000000000E+00 -0.00000000000E+00 -0.21744968571E+04  0.21744968571E+04  0.00000000000E+00 0.  1.
         25    2    1    2    0    0 -0.22210447960E+02  0.41141605990E+02 -0.10432922473E+04  0.10517934657E+04  0.12499938183E+03 0.  0.
         25    2    1    2    0    0  0.22210447960E+02 -0.41141605990E+02 -0.11230021685E+04  0.11309058327E+04  0.12501278411E+03 0.  0.
          5    1    3    3  501    0  0.30251438751E+02  0.21974810157E+02 -0.84200469686E+03  0.84284757896E+03  0.47000000000E+01 0.  1.
         -5    1    3    3    0  501 -0.52461886711E+02  0.19166795833E+02 -0.20128755044E+03  0.20894588674E+03  0.47000000000E+01 0.  1.
          5    1    4    4  502    0  0.24601735203E+02  0.14942013482E+02 -0.63169346784E+02  0.69577047329E+02  0.47000000000E+01 0. -1.
         -5    1    4    4    0  502 -0.23912872432E+01 -0.56083619472E+02 -0.10598328217E+04  0.10613287853E+04  0.47000000000E+01 0. -1.
<mgrwt>
<rscale>  0 0.26710435E+03</rscale>
<asrwt>0</asrwt>
<pdfrwt beam="1">  1       21 0.12619144E-02 0.26710435E+03</pdfrwt>
<pdfrwt beam="2">  1       21 0.33453789E+00 0.26710435E+03</pdfrwt>
<totfact> 0.52419380E+04</totfact>
</mgrwt>
</event>
<event>
 8    1  0.9400004E-006  0.7400151E+03  0.7546771E-02  0.9651147E-01
         21   -1    0    0  504  503  0.00000000000E+00  0.00000000000E+00  0.10458474590E+03  0.10458474590E+03  0.00000000000E+00 0.  1.
         21   -1    0    0  503  504 -0.00000000000E+00 -0.00000000000E+00 -0.13090396421E+04  0.13090396421E+04  0.00000000000E+00 0.  1.
         25    2    1    2    0    0 -0.10776384686E+02 -0.13193722139E+03  0.13095734586E+02  0.18253700552E+03  0.12499879705E+03 0.  0.
         25    2    1    2    0    0  0.10776384686E+02  0.13193722139E+03 -0.12175506308E+04  0.12310873825E+04  0.12499217537E+03 0.  0.
          5    1    3    3  501    0 -0.20202833979E+02 -0.10028641522E+03 -0.47867855241E+02  0.11304397881E+03  0.47000000000E+01 0.  1.
         -5    1    3    3    0  501  0.94264492930E+01 -0.31650806166E+02  0.60963589827E+02  0.69493026714E+02  0.47000000000E+01 0.  1.
          5    1    4    4  502    0  0.13708640314E+02  0.62239577577E+02 -0.17686746800E+03  0.18805819066E+03  0.47000000000E+01 0. -1.
         -5    1    4    4    0  502 -0.29322556289E+01  0.69697643810E+02 -0.10406831628E+04  0.10430291918E+04  0.47000000000E+01 0. -1.
<mgrwt>
<rscale>  0 0.74001508E+03</rscale>
<asrwt>0</asrwt>
<pdfrwt beam="1">  1       21 0.16089962E-01 0.74001508E+03</pdfrwt>
<pdfrwt beam="2">  1       21 0.20139071E+00 0.74001508E+03</pdfrwt>
<totfact> 0.35581557E+03</totfact>
</mgrwt>
</event>
<event>
 8    1  0.9400004E-006  0.3086375E+03  0.7546771E-02  0.1081001E+00
         21   -1    0    0  504  503  0.00000000000E+00  0.00000000000E+00  0.23473414084E+02  0.23473414084E+02  0.00000000000E+00 0.  1.
         21   -1    0    0  503  504 -0.00000000000E+00 -0.00000000000E+00 -0.10145214177E+04  0.10145214177E+04  0.00000000000E+00 0.  1.
         25    2    1    2    0    0  0.88894468676E+02  0.10811061283E+02 -0.45160725002E+03  0.47706819253E+03  0.12500338572E+03 0.  0.
         25    2    1    2    0    0 -0.88894468676E+02 -0.10811061283E+02 -0.53944075363E+03  0.56092663929E+03  0.12499304934E+03 0.  0.
          5    1    3    3  501    0 -0.23812581805E+02  0.31869250062E+01 -0.19662911579E+03  0.19814715420E+03  0.47000000000E+01 0.  1.
         -5    1    3    3    0  501  0.11270705048E+03  0.76241362767E+01 -0.25497813424E+03  0.27892103833E+03  0.47000000000E+01 0.  1.
          5    1    4    4  502    0  0.49097904308E+01 -0.37541180569E+01  0.44442435909E+01  0.89465493658E+01  0.47000000000E+01 0. -1.
         -5    1    4    4    0  502 -0.93804259107E+02 -0.70569432261E+01 -0.54388499722E+03  0.55198008992E+03  0.47000000000E+01 0. -1.
<mgrwt>
<rscale>  0 0.30863753E+03</rscale>
<asrwt>0</asrwt>
<pdfrwt beam="1">  1       21 0.36112946E-02 0.30863753E+03</pdfrwt>
<pdfrwt beam="2">  1       21 0.15608021E+00 0.30863753E+03</pdfrwt>
<totfact> 0.11948526E+05</totfact>
</mgrwt>
</event>
<event>
 8    1  0.9400004E-006  0.5092028E+03  0.7546771E-02  0.1011404E+00
         21   -1    0    0  504  503  0.00000000000E+00  0.00000000000E+00  0.11782502112E+03  0.11782502112E+03  0.00000000000E+00 0. -1.
         21   -1    0    0  503  504 -0.00000000000E+00 -0.00000000000E+00 -0.55015373850E+03  0.55015373850E+03  0.00000000000E+00 0. -1.
         25    2    1    2    0    0  0.19160659882E+03  0.10863640955E+03 -0.18188908671E+03  0.31180259651E+03  0.12498904407E+03 0.  0.
         25    2    1    2    0    0 -0.19160659882E+03 -0.10863640955E+03 -0.25043963068E+03  0.35617616311E+03  0.12500596930E+03 0.  0.
          5    1    3    3  501    0 -0.24574722797E+01  0.37730312544E+02 -0.25728717221E+01  0.38188025919E+02  0.47000000000E+01 0. -1.
         -5    1    3    3    0  501  0.19406407110E+03  0.70906097001E+02 -0.17931621498E+03  0.27361457059E+03  0.47000000000E+01 0. -1.
          5    1    4    4  502    0 -0.71182609636E+02  0.42622658878E+01 -0.14097215249E+03  0.15805179089E+03  0.47000000000E+01 0.  1.
         -5    1    4    4    0  502 -0.12042398919E+03 -0.11289867543E+03 -0.10946747819E+03  0.19812437222E+03  0.47000000000E+01 0.  1.
<mgrwt>
<rscale>  0 0.50920281E+03</rscale>
<asrwt>0</asrwt>
<pdfrwt beam="1">  1       21 0.18126926E-01 0.50920281E+03</pdfrwt>
<pdfrwt beam="2">  1       21 0.84639037E-01 0.50920281E+03</pdfrwt>
<totfact> 0.30109595E+04</totfact>
</mgrwt>
</event>
<event>
 8    1  0.9400004E-006  0.3590619E+03  0.7546771E-02  0.1058956E+00
         21   -1    0    0  504  503  0.00000000000E+00  0.00000000000E+00  0.17423481135E+03  0.17423481135E+03  0.00000000000E+00 0.  1.
         21   -1    0    0  503  504 -0.00000000000E+00 -0.00000000000E+00 -0.18498811644E+03  0.18498811644E+03  0.00000000000E+00 0.  1.
         25    2    1    2    0    0 -0.59168451227E+02  0.89219917317E+02  0.66382534517E+02  0.17746315270E+03  0.12500172163E+03 0.  0.
         25    2    1    2    0    0  0.59168451227E+02 -0.89219917317E+02 -0.77135839611E+02  0.18175977509E+03  0.12500231526E+03 0.  0.
          5    1    3    3  501    0 -0.63527079122E+02  0.66968087382E+02 -0.14298121728E+02  0.93525081098E+02  0.47000000000E+01 0.  1.
         -5    1    3    3    0  501  0.43586278948E+01  0.22251829935E+02  0.80680656245E+02  0.83938071604E+02  0.47000000000E+01 0.  1.
          5    1    4    4  502    0  0.44800607913E+02 -0.71978758148E+02 -0.11168212433E+03  0.14029619734E+03  0.47000000000E+01 0.  1.
         -5    1    4    4    0  502  0.14367843314E+02 -0.17241159169E+02  0.34546284722E+02  0.41463577741E+02  0.47000000000E+01 0.  1.
<mgrwt>
<rscale>  0 0.35906194E+03</rscale>
<asrwt>0</asrwt>
<pdfrwt beam="1">  1       21 0.26805355E-01 0.35906194E+03</pdfrwt>
<pdfrwt beam="2">  1       21 0.28459710E-01 0.35906194E+03</pdfrwt>
<totfact> 0.14959851E+05</totfact>
</mgrwt>
</event>
<event>
 8    1  0.9400004E-006  0.2793927E+03  0.7546771E-02  0.1096021E+00
         21   -1    0    0  504  503  0.00000000000E+00  0.00000000000E+00  0.18549479847E+03  0.18549479847E+03  0.00000000000E+00 0. -1.
         21   -1    0    0  503  504 -0.00000000000E+00 -0.00000000000E+00 -0.10520546337E+03  0.10520546337E+03  0.00000000000E+00 0. -1.
         25    2    1    2    0    0  0.58161036561E+02 -0.13356641717E+01  0.63577474991E+02  0.15182124113E+03  0.12499241481E+03 0.  0.
         25    2    1    2    0    0 -0.58161036561E+02  0.13356641717E+01  0.16711860108E+02  0.13887902070E+03  0.12499442368E+03 0.  0.
          5    1    3    3  501    0  0.22167644208E+02  0.50007851230E+02  0.69607522492E+02  0.88653746801E+02  0.47000000000E+01 0.  1.
         -5    1    3    3    0  501  0.35993392353E+02 -0.51343515402E+02 -0.60300475011E+01  0.63167494329E+02  0.47000000000E+01 0.  1.
          5    1    4    4  502    0 -0.12445617934E+01 -0.51874388246E+01 -0.50180694426E+02  0.50681856208E+02  0.47000000000E+01 0. -1.
         -5    1    4    4    0  502 -0.56916474768E+02  0.65231029963E+01  0.66892554534E+02  0.88197164494E+02  0.47000000000E+01 0. -1.
<mgrwt>
<rscale>  0 0.27939267E+03</rscale>
<asrwt>0</asrwt>
<pdfrwt beam="1">  1       21 0.28537661E-01 0.27939267E+03</pdfrwt>
<pdfrwt beam="2">  1       21 0.16185456E-01 0.27939267E+03</pdfrwt>
<totfact> 0.39365157E+05</totfact>
</mgrwt>
</event>
<event>
 8    1  0.9400004E-006  0.2981093E+03  0.7546771E-02  0.1086190E+00
         21   -1    0    0  504  503  0.00000000000E+00  0.00000000000E+00  0.58129419910E+03  0.58129419910E+03  0.00000000000E+00 0.  1.
         21   -1    0    0  503  504 -0.00000000000E+00 -0.00000000000E+00 -0.38220391519E+02  0.38220391519E+02  0.00000000000E+00 0.  1.
         25    2    1    2    0    0  0.24004791938E+02  0.66389540467E+02  0.35497473193E+03  0.38290405156E+03  0.12499860508E+03 0.  0.
         25    2    1    2    0    0 -0.24004791938E+02 -0.66389540467E+02  0.18809907564E+03  0.23661053905E+03  0.12497793331E+03 0.  0.
          5    1    3    3  501    0 -0.46131525843E+02  0.38073756754E+02  0.97252896888E+02  0.11427136379E+03  0.47000000000E+01 0. -1.
         -5    1    3    3    0  501  0.70136317781E+02  0.28315783713E+02  0.25772183505E+03  0.26863268777E+03  0.47000000000E+01 0. -1.
          5    1    4    4  502    0 -0.18625208792E+02 -0.24737768401E+02 -0.10908549952E+02  0.33165374264E+02  0.47000000000E+01 0.  1.
         -5    1    4    4    0  502 -0.53795831464E+01 -0.41651772066E+02  0.19900762559E+03  0.20344516479E+03  0.47000000000E+01 0.  1.
<mgrwt>
<rscale>  0 0.29810932E+03</rscale>
<asrwt>0</asrwt>
<pdfrwt beam="1">  1       21 0.89429870E-01 0.29810932E+03</pdfrwt>
<pdfrwt beam="2">  1       21 0.58800607E-02 0.29810932E+03</pdfrwt>
<totfact> 0.21110248E+05</totfact>
</mgrwt>
</event>
<event>
 8    1  0.9400004E-006  0.3662499E+03  0.7546771E-02  0.1056136E+00
         21   -1    0    0  504  503  0.00000000000E+00  0.00000000000E+00  0.31071834541E+03  0.31071834541E+03  0.00000000000E+00 0.  1.
         21   -1    0    0  503  504 -0.00000000000E+00 -0.00000000000E+00 -0.10792648939E+03  0.10792648939E+03  0.00000000000E+00 0.  1.
         25    2    1    2    0    0 -0.67192930220E+02  0.88298905538E+02  0.15874092899E+02  0.16789264054E+03  0.12499746131E+03 0.  0.
         25    2    1    2    0    0  0.67192930220E+02 -0.88298905538E+02  0.18691776312E+03  0.25075219425E+03  0.12500730443E+03 0.  0.
          5    1    3    3  501    0 -0.22402591184E+02  0.11249762333E+03  0.16090160612E+01  0.11481406830E+03  0.47000000000E+01 0. -1.
         -5    1    3    3    0  501 -0.44790339036E+02 -0.24198717797E+02  0.14265076838E+02  0.53078572241E+02  0.47000000000E+01 0. -1.
          5    1    4    4  502    0  0.14778128468E+02 -0.81791821316E+02  0.35834584819E+02  0.90633893132E+02  0.47000000000E+01 0. -1.
         -5    1    4    4    0  502  0.52414801752E+02 -0.65070842219E+01  0.15108317830E+03  0.16011830112E+03  0.47000000000E+01 0. -1.
<mgrwt>
<rscale>  0 0.36624986E+03</rscale>
<asrwt>0</asrwt>
<pdfrwt beam="1">  1       21 0.47802822E-01 0.36624986E+03</pdfrwt>
<pdfrwt beam="2">  1       21 0.16604075E-01 0.36624986E+03</pdfrwt>
<totfact> 0.12980001E+05</totfact>
</mgrwt>
</event>
<event>
 8    1  0.9400004E-006  0.3084691E+03  0.7546771E-02  0.1081082E+00
         21   -1    0    0  504  503  0.00000000000E+00  0.00000000000E+00  0.14199705308E+03  0.14199705308E+03  0.00000000000E+00 0. -1.
         21   -1    0    0  503  504 -0.00000000000E+00 -0.00000000000E+00 -0.16752670589E+03  0.16752670589E+03  0.00000000000E+00 0. -1.
         25    2    1    2    0    0  0.55895631856E+02  0.54317543558E+02 -0.58620738068E+02  0.15854309167E+03  0.12499921515E+03 0.  0.
         25    2    1    2    0    0 -0.55895631856E+02 -0.54317543558E+02  0.33091085260E+02  0.15098066730E+03  0.12500169909E+03 0.  0.
          5    1    3    3  501    0  0.68707145872E+02  0.15969030178E+02 -0.84604160351E+02  0.11025259982E+03  0.47000000000E+01 0.  1.
         -5    1    3    3    0  501 -0.12811514017E+02  0.38348513381E+02  0.25983422282E+02  0.48290491853E+02  0.47000000000E+01 0.  1.
          5    1    4    4  502    0 -0.61975113235E+02 -0.70386184255E+02  0.65162533390E+02  0.11429512392E+03  0.47000000000E+01 0. -1.
         -5    1    4    4    0  502  0.60794813793E+01  0.16068640697E+02 -0.32071448131E+02  0.36685543377E+02  0.47000000000E+01 0. -1.
<mgrwt>
<rscale>  0 0.30846911E+03</rscale>
<asrwt>0</asrwt>
<pdfrwt beam="1">  1       21 0.21845700E-01 0.30846911E+03</pdfrwt>
<pdfrwt beam="2">  1       21 0.25773339E-01 0.30846911E+03</pdfrwt>
<totfact> 0.27199527E+05</totfact>
</mgrwt>
</event>
<event>
 8    1  0.9400004E-006  0.3198607E+03  0.7546771E-02  0.1075713E+00
         21   -1    0    0  504  503  0.00000000000E+00  0.00000000000E+00  0.24489322350E+03  0.24489322350E+03  0.00000000000E+00 0. -1.
         21   -1    0    0  503  504 -0.00000000000E+00 -0.00000000000E+00 -0.10444436332E+03  0.10444436332E+03  0.00000000000E+00 0. -1.
         25    2    1    2    0    0 -0.38137252261E+02 -0.62312431131E+02 -0.39691179783E+01  0.14483931443E+03  0.12500153608E+03 0.  0.
         25    2    1    2    0    0  0.38137252261E+02  0.62312431131E+02  0.14441797816E+03  0.20449827239E+03  0.12500280761E+03 0.  0.
          5    1    3    3  501    0  0.24705671623E+02 -0.75804174409E+02  0.36110706990E+01  0.79948564089E+02  0.47000000000E+01 0.  1.
         -5    1    3    3    0  501 -0.62842923884E+02  0.13491743278E+02 -0.75801886773E+01  0.64890750338E+02  0.47000000000E+01 0.  1.
          5    1    4    4  502    0  0.51607685005E+02  0.95053103779E+02  0.11753786966E+03  0.15979889391E+03  0.47000000000E+01 0.  1.
         -5    1    4    4    0  502 -0.13470432744E+02 -0.32740672648E+02  0.26880108494E+02  0.44699378479E+02  0.47000000000E+01 0.  1.
<mgrwt>
<rscale>  0 0.31986070E+03</rscale>
<asrwt>0</asrwt>
<pdfrwt beam="1">  1       21 0.37675880E-01 0.31986070E+03</pdfrwt>
<pdfrwt beam="2">  1       21 0.16068364E-01 0.31986070E+03</pdfrwt>
<totfact> 0.22772884E+05</totfact>
</mgrwt>
</event>
<event>
 8    1  0.9400004E-006  0.7042368E+03  0.7546771E-02  0.9710014E-01
         21   -1    0    0  504  503  0.00000000000E+00  0.00000000000E+00  0.84412758926E+03  0.84412758926E+03  0.00000000000E+00 0.  1.
         21   -1    0    0  503  504 -0.00000000000E+00 -0.00000000000E+00 -0.14688224599E+03  0.14688224599E+03  0.00000000000E+00 0.  1.
         25    2    1    2    0    0 -0.16937508519E+03  0.27973399872E+03  0.40170782551E+03  0.53285430757E+03  0.12500202598E+03 0.  0.
         25    2    1    2    0    0  0.16937508519E+03 -0.27973399872E+03  0.29553751776E+03  0.45815552768E+03  0.12500013449E+03 0.  0.
          5    1    3    3  501    0 -0.13136107834E+03  0.18204880039E+03  0.35010714555E+03  0.41592619777E+03  0.47000000000E+01 0. -1.
         -5    1    3    3    0  501 -0.38014006857E+02  0.97685198323E+02  0.51600679952E+02  0.11692810980E+03  0.47000000000E+01 0. -1.
          5    1    4    4  502    0  0.66354914939E+02 -0.20728570361E+02  0.42189058218E+02  0.81453391576E+02  0.47000000000E+01 0.  1.
         -5    1    4    4    0  502  0.10302017025E+03 -0.25900542836E+03  0.25334845954E+03  0.37670213611E+03  0.47000000000E+01 0.  1.
<mgrwt>
<rscale>  0 0.70423677E+03</rscale>
<asrwt>0</asrwt>
<pdfrwt beam="1">  1       21 0.12986578E+00 0.70423677E+03</pdfrwt>
<pdfrwt beam="2">  1       21 0.22597269E-01 0.70423677E+03</pdfrwt>
<totfact> 0.65555582E+03</totfact>
</mgrwt>
</event>
<event>
 8    1  0.9400004E-006  0.2521629E+03  0.7546771E-02  0.1111946E+00
         21   -1    0    0  504  503  0.00000000000E+00  0.00000000000E+00  0.15796321061E+04  0.15796321061E+04  0.00000000000E+00 0. -1.
         21   -1    0    0  503  504 -0.00000000000E+00 -0.00000000000E+00 -0.10063439236E+02  0.10063439236E+02  0.00000000000E+00 0. -1.
         25    2    1    2    0    0 -0.13876649094E+02  0.66360346175E+01  0.74808249771E+03  0.75861152101E+03  0.12500967193E+03 0.  0.
         25    2    1    2    0    0  0.13876649094E+02 -0.66360346175E+01  0.82148616916E+03  0.83108402434E+03  0.12499812416E+03 0.  0.
          5    1    3    3  501    0 -0.69319771924E+02  0.72675644254E+01  0.44788818531E+03  0.45330339157E+03  0.47000000000E+01 0.  1.
         -5    1    3    3    0  501  0.55443122830E+02 -0.63152980790E+00  0.30019431241E+03  0.30530812944E+03  0.47000000000E+01 0.  1.
          5    1    4    4  502    0 -0.46244241658E+02 -0.17434566726E+02  0.57341405848E+03  0.57555909033E+03  0.47000000000E+01 0.  1.
         -5    1    4    4    0  502  0.60120890752E+02  0.10798532109E+02  0.24807211068E+03  0.25552493401E+03  0.47000000000E+01 0.  1.
<mgrwt>
<rscale>  0 0.25216290E+03</rscale>
<asrwt>0</asrwt>
<pdfrwt beam="1">  1       21 0.24302013E+00 0.25216290E+03</pdfrwt>
<pdfrwt beam="2">  1       21 0.15482227E-02 0.25216290E+03</pdfrwt>
<totfact> 0.13158455E+05</totfact>
</mgrwt>
</event>
<event>
 8    1  0.9400004E-006  0.3729536E+03  0.7546771E-02  0.1053569E+00
         21   -1    0    0  504  503  0.00000000000E+00  0.00000000000E+00  0.33746380261E+04  0.33746380261E+04  0.00000000000E+00 0.  1.
         21   -1    0    0  503  504 -0.00000000000E+00 -0.00000000000E+00 -0.10304392758E+02  0.10304392758E+02  0.00000000000E+00 0.  1.
         25    2    1    2    0    0  0.12010020399E+03  0.53179542529E+02  0.12870029944E+04  0.12997131815E+04  0.12500209598E+03 0.  0.
         25    2    1    2    0    0 -0.12010020399E+03 -0.53179542529E+02  0.20773306390E+04  0.20852292374E+04  0.12500506321E+03 0.  0.
          5    1    3    3  501    0  0.12629112783E+03  0.80903873779E+02  0.11474987452E+04  0.11572684848E+04  0.47000000000E+01 0.  1.
         -5    1    3    3    0  501 -0.61909238427E+01 -0.27724331250E+02  0.13950424920E+03  0.14244469672E+03  0.47000000000E+01 0.  1.
          5    1    4    4  502    0 -0.55036949518E+02 -0.87127388298E+02  0.97320126908E+03  0.97865369143E+03  0.47000000000E+01 0. -1.
         -5    1    4    4    0  502 -0.65063254472E+02  0.33947845770E+02  0.11041293699E+04  0.11065755459E+04  0.47000000000E+01 0. -1.
<mgrwt>
<rscale>  0 0.37295359E+03</rscale>
<asrwt>0</asrwt>
<pdfrwt beam="1">  1       21 0.51917420E+00 0.37295359E+03</pdfrwt>
<pdfrwt beam="2">  1       21 0.15852939E-02 0.37295359E+03</pdfrwt>
<totfact> 0.20613407E+03</totfact>
</mgrwt>
</event>
<event>
 8    1  0.9400004E-006  0.2953477E+03  0.7546771E-02  0.1087590E+00
         21   -1    0    0  504  503  0.00000000000E+00  0.00000000000E+00  0.26235346575E+03  0.26235346575E+03  0.00000000000E+00 0.  1.
         21   -1    0    0  503  504 -0.00000000000E+00 -0.00000000000E+00 -0.83122816217E+02  0.83122816217E+02  0.00000000000E+00 0.  1.
         25    2    1    2    0    0  0.74211593190E+02 -0.24859889347E+02  0.99066165279E+02  0.17766559865E+03  0.12500234069E+03 0.  0.
         25    2    1    2    0    0 -0.74211593190E+02  0.24859889347E+02  0.80164484254E+02  0.16781068332E+03  0.12493480795E+03 0.  0.
          5    1    3    3  501    0  0.68123053569E+02  0.19278870718E+02  0.22557449976E+01  0.70990166003E+02  0.47000000000E+01 0. -1.
         -5    1    3    3    0  501  0.60885396215E+01 -0.44138760064E+02  0.96810420281E+02  0.10667543264E+03  0.47000000000E+01 0. -1.
          5    1    4    4  502    0 -0.75036750634E+02 -0.35807776330E+02  0.28608346954E+02  0.88052474734E+02  0.47000000000E+01 0. -1.
         -5    1    4    4    0  502  0.82515744377E+00  0.60667665676E+02  0.51556137300E+02  0.79758208585E+02  0.47000000000E+01 0. -1.
<mgrwt>
<rscale>  0 0.29534765E+03</rscale>
<asrwt>0</asrwt>
<pdfrwt beam="1">  1       21 0.40362071E-01 0.29534765E+03</pdfrwt>
<pdfrwt beam="2">  1       21 0.12788126E-01 0.29534765E+03</pdfrwt>
<totfact> 0.30234706E+05</totfact>
</mgrwt>
</event>
<event>
 8    1  0.9400004E-006  0.3093110E+03  0.7546771E-02  0.1080677E+00
         21   -1    0    0  504  503  0.00000000000E+00  0.00000000000E+00  0.60478073281E+03  0.60478073281E+03  0.00000000000E+00 0.  1.
         21   -1    0    0  503  504 -0.00000000000E+00 -0.00000000000E+00 -0.39548757779E+02  0.39548757779E+02  0.00000000000E+00 0.  1.
         25    2    1    2    0    0 -0.14857808096E+02 -0.94015865476E+00  0.95471926675E+02  0.15799378571E+03  0.12500203670E+03 0.  0.
         25    2    1    2    0    0  0.14857808096E+02  0.94015865476E+00  0.46976004835E+03  0.48633570488E+03  0.12500510570E+03 0.  0.
          5    1    3    3  501    0  0.54687292002E+02  0.77448271689E+01  0.46660211849E+02  0.72456522302E+02  0.47000000000E+01 0. -1.
         -5    1    3    3    0  501 -0.69545100098E+02 -0.86849858237E+01  0.48811714826E+02  0.85537263404E+02  0.47000000000E+01 0. -1.
          5    1    4    4  502    0 -0.46393720028E+02  0.32479877892E+02  0.20978485199E+03  0.21734556322E+03  0.47000000000E+01 0.  1.
         -5    1    4    4    0  502  0.61251528124E+02 -0.31539719237E+02  0.25997519637E+03  0.26899014166E+03  0.47000000000E+01 0.  1.
<mgrwt>
<rscale>  0 0.30931102E+03</rscale>
<asrwt>0</asrwt>
<pdfrwt beam="1">  1       21 0.93043183E-01 0.30931102E+03</pdfrwt>
<pdfrwt beam="2">  1       21 0.60844247E-02 0.30931102E+03</pdfrwt>
<totfact> 0.18081676E+05</totfact>
</mgrwt>
</event>
<event>
 8    1  0.9400004E-006  0.6212270E+03  0.7546771E-02  0.9862320E-01
         21   -1    0    0  504  503  0.00000000000E+00  0.00000000000E+00  0.26396026171E+03  0.26396026171E+03  0.00000000000E+00 0.  1.
         21   -1    0    0  503  504 -0.00000000000E+00 -0.00000000000E+00 -0.36551244924E+03  0.36551244924E+03  0.00000000000E+00 0.  1.
         25    2    1    2    0    0 -0.91771365286E+02  0.14229737639E+03  0.18069837562E+03  0.27739365030E+03  0.12499922985E+03 0.  0.
         25    2    1    2    0    0  0.91771365286E+02 -0.14229737639E+03 -0.28225056315E+03  0.35207906064E+03  0.12499503083E+03 0.  0.
          5    1    3    3  501    0 -0.37427789999E+02  0.14713609837E+03  0.15459656804E+03  0.21673038494E+03  0.47000000000E+01 0. -1.
         -5    1    3    3    0  501 -0.54343575287E+02 -0.48387219800E+01  0.26101807581E+02  0.60663265362E+02  0.47000000000E+01 0. -1.
          5    1    4    4  502    0  0.32409501791E+02 -0.12089134786E+03 -0.10356671229E+03  0.16252152993E+03  0.47000000000E+01 0. -1.
         -5    1    4    4    0  502  0.59361863495E+02 -0.21406028528E+02 -0.17868385086E+03  0.18955753072E+03  0.47000000000E+01 0. -1.
<mgrwt>
<rscale>  0 0.62122705E+03</rscale>
<asrwt>0</asrwt>
<pdfrwt beam="1">  1       21 0.40609271E-01 0.62122705E+03</pdfrwt>
<pdfrwt beam="2">  1       21 0.56232684E-01 0.62122705E+03</pdfrwt>
<totfact> 0.15053255E+04</totfact>
</mgrwt>
</event>
<event>
 8    1  0.9400004E-006  0.3022947E+03  0.7546771E-02  0.1084099E+00
         21   -1    0    0  504  503  0.00000000000E+00  0.00000000000E+00  0.15414828046E+04  0.15414828046E+04  0.00000000000E+00 0.  1.
         21   -1    0    0  503  504 -0.00000000000E+00 -0.00000000000E+00 -0.14820484649E+02  0.14820484649E+02  0.00000000000E+00 0.  1.
         25    2    1    2    0    0 -0.16480290611E+02 -0.42137294624E+02  0.11336211711E+04  0.11413895164E+04  0.12500366835E+03 0.  0.
         25    2    1    2    0    0  0.16480290611E+02  0.42137294624E+02  0.39304114891E+03  0.41491377286E+03  0.12499977040E+03 0.  0.
          5    1    3    3  501    0  0.29845526372E+01  0.29109901539E+02  0.82426575589E+02  0.87592946551E+02  0.47000000000E+01 0. -1.
         -5    1    3    3    0  501 -0.19464843248E+02 -0.71247196163E+02  0.10511945955E+04  0.10537965698E+04  0.47000000000E+01 0. -1.
          5    1    4    4  502    0 -0.36269643997E+02 -0.22328863601E+02  0.77806330394E+02  0.88825560931E+02  0.47000000000E+01 0.  1.
         -5    1    4    4    0  502  0.52749934607E+02  0.64466158226E+02  0.31523481851E+03  0.32608821193E+03  0.47000000000E+01 0.  1.
<mgrwt>
<rscale>  0 0.30229471E+03</rscale>
<asrwt>0</asrwt>
<pdfrwt beam="1">  1       21 0.23715107E+00 0.30229471E+03</pdfrwt>
<pdfrwt beam="2">  1       21 0.22800758E-02 0.30229471E+03</pdfrwt>
<totfact> 0.73984390E+04</totfact>
</mgrwt>
</event>
<event>
 8    1  0.9400004E-006  0.2696052E+03  0.7546771E-02  0.1101506E+00
         21   -1    0    0  504  503  0.00000000000E+00  0.00000000000E+00  0.31694574465E+03  0.31694574465E+03  0.00000000000E+00 0. -1.
         21   -1    0    0  503  504 -0.00000000000E+00 -0.00000000000E+00 -0.57333900337E+02  0.57333900337E+02  0.00000000000E+00 0. -1.
         25    2    1    2    0    0  0.26459734134E+02  0.38339343550E+02  0.15675488575E+03  0.20583207557E+03  0.12499890532E+03 0.  0.
         25    2    1    2    0    0 -0.26459734134E+02 -0.38339343550E+02  0.10285695856E+03  0.16844756942E+03  0.12500002770E+03 0.  0.
          5    1    3    3  501    0 -0.37765663745E+02  0.25670620341E+02  0.12854416683E+02  0.47671292568E+02  0.47000000000E+01 0.  1.
         -5    1    3    3    0  501  0.64225397879E+02  0.12668723209E+02  0.14390046907E+03  0.15816078300E+03  0.47000000000E+01 0.  1.
          5    1    4    4  502    0  0.41846308357E+02 -0.14868177032E+02  0.25185920524E+01  0.44728173641E+02  0.47000000000E+01 0. -1.
         -5    1    4    4    0  502 -0.68306042491E+02 -0.23471166518E+02  0.10033836651E+03  0.12371939578E+03  0.47000000000E+01 0. -1.
<mgrwt>
<rscale>  0 0.26960516E+03</rscale>
<asrwt>0</asrwt>
<pdfrwt beam="1">  1       21 0.48760883E-01 0.26960516E+03</pdfrwt>
<pdfrwt beam="2">  1       21 0.88206002E-02 0.26960516E+03</pdfrwt>
<totfact> 0.39946394E+05</totfact>
</mgrwt>
</event>
<event>
 8    1  0.9400004E-006  0.3411800E+03  0.7546771E-02  0.1066294E+00
         21   -1    0    0  504  503  0.00000000000E+00  0.00000000000E+00  0.21315791543E+04  0.21315791543E+04  0.00000000000E+00 0.  1.
         21   -1    0    0  503  504 -0.00000000000E+00 -0.00000000000E+00 -0.13652295452E+02  0.13652295452E+02  0.00000000000E+00 0.  1.
         25    2    1    2    0    0 -0.99875736012E+02  0.19384407759E+01  0.68678537664E+03  0.70517966183E+03  0.12500112676E+03 0.  0.
         25    2    1    2    0    0  0.99875736012E+02 -0.19384407759E+01  0.14311414822E+04  0.14400517880E+04  0.12491713099E+03 0.  0.
          5    1    3    3  501    0  0.20959154137E+02  0.10462524646E+02  0.36048211463E+02  0.43247128388E+02  0.47000000000E+01 0. -1.
         -5    1    3    3    0  501 -0.12083489015E+03 -0.85240838703E+01  0.65073716518E+03  0.66193253344E+03  0.47000000000E+01 0. -1.
          5    1    4    4  502    0 -0.28914067032E+02  0.36027259189E+00  0.19162556451E+03  0.19385200552E+03  0.47000000000E+01 0. -1.
         -5    1    4    4    0  502  0.12878980304E+03 -0.22987133678E+01  0.12395159177E+04  0.12461997824E+04  0.47000000000E+01 0. -1.
<mgrwt>
<rscale>  0 0.34118000E+03</rscale>
<asrwt>0</asrwt>
<pdfrwt beam="1">  1       21 0.32793499E+00 0.34118000E+03</pdfrwt>
<pdfrwt beam="2">  1       21 0.21003548E-02 0.34118000E+03</pdfrwt>
<totfact> 0.23849048E+04</totfact>
</mgrwt>
</event>
<event>
 8    1  0.9400004E-006  0.4438171E+03  0.7546771E-02  0.1029582E+00
         21   -1    0    0  504  503  0.00000000000E+00  0.00000000000E+00  0.16312163770E+03  0.16312163770E+03  0.00000000000E+00 0. -1.
         21   -1    0    0  503  504 -0.00000000000E+00 -0.00000000000E+00 -0.30188155297E+03  0.30188155297E+03  0.00000000000E+00 0. -1.
         25    2    1    2    0    0  0.15114522571E+03 -0.10234643848E+03 -0.87478130488E+02  0.23790246658E+03  0.12500195026E+03 0.  0.
         25    2    1    2    0    0 -0.15114522571E+03  0.10234643848E+03 -0.51281784780E+02  0.22710072410E+03  0.12500097885E+03 0.  0.
          5    1    3    3  501    0  0.10801802836E+03  0.19951220087E+01 -0.46280833299E+02  0.11762601963E+03  0.47000000000E+01 0.  1.
         -5    1    3    3    0  501  0.43127197344E+02 -0.10434156048E+03 -0.41197297189E+02  0.12027644695E+03  0.47000000000E+01 0.  1.
          5    1    4    4  502    0 -0.10489641336E+03  0.12556702036E+03 -0.16374839850E+02  0.16450094078E+03  0.47000000000E+01 0.  1.
         -5    1    4    4    0  502 -0.46248812347E+02 -0.23220581886E+02 -0.34906944930E+02  0.62599783314E+02  0.47000000000E+01 0.  1.
<mgrwt>
<rscale>  0 0.44381714E+03</rscale>
<asrwt>0</asrwt>
<pdfrwt beam="1">  1       21 0.25095637E-01 0.44381714E+03</pdfrwt>
<pdfrwt beam="2">  1       21 0.46443315E-01 0.44381714E+03</pdfrwt>
<totfact> 0.61819430E+04</totfact>
</mgrwt>
</event>
<event>
 8    1  0.9400004E-006  0.2973860E+03  0.7546771E-02  0.1086555E+00
         21   -1    0    0  504  503  0.00000000000E+00  0.00000000000E+00  0.11614400817E+03  0.11614400817E+03  0.00000000000E+00 0.  1.
         21   -1    0    0  503  504 -0.00000000000E+00 -0.00000000000E+00 -0.19036373175E+03  0.19036373175E+03  0.00000000000E+00 0.  1.
         25    2    1    2    0    0  0.67016601455E+02  0.22383463349E+02 -0.76916795512E+02  0.16289337903E+03  0.12500326075E+03 0.  0.
         25    2    1    2    0    0 -0.67016601455E+02 -0.22383463349E+02  0.26970719281E+01  0.14361436090E+03  0.12500226461E+03 0.  0.
          5    1    3    3  501    0 -0.27676741453E+02 -0.97918623401E+01 -0.51710255471E+02  0.59648328613E+02  0.47000000000E+01 0.  1.
         -5    1    3    3    0  501  0.94693342908E+02  0.32175325689E+02 -0.25206540041E+02  0.10324505041E+03  0.47000000000E+01 0.  1.
          5    1    4    4  502    0 -0.53156633997E+02  0.47838713871E+02  0.50434600500E+01  0.71844949524E+02  0.47000000000E+01 0. -1.
         -5    1    4    4    0  502 -0.13859967458E+02 -0.70222177221E+02 -0.23463881219E+01  0.71769411373E+02  0.47000000000E+01 0. -1.
<mgrwt>
<rscale>  0 0.29738599E+03</rscale>
<asrwt>0</asrwt>
<pdfrwt beam="1">  1       21 0.17868309E-01 0.29738599E+03</pdfrwt>
<pdfrwt beam="2">  1       21 0.29286727E-01 0.29738599E+03</pdfrwt>
<totfact> 0.31032611E+05</totfact>
</mgrwt>
</event>
<event>
 8    1  0.9400004E-006  0.3350318E+03  0.7546771E-02  0.1068932E+00
         21   -1    0    0  504  503  0.00000000000E+00  0.00000000000E+00  0.76264337728E+02  0.76264337728E+02  0.00000000000E+00 0. -1.
         21   -1    0    0  503  504 -0.00000000000E+00 -0.00000000000E+00 -0.36795143996E+03  0.36795143996E+03  0.00000000000E+00 0. -1.
         25    2    1    2    0    0 -0.19261768508E+02 -0.74652989743E+02 -0.39001811301E+02  0.15195081532E+03  0.12499529746E+03 0.  0.
         25    2    1    2    0    0  0.19261768508E+02  0.74652989743E+02 -0.25268529093E+03  0.29226496237E+03  0.12499946949E+03 0.  0.
          5    1    3    3  501    0  0.33615296278E+02  0.11676290563E+02 -0.35591093684E+02  0.50548391218E+02  0.47000000000E+01 0.  1.
         -5    1    3    3    0  501 -0.52877064786E+02 -0.86329280307E+02 -0.34107176174E+01  0.10140242410E+03  0.47000000000E+01 0.  1.
          5    1    4    4  502    0 -0.34608118407E+02  0.85839889502E+01 -0.13698220466E+02  0.38485555341E+02  0.47000000000E+01 0. -1.
         -5    1    4    4    0  502  0.53869886915E+02  0.66069000793E+02 -0.23898707047E+03  0.25377940703E+03  0.47000000000E+01 0. -1.
<mgrwt>
<rscale>  0 0.33503178E+03</rscale>
<asrwt>0</asrwt>
<pdfrwt beam="1">  1       21 0.11732975E-01 0.33503178E+03</pdfrwt>
<pdfrwt beam="2">  1       21 0.56607915E-01 0.33503178E+03</pdfrwt>
<totfact> 0.17243419E+05</totfact>
</mgrwt>
</event>
<event>
 8    1  0.9400004E-006  0.3214885E+03  0.7546771E-02  0.1074966E+00
         21   -1    0    0  504  503  0.00000000000E+00  0.00000000000E+00  0.68360915328E+03  0.68360915328E+03  0.00000000000E+00 0. -1.
         21   -1    0    0  503  504 -0.00000000000E+00 -0.00000000000E+00 -0.37797485348E+02  0.37797485348E+02  0.00000000000E+00 0. -1.
         25    2    1    2    0    0 -0.90188505204E+02 -0.26559426851E+02  0.23980011765E+03  0.28630185963E+03  0.12500115509E+03 0.  0.
         25    2    1    2    0    0  0.90188505204E+02  0.26559426851E+02  0.40601155027E+03  0.43510477900E+03  0.12502567786E+03 0.  0.
          5    1    3    3  501    0 -0.11774195138E+03 -0.12457250015E+02  0.21809849186E+03  0.24820836478E+03  0.47000000000E+01 0.  1.
         -5    1    3    3    0  501  0.27553446178E+02 -0.14102176836E+02  0.21701625793E+02  0.38093494850E+02  0.47000000000E+01 0.  1.
          5    1    4    4  502    0  0.89518880823E+02 -0.12936166462E+02  0.14417048375E+03  0.17025919303E+03  0.47000000000E+01 0. -1.
         -5    1    4    4    0  502  0.66962438092E+00  0.39495593313E+02  0.26184106653E+03  0.26484558597E+03  0.47000000000E+01 0. -1.
<mgrwt>
<rscale>  0 0.32148846E+03</rscale>
<asrwt>0</asrwt>
<pdfrwt beam="1">  1       21 0.10517063E+00 0.32148846E+03</pdfrwt>
<pdfrwt beam="2">  1       21 0.58149983E-02 0.32148846E+03</pdfrwt>
<totfact> 0.14528313E+05</totfact>
</mgrwt>
</event>
<event>
 8    1  0.9400004E-006  0.4971998E+03  0.7546771E-02  0.1014512E+00
         21   -1    0    0  504  503  0.00000000000E+00  0.00000000000E+00  0.11649687408E+03  0.11649687408E+03  0.00000000000E+00 0. -1.
         21   -1    0    0  503  504 -0.00000000000E+00 -0.00000000000E+00 -0.53050272495E+03  0.53050272495E+03  0.00000000000E+00 0. -1.
         25    2    1    2    0    0  0.83475544414E+02  0.12952432026E+02  0.50116036152E+02  0.15897021529E+03  0.12499592098E+03 0.  0.
         25    2    1    2    0    0 -0.83475544414E+02 -0.12952432026E+02 -0.46412188702E+03  0.48802938373E+03  0.12501048502E+03 0.  0.
          5    1    3    3  501    0 -0.78464877366E+01 -0.41836218609E+02  0.24492688274E+02  0.49333744396E+02  0.47000000000E+01 0.  1.
         -5    1    3    3    0  501  0.91322032151E+02  0.54788650635E+02  0.25623347878E+02  0.10963647090E+03  0.47000000000E+01 0.  1.
          5    1    4    4  502    0  0.30338249546E+02  0.98650143558E+01 -0.14151423009E+03  0.14514163845E+03  0.47000000000E+01 0.  1.
         -5    1    4    4    0  502 -0.11381379396E+03 -0.22817446382E+02 -0.32260765693E+03  0.34288774528E+03  0.47000000000E+01 0.  1.
<mgrwt>
<rscale>  0 0.49719980E+03</rscale>
<asrwt>0</asrwt>
<pdfrwt beam="1">  1       21 0.17922596E-01 0.49719980E+03</pdfrwt>
<pdfrwt beam="2">  1       21 0.81615804E-01 0.49719980E+03</pdfrwt>
<totfact> 0.33574453E+04</totfact>
</mgrwt>
</event>
<event>
 8    1  0.9400004E-006  0.3193282E+03  0.7546771E-02  0.1075959E+00
         21   -1    0    0  504  503  0.00000000000E+00  0.00000000000E+00  0.44410848507E+03  0.44410848507E+03  0.00000000000E+00 0.  1.
         21   -1    0    0  503  504 -0.00000000000E+00 -0.00000000000E+00 -0.57401807674E+02  0.57401807674E+02  0.00000000000E+00 0.  1.
         25    2    1    2    0    0  0.37546691461E+02 -0.44133092164E+01  0.49085133990E+02  0.13951292634E+03  0.12500109959E+03 0.  0.
         25    2    1    2    0    0 -0.37546691461E+02  0.44133092164E+01  0.33762154340E+03  0.36199736640E+03  0.12499822148E+03 0.  0.
          5    1    3    3  501    0 -0.13608977155E+02 -0.44167816269E+02  0.57601343338E+02  0.74000033835E+02  0.47000000000E+01 0. -1.
         -5    1    3    3    0  501  0.51155668616E+02  0.39754507052E+02 -0.85162093486E+01  0.65512892504E+02  0.47000000000E+01 0. -1.
          5    1    4    4  502    0 -0.94093386863E+01 -0.71028271159E+01 -0.80044710364E+01  0.15004911333E+02  0.47000000000E+01 0.  1.
         -5    1    4    4    0  502 -0.28137352774E+02  0.11516136332E+02  0.34562601444E+03  0.34699245507E+03  0.47000000000E+01 0.  1.
<mgrwt>
<rscale>  0 0.31932823E+03</rscale>
<asrwt>0</asrwt>
<pdfrwt beam="1">  1       21 0.68324380E-01 0.31932823E+03</pdfrwt>
<pdfrwt beam="2">  1       21 0.88310476E-02 0.31932823E+03</pdfrwt>
<totfact> 0.19059049E+05</totfact>
</mgrwt>
</event>
<event>
 8    1  0.9400004E-006  0.3161363E+03  0.7546771E-02  0.1077441E+00
         21   -1    0    0  504  503  0.00000000000E+00  0.00000000000E+00  0.46570555444E+03  0.46570555444E+03  0.00000000000E+00 0. -1.
         21   -1    0    0  503  504 -0.00000000000E+00 -0.00000000000E+00 -0.53650936004E+02  0.53650936004E+02  0.00000000000E+00 0. -1.
         25    2    1    2    0    0  0.89673787370E+02  0.30903710212E+02  0.23733268188E+03  0.28451447016E+03  0.12500101757E+03 0.  0.
         25    2    1    2    0    0 -0.89673787370E+02 -0.30903710212E+02  0.17472193656E+03  0.23484202029E+03  0.12500636757E+03 0.  0.
          5    1    3    3  501    0  0.54369785529E+02  0.73722956416E+02  0.19169482686E+03  0.21250916339E+03  0.47000000000E+01 0.  1.
         -5    1    3    3    0  501  0.35304001841E+02 -0.42819246205E+02  0.45637855024E+02  0.72005306768E+02  0.47000000000E+01 0.  1.
          5    1    4    4  502    0 -0.51210153380E+02  0.44436909487E+02  0.10521133000E+03  0.12525427216E+03  0.47000000000E+01 0. -1.
         -5    1    4    4    0  502 -0.38463633990E+02 -0.75340619698E+02  0.69510606563E+02  0.10958774813E+03  0.47000000000E+01 0. -1.
<mgrwt>
<rscale>  0 0.31613629E+03</rscale>
<asrwt>0</asrwt>
<pdfrwt beam="1">  1       21 0.71647006E-01 0.31613629E+03</pdfrwt>
<pdfrwt beam="2">  1       21 0.82539905E-02 0.31613629E+03</pdfrwt>
<totfact> 0.19329336E+05</totfact>
</mgrwt>
</event>
<event>
 8    1  0.9400004E-006  0.2904576E+03  0.7546771E-02  0.1090110E+00
         21   -1    0    0  504  503  0.00000000000E+00  0.00000000000E+00  0.25281998289E+03  0.25281998289E+03  0.00000000000E+00 0. -1.
         21   -1    0    0  503  504 -0.00000000000E+00 -0.00000000000E+00 -0.83424602079E+02  0.83424602079E+02  0.00000000000E+00 0. -1.
         25    2    1    2    0    0  0.63614125678E+02  0.30191502002E+02  0.58608895207E+02  0.15497553676E+03  0.12499652243E+03 0.  0.
         25    2    1    2    0    0 -0.63614125678E+02 -0.30191502002E+02  0.11078648560E+03  0.18126904821E+03  0.12500615451E+03 0.  0.
          5    1    3    3  501    0  0.64948927419E+02 -0.28502500262E+02  0.64239473600E+02  0.95809997717E+02  0.47000000000E+01 0.  1.
         -5    1    3    3    0  501 -0.13348017410E+01  0.58694002264E+02 -0.56305783937E+01  0.59165539045E+02  0.47000000000E+01 0.  1.
          5    1    4    4  502    0 -0.70908038754E+02 -0.62314497426E+02  0.39189780049E+02  0.10231801117E+03  0.47000000000E+01 0. -1.
         -5    1    4    4    0  502  0.72939130766E+01  0.32122995423E+02  0.71596705556E+02  0.78951037038E+02  0.47000000000E+01 0. -1.
<mgrwt>
<rscale>  0 0.29045761E+03</rscale>
<asrwt>0</asrwt>
<pdfrwt beam="1">  1       21 0.38895382E-01 0.29045761E+03</pdfrwt>
<pdfrwt beam="2">  1       21 0.12834554E-01 0.29045761E+03</pdfrwt>
<totfact> 0.32420935E+05</totfact>
</mgrwt>
</event>
<event>
 8    1  0.9400004E-006  0.3942945E+03  0.7546771E-02  0.1045773E+00
         21   -1    0    0  504  503  0.00000000000E+00  0.00000000000E+00  0.59665552144E+03  0.59665552144E+03  0.00000000000E+00 0.  1.
         21   -1    0    0  503  504 -0.00000000000E+00 -0.00000000000E+00 -0.65141501679E+02  0.65141501679E+02  0.00000000000E+00 0.  1.
         25    2    1    2    0    0 -0.18635376158E+02 -0.11845277040E+03  0.42372407282E+03  0.45776161702E+03  0.12500108827E+03 0.  0.
         25    2    1    2    0    0  0.18635376158E+02  0.11845277040E+03  0.10778994694E+03  0.20403540610E+03  0.12503374832E+03 0.  0.
          5    1    3    3  501    0 -0.34197876114E+01 -0.87410101073E+02  0.10330325569E+03  0.13544693926E+03  0.47000000000E+01 0.  1.
         -5    1    3    3    0  501 -0.15215588547E+02 -0.31042669326E+02  0.32042081713E+03  0.32231467776E+03  0.47000000000E+01 0.  1.
          5    1    4    4  502    0  0.13623057059E+02  0.11632373216E+03  0.23633231491E+02  0.11957181097E+03  0.47000000000E+01 0. -1.
         -5    1    4    4    0  502  0.50123190991E+01  0.21290382355E+01  0.84156715448E+02  0.84463595126E+02  0.47000000000E+01 0. -1.
<mgrwt>
<rscale>  0 0.39429449E+03</rscale>
<asrwt>0</asrwt>
<pdfrwt beam="1">  1       21 0.91793154E-01 0.39429449E+03</pdfrwt>
<pdfrwt beam="2">  1       21 0.10021770E-01 0.39429449E+03</pdfrwt>
<totfact> 0.75941330E+04</totfact>
</mgrwt>
</event>
<event>
 8    1  0.9400004E-006  0.2578016E+03  0.7546771E-02  0.1108471E+00
         21   -1    0    0  504  503  0.00000000000E+00  0.00000000000E+00  0.45072985531E+03  0.45072985531E+03  0.00000000000E+00 0.  1.
         21   -1    0    0  503  504 -0.00000000000E+00 -0.00000000000E+00 -0.36863363819E+02  0.36863363819E+02  0.00000000000E+00 0.  1.
         25    2    1    2    0    0 -0.76727064328E+01 -0.26584117354E+02  0.23533247739E+03  0.26789929452E+03  0.12499228526E+03 0.  0.
         25    2    1    2    0    0  0.76727064328E+01  0.26584117354E+02  0.17853401410E+03  0.21969392460E+03  0.12500176237E+03 0.  0.
          5    1    3    3  501    0 -0.66624841016E+01 -0.75162874448E+02  0.11075854398E+03  0.13410216797E+03  0.47000000000E+01 0.  1.
         -5    1    3    3    0  501 -0.10102223312E+01  0.48578757094E+02  0.12457393341E+03  0.13379712656E+03  0.47000000000E+01 0.  1.
          5    1    4    4  502    0  0.18867749743E+02 -0.46691888990E+02  0.49268190604E+02  0.70608562394E+02  0.47000000000E+01 0.  1.
         -5    1    4    4    0  502 -0.11195043311E+02  0.73276006344E+02  0.12926582350E+03  0.14908536221E+03  0.47000000000E+01 0.  1.
<mgrwt>
<rscale>  0 0.25780162E+03</rscale>
<asrwt>0</asrwt>
<pdfrwt beam="1">  1       21 0.69343050E-01 0.25780162E+03</pdfrwt>
<pdfrwt beam="2">  1       21 0.56712871E-02 0.25780162E+03</pdfrwt>
<totfact> 0.40455038E+05</totfact>
</mgrwt>
</event>
<event>
 8    1  0.9400004E-006  0.3888768E+03  0.7546771E-02  0.1047701E+00
         21   -1    0    0  504  503  0.00000000000E+00  0.00000000000E+00  0.20153947270E+03  0.20153947270E+03  0.00000000000E+00 0.  1.
         21   -1    0    0  503  504 -0.00000000000E+00 -0.00000000000E+00 -0.18758753127E+03  0.18758753127E+03  0.00000000000E+00 0.  1.
         25    2    1    2    0    0  0.49835111359E+02 -0.13771555138E+03  0.34093483920E+02  0.19554127601E+03  0.12499965424E+03 0.  0.
         25    2    1    2    0    0 -0.49835111359E+02  0.13771555138E+03 -0.20141542486E+02  0.19358572796E+03  0.12498256245E+03 0.  0.
          5    1    3    3  501    0 -0.33303656272E+02 -0.69350392162E+02 -0.12633929505E+02  0.78104523485E+02  0.47000000000E+01 0. -1.
         -5    1    3    3    0  501  0.83138767630E+02 -0.68365159221E+02  0.46727413425E+02  0.11743675253E+03  0.47000000000E+01 0. -1.
          5    1    4    4  502    0 -0.21881534304E+02  0.51728212191E+02  0.52868087563E+02  0.77276996335E+02  0.47000000000E+01 0. -1.
         -5    1    4    4    0  502 -0.27953577055E+02  0.85987339193E+02 -0.73009630048E+02  0.11630873162E+03  0.47000000000E+01 0. -1.
<mgrwt>
<rscale>  0 0.38887680E+03</rscale>
<asrwt>0</asrwt>
<pdfrwt beam="1">  1       21 0.31006073E-01 0.38887680E+03</pdfrwt>
<pdfrwt beam="2">  1       21 0.28859620E-01 0.38887680E+03</pdfrwt>
<totfact> 0.10858371E+05</totfact>
</mgrwt>
</event>
<event>
 8    1  0.9400004E-006  0.2530509E+03  0.7546771E-02  0.1111392E+00
         21   -1    0    0  504  503  0.00000000000E+00  0.00000000000E+00  0.89234429343E+02  0.89234429343E+02  0.00000000000E+00 0.  1.
         21   -1    0    0  503  504 -0.00000000000E+00 -0.00000000000E+00 -0.17940036855E+03  0.17940036855E+03  0.00000000000E+00 0.  1.
         25    2    1    2    0    0 -0.16314755491E+02  0.84924162744E+01 -0.52286779092E+02  0.13674171277E+03  0.12500438538E+03 0.  0.
         25    2    1    2    0    0  0.16314755491E+02 -0.84924162744E+01 -0.37879160117E+02  0.13189308512E+03  0.12499065065E+03 0.  0.
          5    1    3    3  501    0  0.45768716435E+02  0.19625960869E+02  0.64393184196E+01  0.50433208958E+02  0.47000000000E+01 0. -1.
         -5    1    3    3    0  501 -0.62083471926E+02 -0.11133544594E+02 -0.58726097512E+02  0.86308503814E+02  0.47000000000E+01 0. -1.
          5    1    4    4  502    0 -0.25515845573E+02 -0.54389548630E+02 -0.25985759794E+01  0.60316863087E+02  0.47000000000E+01 0.  1.
         -5    1    4    4    0  502  0.41830601063E+02  0.45897132356E+02 -0.35280584137E+02  0.71576222035E+02  0.47000000000E+01 0.  1.
<mgrwt>
<rscale>  0 0.25305090E+03</rscale>
<asrwt>0</asrwt>
<pdfrwt beam="1">  1       21 0.13728374E-01 0.25305090E+03</pdfrwt>
<pdfrwt beam="2">  1       21 0.27600057E-01 0.25305090E+03</pdfrwt>
<totfact> 0.57081516E+05</totfact>
</mgrwt>
</event>
<event>
 8    1  0.9400004E-006  0.2737007E+03  0.7546771E-02  0.1099180E+00
         21   -1    0    0  504  503  0.00000000000E+00  0.00000000000E+00  0.14863172154E+02  0.14863172154E+02  0.00000000000E+00 0. -1.
         21   -1    0    0  503  504 -0.00000000000E+00 -0.00000000000E+00 -0.12600281721E+04  0.12600281721E+04  0.00000000000E+00 0. -1.
         25    2    1    2    0    0  0.28348654318E+02 -0.18850198421E+02 -0.82797851921E+03  0.83805235765E+03  0.12499739882E+03 0.  0.
         25    2    1    2    0    0 -0.28348654318E+02  0.18850198421E+02 -0.41718648075E+03  0.43683898662E+03  0.12499905729E+03 0.  0.
          5    1    3    3  501    0 -0.29821312355E+02 -0.53655322489E+02 -0.40330466794E+03  0.40797665311E+03  0.47000000000E+01 0. -1.
         -5    1    3    3    0  501  0.58169966673E+02  0.34805124068E+02 -0.42467385127E+03  0.43007570454E+03  0.47000000000E+01 0. -1.
          5    1    4    4  502    0 -0.66226943012E+02  0.45369440316E+02 -0.30461363666E+03  0.31504912590E+03  0.47000000000E+01 0. -1.
         -5    1    4    4    0  502  0.37878288694E+02 -0.26519241895E+02 -0.11257284410E+03  0.12178986071E+03  0.47000000000E+01 0. -1.
<mgrwt>
<rscale>  0 0.27370068E+03</rscale>
<asrwt>0</asrwt>
<pdfrwt beam="1">  1       21 0.22866418E-02 0.27370068E+03</pdfrwt>
<pdfrwt beam="2">  1       21 0.19385050E+00 0.27370068E+03</pdfrwt>
<totfact> 0.14019238E+05</totfact>
</mgrwt>
</event>
<event>
 8    1  0.9400004E-006  0.2698015E+03  0.7546771E-02  0.1101393E+00
         21   -1    0    0  504  503  0.00000000000E+00  0.00000000000E+00  0.14026723067E+03  0.14026723067E+03  0.00000000000E+00 0.  1.
         21   -1    0    0  503  504 -0.00000000000E+00 -0.00000000000E+00 -0.12973956919E+03  0.12973956919E+03  0.00000000000E+00 0.  1.
         25    2    1    2    0    0 -0.34978176898E+02  0.35777081486E+02 -0.30750739711E+01  0.13467899130E+03  0.12500200878E+03 0.  0.
         25    2    1    2    0    0  0.34978176898E+02 -0.35777081486E+02  0.13602735453E+02  0.13532780856E+03  0.12500043576E+03 0.  0.
          5    1    3    3  501    0 -0.32712997274E+01 -0.42328965674E+02 -0.22161178190E+02  0.48121206922E+02  0.47000000000E+01 0.  1.
         -5    1    3    3    0  501 -0.31706877171E+02  0.78106047160E+02  0.19086104219E+02  0.86557784382E+02  0.47000000000E+01 0.  1.
          5    1    4    4  502    0 -0.29274202106E+02 -0.35125458051E+02  0.44408960081E+02  0.63914180334E+02  0.47000000000E+01 0. -1.
         -5    1    4    4    0  502  0.64252379004E+02 -0.65162343533E+00 -0.30806224628E+02  0.71413628227E+02  0.47000000000E+01 0. -1.
<mgrwt>
<rscale>  0 0.26980148E+03</rscale>
<asrwt>0</asrwt>
<pdfrwt beam="1">  1       21 0.21579574E-01 0.26980148E+03</pdfrwt>
<pdfrwt beam="2">  1       21 0.19959934E-01 0.26980148E+03</pdfrwt>
<totfact> 0.45675704E+05</totfact>
</mgrwt>
</event>
<event>
 8    1  0.9400004E-006  0.3024572E+03  0.7546771E-02  0.1084019E+00
         21   -1    0    0  504  503  0.00000000000E+00  0.00000000000E+00  0.37132412833E+03  0.37132412833E+03  0.00000000000E+00 0. -1.
         21   -1    0    0  503  504 -0.00000000000E+00 -0.00000000000E+00 -0.61590652022E+02  0.61590652022E+02  0.00000000000E+00 0. -1.
         25    2    1    2    0    0 -0.14332464314E+02  0.95338055571E+00  0.34799670953E+02  0.13055605761E+03  0.12501015403E+03 0.  0.
         25    2    1    2    0    0  0.14332464314E+02 -0.95338055571E+00  0.27493380536E+03  0.30235872275E+03  0.12500348565E+03 0.  0.
          5    1    3    3  501    0  0.22529683767E+02 -0.53281741243E+02  0.28059866304E+02  0.64466865113E+02  0.47000000000E+01 0.  1.
         -5    1    3    3    0  501 -0.36862148082E+02  0.54235121798E+02  0.67398046488E+01  0.66089192493E+02  0.47000000000E+01 0.  1.
          5    1    4    4  502    0  0.10516363127E+02 -0.48514124346E+01  0.28755580067E+03  0.28782730690E+03  0.47000000000E+01 0.  1.
         -5    1    4    4    0  502  0.38161011874E+01  0.38980318789E+01 -0.12621995316E+02  0.14531415849E+02  0.47000000000E+01 0.  1.
<mgrwt>
<rscale>  0 0.30245724E+03</rscale>
<asrwt>0</asrwt>
<pdfrwt beam="1">  1       21 0.57126788E-01 0.30245724E+03</pdfrwt>
<pdfrwt beam="2">  1       21 0.94754851E-02 0.30245724E+03</pdfrwt>
<totfact> 0.24974626E+05</totfact>
</mgrwt>
</event>
<event>
 8    1  0.9400004E-006  0.2643124E+03  0.7546771E-02  0.1104580E+00
         21   -1    0    0  504  503  0.00000000000E+00  0.00000000000E+00  0.22086703286E+03  0.22086703286E+03  0.00000000000E+00 0. -1.
         21   -1    0    0  503  504 -0.00000000000E+00 -0.00000000000E+00 -0.79075914991E+02  0.79075914991E+02  0.00000000000E+00 0. -1.
         25    2    1    2    0    0 -0.14021154450E+02  0.19679352907E+02  0.11114509710E+03  0.16899603013E+03  0.12499022316E+03 0.  0.
         25    2    1    2    0    0  0.14021154450E+02 -0.19679352907E+02  0.30646020768E+02  0.13094691772E+03  0.12499618782E+03 0.  0.
          5    1    3    3  501    0  0.53024848350E+02  0.19487023719E+02  0.70450745871E+02  0.90425528640E+02  0.47000000000E+01 0.  1.
         -5    1    3    3    0  501 -0.67046002800E+02  0.19232918757E+00  0.40694351229E+02  0.78570501487E+02  0.47000000000E+01 0.  1.
          5    1    4    4  502    0  0.44517988930E+02 -0.13796389635E+02 -0.34798294972E+02  0.58354117578E+02  0.47000000000E+01 0.  1.
         -5    1    4    4    0  502 -0.30496834480E+02 -0.58829632711E+01  0.65444315741E+02  0.72592800145E+02  0.47000000000E+01 0.  1.
<mgrwt>
<rscale>  0 0.26431241E+03</rscale>
<asrwt>0</asrwt>
<pdfrwt beam="1">  1       21 0.33979543E-01 0.26431241E+03</pdfrwt>
<pdfrwt beam="2">  1       21 0.12165525E-01 0.26431241E+03</pdfrwt>
<totfact> 0.47103409E+05</totfact>
</mgrwt>
</event>
<event>
 8    1  0.9400004E-006  0.3158868E+03  0.7546771E-02  0.1077558E+00
         21   -1    0    0  504  503  0.00000000000E+00  0.00000000000E+00  0.13323704949E+03  0.13323704949E+03  0.00000000000E+00 0. -1.
         21   -1    0    0  503  504 -0.00000000000E+00 -0.00000000000E+00 -0.18723102876E+03  0.18723102876E+03  0.00000000000E+00 0. -1.
         25    2    1    2    0    0  0.46786903901E+02 -0.79507511822E+02 -0.55893368663E+02  0.16510284592E+03  0.12499768901E+03 0.  0.
         25    2    1    2    0    0 -0.46786903901E+02  0.79507511822E+02  0.18993894020E+01  0.15536523233E+03  0.12499715566E+03 0.  0.
          5    1    3    3  501    0  0.27855906050E+02 -0.95187586272E+02  0.48463000096E+01  0.99409278772E+02  0.47000000000E+01 0. -1.
         -5    1    3    3    0  501  0.18930997851E+02  0.15680074450E+02 -0.60739668673E+02  0.65693567150E+02  0.47000000000E+01 0. -1.
          5    1    4    4  502    0  0.28763130239E+02 -0.14722362573E+02 -0.93774419575E+01  0.33971930156E+02  0.47000000000E+01 0.  1.
         -5    1    4    4    0  502 -0.75550034139E+02  0.94229874395E+02  0.11276831360E+02  0.12139330217E+03  0.47000000000E+01 0.  1.
<mgrwt>
<rscale>  0 0.31588675E+03</rscale>
<asrwt>0</asrwt>
<pdfrwt beam="1">  1       21 0.20498008E-01 0.31588675E+03</pdfrwt>
<pdfrwt beam="2">  1       21 0.28804773E-01 0.31588675E+03</pdfrwt>
<totfact> 0.24677778E+05</totfact>
</mgrwt>
</event>
<event>
 8    1  0.9400004E-006  0.2615303E+03  0.7546771E-02  0.1106227E+00
         21   -1    0    0  504  503  0.00000000000E+00  0.00000000000E+00  0.19621303878E+03  0.19621303878E+03  0.00000000000E+00 0. -1.
         21   -1    0    0  503  504 -0.00000000000E+00 -0.00000000000E+00 -0.87147769520E+02  0.87147769520E+02  0.00000000000E+00 0. -1.
         25    2    1    2    0    0 -0.11272210768E+02 -0.27351995894E+02  0.28007042723E+02  0.13147115018E+03  0.12500029789E+03 0.  0.
         25    2    1    2    0    0  0.11272210768E+02  0.27351995894E+02  0.81058226539E+02  0.15188965812E+03  0.12499935096E+03 0.  0.
          5    1    3    3  501    0 -0.14446663856E+02 -0.29648841907E+01 -0.48532166166E+02  0.50940728180E+02  0.47000000000E+01 0.  1.
         -5    1    3    3    0  501  0.31744530877E+01 -0.24387111703E+02  0.76539208889E+02  0.80530421997E+02  0.47000000000E+01 0.  1.
          5    1    4    4  502    0  0.41681837216E+02  0.22210787019E+02  0.10322831777E+03  0.11361720910E+03  0.47000000000E+01 0.  1.
         -5    1    4    4    0  502 -0.30409626448E+02  0.51412088748E+01 -0.22170091230E+02  0.38272449027E+02  0.47000000000E+01 0.  1.
<mgrwt>
<rscale>  0 0.26153033E+03</rscale>
<asrwt>0</asrwt>
<pdfrwt beam="1">  1       21 0.30186621E-01 0.26153033E+03</pdfrwt>
<pdfrwt beam="2">  1       21 0.13407349E-01 0.26153033E+03</pdfrwt>
<totfact> 0.49950802E+05</totfact>
</mgrwt>
</event>
<event>
 8    1  0.9400004E-006  0.2758844E+03  0.7546771E-02  0.1097958E+00
         21   -1    0    0  504  503  0.00000000000E+00  0.00000000000E+00  0.38294302417E+03  0.38294302417E+03  0.00000000000E+00 0. -1.
         21   -1    0    0  503  504 -0.00000000000E+00 -0.00000000000E+00 -0.49689003130E+02  0.49689003130E+02  0.00000000000E+00 0. -1.
         25    2    1    2    0    0  0.34769896970E+02  0.37111371822E+02  0.12187623302E+03  0.18184877546E+03  0.12501584423E+03 0.  0.
         25    2    1    2    0    0 -0.34769896970E+02 -0.37111371822E+02  0.21137778802E+03  0.25078325184E+03  0.12500188191E+03 0.  0.
          5    1    3    3  501    0 -0.37372698417E+02  0.44674499066E+02  0.76095620348E+02  0.95943540116E+02  0.47000000000E+01 0.  1.
         -5    1    3    3    0  501  0.72142595387E+02 -0.75631272444E+01  0.45780612671E+02  0.85905235343E+02  0.47000000000E+01 0.  1.
          5    1    4    4  502    0 -0.44321494112E+02 -0.47405894361E+02  0.35189426812E+02  0.73973640033E+02  0.47000000000E+01 0.  1.
         -5    1    4    4    0  502  0.95515971420E+01  0.10294522539E+02  0.17618836121E+03  0.17680961181E+03  0.47000000000E+01 0.  1.
<mgrwt>
<rscale>  0 0.27588445E+03</rscale>
<asrwt>0</asrwt>
<pdfrwt beam="1">  1       21 0.58914310E-01 0.27588445E+03</pdfrwt>
<pdfrwt beam="2">  1       21 0.76444623E-02 0.27588445E+03</pdfrwt>
<totfact> 0.34315674E+05</totfact>
</mgrwt>
</event>
