<event>
 8    1  0.3759079E-007  0.1517753E+03  0.7546771E-02  0.1198312E+00
          5   -1    0    0  501    0  0.00000000000E+00  0.00000000000E+00  0.37305729733E+02  0.37600631257E+02  0.47000000000E+01 0. -1.
         -5   -1    0    0    0  501 -0.00000000000E+00 -0.00000000000E+00 -0.63912506955E+03  0.63914235076E+03  0.47000000000E+01 0. -1.
         25    2    1    2    0    0 -0.72575352952E+02 -0.46294234549E+02 -0.36702753685E+03  0.39716661930E+03  0.12498709001E+03 0.  0.
         25    2    1    2    0    0  0.72575352952E+02  0.46294234549E+02 -0.23479180297E+03  0.27957636272E+03  0.12500165534E+03 0.  0.
          5    1    3    3  502    0 -0.51396506612E+02 -0.42430267989E+01 -0.36709241053E+02  0.63476472390E+02  0.47000000000E+01 0.  1.
         -5    1    3    3    0  502 -0.21178846340E+02 -0.42051207750E+02 -0.33031829580E+03  0.33369014691E+03  0.47000000000E+01 0.  1.
          5    1    4    4  503    0  0.17374292801E+02  0.76224235557E+02 -0.77654070611E+02  0.11029163531E+03  0.47000000000E+01 0.  1.
         -5    1    4    4    0  503  0.55201060151E+02 -0.29930001008E+02 -0.15713773236E+03  0.16928472741E+03  0.47000000000E+01 0.  1.
<mgrwt>
<rscale>  0 0.15177233E+03</rscale>
<asrwt>0</asrwt>
<pdfrwt beam="1">  1        5 0.57633576E-02 0.15177533E+03</pdfrwt>
<pdfrwt beam="2">  1       -5 0.98350940E-01 0.15177533E+03</pdfrwt>
<totfact> 0.12708082E+02</totfact>
</mgrwt>
</event>
<event>
 8    1  0.3759079E-007  0.1365201E+03  0.7546771E-02  0.1218090E+00
         -5   -1    0    0    0  501 -0.00000000000E+00  0.00000000000E+00  0.91463001522E+02  0.91583681120E+02  0.47000000000E+01 0.  1.
          5   -1    0    0  501    0  0.00000000000E+00 -0.00000000000E+00 -0.23398465283E+03  0.23403185202E+03  0.47000000000E+01 0.  1.
         25    2    1    2    0    0 -0.18123525513E+02 -0.51806235511E+02 -0.12506814261E+02  0.13709074898E+03  0.12500041935E+03 0.  0.
         25    2    1    2    0    0  0.18123525513E+02  0.51806235511E+02 -0.13001483705E+03  0.18852478417E+03  0.12500155270E+03 0.  0.
          5    1    4    4  502    0 -0.38183577518E+02  0.54506633482E+02 -0.28993173931E+02  0.72743747636E+02  0.47000000000E+01 0.  1.
         -5    1    4    4    0  502  0.56307103031E+02 -0.27003979703E+01 -0.10102166312E+03  0.11578103653E+03  0.47000000000E+01 0.  1.
          5    1    3    3  503    0 -0.21921739957E+02  0.26632272909E+02 -0.40666225124E+02  0.53531976509E+02  0.47000000000E+01 0. -1.
         -5    1    3    3    0  503  0.37982144445E+01 -0.78438508420E+02  0.28159410863E+02  0.83558772468E+02  0.47000000000E+01 0. -1.
<mgrwt>
<rscale>  0 0.13651984E+03</rscale>
<asrwt>0</asrwt>
<pdfrwt beam="2">  1        5 0.36010552E-01 0.13652010E+03</pdfrwt>
<pdfrwt beam="1">  1       -5 0.14084145E-01 0.13652010E+03</pdfrwt>
<totfact> 0.23707237E+02</totfact>
</mgrwt>
</event>
<event>
 8    1  0.3759079E-007  0.1373004E+03  0.7546771E-02  0.1217010E+00
          5   -1    0    0  501    0  0.00000000000E+00  0.00000000000E+00  0.16719349398E+03  0.16725954211E+03  0.47000000000E+01 0. -1.
         -5   -1    0    0    0  501 -0.00000000000E+00 -0.00000000000E+00 -0.12348669657E+03  0.12357610703E+03  0.47000000000E+01 0. -1.
         25    2    1    2    0    0  0.56791545385E+02 -0.65929140518E+00 -0.21273839989E+02  0.13893478024E+03  0.12499833038E+03 0.  0.
         25    2    1    2    0    0 -0.56791545385E+02  0.65929140518E+00  0.64980637396E+02  0.15190086891E+03  0.12500270576E+03 0.  0.
          5    1    4    4  502    0  0.28824169740E+02  0.28603563379E+02  0.42476847387E+02  0.58952261730E+02  0.47000000000E+01 0.  1.
         -5    1    4    4    0  502 -0.85615715125E+02 -0.27944271973E+02  0.22503790009E+02  0.92948607183E+02  0.47000000000E+01 0.  1.
          5    1    3    3  503    0 -0.24448969173E+01 -0.26412169167E+02  0.41020302886E+02  0.49074794446E+02  0.47000000000E+01 0.  1.
         -5    1    3    3    0  503  0.59236442302E+02  0.25752877761E+02 -0.62294142875E+02  0.89859985790E+02  0.47000000000E+01 0.  1.
<mgrwt>
<rscale>  0 0.13729937E+03</rscale>
<asrwt>0</asrwt>
<pdfrwt beam="1">  1        5 0.25734034E-01 0.13730037E+03</pdfrwt>
<pdfrwt beam="2">  1       -5 0.19009912E-01 0.13730037E+03</pdfrwt>
<totfact> 0.26595654E+02</totfact>
</mgrwt>
</event>
<event>
 8    1  0.3759079E-007  0.1602579E+03  0.7546771E-02  0.1188406E+00
         -5   -1    0    0    0  501 -0.00000000000E+00  0.00000000000E+00  0.52799683482E+03  0.52801775309E+03  0.47000000000E+01 0. -1.
          5   -1    0    0  501    0  0.00000000000E+00 -0.00000000000E+00 -0.50468962627E+02  0.50687337558E+02  0.47000000000E+01 0. -1.
         25    2    1    2    0    0 -0.22322184665E+01 -0.10026700218E+03  0.29569318660E+03  0.33632842587E+03  0.12499557960E+03 0.  0.
         25    2    1    2    0    0  0.22322184665E+01  0.10026700218E+03  0.18183468559E+03  0.24237666478E+03  0.12499656082E+03 0.  0.
          5    1    3    3  502    0  0.51894991006E+02 -0.82358636215E+02  0.14105977160E+03  0.17145257133E+03  0.47000000000E+01 0.  1.
         -5    1    3    3    0  502 -0.54127209473E+02 -0.17908365970E+02  0.15463341500E+03  0.16487585454E+03  0.47000000000E+01 0.  1.
          5    1    4    4  503    0  0.21268427144E+02  0.91913514813E+02  0.46335891363E+02  0.10521190535E+03  0.47000000000E+01 0. -1.
         -5    1    4    4    0  503 -0.19036208677E+02  0.83534873721E+01  0.13549879423E+03  0.13716475943E+03  0.47000000000E+01 0. -1.
<mgrwt>
<rscale>  0 0.16025771E+03</rscale>
<asrwt>0</asrwt>
<pdfrwt beam="2">  1        5 0.77828631E-02 0.16025790E+03</pdfrwt>
<pdfrwt beam="1">  1       -5 0.81248688E-01 0.16025790E+03</pdfrwt>
<totfact> 0.12223581E+02</totfact>
</mgrwt>
</event>
<event>
 8    1  0.3759079E-007  0.1514610E+03  0.7546771E-02  0.1198689E+00
          5   -1    0    0  501    0  0.00000000000E+00  0.00000000000E+00  0.11634739140E+03  0.11644228393E+03  0.47000000000E+01 0. -1.
         -5   -1    0    0    0  501 -0.00000000000E+00 -0.00000000000E+00 -0.19711263457E+03  0.19716866056E+03  0.47000000000E+01 0. -1.
         25    2    1    2    0    0  0.84959869403E+02  0.98695276446E+01 -0.36132581666E+02  0.15571131010E+03  0.12499944660E+03 0.  0.
         25    2    1    2    0    0 -0.84959869403E+02 -0.98695276446E+01 -0.44632661498E+02  0.15789963438E+03  0.12499853231E+03 0.  0.
          5    1    4    4  502    0 -0.95736079970E+01  0.49621761033E+02  0.25088286617E+01  0.50816900332E+02  0.47000000000E+01 0.  1.
         -5    1    4    4    0  502 -0.75386261406E+02 -0.59491288678E+02 -0.47141490159E+02  0.10708273405E+03  0.47000000000E+01 0.  1.
          5    1    3    3  503    0  0.98629378659E+02 -0.35320011978E-01 -0.67620434989E+02  0.11967609958E+03  0.47000000000E+01 0.  1.
         -5    1    3    3    0  503 -0.13669509255E+02  0.99048476566E+01  0.31487853324E+02  0.36035210521E+02  0.47000000000E+01 0.  1.
<mgrwt>
<rscale>  0 0.15146086E+03</rscale>
<asrwt>0</asrwt>
<pdfrwt beam="1">  1        5 0.17911208E-01 0.15146105E+03</pdfrwt>
<pdfrwt beam="2">  1       -5 0.30336630E-01 0.15146105E+03</pdfrwt>
<totfact> 0.22281791E+02</totfact>
</mgrwt>
</event>
<event>
 8    1  0.3759079E-007  0.1714007E+03  0.7546771E-02  0.1176398E+00
          5   -1    0    0  501    0  0.00000000000E+00  0.00000000000E+00  0.15645781521E+03  0.15652839340E+03  0.47000000000E+01 0.  1.
         -5   -1    0    0    0  501 -0.00000000000E+00 -0.00000000000E+00 -0.19800210102E+03  0.19805787540E+03  0.47000000000E+01 0.  1.
         25    2    1    2    0    0 -0.58141525301E+02 -0.10182994253E+03 -0.61361521872E+02  0.18204378381E+03  0.12499971480E+03 0.  0.
         25    2    1    2    0    0  0.58141525301E+02  0.10182994253E+03  0.19817236055E+02  0.17254248499E+03  0.12501364774E+03 0.  0.
          5    1    4    4  502    0 -0.21999822705E+01 -0.13171543266E+02  0.38712748532E+02  0.41220096711E+02  0.47000000000E+01 0. -1.
         -5    1    4    4    0  502  0.60341507571E+02  0.11500148579E+03 -0.18895512477E+02  0.13132238828E+03  0.47000000000E+01 0. -1.
          5    1    3    3  503    0  0.63427442561E+01 -0.70548527258E+02 -0.80878900200E+02  0.10761417937E+03  0.47000000000E+01 0. -1.
         -5    1    3    3    0  503 -0.64484269557E+02 -0.31281415269E+02  0.19517378328E+02  0.74429604448E+02  0.47000000000E+01 0. -1.
<mgrwt>
<rscale>  0 0.17139812E+03</rscale>
<asrwt>0</asrwt>
<pdfrwt beam="1">  1        5 0.24080153E-01 0.17140066E+03</pdfrwt>
<pdfrwt beam="2">  1       -5 0.30471581E-01 0.17140066E+03</pdfrwt>
<totfact> 0.13162690E+02</totfact>
</mgrwt>
</event>
<event>
 8    1  0.3759079E-007  0.1400849E+03  0.7546771E-02  0.1213224E+00
         -5   -1    0    0    0  501 -0.00000000000E+00  0.00000000000E+00  0.15347197947E+04  0.15347269914E+04  0.47000000000E+01 0.  1.
          5   -1    0    0  501    0  0.00000000000E+00 -0.00000000000E+00 -0.18739390586E+02  0.19319802264E+02  0.47000000000E+01 0.  1.
         25    2    1    2    0    0 -0.44087684671E+02 -0.45332803902E+02  0.12033554994E+04  0.12114818390E+04  0.12500000471E+03 0.  0.
         25    2    1    2    0    0  0.44087684671E+02  0.45332803902E+02  0.31262490467E+03  0.34256495469E+03  0.12497051696E+03 0.  0.
          5    1    3    3  502    0 -0.71210076634E+02 -0.35945598364E+02  0.11261312180E+04  0.11289626084E+04  0.47000000000E+01 0.  1.
         -5    1    3    3    0  502  0.27122391963E+02 -0.93872055380E+01  0.77224281422E+02  0.82519230576E+02  0.47000000000E+01 0.  1.
          5    1    4    4  503    0  0.49494687010E+02  0.21232980040E+02  0.36344097699E+02  0.65142512396E+02  0.47000000000E+01 0.  1.
         -5    1    4    4    0  503 -0.54070023393E+01  0.24099823862E+02  0.27628080697E+03  0.27742244229E+03  0.47000000000E+01 0.  1.
<mgrwt>
<rscale>  0 0.14007835E+03</rscale>
<asrwt>0</asrwt>
<pdfrwt beam="2">  1        5 0.29281828E-02 0.14008493E+03</pdfrwt>
<pdfrwt beam="1">  1       -5 0.23615602E+00 0.14008493E+03</pdfrwt>
<totfact> 0.32121740E+01</totfact>
</mgrwt>
</event>
<event>
 8    1  0.3759079E-007  0.1704344E+03  0.7546771E-02  0.1177396E+00
         -5   -1    0    0    0  501 -0.00000000000E+00  0.00000000000E+00  0.73947358120E+02  0.74096570588E+02  0.47000000000E+01 0. -1.
          5   -1    0    0  501    0  0.00000000000E+00 -0.00000000000E+00 -0.78062120564E+03  0.78063535449E+03  0.47000000000E+01 0. -1.
         25    2    1    2    0    0  0.11256779475E+03 -0.27376192952E+02 -0.51927754490E+02  0.17816682581E+03  0.12500384705E+03 0.  0.
         25    2    1    2    0    0 -0.11256779475E+03  0.27376192952E+02 -0.65474609302E+03  0.67656509927E+03  0.12500769124E+03 0.  0.
          5    1    3    3  502    0  0.76039907650E+02 -0.53407818709E+02 -0.81952128058E+02  0.12398670876E+03  0.47000000000E+01 0. -1.
         -5    1    3    3    0  502  0.36527887104E+02  0.26031625757E+02  0.30024373568E+02  0.54180117054E+02  0.47000000000E+01 0. -1.
          5    1    4    4  503    0 -0.81148624940E+02  0.76296726705E+02 -0.40168264830E+03  0.41686608135E+03  0.47000000000E+01 0.  1.
         -5    1    4    4    0  503 -0.31419169814E+02 -0.48920533753E+02 -0.25306344473E+03  0.25969901793E+03  0.47000000000E+01 0.  1.
<mgrwt>
<rscale>  0 0.17043370E+03</rscale>
<asrwt>0</asrwt>
<pdfrwt beam="2">  1        5 0.12010813E+00 0.17043441E+03</pdfrwt>
<pdfrwt beam="1">  1       -5 0.11389083E-01 0.17043441E+03</pdfrwt>
<totfact> 0.24705393E+01</totfact>
</mgrwt>
</event>
<event>
 8    1  0.3759079E-007  0.1313659E+03  0.7546771E-02  0.1225445E+00
          5   -1    0    0  501    0  0.00000000000E+00  0.00000000000E+00  0.30381664586E+03  0.30385299785E+03  0.47000000000E+01 0.  1.
         -5   -1    0    0    0  501 -0.00000000000E+00 -0.00000000000E+00 -0.57451532053E+02  0.57643460473E+02  0.47000000000E+01 0.  1.
         25    2    1    2    0    0  0.40369934922E+02 -0.97694702770E+00  0.10203050647E+03  0.16633471142E+03  0.12500530350E+03 0.  0.
         25    2    1    2    0    0 -0.40369934922E+02  0.97694702770E+00  0.14433460733E+03  0.19516174689E+03  0.12499977003E+03 0.  0.
          5    1    4    4  502    0  0.26254756800E+02  0.38670861697E+02  0.24751387542E+02  0.53098672152E+02  0.47000000000E+01 0.  1.
         -5    1    4    4    0  502 -0.66624691723E+02 -0.37693914669E+02  0.11958321979E+03  0.14206307474E+03  0.47000000000E+01 0.  1.
          5    1    3    3  503    0  0.20249574935E+02  0.56898661743E+02  0.81490610167E+02  0.10153970917E+03  0.47000000000E+01 0.  1.
         -5    1    3    3    0  503  0.20120359988E+02 -0.57875608771E+02  0.20539896306E+02  0.64795002252E+02  0.47000000000E+01 0.  1.
<mgrwt>
<rscale>  0 0.13136463E+03</rscale>
<asrwt>0</asrwt>
<pdfrwt beam="1">  1        5 0.46758582E-01 0.13136595E+03</pdfrwt>
<pdfrwt beam="2">  1       -5 0.88562573E-02 0.13136595E+03</pdfrwt>
<totfact> 0.30984024E+02</totfact>
</mgrwt>
</event>
<event>
 8    1  0.3759079E-007  0.1411881E+03  0.7546771E-02  0.1211739E+00
          5   -1    0    0  501    0  0.00000000000E+00  0.00000000000E+00  0.75654600553E+02  0.75800452405E+02  0.47000000000E+01 0.  1.
         -5   -1    0    0    0  501 -0.00000000000E+00 -0.00000000000E+00 -0.26602016592E+03  0.26606168208E+03  0.47000000000E+01 0.  1.
         25    2    1    2    0    0 -0.10543399011E+02 -0.64788231555E+02 -0.11318869943E+03  0.18095735460E+03  0.12500081718E+03 0.  0.
         25    2    1    2    0    0  0.10543399011E+02  0.64788231555E+02 -0.77176865930E+02  0.16090477989E+03  0.12500160537E+03 0.  0.
          5    1    3    3  502    0  0.18307949554E+02  0.24708580385E+02  0.31802126212E+01  0.31271372113E+02  0.47000000000E+01 0.  1.
         -5    1    3    3    0  502 -0.28851348565E+02 -0.89496811940E+02 -0.11636891205E+03  0.14968598249E+03  0.47000000000E+01 0.  1.
          5    1    4    4  503    0  0.32577829012E+02 -0.21129701035E+02 -0.58127907792E+02  0.70062278533E+02  0.47000000000E+01 0. -1.
         -5    1    4    4    0  503 -0.22034430001E+02  0.85917932590E+02 -0.19048958138E+02  0.90842501354E+02  0.47000000000E+01 0. -1.
<mgrwt>
<rscale>  0 0.14118793E+03</rscale>
<asrwt>0</asrwt>
<pdfrwt beam="1">  1        5 0.11653582E-01 0.14118810E+03</pdfrwt>
<pdfrwt beam="2">  1       -5 0.40940592E-01 0.14118810E+03</pdfrwt>
<totfact> 0.25898716E+02</totfact>
</mgrwt>
</event>
<event>
 8    1  0.3759079E-007  0.1931711E+03  0.7546771E-02  0.1155633E+00
          5   -1    0    0  501    0  0.00000000000E+00  0.00000000000E+00  0.13659069239E+04  0.13659150101E+04  0.47000000000E+01 0. -1.
         -5   -1    0    0    0  501 -0.00000000000E+00 -0.00000000000E+00 -0.27296852218E+02  0.27698522362E+02  0.47000000000E+01 0. -1.
         25    2    1    2    0    0  0.14725920572E+03  0.15510543392E+01  0.61173136575E+03  0.64150468462E+03  0.12500126841E+03 0.  0.
         25    2    1    2    0    0 -0.14725920572E+03 -0.15510543392E+01  0.72687870596E+03  0.75210884785E+03  0.12500954523E+03 0.  0.
          5    1    4    4  502    0  0.16259145740E+01  0.77149396999E+01  0.29548363803E+03  0.29562617313E+03  0.47000000000E+01 0.  1.
         -5    1    4    4    0  502 -0.14888512030E+03 -0.92659940391E+01  0.43139506793E+03  0.45648267472E+03  0.47000000000E+01 0.  1.
          5    1    3    3  503    0 -0.18744475374E+02  0.30450216316E+01  0.14068640695E+03  0.14204007398E+03  0.47000000000E+01 0.  1.
         -5    1    3    3    0  503  0.16600368109E+03 -0.14939672924E+01  0.47104495880E+03  0.49946461064E+03  0.47000000000E+01 0.  1.
<mgrwt>
<rscale>  0 0.19316974E+03</rscale>
<asrwt>0</asrwt>
<pdfrwt beam="1">  1        5 0.21017108E+00 0.19317108E+03</pdfrwt>
<pdfrwt beam="2">  1       -5 0.42310348E-02 0.19317108E+03</pdfrwt>
<totfact> 0.28194270E+01</totfact>
</mgrwt>
</event>
<event>
 8    1  0.3759079E-007  0.2203318E+03  0.7546771E-02  0.1133643E+00
          5   -1    0    0  501    0  0.00000000000E+00  0.00000000000E+00  0.18483524167E+03  0.18489498793E+03  0.47000000000E+01 0.  1.
         -5   -1    0    0    0  501 -0.00000000000E+00 -0.00000000000E+00 -0.26283183104E+03  0.26287385075E+03  0.47000000000E+01 0.  1.
         25    2    1    2    0    0 -0.13075683776E+03 -0.12574267687E+03 -0.47227236688E+02  0.22533645317E+03  0.12505012528E+03 0.  0.
         25    2    1    2    0    0  0.13075683776E+03  0.12574267687E+03 -0.30769352687E+02  0.22243238551E+03  0.12498336550E+03 0.  0.
          5    1    4    4  502    0  0.10664269907E+03  0.10276175041E+03 -0.75631946641E+02  0.16635781907E+03  0.47000000000E+01 0. -1.
         -5    1    4    4    0  502  0.24114138693E+02  0.22980926461E+02  0.44862593954E+02  0.56074566447E+02  0.47000000000E+01 0. -1.
          5    1    3    3  503    0 -0.11833737629E+02 -0.25125068741E+02 -0.62685749105E+02  0.68723355320E+02  0.47000000000E+01 0. -1.
         -5    1    3    3    0  503 -0.11892310013E+03 -0.10061760813E+03  0.15458512418E+02  0.15661309785E+03  0.47000000000E+01 0. -1.
<mgrwt>
<rscale>  0 0.22032234E+03</rscale>
<asrwt>0</asrwt>
<pdfrwt beam="1">  1        5 0.28444019E-01 0.22033181E+03</pdfrwt>
<pdfrwt beam="2">  1       -5 0.40443494E-01 0.22033181E+03</pdfrwt>
<totfact> 0.57684451E+01</totfact>
</mgrwt>
</event>
<event>
 8    1  0.3759079E-007  0.1556219E+03  0.7546771E-02  0.1193731E+00
          5   -1    0    0  501    0  0.00000000000E+00  0.00000000000E+00  0.13248728397E+03  0.13257062425E+03  0.47000000000E+01 0. -1.
         -5   -1    0    0    0  501 -0.00000000000E+00 -0.00000000000E+00 -0.46374004204E+03  0.46376385865E+03  0.47000000000E+01 0. -1.
         25    2    1    2    0    0 -0.76684862740E+02 -0.52077172387E+02 -0.39774312545E+03  0.42710341878E+03  0.12500054575E+03 0.  0.
         25    2    1    2    0    0  0.76684862740E+02  0.52077172387E+02  0.66490367375E+02  0.16923106412E+03  0.12500233619E+03 0.  0.
          5    1    3    3  502    0  0.29850962414E+02  0.17536312738E+00 -0.39780688142E+02  0.49957020111E+02  0.47000000000E+01 0.  1.
         -5    1    3    3    0  502 -0.10653582515E+03 -0.52252535515E+02 -0.35796243730E+03  0.37714639867E+03  0.47000000000E+01 0.  1.
          5    1    4    4  503    0  0.60671929613E+01 -0.35927984495E+02  0.37797166014E+02  0.52710024274E+02  0.47000000000E+01 0.  1.
         -5    1    4    4    0  503  0.70617669778E+02  0.88005156882E+02  0.28693201361E+02  0.11652103985E+03  0.47000000000E+01 0.  1.
<mgrwt>
<rscale>  0 0.15562157E+03</rscale>
<asrwt>0</asrwt>
<pdfrwt beam="1">  1        5 0.20390902E-01 0.15562193E+03</pdfrwt>
<pdfrwt beam="2">  1       -5 0.71352864E-01 0.15562193E+03</pdfrwt>
<totfact> 0.29169854E+01</totfact>
</mgrwt>
</event>
<event>
 8    1  0.3759079E-007  0.1323297E+03  0.7546771E-02  0.1224043E+00
         -5   -1    0    0    0  501 -0.00000000000E+00  0.00000000000E+00  0.93075292180E+02  0.93193883996E+02  0.47000000000E+01 0.  1.
          5   -1    0    0  501    0  0.00000000000E+00 -0.00000000000E+00 -0.18914955534E+03  0.18920793927E+03  0.47000000000E+01 0.  1.
         25    2    1    2    0    0 -0.37207552446E+01  0.43267820514E+02 -0.36363169132E+02  0.13722408033E+03  0.12498887888E+03 0.  0.
         25    2    1    2    0    0  0.37207552446E+01 -0.43267820514E+02 -0.59711094025E+02  0.14517774294E+03  0.12500085593E+03 0.  0.
          5    1    3    3  502    0 -0.30455655710E+02  0.74725035106E+02 -0.48086359435E+02  0.94051931400E+02  0.47000000000E+01 0.  1.
         -5    1    3    3    0  502  0.26734900466E+02 -0.31457214591E+02  0.11723190302E+02  0.43172148935E+02  0.47000000000E+01 0.  1.
          5    1    4    4  503    0  0.22331763948E+02 -0.80917789257E+02 -0.59355640170E+02  0.10291539399E+03  0.47000000000E+01 0.  1.
         -5    1    4    4    0  503 -0.18611008703E+02  0.37649968743E+02 -0.35545385507E+00  0.42262348950E+02  0.47000000000E+01 0.  1.
<mgrwt>
<rscale>  0 0.13232692E+03</rscale>
<asrwt>0</asrwt>
<pdfrwt beam="2">  1        5 0.29113545E-01 0.13232975E+03</pdfrwt>
<pdfrwt beam="1">  1       -5 0.14332889E-01 0.13232975E+03</pdfrwt>
<totfact> 0.34639211E+02</totfact>
</mgrwt>
</event>
<event>
 8    1  0.3759079E-007  0.1605416E+03  0.7546771E-02  0.1188087E+00
          5   -1    0    0  501    0  0.00000000000E+00  0.00000000000E+00  0.13222595448E+04  0.13222678979E+04  0.47000000000E+01 0. -1.
         -5   -1    0    0    0  501 -0.00000000000E+00 -0.00000000000E+00 -0.28184212929E+02  0.28573411740E+02  0.47000000000E+01 0. -1.
         25    2    1    2    0    0 -0.93481673684E+01 -0.10030275364E+03  0.26894877892E+03  0.31321996981E+03  0.12500109271E+03 0.  0.
         25    2    1    2    0    0  0.93481673684E+01  0.10030275364E+03  0.10251265530E+04  0.10376213399E+04  0.12500225879E+03 0.  0.
          5    1    3    3  502    0  0.10265582341E+02 -0.10636831951E+03  0.11203280332E+03  0.15489687084E+03  0.47000000000E+01 0.  1.
         -5    1    3    3    0  502 -0.19613749710E+02  0.60655658674E+01  0.15691597560E+03  0.15832309897E+03  0.47000000000E+01 0.  1.
          5    1    4    4  503    0  0.33968399722E+02  0.87571489026E+02  0.36581285648E+03  0.37770855674E+03  0.47000000000E+01 0. -1.
         -5    1    4    4    0  503 -0.24620232354E+02  0.12731264614E+02  0.65931369652E+03  0.65991278314E+03  0.47000000000E+01 0. -1.
<mgrwt>
<rscale>  0 0.16054134E+03</rscale>
<asrwt>0</asrwt>
<pdfrwt beam="1">  1        5 0.20345508E+00 0.16054157E+03</pdfrwt>
<pdfrwt beam="2">  1       -5 0.43666146E-02 0.16054157E+03</pdfrwt>
<totfact> 0.28393015E+01</totfact>
</mgrwt>
</event>
<event>
 8    1  0.3759079E-007  0.1358207E+03  0.7546771E-02  0.1219067E+00
          5   -1    0    0  501    0  0.00000000000E+00  0.00000000000E+00  0.68053459084E+02  0.68215564890E+02  0.47000000000E+01 0. -1.
         -5   -1    0    0    0  501 -0.00000000000E+00 -0.00000000000E+00 -0.27146123185E+03  0.27150191601E+03  0.47000000000E+01 0. -1.
         25    2    1    2    0    0 -0.13010483392E+02  0.51494936571E+02 -0.11150570015E+03  0.17572584735E+03  0.12500020436E+03 0.  0.
         25    2    1    2    0    0  0.13010483392E+02 -0.51494936571E+02 -0.91902072612E+02  0.16399163355E+03  0.12500505491E+03 0.  0.
          5    1    3    3  502    0 -0.59696308573E+02  0.63576007370E+02 -0.70011159508E+02  0.11193395564E+03  0.47000000000E+01 0. -1.
         -5    1    3    3    0  502  0.46685825181E+02 -0.12081070799E+02 -0.41494540646E+02  0.63791891710E+02  0.47000000000E+01 0. -1.
          5    1    4    4  503    0 -0.16699942277E+01  0.13878587139E+02 -0.95593135406E+02  0.96724048708E+02  0.47000000000E+01 0. -1.
         -5    1    4    4    0  503  0.14680477619E+02 -0.65373523711E+02  0.36910627944E+01  0.67267584839E+02  0.47000000000E+01 0. -1.
<mgrwt>
<rscale>  0 0.13581959E+03</rscale>
<asrwt>0</asrwt>
<pdfrwt beam="1">  1        5 0.10485362E-01 0.13582071E+03</pdfrwt>
<pdfrwt beam="2">  1       -5 0.41778865E-01 0.13582071E+03</pdfrwt>
<totfact> 0.29525501E+02</totfact>
</mgrwt>
</event>
<event>
 8    1  0.3759079E-007  0.1312186E+03  0.7546771E-02  0.1225659E+00
          5   -1    0    0  501    0  0.00000000000E+00  0.00000000000E+00  0.21854386943E+02  0.22354065149E+02  0.47000000000E+01 0. -1.
         -5   -1    0    0    0  501 -0.00000000000E+00 -0.00000000000E+00 -0.77871919874E+03  0.77873338216E+03  0.47000000000E+01 0. -1.
         25    2    1    2    0    0  0.31943343262E+02  0.23940674426E+02 -0.37093111719E+03  0.39345674938E+03  0.12499914746E+03 0.  0.
         25    2    1    2    0    0 -0.31943343262E+02 -0.23940674426E+02 -0.38593369461E+03  0.40763069792E+03  0.12499774472E+03 0.  0.
          5    1    3    3  502    0 -0.47932639378E+02  0.92856037227E+01 -0.11877033133E+03  0.12849996871E+03  0.47000000000E+01 0.  1.
         -5    1    3    3    0  502  0.79875982640E+02  0.14655070703E+02 -0.25216078586E+03  0.26495678067E+03  0.47000000000E+01 0.  1.
          5    1    4    4  503    0  0.37411522351E+02 -0.14889817808E+02 -0.49550779935E+02  0.64021078335E+02  0.47000000000E+01 0. -1.
         -5    1    4    4    0  503 -0.69354865612E+02 -0.90508566179E+01 -0.33638291467E+03  0.34360961959E+03  0.47000000000E+01 0. -1.
<mgrwt>
<rscale>  0 0.13121826E+03</rscale>
<asrwt>0</asrwt>
<pdfrwt beam="1">  1        5 0.34017418E-02 0.13121860E+03</pdfrwt>
<pdfrwt beam="2">  1       -5 0.11984246E+00 0.13121860E+03</pdfrwt>
<totfact> 0.17720641E+02</totfact>
</mgrwt>
</event>
<event>
 8    1  0.3759079E-007  0.1916393E+03  0.7546771E-02  0.1156991E+00
          5   -1    0    0  501    0  0.00000000000E+00  0.00000000000E+00  0.11650329034E+03  0.11659805599E+03  0.47000000000E+01 0. -1.
         -5   -1    0    0    0  501 -0.00000000000E+00 -0.00000000000E+00 -0.31537998529E+03  0.31541500459E+03  0.47000000000E+01 0. -1.
         25    2    1    2    0    0 -0.10780884631E+03 -0.97351560601E+02 -0.10704572491E+03  0.21950948125E+03  0.12500220576E+03 0.  0.
         25    2    1    2    0    0  0.10780884631E+03  0.97351560601E+02 -0.91830970046E+02  0.21250357933E+03  0.12499908189E+03 0.  0.
          5    1    3    3  502    0 -0.11452911174E+03 -0.73700278650E+02 -0.31421852850E+02  0.13985017464E+03  0.47000000000E+01 0. -1.
         -5    1    3    3    0  502  0.67202654311E+01 -0.23651281951E+02 -0.75623872056E+02  0.79659306613E+02  0.47000000000E+01 0. -1.
          5    1    4    4  503    0 -0.17338207847E+02  0.30317522110E+02  0.11253652546E+02  0.36993246598E+02  0.47000000000E+01 0. -1.
         -5    1    4    4    0  503  0.12514705416E+03  0.67034038491E+02 -0.10308462259E+03  0.17551033273E+03  0.47000000000E+01 0. -1.
<mgrwt>
<rscale>  0 0.19163880E+03</rscale>
<asrwt>0</asrwt>
<pdfrwt beam="1">  1        5 0.17933567E-01 0.19163931E+03</pdfrwt>
<pdfrwt beam="2">  1       -5 0.48529981E-01 0.19163931E+03</pdfrwt>
<totfact> 0.91484988E+01</totfact>
</mgrwt>
</event>
<event>
 8    1  0.3759079E-007  0.1311010E+03  0.7546771E-02  0.1225837E+00
          5   -1    0    0  501    0  0.00000000000E+00  0.00000000000E+00  0.15510835537E+03  0.15517954732E+03  0.47000000000E+01 0. -1.
         -5   -1    0    0    0  501 -0.00000000000E+00 -0.00000000000E+00 -0.15454243098E+03  0.15461388350E+03  0.47000000000E+01 0. -1.
         25    2    1    2    0    0  0.28124518646E+02  0.27716926511E+02 -0.82224066451E+02  0.15473967612E+03  0.12499741477E+03 0.  0.
         25    2    1    2    0    0 -0.28124518646E+02 -0.27716926511E+02  0.82789990844E+02  0.15505375470E+03  0.12501307011E+03 0.  0.
          5    1    3    3  502    0 -0.25663161012E+02 -0.25058769183E+02 -0.69253096243E+02  0.78132074626E+02  0.47000000000E+01 0. -1.
         -5    1    3    3    0  502  0.53787679658E+02  0.52775695695E+02 -0.12970970208E+02  0.76607601498E+02  0.47000000000E+01 0. -1.
          5    1    4    4  503    0  0.46063891059E+02 -0.16238587859E+02  0.57742101879E+02  0.75774759152E+02  0.47000000000E+01 0.  1.
         -5    1    4    4    0  503 -0.74188409706E+02 -0.11478338652E+02  0.25047888965E+02  0.79278995544E+02  0.47000000000E+01 0.  1.
<mgrwt>
<rscale>  0 0.13109731E+03</rscale>
<asrwt>0</asrwt>
<pdfrwt beam="1">  1        5 0.23873797E-01 0.13110105E+03</pdfrwt>
<pdfrwt beam="2">  1       -5 0.23786731E-01 0.13110105E+03</pdfrwt>
<totfact> 0.19831160E+02</totfact>
</mgrwt>
</event>
<event>
 8    1  0.3759079E-007  0.1292366E+03  0.7546771E-02  0.1228597E+00
         -5   -1    0    0    0  501 -0.00000000000E+00  0.00000000000E+00  0.12291538088E+03  0.12300520662E+03  0.47000000000E+01 0. -1.
          5   -1    0    0  501    0  0.00000000000E+00 -0.00000000000E+00 -0.13572728072E+03  0.13580863275E+03  0.47000000000E+01 0. -1.
         25    2    1    2    0    0  0.11139661293E+02 -0.30806424285E+02 -0.85503538927E+01  0.12951913866E+03  0.12501588258E+03 0.  0.
         25    2    1    2    0    0 -0.11139661293E+02  0.30806424285E+02 -0.42615459485E+01  0.12929470071E+03  0.12500332406E+03 0.  0.
          5    1    3    3  502    0  0.57128306459E+02  0.14986288571E+02  0.13589320285E+02  0.60786444787E+02  0.47000000000E+01 0. -1.
         -5    1    3    3    0  502 -0.45988645167E+02 -0.45792712856E+02 -0.22139674177E+02  0.68732693878E+02  0.47000000000E+01 0. -1.
          5    1    4    4  503    0  0.39939923684E+02  0.44707550779E+02  0.28831304330E+02  0.66688055226E+02  0.47000000000E+01 0.  1.
         -5    1    4    4    0  503 -0.51079584977E+02 -0.13901126494E+02 -0.33092850278E+02  0.62606645484E+02  0.47000000000E+01 0.  1.
<mgrwt>
<rscale>  0 0.12923356E+03</rscale>
<asrwt>0</asrwt>
<pdfrwt beam="2">  1        5 0.20894288E-01 0.12923660E+03</pdfrwt>
<pdfrwt beam="1">  1       -5 0.18923226E-01 0.12923660E+03</pdfrwt>
<totfact> 0.38984992E+02</totfact>
</mgrwt>
</event>
<event>
 8    1  0.3759079E-007  0.1468607E+03  0.7546771E-02  0.1204386E+00
         -5   -1    0    0    0  501 -0.00000000000E+00  0.00000000000E+00  0.31928290991E+03  0.31931750118E+03  0.47000000000E+01 0.  1.
          5   -1    0    0  501    0  0.00000000000E+00 -0.00000000000E+00 -0.13322812060E+03  0.13331099774E+03  0.47000000000E+01 0.  1.
         25    2    1    2    0    0  0.69019087016E+02 -0.34330550837E+02  0.25198052615E+03  0.29165433377E+03  0.12500337498E+03 0.  0.
         25    2    1    2    0    0 -0.69019087016E+02  0.34330550837E+02 -0.65925736834E+02  0.16097416516E+03  0.12499703187E+03 0.  0.
          5    1    4    4  502    0 -0.89436732217E+02 -0.19572019298E+01 -0.76452413442E+02  0.11777020519E+03  0.47000000000E+01 0. -1.
         -5    1    4    4    0  502  0.20417645201E+02  0.36287752767E+02  0.10526676608E+02  0.43203959967E+02  0.47000000000E+01 0. -1.
          5    1    3    3  503    0  0.26044859618E+02 -0.61102064824E+02  0.22384852547E+03  0.23354239314E+03  0.47000000000E+01 0.  1.
         -5    1    3    3    0  503  0.42974227398E+02  0.26771513987E+02  0.28132000674E+02  0.58111940628E+02  0.47000000000E+01 0.  1.
<mgrwt>
<rscale>  0 0.14685935E+03</rscale>
<asrwt>0</asrwt>
<pdfrwt beam="2">  1        5 0.20505670E-01 0.14686070E+03</pdfrwt>
<pdfrwt beam="1">  1       -5 0.49129483E-01 0.14686070E+03</pdfrwt>
<totfact> 0.64192639E+01</totfact>
</mgrwt>
</event>
<event>
 8    1  0.3759079E-007  0.1315183E+03  0.7546771E-02  0.1225221E+00
         -5   -1    0    0    0  501 -0.00000000000E+00  0.00000000000E+00  0.18552111136E+03  0.18558063682E+03  0.47000000000E+01 0.  1.
          5   -1    0    0  501    0  0.00000000000E+00 -0.00000000000E+00 -0.11524513987E+03  0.11534093923E+03  0.47000000000E+01 0.  1.
         25    2    1    2    0    0  0.26583188849E+02 -0.31082170891E+02  0.10104579131E+03  0.16585327564E+03  0.12499715925E+03 0.  0.
         25    2    1    2    0    0 -0.26583188849E+02  0.31082170891E+02 -0.30769819818E+02  0.13506830041E+03  0.12499558667E+03 0.  0.
          5    1    3    3  502    0  0.16405976008E+02  0.22010252250E+02  0.10764574675E+03  0.11119039547E+03  0.47000000000E+01 0.  1.
         -5    1    3    3    0  502  0.10177212841E+02 -0.53092423141E+02 -0.65999554302E+01  0.54662880164E+02  0.47000000000E+01 0.  1.
          5    1    4    4  503    0  0.34332078158E+02 -0.26124483840E+02 -0.27358733767E+02  0.51300785178E+02  0.47000000000E+01 0. -1.
         -5    1    4    4    0  503 -0.60915267008E+02  0.57206654730E+02 -0.34110860512E+01  0.83767515232E+02  0.47000000000E+01 0. -1.
<mgrwt>
<rscale>  0 0.13151790E+03</rscale>
<asrwt>0</asrwt>
<pdfrwt beam="2">  1        5 0.17741970E-01 0.13151828E+03</pdfrwt>
<pdfrwt beam="1">  1       -5 0.28553657E-01 0.13151828E+03</pdfrwt>
<totfact> 0.24343575E+02</totfact>
</mgrwt>
</event>
<event>
 8    1  0.3759079E-007  0.1325989E+03  0.7546771E-02  0.1223650E+00
         -5   -1    0    0    0  501 -0.00000000000E+00  0.00000000000E+00  0.11489243195E+03  0.11498852516E+03  0.47000000000E+01 0. -1.
          5   -1    0    0  501    0  0.00000000000E+00 -0.00000000000E+00 -0.15292311684E+03  0.15299532563E+03  0.47000000000E+01 0. -1.
         25    2    1    2    0    0 -0.38757963058E+02  0.21318617542E+02 -0.15829258496E+02  0.13354038147E+03  0.12500321958E+03 0.  0.
         25    2    1    2    0    0  0.38757963058E+02 -0.21318617542E+02 -0.22201426396E+02  0.13444346932E+03  0.12500191981E+03 0.  0.
          5    1    3    3  502    0 -0.59041851829E+02  0.59197569362E+02 -0.28566566816E+02  0.88478422373E+02  0.47000000000E+01 0.  1.
         -5    1    3    3    0  502  0.20283888771E+02 -0.37878951821E+02  0.12737308321E+02  0.45061959100E+02  0.47000000000E+01 0.  1.
          5    1    4    4  503    0  0.68410710006E+02  0.25499319015E+02  0.33526415283E+01  0.73236402963E+02  0.47000000000E+01 0. -1.
         -5    1    4    4    0  503 -0.29652746947E+02 -0.46817936556E+02 -0.25554067924E+02  0.61207066360E+02  0.47000000000E+01 0. -1.
<mgrwt>
<rscale>  0 0.13259859E+03</rscale>
<asrwt>0</asrwt>
<pdfrwt beam="2">  1        5 0.23539580E-01 0.13259890E+03</pdfrwt>
<pdfrwt beam="1">  1       -5 0.17688705E-01 0.13259890E+03</pdfrwt>
<totfact> 0.35595366E+02</totfact>
</mgrwt>
</event>
<event>
 8    1  0.3759079E-007  0.1381651E+03  0.7546771E-02  0.1215820E+00
          5   -1    0    0  501    0  0.00000000000E+00  0.00000000000E+00  0.71979727169E+02  0.72133009942E+02  0.47000000000E+01 0.  1.
         -5   -1    0    0    0  501 -0.00000000000E+00 -0.00000000000E+00 -0.26475582266E+03  0.26479753706E+03  0.47000000000E+01 0.  1.
         25    2    1    2    0    0  0.12893556535E+02 -0.57438424345E+02 -0.97114770947E+02  0.16888086897E+03  0.12499621105E+03 0.  0.
         25    2    1    2    0    0 -0.12893556535E+02  0.57438424345E+02 -0.95661324541E+02  0.16804967803E+03  0.12499675548E+03 0.  0.
          5    1    4    4  502    0 -0.55161350767E+02  0.39424082731E+02 -0.73120839154E+01  0.68356341979E+02  0.47000000000E+01 0. -1.
         -5    1    4    4    0  502  0.42267794232E+02  0.18014341614E+02 -0.88349240625E+02  0.99693336046E+02  0.47000000000E+01 0. -1.
          5    1    3    3  503    0  0.38040416366E+02  0.59417171447E+01  0.11583247755E+02  0.40480105095E+02  0.47000000000E+01 0.  1.
         -5    1    3    3    0  503 -0.25146859831E+02 -0.63380141490E+02 -0.10869801870E+03  0.12840076388E+03  0.47000000000E+01 0.  1.
<mgrwt>
<rscale>  0 0.13816501E+03</rscale>
<asrwt>0</asrwt>
<pdfrwt beam="1">  1        5 0.11088804E-01 0.13816514E+03</pdfrwt>
<pdfrwt beam="2">  1       -5 0.40746664E-01 0.13816514E+03</pdfrwt>
<totfact> 0.28339370E+02</totfact>
</mgrwt>
</event>
<event>
 8    1  0.3759079E-007  0.1290062E+03  0.7546771E-02  0.1228938E+00
          5   -1    0    0  501    0  0.00000000000E+00  0.00000000000E+00  0.52878147578E+03  0.52880236302E+03  0.47000000000E+01 0. -1.
         -5   -1    0    0    0  501 -0.00000000000E+00 -0.00000000000E+00 -0.33896224531E+02  0.34220520707E+02  0.47000000000E+01 0. -1.
         25    2    1    2    0    0 -0.24526636077E+02  0.20414210193E+02  0.16958430124E+03  0.21307529811E+03  0.12499580627E+03 0.  0.
         25    2    1    2    0    0  0.24526636077E+02 -0.20414210193E+02  0.32530095001E+03  0.34994758561E+03  0.12499723493E+03 0.  0.
          5    1    3    3  502    0  0.34651764315E+02  0.12971937837E+02  0.14268110088E+03  0.14747543012E+03  0.47000000000E+01 0. -1.
         -5    1    3    3    0  502 -0.59178400392E+02  0.74422723554E+01  0.26903200357E+02  0.65599867989E+02  0.47000000000E+01 0. -1.
          5    1    4    4  503    0  0.58814662374E+02  0.23632034851E+02  0.10590579361E+03  0.12351422874E+03  0.47000000000E+01 0. -1.
         -5    1    4    4    0  503 -0.34288026297E+02 -0.44046245044E+02  0.21939515640E+03  0.22643335687E+03  0.47000000000E+01 0. -1.
<mgrwt>
<rscale>  0 0.12900587E+03</rscale>
<asrwt>0</asrwt>
<pdfrwt beam="1">  1        5 0.81377551E-01 0.12900622E+03</pdfrwt>
<pdfrwt beam="2">  1       -5 0.52413562E-02 0.12900622E+03</pdfrwt>
<totfact> 0.22118933E+02</totfact>
</mgrwt>
</event>
<event>
 8    1  0.3759079E-007  0.1323254E+03  0.7546771E-02  0.1224067E+00
         -5   -1    0    0    0  501 -0.00000000000E+00  0.00000000000E+00  0.10746626948E+03  0.10756899682E+03  0.47000000000E+01 0.  1.
          5   -1    0    0  501    0  0.00000000000E+00 -0.00000000000E+00 -0.19718947072E+03  0.19724547489E+03  0.47000000000E+01 0.  1.
         25    2    1    2    0    0 -0.38118699682E+02  0.20775944571E+02  0.18906725059E+02  0.13361149138E+03  0.12493955033E+03 0.  0.
         25    2    1    2    0    0  0.38118699682E+02 -0.20775944571E+02 -0.10862992630E+03  0.17120298033E+03  0.12500129778E+03 0.  0.
          5    1    4    4  502    0  0.48191499964E+02 -0.97726686812E+01  0.10957377553E+02  0.50597231592E+02  0.47000000000E+01 0.  1.
         -5    1    4    4    0  502 -0.10072800281E+02 -0.11003275890E+02 -0.11958730385E+03  0.12060574874E+03  0.47000000000E+01 0.  1.
          5    1    3    3  503    0  0.39606850687E+02  0.27064586019E+02  0.26702035995E+02  0.55102478746E+02  0.47000000000E+01 0. -1.
         -5    1    3    3    0  503 -0.77725550369E+02 -0.62886414473E+01 -0.77953109367E+01  0.78509012629E+02  0.47000000000E+01 0. -1.
<mgrwt>
<rscale>  0 0.13231077E+03</rscale>
<asrwt>0</asrwt>
<pdfrwt beam="2">  1        5 0.30349052E-01 0.13232536E+03</pdfrwt>
<pdfrwt beam="1">  1       -5 0.16545482E-01 0.13232536E+03</pdfrwt>
<totfact> 0.24611183E+02</totfact>
</mgrwt>
</event>
<event>
 8    1  0.3759079E-007  0.1458666E+03  0.7546771E-02  0.1205646E+00
          5   -1    0    0  501    0  0.00000000000E+00  0.00000000000E+00  0.70838160316E+02  0.70993907886E+02  0.47000000000E+01 0. -1.
         -5   -1    0    0    0  501 -0.00000000000E+00 -0.00000000000E+00 -0.31086525102E+03  0.31090077885E+03  0.47000000000E+01 0. -1.
         25    2    1    2    0    0 -0.67120992262E+02  0.33863976851E+02 -0.15593650808E+03  0.21352514160E+03  0.12499918004E+03 0.  0.
         25    2    1    2    0    0  0.67120992262E+02 -0.33863976851E+02 -0.84090582626E+02  0.16836954514E+03  0.12500032446E+03 0.  0.
          5    1    4    4  502    0  0.22619117238E+02 -0.69227615547E+02 -0.82063923750E+01  0.73440602494E+02  0.47000000000E+01 0. -1.
         -5    1    4    4    0  502  0.44501875024E+02  0.35363638696E+02 -0.75884190251E+02  0.94928942650E+02  0.47000000000E+01 0. -1.
          5    1    3    3  503    0 -0.73464632411E+02  0.72823526020E+02 -0.93543411501E+02  0.13954489597E+03  0.47000000000E+01 0. -1.
         -5    1    3    3    0  503  0.63436401489E+01 -0.38959549170E+02 -0.62393096577E+02  0.73980245622E+02  0.47000000000E+01 0. -1.
<mgrwt>
<rscale>  0 0.14586640E+03</rscale>
<asrwt>0</asrwt>
<pdfrwt beam="1">  1        5 0.10912892E-01 0.14586664E+03</pdfrwt>
<pdfrwt beam="2">  1       -5 0.47840136E-01 0.14586664E+03</pdfrwt>
<totfact> 0.21265076E+02</totfact>
</mgrwt>
</event>
<event>
 8    1  0.3759079E-007  0.1398623E+03  0.7546771E-02  0.1213516E+00
          5   -1    0    0  501    0  0.00000000000E+00  0.00000000000E+00  0.12416381026E+03  0.12425273348E+03  0.47000000000E+01 0. -1.
         -5   -1    0    0    0  501 -0.00000000000E+00 -0.00000000000E+00 -0.30310921489E+03  0.30314565171E+03  0.47000000000E+01 0. -1.
         25    2    1    2    0    0 -0.55666414426E+02 -0.28942116458E+02 -0.23762349868E+03  0.27572576669E+03  0.12499350180E+03 0.  0.
         25    2    1    2    0    0  0.55666414426E+02  0.28942116458E+02  0.58678094046E+02  0.15167261850E+03  0.12500027472E+03 0.  0.
          5    1    4    4  502    0  0.82084895694E+02  0.57430522572E+02  0.47505341001E+02  0.11097316093E+03  0.47000000000E+01 0. -1.
         -5    1    4    4    0  502 -0.26418481268E+02 -0.28488406114E+02  0.11172753045E+02  0.40699457565E+02  0.47000000000E+01 0. -1.
          5    1    3    3  503    0  0.23878553028E+02 -0.36259836602E+02 -0.29368205121E+02  0.52626443136E+02  0.47000000000E+01 0. -1.
         -5    1    3    3    0  503 -0.79544967454E+02  0.73177201440E+01 -0.20825529356E+03  0.22309932355E+03  0.47000000000E+01 0. -1.
<mgrwt>
<rscale>  0 0.13986079E+03</rscale>
<asrwt>0</asrwt>
<pdfrwt beam="1">  1        5 0.19111768E-01 0.13986231E+03</pdfrwt>
<pdfrwt beam="2">  1       -5 0.46641830E-01 0.13986231E+03</pdfrwt>
<totfact> 0.80428048E+01</totfact>
</mgrwt>
</event>
<event>
 8    1  0.3759079E-007  0.1393607E+03  0.7546771E-02  0.1214196E+00
         -5   -1    0    0    0  501 -0.00000000000E+00  0.00000000000E+00  0.31235680652E+03  0.31239216472E+03  0.47000000000E+01 0.  1.
          5   -1    0    0  501    0  0.00000000000E+00 -0.00000000000E+00 -0.64872508333E+02  0.65042542519E+02  0.47000000000E+01 0.  1.
         25    2    1    2    0    0 -0.44082750756E+02  0.43026501931E+02  0.16307805518E+03  0.21450581952E+03  0.12499490288E+03 0.  0.
         25    2    1    2    0    0  0.44082750756E+02 -0.43026501931E+02  0.84406243004E+02  0.16292888771E+03  0.12500735903E+03 0.  0.
          5    1    4    4  502    0 -0.42338199443E+02 -0.26226210204E+02  0.20608599318E+02  0.54103064604E+02  0.47000000000E+01 0.  1.
         -5    1    4    4    0  502  0.86420950199E+02 -0.16800291728E+02  0.63797643686E+02  0.10882582311E+03  0.47000000000E+01 0.  1.
          5    1    3    3  503    0  0.20611986344E+02 -0.18522450971E+02  0.10303051022E+03  0.10679565163E+03  0.47000000000E+01 0. -1.
         -5    1    3    3    0  503 -0.64694737100E+02  0.61548952903E+02  0.60047544959E+02  0.10771016789E+03  0.47000000000E+01 0. -1.
<mgrwt>
<rscale>  0 0.13935792E+03</rscale>
<asrwt>0</asrwt>
<pdfrwt beam="2">  1        5 0.99961854E-02 0.13936071E+03</pdfrwt>
<pdfrwt beam="1">  1       -5 0.48070692E-01 0.13936071E+03</pdfrwt>
<totfact> 0.24178364E+02</totfact>
</mgrwt>
</event>
<event>
 8    1  0.3759079E-007  0.1566009E+03  0.7546771E-02  0.1192589E+00
         -5   -1    0    0    0  501 -0.00000000000E+00  0.00000000000E+00  0.24240844368E+03  0.24245400299E+03  0.47000000000E+01 0.  1.
          5   -1    0    0  501    0  0.00000000000E+00 -0.00000000000E+00 -0.11561042331E+03  0.11570592024E+03  0.47000000000E+01 0.  1.
         25    2    1    2    0    0 -0.72334386699E+02  0.60541958690E+02  0.12689858908E+03  0.20156163899E+03  0.12500500046E+03 0.  0.
         25    2    1    2    0    0  0.72334386699E+02 -0.60541958690E+02 -0.10056871756E+00  0.15659828424E+03  0.12500168100E+03 0.  0.
          5    1    3    3  502    0  0.30747825643E+02  0.43695148307E+01  0.56368668396E+02  0.64529359352E+02  0.47000000000E+01 0.  1.
         -5    1    3    3    0  502 -0.10308221234E+03  0.56172443859E+02  0.70529920685E+02  0.13703227964E+03  0.47000000000E+01 0.  1.
          5    1    4    4  503    0  0.53408111971E+02 -0.90855644280E+02  0.29956358632E+02  0.10966607472E+03  0.47000000000E+01 0. -1.
         -5    1    4    4    0  503  0.18926274727E+02  0.30313685590E+02 -0.30056927349E+02  0.46932209524E+02  0.47000000000E+01 0. -1.
<mgrwt>
<rscale>  0 0.15660024E+03</rscale>
<asrwt>0</asrwt>
<pdfrwt beam="2">  1        5 0.17797069E-01 0.15660090E+03</pdfrwt>
<pdfrwt beam="1">  1       -5 0.37304457E-01 0.15660090E+03</pdfrwt>
<totfact> 0.15080175E+02</totfact>
</mgrwt>
</event>
<event>
 8    1  0.3759079E-007  0.1329181E+03  0.7546771E-02  0.1223198E+00
          5   -1    0    0  501    0  0.00000000000E+00  0.00000000000E+00  0.41183497400E+02  0.41450819752E+02  0.47000000000E+01 0. -1.
         -5   -1    0    0    0  501 -0.00000000000E+00 -0.00000000000E+00 -0.46073867694E+03  0.46076264869E+03  0.47000000000E+01 0. -1.
         25    2    1    2    0    0 -0.20898212783E+02 -0.40075692410E+02 -0.27748525712E+03  0.30767726631E+03  0.12499774345E+03 0.  0.
         25    2    1    2    0    0  0.20898212783E+02  0.40075692410E+02 -0.14206992242E+03  0.19453620213E+03  0.12497069521E+03 0.  0.
          5    1    3    3  502    0  0.48286967783E+02  0.12696817908E+01 -0.14079622038E+03  0.14892585075E+03  0.47000000000E+01 0.  1.
         -5    1    3    3    0  502 -0.69185180565E+02 -0.41345374201E+02 -0.13668903674E+03  0.15875141556E+03  0.47000000000E+01 0.  1.
          5    1    4    4  503    0  0.24428806247E+01  0.59421147916E+02 -0.10972265298E+02  0.60657407554E+02  0.47000000000E+01 0.  1.
         -5    1    4    4    0  503  0.18455332158E+02 -0.19345455505E+02 -0.13109765712E+03  0.13387879457E+03  0.47000000000E+01 0.  1.
<mgrwt>
<rscale>  0 0.13291178E+03</rscale>
<asrwt>0</asrwt>
<pdfrwt beam="1">  1        5 0.63583302E-02 0.13291814E+03</pdfrwt>
<pdfrwt beam="2">  1       -5 0.70905277E-01 0.13291814E+03</pdfrwt>
<totfact> 0.22165025E+02</totfact>
</mgrwt>
</event>
<event>
 8    1  0.3759079E-007  0.1649510E+03  0.7546771E-02  0.1183222E+00
         -5   -1    0    0    0  501 -0.00000000000E+00  0.00000000000E+00  0.16235025248E+04  0.16235093280E+04  0.47000000000E+01 0. -1.
          5   -1    0    0  501    0  0.00000000000E+00 -0.00000000000E+00 -0.16625878114E+02  0.17277436820E+02  0.47000000000E+01 0. -1.
         25    2    1    2    0    0 -0.49868980214E+01  0.10751465302E+03  0.89270606649E+03  0.90781768382E+03  0.12499822454E+03 0.  0.
         25    2    1    2    0    0  0.49868980214E+01 -0.10751465302E+03  0.71417058020E+03  0.73296908098E+03  0.12497914342E+03 0.  0.
          5    1    4    4  502    0  0.62623815611E+02 -0.73710660381E+02  0.37939127670E+03  0.39155438265E+03  0.47000000000E+01 0.  1.
         -5    1    4    4    0  502 -0.57636917589E+02 -0.33803992637E+02  0.33477930350E+03  0.34141469833E+03  0.47000000000E+01 0.  1.
          5    1    3    3  503    0  0.13263229109E+02  0.12258697472E+03  0.84875624509E+03  0.85767868878E+03  0.47000000000E+01 0. -1.
         -5    1    3    3    0  503 -0.18250127131E+02 -0.15072321702E+02  0.43949821404E+02  0.50138995036E+02  0.47000000000E+01 0. -1.
<mgrwt>
<rscale>  0 0.16494737E+03</rscale>
<asrwt>0</asrwt>
<pdfrwt beam="2">  1        5 0.26084706E-02 0.16495098E+03</pdfrwt>
<pdfrwt beam="1">  1       -5 0.24982026E+00 0.16495098E+03</pdfrwt>
<totfact> 0.32992407E+01</totfact>
</mgrwt>
</event>
<event>
 8    1  0.3759079E-007  0.1405519E+03  0.7546771E-02  0.1212590E+00
          5   -1    0    0  501    0  0.00000000000E+00  0.00000000000E+00  0.65639223373E+03  0.65640906034E+03  0.47000000000E+01 0.  1.
         -5   -1    0    0    0  501 -0.00000000000E+00 -0.00000000000E+00 -0.30235103691E+02  0.30598226994E+02  0.47000000000E+01 0.  1.
         25    2    1    2    0    0  0.63939303284E+02 -0.63724469622E+01  0.27681642967E+03  0.31045214886E+03  0.12499743360E+03 0.  0.
         25    2    1    2    0    0 -0.63939303284E+02  0.63724469622E+01  0.34934070036E+03  0.37655513848E+03  0.12500401914E+03 0.  0.
          5    1    3    3  502    0 -0.12690106111E+02 -0.36889563055E+02  0.17488263686E+03  0.17924258793E+03  0.47000000000E+01 0.  1.
         -5    1    3    3    0  502  0.76629409395E+02  0.30517116093E+02  0.10193379282E+03  0.13120956092E+03  0.47000000000E+01 0.  1.
          5    1    4    4  503    0 -0.31569499535E+02  0.27403188653E+02  0.23075296482E+02  0.47980489336E+02  0.47000000000E+01 0.  1.
         -5    1    4    4    0  503 -0.32369803749E+02 -0.21030741691E+02  0.32626540388E+03  0.32857464914E+03  0.47000000000E+01 0.  1.
<mgrwt>
<rscale>  0 0.14055047E+03</rscale>
<asrwt>0</asrwt>
<pdfrwt beam="1">  1        5 0.10101264E+00 0.14055194E+03</pdfrwt>
<pdfrwt beam="2">  1       -5 0.46807817E-02 0.14055194E+03</pdfrwt>
<totfact> 0.16435198E+02</totfact>
</mgrwt>
</event>
<event>
 8    1  0.3759079E-007  0.1309922E+03  0.7546771E-02  0.1225999E+00
         -5   -1    0    0    0  501 -0.00000000000E+00  0.00000000000E+00  0.30312234348E+03  0.30315877872E+03  0.47000000000E+01 0. -1.
          5   -1    0    0  501    0  0.00000000000E+00 -0.00000000000E+00 -0.56624033038E+02  0.56818756740E+02  0.47000000000E+01 0. -1.
         25    2    1    2    0    0  0.99672015643E+00 -0.39104415041E+02  0.13292325755E+03  0.18662142222E+03  0.12501525551E+03 0.  0.
         25    2    1    2    0    0 -0.99672015643E+00  0.39104415041E+02  0.11357505290E+03  0.17335611324E+03  0.12499160224E+03 0.  0.
          5    1    4    4  502    0  0.34058032068E+02  0.62724243915E+02  0.26193349572E+02  0.76173892410E+02  0.47000000000E+01 0.  1.
         -5    1    4    4    0  502 -0.35054752225E+02 -0.23619828875E+02  0.87381703325E+02  0.97182220831E+02  0.47000000000E+01 0.  1.
          5    1    3    3  503    0 -0.33207053417E+02 -0.68806637294E+02  0.48268235922E+02  0.90492951833E+02  0.47000000000E+01 0.  1.
         -5    1    3    3    0  503  0.34203773573E+02  0.29702222254E+02  0.84655021624E+02  0.96128470390E+02  0.47000000000E+01 0.  1.
<mgrwt>
<rscale>  0 0.13098658E+03</rscale>
<asrwt>0</asrwt>
<pdfrwt beam="2">  1        5 0.87291712E-02 0.13099222E+03</pdfrwt>
<pdfrwt beam="1">  1       -5 0.46651988E-01 0.13099222E+03</pdfrwt>
<totfact> 0.31885540E+02</totfact>
</mgrwt>
</event>
<event>
 8    1  0.3759079E-007  0.1483980E+03  0.7546771E-02  0.1202458E+00
         -5   -1    0    0    0  501 -0.00000000000E+00  0.00000000000E+00  0.37639225432E+03  0.37642159756E+03  0.47000000000E+01 0. -1.
          5   -1    0    0  501    0  0.00000000000E+00 -0.00000000000E+00 -0.62923032500E+02  0.63098320255E+02  0.47000000000E+01 0. -1.
         25    2    1    2    0    0 -0.62706661404E+02  0.49644142145E+02  0.21568913841E+03  0.26180406330E+03  0.12499158732E+03 0.  0.
         25    2    1    2    0    0  0.62706661404E+02 -0.49644142145E+02  0.97780083408E+02  0.17771585451E+03  0.12500125599E+03 0.  0.
          5    1    3    3  502    0 -0.88758247653E+02  0.66216336759E+02  0.13133235244E+03  0.17185140843E+03  0.47000000000E+01 0. -1.
         -5    1    3    3    0  502  0.26051586248E+02 -0.16572194614E+02  0.84356785969E+02  0.89952654877E+02  0.47000000000E+01 0. -1.
          5    1    4    4  503    0 -0.26473530776E+02  0.20372484604E+02  0.32278757860E+02  0.46689336788E+02  0.47000000000E+01 0.  1.
         -5    1    4    4    0  503  0.89180192180E+02 -0.70016626749E+02  0.65501325548E+02  0.13102651773E+03  0.47000000000E+01 0.  1.
<mgrwt>
<rscale>  0 0.14839601E+03</rscale>
<asrwt>0</asrwt>
<pdfrwt beam="2">  1        5 0.96962074E-02 0.14839805E+03</pdfrwt>
<pdfrwt beam="1">  1       -5 0.57922242E-01 0.14839805E+03</pdfrwt>
<totfact> 0.17466479E+02</totfact>
</mgrwt>
</event>
<event>
 8    1  0.3759079E-007  0.1677129E+03  0.7546771E-02  0.1180254E+00
          5   -1    0    0  501    0  0.00000000000E+00  0.00000000000E+00  0.13445758431E+03  0.13453970409E+03  0.47000000000E+01 0.  1.
         -5   -1    0    0    0  501 -0.00000000000E+00 -0.00000000000E+00 -0.22109580432E+03  0.22114575440E+03  0.47000000000E+01 0.  1.
         25    2    1    2    0    0  0.41755879541E+02 -0.10373064263E+03 -0.84869486777E+02  0.18796320340E+03  0.12499494530E+03 0.  0.
         25    2    1    2    0    0 -0.41755879541E+02  0.10373064263E+03 -0.17687332416E+01  0.16772225509E+03  0.12499610690E+03 0.  0.
          5    1    4    4  502    0 -0.37336773047E+02  0.51347774073E+02 -0.61152356359E+02  0.88274170696E+02  0.47000000000E+01 0. -1.
         -5    1    4    4    0  502 -0.44191064941E+01  0.52382868553E+02  0.59383623117E+02  0.79448084399E+02  0.47000000000E+01 0. -1.
          5    1    3    3  503    0 -0.20320291825E+02 -0.13297813090E+02 -0.73543167868E+02  0.77591453349E+02  0.47000000000E+01 0.  1.
         -5    1    3    3    0  503  0.62076171365E+02 -0.90432829536E+02 -0.11326318909E+02  0.11037175005E+03  0.47000000000E+01 0.  1.
<mgrwt>
<rscale>  0 0.16771271E+03</rscale>
<asrwt>0</asrwt>
<pdfrwt beam="1">  1        5 0.20695941E-01 0.16771293E+03</pdfrwt>
<pdfrwt beam="2">  1       -5 0.34024898E-01 0.16771293E+03</pdfrwt>
<totfact> 0.13996963E+02</totfact>
</mgrwt>
</event>
<event>
 8    1  0.3759079E-007  0.1301934E+03  0.7546771E-02  0.1227196E+00
          5   -1    0    0  501    0  0.00000000000E+00  0.00000000000E+00  0.34824708930E+03  0.34827880384E+03  0.47000000000E+01 0.  1.
         -5   -1    0    0    0  501 -0.00000000000E+00 -0.00000000000E+00 -0.49286927480E+02  0.49510516261E+02  0.47000000000E+01 0.  1.
         25    2    1    2    0    0  0.71649061162E+01 -0.35693006460E+02  0.12434734437E+03  0.17998214031E+03  0.12492390559E+03 0.  0.
         25    2    1    2    0    0 -0.71649061162E+01  0.35693006460E+02  0.17461281745E+03  0.21780717979E+03  0.12500001986E+03 0.  0.
          5    1    3    3  502    0 -0.20599171604E+02 -0.76584018724E+02  0.65317509419E+02  0.10284894181E+03  0.47000000000E+01 0. -1.
         -5    1    3    3    0  502  0.27764077720E+02  0.40891012264E+02  0.59029834952E+02  0.77133198495E+02  0.47000000000E+01 0. -1.
          5    1    4    4  503    0 -0.16481741573E+02 -0.24963545014E+01  0.17728377426E+03  0.17812778056E+03  0.47000000000E+01 0. -1.
         -5    1    4    4    0  503  0.93168354571E+01  0.38189360962E+02 -0.26709568117E+01  0.39679399238E+02  0.47000000000E+01 0. -1.
<mgrwt>
<rscale>  0 0.13017517E+03</rscale>
<asrwt>0</asrwt>
<pdfrwt beam="1">  1        5 0.53596116E-01 0.13019344E+03</pdfrwt>
<pdfrwt beam="2">  1       -5 0.76022426E-02 0.13019344E+03</pdfrwt>
<totfact> 0.30060273E+02</totfact>
</mgrwt>
</event>
<event>
 8    1  0.3759079E-007  0.1275408E+03  0.7546771E-02  0.1231151E+00
          5   -1    0    0  501    0  0.00000000000E+00  0.00000000000E+00  0.69723779556E+02  0.69882010815E+02  0.47000000000E+01 0. -1.
         -5   -1    0    0    0  501 -0.00000000000E+00 -0.00000000000E+00 -0.23897952984E+03  0.23902574272E+03  0.47000000000E+01 0. -1.
         25    2    1    2    0    0 -0.24050006740E+02 -0.79555982433E+01 -0.10934379362E+03  0.16799607355E+03  0.12499968463E+03 0.  0.
         25    2    1    2    0    0  0.24050006740E+02  0.79555982433E+01 -0.59911956663E+02  0.14091167998E+03  0.12499985855E+03 0.  0.
          5    1    3    3  502    0  0.29311110149E+02 -0.17543869266E+02 -0.10820354479E+03  0.11356507224E+03  0.47000000000E+01 0. -1.
         -5    1    3    3    0  502 -0.53361116890E+02  0.95882710228E+01 -0.11402488317E+01  0.54431001316E+02  0.47000000000E+01 0. -1.
          5    1    4    4  503    0  0.21010417737E+02 -0.51838693058E+02 -0.58161758244E+02  0.80830488515E+02  0.47000000000E+01 0.  1.
         -5    1    4    4    0  503  0.30395890032E+01  0.59794291302E+02 -0.17501984190E+01  0.60081191467E+02  0.47000000000E+01 0.  1.
<mgrwt>
<rscale>  0 0.12754077E+03</rscale>
<asrwt>0</asrwt>
<pdfrwt beam="1">  1        5 0.10742462E-01 0.12754081E+03</pdfrwt>
<pdfrwt beam="2">  1       -5 0.36781808E-01 0.12754081E+03</pdfrwt>
<totfact> 0.35866919E+02</totfact>
</mgrwt>
</event>
<event>
 8    1  0.3759079E-007  0.1545389E+03  0.7546771E-02  0.1195008E+00
          5   -1    0    0  501    0  0.00000000000E+00  0.00000000000E+00  0.34658734320E+03  0.34661920960E+03  0.47000000000E+01 0. -1.
         -5   -1    0    0    0  501 -0.00000000000E+00 -0.00000000000E+00 -0.69560185218E+02  0.69718787766E+02  0.47000000000E+01 0. -1.
         25    2    1    2    0    0 -0.71250274450E+02 -0.56383094538E+02  0.11658220602E+03  0.19358118409E+03  0.12500643628E+03 0.  0.
         25    2    1    2    0    0  0.71250274450E+02  0.56383094538E+02  0.16044495195E+03  0.22275681328E+03  0.12498944074E+03 0.  0.
          5    1    3    3  502    0 -0.36083781781E+02 -0.37369862353E+02 -0.16370719006E+02  0.54668421970E+02  0.47000000000E+01 0. -1.
         -5    1    3    3    0  502 -0.35166492670E+02 -0.19013232185E+02  0.13295292503E+03  0.13891276212E+03  0.47000000000E+01 0. -1.
          5    1    4    4  503    0  0.50650969699E+02  0.65673524024E+02  0.17620761644E+03  0.19480694695E+03  0.47000000000E+01 0. -1.
         -5    1    4    4    0  503  0.20599304751E+02 -0.92904294862E+01 -0.15762664483E+02  0.27949866330E+02  0.47000000000E+01 0. -1.
<mgrwt>
<rscale>  0 0.15453544E+03</rscale>
<asrwt>0</asrwt>
<pdfrwt beam="1">  1        5 0.53335780E-01 0.15453888E+03</pdfrwt>
<pdfrwt beam="2">  1       -5 0.10716219E-01 0.15453888E+03</pdfrwt>
<totfact> 0.17756276E+02</totfact>
</mgrwt>
</event>
<event>
 8    1  0.3759079E-007  0.1390927E+03  0.7546771E-02  0.1214560E+00
         -5   -1    0    0    0  501 -0.00000000000E+00  0.00000000000E+00  0.25793228546E+03  0.25797510322E+03  0.47000000000E+01 0. -1.
          5   -1    0    0  501    0  0.00000000000E+00 -0.00000000000E+00 -0.74881114972E+02  0.75028470459E+02  0.47000000000E+01 0. -1.
         25    2    1    2    0    0  0.54847275443E+02  0.26716286034E+02  0.90168897618E+02  0.16574959940E+03  0.12498206287E+03 0.  0.
         25    2    1    2    0    0 -0.54847275443E+02 -0.26716286034E+02  0.92882272872E+02  0.16725397429E+03  0.12499916695E+03 0.  0.
          5    1    4    4  502    0 -0.61155143854E+02 -0.65691390315E+02  0.90309831998E+02  0.12740983532E+03  0.47000000000E+01 0. -1.
         -5    1    4    4    0  502  0.63078684110E+01  0.38975104281E+02  0.25724408735E+01  0.39844138963E+02  0.47000000000E+01 0. -1.
          5    1    3    3  503    0  0.66427500260E+02  0.67096933056E+02  0.75577427510E+02  0.12103160234E+03  0.47000000000E+01 0. -1.
         -5    1    3    3    0  503 -0.11580224816E+02 -0.40380647022E+02  0.14591470108E+02  0.44717997055E+02  0.47000000000E+01 0. -1.
<mgrwt>
<rscale>  0 0.13908884E+03</rscale>
<asrwt>0</asrwt>
<pdfrwt beam="2">  1        5 0.11534800E-01 0.13909269E+03</pdfrwt>
<pdfrwt beam="1">  1       -5 0.39696519E-01 0.13909269E+03</pdfrwt>
<totfact> 0.27950849E+02</totfact>
</mgrwt>
</event>
<event>
 8    1  0.3759079E-007  0.1426373E+03  0.7546771E-02  0.1209824E+00
         -5   -1    0    0    0  501 -0.00000000000E+00  0.00000000000E+00  0.11799971049E+03  0.11809327532E+03  0.47000000000E+01 0. -1.
          5   -1    0    0  501    0  0.00000000000E+00 -0.00000000000E+00 -0.19376436301E+03  0.19382135686E+03  0.47000000000E+01 0. -1.
         25    2    1    2    0    0 -0.28201159424E+02 -0.62647096635E+02  0.14096683498E+02  0.14333096416E+03  0.12500033876E+03 0.  0.
         25    2    1    2    0    0  0.28201159424E+02  0.62647096635E+02 -0.89861336021E+02  0.16858366802E+03  0.12500171720E+03 0.  0.
          5    1    3    3  502    0  0.36225434350E+02 -0.48462339215E+02 -0.25962921346E+02  0.66007906351E+02  0.47000000000E+01 0. -1.
         -5    1    3    3    0  502 -0.64426593774E+02 -0.14184757420E+02  0.40059604844E+02  0.77323057807E+02  0.47000000000E+01 0. -1.
          5    1    4    4  503    0  0.57741157853E+02  0.73417713901E+02 -0.25716891288E+02  0.96993043679E+02  0.47000000000E+01 0. -1.
         -5    1    4    4    0  503 -0.29539998429E+02 -0.10770617266E+02 -0.64144444733E+02  0.71590624341E+02  0.47000000000E+01 0. -1.
<mgrwt>
<rscale>  0 0.14263698E+03</rscale>
<asrwt>0</asrwt>
<pdfrwt beam="2">  1        5 0.29821483E-01 0.14263728E+03</pdfrwt>
<pdfrwt beam="1">  1       -5 0.18165383E-01 0.14263728E+03</pdfrwt>
<totfact> 0.22008605E+02</totfact>
</mgrwt>
</event>
<event>
 8    1  0.3759079E-007  0.1258388E+03  0.7546771E-02  0.1233766E+00
          5   -1    0    0  501    0  0.00000000000E+00  0.00000000000E+00  0.59304652076E+03  0.59306514464E+03  0.47000000000E+01 0.  1.
         -5   -1    0    0    0  501 -0.00000000000E+00 -0.00000000000E+00 -0.26914417640E+02  0.27321710725E+02  0.47000000000E+01 0.  1.
         25    2    1    2    0    0  0.47284449359E+01  0.13702347145E+02  0.24374788953E+03  0.27431449112E+03  0.12500117550E+03 0.  0.
         25    2    1    2    0    0 -0.47284449359E+01 -0.13702347145E+02  0.32238421359E+03  0.34607236425E+03  0.12499755044E+03 0.  0.
          5    1    4    4  502    0  0.49024702419E+01 -0.32912850580E+02  0.32232766027E+03  0.32407483785E+03  0.47000000000E+01 0. -1.
         -5    1    4    4    0  502 -0.96309151777E+01  0.19210503435E+02  0.56553314462E-01  0.21997526399E+02  0.47000000000E+01 0. -1.
          5    1    3    3  503    0  0.51325670283E+02 -0.31330210607E+02  0.13020030219E+03  0.14349256154E+03  0.47000000000E+01 0.  1.
         -5    1    3    3    0  503 -0.46597225347E+02  0.45032557752E+02  0.11354758734E+03  0.13082192958E+03  0.47000000000E+01 0.  1.
<mgrwt>
<rscale>  0 0.12583791E+03</rscale>
<asrwt>0</asrwt>
<pdfrwt beam="1">  1        5 0.91270683E-01 0.12583881E+03</pdfrwt>
<pdfrwt beam="2">  1       -5 0.41734428E-02 0.12583881E+03</pdfrwt>
<totfact> 0.24408063E+02</totfact>
</mgrwt>
</event>
<event>
 8    1  0.3759079E-007  0.1308371E+03  0.7546771E-02  0.1226222E+00
          5   -1    0    0  501    0  0.00000000000E+00  0.00000000000E+00  0.15418463237E+03  0.15425625063E+03  0.47000000000E+01 0. -1.
         -5   -1    0    0    0  501 -0.00000000000E+00 -0.00000000000E+00 -0.11727614951E+03  0.11737029114E+03  0.47000000000E+01 0. -1.
         25    2    1    2    0    0 -0.35050609304E+02 -0.16270180621E+02 -0.13263688878E+02  0.13150766767E+03  0.12500030889E+03 0.  0.
         25    2    1    2    0    0  0.35050609304E+02  0.16270180621E+02  0.50172171740E+02  0.14011887410E+03  0.12499115198E+03 0.  0.
          5    1    3    3  502    0 -0.13456773772E+02 -0.67702902712E+02  0.11777788671E+02  0.70182434426E+02  0.47000000000E+01 0. -1.
         -5    1    3    3    0  502 -0.21593835532E+02  0.51432722092E+02 -0.25041477549E+02  0.61325233245E+02  0.47000000000E+01 0. -1.
          5    1    4    4  503    0  0.52791704564E+02 -0.39278222190E+02  0.47988144263E+02  0.81576312732E+02  0.47000000000E+01 0.  1.
         -5    1    4    4    0  503 -0.17741095260E+02  0.55548402810E+02  0.21840274771E+01  0.58542561370E+02  0.47000000000E+01 0.  1.
<mgrwt>
<rscale>  0 0.13083489E+03</rscale>
<asrwt>0</asrwt>
<pdfrwt beam="1">  1        5 0.23733463E-01 0.13083708E+03</pdfrwt>
<pdfrwt beam="2">  1       -5 0.18055235E-01 0.13083708E+03</pdfrwt>
<totfact> 0.33581060E+02</totfact>
</mgrwt>
</event>
<event>
 8    1  0.3759079E-007  0.1481834E+03  0.7546771E-02  0.1202724E+00
         -5   -1    0    0    0  501 -0.00000000000E+00  0.00000000000E+00  0.82296873809E+02  0.82430973783E+02  0.47000000000E+01 0.  1.
          5   -1    0    0  501    0  0.00000000000E+00 -0.00000000000E+00 -0.28444080037E+03  0.28447962829E+03  0.47000000000E+01 0.  1.
         25    2    1    2    0    0 -0.35100437847E+02 -0.71425405302E+02 -0.54936047172E+02  0.15803890128E+03  0.12499878311E+03 0.  0.
         25    2    1    2    0    0  0.35100437847E+02  0.71425405302E+02 -0.14720787939E+03  0.20887170080E+03  0.12499439340E+03 0.  0.
          5    1    4    4  502    0  0.48977035509E+02  0.92441783967E+02 -0.15017479114E+03  0.18308137897E+03  0.47000000000E+01 0. -1.
         -5    1    4    4    0  502 -0.13876597662E+02 -0.21016378665E+02  0.29669117546E+01  0.25790321832E+02  0.47000000000E+01 0. -1.
          5    1    3    3  503    0 -0.40935422921E+02 -0.32406659195E+02  0.32722734323E+02  0.61796179101E+02  0.47000000000E+01 0. -1.
         -5    1    3    3    0  503  0.58349850745E+01 -0.39018746107E+02 -0.87658781495E+02  0.96242722176E+02  0.47000000000E+01 0. -1.
<mgrwt>
<rscale>  0 0.14818249E+03</rscale>
<asrwt>0</asrwt>
<pdfrwt beam="2">  1        5 0.43773425E-01 0.14818342E+03</pdfrwt>
<pdfrwt beam="1">  1       -5 0.12674360E-01 0.14818342E+03</pdfrwt>
<totfact> 0.19747528E+02</totfact>
</mgrwt>
</event>
<event>
 8    1  0.3759079E-007  0.1250628E+03  0.7546771E-02  0.1234973E+00
          5   -1    0    0  501    0  0.00000000000E+00  0.00000000000E+00  0.92481588756E+02  0.92600940918E+02  0.47000000000E+01 0.  1.
         -5   -1    0    0    0  501 -0.00000000000E+00 -0.00000000000E+00 -0.16996968010E+03  0.17003464986E+03  0.47000000000E+01 0.  1.
         25    2    1    2    0    0  0.12712796397E+01  0.37382871441E+01 -0.49367095648E+02  0.13445372140E+03  0.12500040850E+03 0.  0.
         25    2    1    2    0    0 -0.12712796397E+01 -0.37382871441E+01 -0.28120995695E+02  0.12818186937E+03  0.12499684114E+03 0.  0.
          5    1    4    4  502    0 -0.41177735189E+02  0.42606421286E+02  0.27700992113E+01  0.59503583588E+02  0.47000000000E+01 0. -1.
         -5    1    4    4    0  502  0.39906455550E+02 -0.46344708430E+02 -0.30891094907E+02  0.68678285786E+02  0.47000000000E+01 0. -1.
          5    1    3    3  503    0  0.30952176355E+02 -0.31331471341E+02  0.21993595758E+02  0.49452063374E+02  0.47000000000E+01 0.  1.
         -5    1    3    3    0  503 -0.29680896716E+02  0.35069758485E+02 -0.71360691406E+02  0.85001658031E+02  0.47000000000E+01 0.  1.
<mgrwt>
<rscale>  0 0.12506187E+03</rscale>
<asrwt>0</asrwt>
<pdfrwt beam="1">  1        5 0.14242115E-01 0.12506276E+03</pdfrwt>
<pdfrwt beam="2">  1       -5 0.26163360E-01 0.12506276E+03</pdfrwt>
<totfact> 0.42209123E+02</totfact>
</mgrwt>
</event>
<event>
 8    1  0.3759079E-007  0.1371713E+03  0.7546771E-02  0.1217192E+00
         -5   -1    0    0    0  501 -0.00000000000E+00  0.00000000000E+00  0.11008972642E+03  0.11019000800E+03  0.47000000000E+01 0. -1.
          5   -1    0    0  501    0  0.00000000000E+00 -0.00000000000E+00 -0.17238671114E+03  0.17245077030E+03  0.47000000000E+01 0. -1.
         25    2    1    2    0    0 -0.56462494916E+02 -0.13776243272E+01 -0.17120475012E+02  0.13823555854E+03  0.12500419113E+03 0.  0.
         25    2    1    2    0    0  0.56462494916E+02  0.13776243272E+01 -0.45176509701E+02  0.14440521976E+03  0.12498815658E+03 0.  0.
          5    1    3    3  502    0 -0.31627892427E+02  0.58322031755E+02 -0.28594377306E+02  0.72398282997E+02  0.47000000000E+01 0. -1.
         -5    1    3    3    0  502 -0.24834602489E+02 -0.59699656082E+02  0.11473902294E+02  0.65837275543E+02  0.47000000000E+01 0. -1.
          5    1    4    4  503    0 -0.20806909407E+02 -0.27150675406E+02  0.19428016130E+02  0.39618486402E+02  0.47000000000E+01 0.  1.
         -5    1    4    4    0  503  0.77269404323E+02  0.28528299733E+02 -0.64604525831E+02  0.10478673336E+03  0.47000000000E+01 0.  1.
<mgrwt>
<rscale>  0 0.13716762E+03</rscale>
<asrwt>0</asrwt>
<pdfrwt beam="2">  1        5 0.26533674E-01 0.13717128E+03</pdfrwt>
<pdfrwt beam="1">  1       -5 0.16949523E-01 0.13717128E+03</pdfrwt>
<totfact> 0.30969304E+02</totfact>
</mgrwt>
</event>
<event>
 8    1  0.3759079E-007  0.2781716E+03  0.7546771E-02  0.1096692E+00
         -5   -1    0    0    0  501 -0.00000000000E+00  0.00000000000E+00  0.49602607109E+03  0.49604833756E+03  0.47000000000E+01 0.  1.
          5   -1    0    0  501    0  0.00000000000E+00 -0.00000000000E+00 -0.15644976092E+03  0.15652034274E+03  0.47000000000E+01 0.  1.
         25    2    1    2    0    0 -0.20836255788E+03 -0.13542458508E+03  0.18846235999E+03  0.33600137329E+03  0.12499635174E+03 0.  0.
         25    2    1    2    0    0  0.20836255788E+03  0.13542458508E+03  0.15111395018E+03  0.31656730701E+03  0.12499864062E+03 0.  0.
          5    1    3    3  502    0 -0.20197655279E+03 -0.15503228312E+03  0.18453069625E+03  0.31448879875E+03  0.47000000000E+01 0. -1.
         -5    1    3    3    0  502 -0.63860050959E+01  0.19607698036E+02  0.39316637405E+01  0.21512574535E+02  0.47000000000E+01 0. -1.
          5    1    4    4  503    0  0.11837204834E+03  0.43735364199E+02  0.13844374884E+03  0.18738592664E+03  0.47000000000E+01 0. -1.
         -5    1    4    4    0  503  0.89990509542E+02  0.91689220881E+02  0.12670201347E+02  0.12918138037E+03  0.47000000000E+01 0. -1.
<mgrwt>
<rscale>  0 0.27817133E+03</rscale>
<asrwt>0</asrwt>
<pdfrwt beam="2">  1        5 0.24076337E-01 0.27817159E+03</pdfrwt>
<pdfrwt beam="1">  1       -5 0.76318844E-01 0.27817159E+03</pdfrwt>
<totfact> 0.21021348E+01</totfact>
</mgrwt>
</event>
<event>
 8    1  0.3759079E-007  0.1444375E+03  0.7546771E-02  0.1207480E+00
          5   -1    0    0  501    0  0.00000000000E+00  0.00000000000E+00  0.17099097009E+03  0.17105555195E+03  0.47000000000E+01 0.  1.
         -5   -1    0    0    0  501 -0.00000000000E+00 -0.00000000000E+00 -0.12236746472E+03  0.12245769238E+03  0.47000000000E+01 0.  1.
         25    2    1    2    0    0  0.12416591718E+02 -0.71288594233E+02  0.33638277450E+02  0.14830045815E+03  0.12500102703E+03 0.  0.
         25    2    1    2    0    0 -0.12416591718E+02  0.71288594233E+02  0.14985227920E+02  0.14521278618E+03  0.12500384313E+03 0.  0.
          5    1    3    3  502    0 -0.18477906462E+02  0.26654387609E+02  0.31522158786E+02  0.45471154599E+02  0.47000000000E+01 0.  1.
         -5    1    3    3    0  502  0.30894498180E+02 -0.97942981842E+02  0.21161186640E+01  0.10282930355E+03  0.47000000000E+01 0.  1.
          5    1    4    4  503    0  0.26283590874E+01 -0.76989877371E+01 -0.44246751050E+02  0.45233258363E+02  0.47000000000E+01 0. -1.
         -5    1    4    4    0  503 -0.15044950806E+02  0.78987581970E+02  0.59231978970E+02  0.99979527819E+02  0.47000000000E+01 0. -1.
<mgrwt>
<rscale>  0 0.14443691E+03</rscale>
<asrwt>0</asrwt>
<pdfrwt beam="1">  1        5 0.26318212E-01 0.14443752E+03</pdfrwt>
<pdfrwt beam="2">  1       -5 0.18837672E-01 0.14443752E+03</pdfrwt>
<totfact> 0.26352541E+02</totfact>
</mgrwt>
</event>
<event>
 8    1  0.3759079E-007  0.1535610E+03  0.7546771E-02  0.1196166E+00
          5   -1    0    0  501    0  0.00000000000E+00  0.00000000000E+00  0.67609028966E+02  0.67772197823E+02  0.47000000000E+01 0. -1.
         -5   -1    0    0    0  501 -0.00000000000E+00 -0.00000000000E+00 -0.43255156688E+03  0.43257710065E+03  0.47000000000E+01 0. -1.
         25    2    1    2    0    0  0.81113740890E+02  0.37094886326E+02 -0.29293805419E+03  0.33074499778E+03  0.12499632159E+03 0.  0.
         25    2    1    2    0    0 -0.81113740890E+02 -0.37094886326E+02 -0.72004483722E+02  0.16960430070E+03  0.12500201433E+03 0.  0.
          5    1    3    3  502    0  0.10103521777E+03  0.40042441041E+02 -0.29015798461E+03  0.30987942550E+03  0.47000000000E+01 0. -1.
         -5    1    3    3    0  502 -0.19921476877E+02 -0.29475547147E+01 -0.27800695802E+01  0.20865572281E+02  0.47000000000E+01 0. -1.
          5    1    4    4  503    0 -0.27518265437E+02 -0.44100183683E+02  0.25447838102E+02  0.58066888995E+02  0.47000000000E+01 0. -1.
         -5    1    4    4    0  503 -0.53595475453E+02  0.70052973563E+01 -0.97452321824E+02  0.11153741170E+03  0.47000000000E+01 0. -1.
<mgrwt>
<rscale>  0 0.15355982E+03</rscale>
<asrwt>0</asrwt>
<pdfrwt beam="1">  1        5 0.10415905E-01 0.15356098E+03</pdfrwt>
<pdfrwt beam="2">  1       -5 0.66560909E-01 0.15356098E+03</pdfrwt>
<totfact> 0.11465388E+02</totfact>
</mgrwt>
</event>
<event>
 8    1  0.3759079E-007  0.1258855E+03  0.7546771E-02  0.1233693E+00
          5   -1    0    0  501    0  0.00000000000E+00  0.00000000000E+00  0.15336004315E+02  0.16040044524E+02  0.47000000000E+01 0.  1.
         -5   -1    0    0    0  501 -0.00000000000E+00 -0.00000000000E+00 -0.10095117223E+04  0.10095226632E+04  0.47000000000E+01 0.  1.
         25    2    1    2    0    0 -0.14625838460E+02 -0.28061358252E+01 -0.49200418807E+03  0.50785361241E+03  0.12500152404E+03 0.  0.
         25    2    1    2    0    0  0.14625838460E+02  0.28061358252E+01 -0.50217152996E+03  0.51770909533E+03  0.12499868934E+03 0.  0.
          5    1    4    4  502    0  0.30683414116E+02 -0.28529752436E+02 -0.46265945742E+03  0.46457645465E+03  0.47000000000E+01 0. -1.
         -5    1    4    4    0  502 -0.16057575656E+02  0.31335888261E+02 -0.39512072538E+02  0.53132640677E+02  0.47000000000E+01 0. -1.
          5    1    3    3  503    0 -0.59598733316E+02  0.44695932592E+01 -0.13234795265E+03  0.14529300344E+03  0.47000000000E+01 0.  1.
         -5    1    3    3    0  503  0.44972894855E+02 -0.72757290845E+01 -0.35965623542E+03  0.36256060898E+03  0.47000000000E+01 0.  1.
<mgrwt>
<rscale>  0 0.12588484E+03</rscale>
<asrwt>0</asrwt>
<pdfrwt beam="1">  1        5 0.24143846E-02 0.12588555E+03</pdfrwt>
<pdfrwt beam="2">  1       -5 0.15536444E+00 0.12588555E+03</pdfrwt>
<totfact> 0.15279518E+02</totfact>
</mgrwt>
</event>
<event>
 8    1  0.3759079E-007  0.1882239E+03  0.7546771E-02  0.1160074E+00
         -5   -1    0    0    0  501 -0.00000000000E+00  0.00000000000E+00  0.54054152195E+03  0.54056195478E+03  0.47000000000E+01 0. -1.
          5   -1    0    0  501    0  0.00000000000E+00 -0.00000000000E+00 -0.65990621717E+02  0.66157782268E+02  0.47000000000E+01 0. -1.
         25    2    1    2    0    0 -0.77960000780E+02  0.11715404902E+03  0.26506620024E+03  0.32509743126E+03  0.12500166550E+03 0.  0.
         25    2    1    2    0    0  0.77960000780E+02 -0.11715404902E+03  0.20948470000E+03  0.28162230579E+03  0.12499780263E+03 0.  0.
          5    1    3    3  502    0 -0.86862389541E+02  0.18372528431E+02  0.12772089165E+03  0.15561921694E+03  0.47000000000E+01 0.  1.
         -5    1    3    3    0  502  0.89023887611E+01  0.98781520591E+02  0.13734530859E+03  0.16947821432E+03  0.47000000000E+01 0.  1.
          5    1    4    4  503    0  0.99948428051E+02 -0.12833623938E+03  0.17510124079E+03  0.23904479316E+03  0.47000000000E+01 0.  1.
         -5    1    4    4    0  503 -0.21988427271E+02  0.11182190361E+02  0.34383459207E+02  0.42577512635E+02  0.47000000000E+01 0.  1.
<mgrwt>
<rscale>  0 0.18822329E+03</rscale>
<asrwt>0</asrwt>
<pdfrwt beam="2">  1        5 0.10166834E-01 0.18822393E+03</pdfrwt>
<pdfrwt beam="1">  1       -5 0.83174663E-01 0.18822393E+03</pdfrwt>
<totfact> 0.76234174E+01</totfact>
</mgrwt>
</event>
<event>
 8    1  0.3759079E-007  0.1390189E+03  0.7546771E-02  0.1214656E+00
          5   -1    0    0  501    0  0.00000000000E+00  0.00000000000E+00  0.67831813843E+02  0.67994448076E+02  0.47000000000E+01 0.  1.
         -5   -1    0    0    0  501 -0.00000000000E+00 -0.00000000000E+00 -0.53865257074E+03  0.53867307522E+03  0.47000000000E+01 0.  1.
         25    2    1    2    0    0  0.58128352500E+02 -0.17953247867E+02 -0.44377897158E+03  0.46504410761E+03  0.12500008773E+03 0.  0.
         25    2    1    2    0    0 -0.58128352500E+02  0.17953247867E+02 -0.27041785318E+02  0.14162341569E+03  0.12499883697E+03 0.  0.
          5    1    3    3  502    0  0.57805472961E+02 -0.61963476396E+02 -0.36445989172E+03  0.37421123418E+03  0.47000000000E+01 0.  1.
         -5    1    3    3    0  502  0.32287953956E+00  0.44010228529E+02 -0.79319079862E+02  0.90832873435E+02  0.47000000000E+01 0.  1.
          5    1    4    4  503    0 -0.54341878758E+01 -0.25356301692E+01  0.47410865069E+02  0.48019162266E+02  0.47000000000E+01 0. -1.
         -5    1    4    4    0  503 -0.52694164624E+02  0.20488878036E+02 -0.74452650386E+02  0.93604253419E+02  0.47000000000E+01 0. -1.
<mgrwt>
<rscale>  0 0.13901859E+03</rscale>
<asrwt>0</asrwt>
<pdfrwt beam="1">  1        5 0.10449752E-01 0.13901887E+03</pdfrwt>
<pdfrwt beam="2">  1       -5 0.82883711E-01 0.13901887E+03</pdfrwt>
<totfact> 0.66982049E+01</totfact>
</mgrwt>
</event>
<event>
 8    1  0.3759079E-007  0.1304690E+03  0.7546771E-02  0.1226770E+00
          5   -1    0    0  501    0  0.00000000000E+00  0.00000000000E+00  0.14236468405E+03  0.14244224537E+03  0.47000000000E+01 0.  1.
         -5   -1    0    0    0  501 -0.00000000000E+00 -0.00000000000E+00 -0.12195526368E+03  0.12204579607E+03  0.47000000000E+01 0.  1.
         25    2    1    2    0    0 -0.65151400848E+01 -0.36774323108E+02 -0.89635731168E+01  0.13077657744E+03  0.12500947833E+03 0.  0.
         25    2    1    2    0    0  0.65151400848E+01  0.36774323108E+02  0.29372993490E+02  0.13371146400E+03  0.12498473894E+03 0.  0.
          5    1    4    4  502    0  0.24641614267E+02 -0.35770785749E+02  0.38501894688E+02  0.58234389852E+02  0.47000000000E+01 0. -1.
         -5    1    4    4    0  502 -0.18126474182E+02  0.72545108858E+02 -0.91289011984E+01  0.75477074152E+02  0.47000000000E+01 0. -1.
          5    1    3    3  503    0 -0.18730198408E+01 -0.82943691117E+02  0.91230188840E+00  0.83102866342E+02  0.47000000000E+01 0. -1.
         -5    1    3    3    0  503 -0.46421202440E+01  0.46169368009E+02 -0.98758750052E+01  0.47673711097E+02  0.47000000000E+01 0. -1.
<mgrwt>
<rscale>  0 0.13046310E+03</rscale>
<asrwt>0</asrwt>
<pdfrwt beam="1">  1        5 0.21915189E-01 0.13046903E+03</pdfrwt>
<pdfrwt beam="2">  1       -5 0.18775279E-01 0.13046903E+03</pdfrwt>
<totfact> 0.36291640E+02</totfact>
</mgrwt>
</event>
<event>
 8    1  0.3759079E-007  0.1576177E+03  0.7546771E-02  0.1191415E+00
          5   -1    0    0  501    0  0.00000000000E+00  0.00000000000E+00  0.79277121771E+02  0.79416320969E+02  0.47000000000E+01 0. -1.
         -5   -1    0    0    0  501 -0.00000000000E+00 -0.00000000000E+00 -0.33905917006E+03  0.33909174393E+03  0.47000000000E+01 0. -1.
         25    2    1    2    0    0  0.42676307318E+02 -0.85993646553E+02 -0.18796700728E+03  0.24530089161E+03  0.12499902857E+03 0.  0.
         25    2    1    2    0    0 -0.42676307318E+02  0.85993646553E+02 -0.71815041009E+02  0.17320717329E+03  0.12500860094E+03 0.  0.
          5    1    4    4  502    0  0.16606242272E+02 -0.13612055942E+02 -0.50745647935E+02  0.55301592506E+02  0.47000000000E+01 0.  1.
         -5    1    4    4    0  502 -0.59282549590E+02  0.99605702495E+02 -0.21069393074E+02  0.11790558078E+03  0.47000000000E+01 0.  1.
          5    1    3    3  503    0 -0.24279689835E+02  0.13512516730E+02 -0.76390552983E+02  0.81422957647E+02  0.47000000000E+01 0. -1.
         -5    1    3    3    0  503  0.66955997153E+02 -0.99506163282E+02 -0.11157645429E+03  0.16387793396E+03  0.47000000000E+01 0. -1.
<mgrwt>
<rscale>  0 0.15761576E+03</rscale>
<asrwt>0</asrwt>
<pdfrwt beam="1">  1        5 0.12209694E-01 0.15761765E+03</pdfrwt>
<pdfrwt beam="2">  1       -5 0.52176162E-01 0.15761765E+03</pdfrwt>
<totfact> 0.14871290E+02</totfact>
</mgrwt>
</event>
<event>
 8    1  0.3759079E-007  0.1489409E+03  0.7546771E-02  0.1201787E+00
         -5   -1    0    0    0  501 -0.00000000000E+00  0.00000000000E+00  0.27926107834E+02  0.28318854121E+02  0.47000000000E+01 0.  1.
          5   -1    0    0  501    0  0.00000000000E+00 -0.00000000000E+00 -0.10875389522E+04  0.10875491081E+04  0.47000000000E+01 0.  1.
         25    2    1    2    0    0 -0.22366494156E+02  0.77791758771E+02 -0.23717132440E+03  0.28004894349E+03  0.12500142335E+03 0.  0.
         25    2    1    2    0    0  0.22366494156E+02 -0.77791758771E+02 -0.82244151999E+03  0.83581901877E+03  0.12502623937E+03 0.  0.
          5    1    4    4  502    0 -0.32403699999E+02  0.25801183323E+01 -0.72627318484E+02  0.79708683181E+02  0.47000000000E+01 0. -1.
         -5    1    4    4    0  502  0.54770194156E+02 -0.80371877104E+02 -0.74981420151E+03  0.75611033558E+03  0.47000000000E+01 0. -1.
          5    1    3    3  503    0 -0.52397985395E+01  0.53833297611E+02 -0.15612257257E+02  0.56491698480E+02  0.47000000000E+01 0.  1.
         -5    1    3    3    0  503 -0.17126695617E+02  0.23958461160E+02 -0.22155906714E+03  0.22355724501E+03  0.47000000000E+01 0.  1.
<mgrwt>
<rscale>  0 0.14893565E+03</rscale>
<asrwt>0</asrwt>
<pdfrwt beam="2">  1        5 0.16734465E+00 0.14894086E+03</pdfrwt>
<pdfrwt beam="1">  1       -5 0.43273176E-02 0.14894086E+03</pdfrwt>
<totfact> 0.50713051E+01</totfact>
</mgrwt>
</event>
<event>
 8    1  0.3759079E-007  0.1613893E+03  0.7546771E-02  0.1187138E+00
         -5   -1    0    0    0  501 -0.00000000000E+00  0.00000000000E+00  0.19860732242E+03  0.19866292688E+03  0.47000000000E+01 0.  1.
          5   -1    0    0  501    0  0.00000000000E+00 -0.00000000000E+00 -0.13187908889E+03  0.13196281327E+03  0.47000000000E+01 0.  1.
         25    2    1    2    0    0  0.10085198120E+03 -0.15740654034E+02  0.20076048361E+02  0.16262887975E+03  0.12500485795E+03 0.  0.
         25    2    1    2    0    0 -0.10085198120E+03  0.15740654034E+02  0.46652185171E+02  0.16799686039E+03  0.12501051324E+03 0.  0.
          5    1    4    4  502    0 -0.34600836772E+02  0.21212539135E+02  0.82690968510E+02  0.92233811561E+02  0.47000000000E+01 0. -1.
         -5    1    4    4    0  502 -0.66251144424E+02 -0.54718851011E+01 -0.36038783339E+02  0.75763048834E+02  0.47000000000E+01 0. -1.
          5    1    3    3  503    0  0.36888040911E+02 -0.47524879063E+02 -0.37256509700E+02  0.70918821248E+02  0.47000000000E+01 0.  1.
         -5    1    3    3    0  503  0.63963940285E+02  0.31784225029E+02  0.57332558061E+02  0.91710058507E+02  0.47000000000E+01 0.  1.
<mgrwt>
<rscale>  0 0.16138824E+03</rscale>
<asrwt>0</asrwt>
<pdfrwt beam="2">  1        5 0.20299808E-01 0.16138934E+03</pdfrwt>
<pdfrwt beam="1">  1       -5 0.30565690E-01 0.16138934E+03</pdfrwt>
<totfact> 0.17754581E+02</totfact>
</mgrwt>
</event>
<event>
 8    1  0.3759079E-007  0.1310743E+03  0.7546771E-02  0.1225871E+00
         -5   -1    0    0    0  501 -0.00000000000E+00  0.00000000000E+00  0.17505546444E+02  0.18125511201E+02  0.47000000000E+01 0. -1.
          5   -1    0    0  501    0  0.00000000000E+00 -0.00000000000E+00 -0.98432073423E+03  0.98433195510E+03  0.47000000000E+01 0. -1.
         25    2    1    2    0    0 -0.33808345804E+02 -0.20309722644E+02 -0.41090831050E+03  0.43130693272E+03  0.12499816596E+03 0.  0.
         25    2    1    2    0    0  0.33808345804E+02  0.20309722644E+02 -0.55590687729E+03  0.57115053358E+03  0.12499994688E+03 0.  0.
          5    1    3    3  502    0 -0.33236105921E+02 -0.31429775202E+02 -0.42238829089E+02  0.62439396129E+02  0.47000000000E+01 0.  1.
         -5    1    3    3    0  502 -0.57223988286E+00  0.11120052558E+02 -0.36866948141E+03  0.36886753659E+03  0.47000000000E+01 0.  1.
          5    1    4    4  503    0  0.59897596260E+02 -0.34752080582E+02 -0.26927328162E+03  0.27807484485E+03  0.47000000000E+01 0. -1.
         -5    1    4    4    0  503 -0.26089250456E+02  0.55061803226E+02 -0.28663359566E+03  0.29307568873E+03  0.47000000000E+01 0. -1.
<mgrwt>
<rscale>  0 0.13107389E+03</rscale>
<asrwt>0</asrwt>
<pdfrwt beam="2">  1        5 0.15148247E+00 0.13107431E+03</pdfrwt>
<pdfrwt beam="1">  1       -5 0.27417145E-02 0.13107431E+03</pdfrwt>
<totfact> 0.13542452E+02</totfact>
</mgrwt>
</event>
<event>
 8    1  0.3759079E-007  0.1399497E+03  0.7546771E-02  0.1213398E+00
          5   -1    0    0  501    0  0.00000000000E+00  0.00000000000E+00  0.17011576042E+03  0.17018067441E+03  0.47000000000E+01 0. -1.
         -5   -1    0    0    0  501 -0.00000000000E+00 -0.00000000000E+00 -0.15254928989E+03  0.15262167554E+03  0.47000000000E+01 0. -1.
         25    2    1    2    0    0 -0.56176577085E+02  0.28368793931E+02 -0.71260168569E+02  0.15704321445E+03  0.12499585312E+03 0.  0.
         25    2    1    2    0    0  0.56176577085E+02 -0.28368793931E+02  0.88826639103E+02  0.16575913551E+03  0.12500129162E+03 0.  0.
          5    1    4    4  502    0 -0.18174195395E+02  0.36407104460E+02  0.21466874180E+02  0.46246030321E+02  0.47000000000E+01 0. -1.
         -5    1    4    4    0  502  0.74350772480E+02 -0.64775898391E+02  0.67359764923E+02  0.11951310519E+03  0.47000000000E+01 0. -1.
          5    1    3    3  503    0 -0.65495260149E+02  0.69794119869E+02 -0.59256948399E+02  0.11266909161E+03  0.47000000000E+01 0. -1.
         -5    1    3    3    0  503  0.93186830644E+01 -0.41425325938E+02 -0.12003220170E+02  0.44374122837E+02  0.47000000000E+01 0. -1.
<mgrwt>
<rscale>  0 0.13994849E+03</rscale>
<asrwt>0</asrwt>
<pdfrwt beam="1">  1        5 0.26182217E-01 0.13994970E+03</pdfrwt>
<pdfrwt beam="2">  1       -5 0.23479683E-01 0.13994970E+03</pdfrwt>
<totfact> 0.17413329E+02</totfact>
</mgrwt>
</event>
<event>
 8    1  0.3759079E-007  0.1507493E+03  0.7546771E-02  0.1199559E+00
          5   -1    0    0  501    0  0.00000000000E+00  0.00000000000E+00  0.33858728373E+02  0.34183380275E+02  0.47000000000E+01 0. -1.
         -5   -1    0    0    0  501 -0.00000000000E+00 -0.00000000000E+00 -0.68511917098E+03  0.68513529208E+03  0.47000000000E+01 0. -1.
         25    2    1    2    0    0 -0.61815110343E+02 -0.57260128158E+02 -0.38312080965E+03  0.41170818686E+03  0.12498898429E+03 0.  0.
         25    2    1    2    0    0  0.61815110343E+02  0.57260128158E+02 -0.26813963296E+03  0.30761048550E+03  0.12500207150E+03 0.  0.
          5    1    4    4  502    0 -0.12858688967E+02  0.66052150164E+02 -0.17667242539E+03  0.18911231667E+03  0.47000000000E+01 0.  1.
         -5    1    4    4    0  502  0.74673799310E+02 -0.87920220060E+01 -0.91467207572E+02  0.11849816883E+03  0.47000000000E+01 0.  1.
          5    1    3    3  503    0 -0.35681643010E+02 -0.26518375012E+02 -0.24860139835E+02  0.51151934605E+02  0.47000000000E+01 0. -1.
         -5    1    3    3    0  503 -0.26133467333E+02 -0.30741753146E+02 -0.35826066981E+03  0.36055625225E+03  0.47000000000E+01 0. -1.
<mgrwt>
<rscale>  0 0.15074658E+03</rscale>
<asrwt>0</asrwt>
<pdfrwt beam="1">  1        5 0.52352490E-02 0.15074929E+03</pdfrwt>
<pdfrwt beam="2">  1       -5 0.10542915E+00 0.15074929E+03</pdfrwt>
<totfact> 0.12558869E+02</totfact>
</mgrwt>
</event>
<event>
 8    1  0.3759079E-007  0.1421828E+03  0.7546771E-02  0.1210426E+00
          5   -1    0    0  501    0  0.00000000000E+00  0.00000000000E+00  0.33635184145E+03  0.33638467749E+03  0.47000000000E+01 0.  1.
         -5   -1    0    0    0  501 -0.00000000000E+00 -0.00000000000E+00 -0.63850224479E+02  0.64022973736E+02  0.47000000000E+01 0.  1.
         25    2    1    2    0    0 -0.45447373075E+02 -0.50240496466E+02  0.86987973944E+02  0.16668189168E+03  0.12500549667E+03 0.  0.
         25    2    1    2    0    0  0.45447373075E+02  0.50240496466E+02  0.18551364303E+03  0.23372575954E+03  0.12499139059E+03 0.  0.
          5    1    4    4  502    0  0.55091678811E+02  0.78643039585E+02  0.83648618187E+02  0.12743234312E+03  0.47000000000E+01 0. -1.
         -5    1    4    4    0  502 -0.96443057358E+01 -0.28402543119E+02  0.10186502484E+03  0.10629341642E+03  0.47000000000E+01 0. -1.
          5    1    3    3  503    0 -0.11893810696E+02 -0.86928354089E+02  0.34956190884E+02  0.94562290363E+02  0.47000000000E+01 0. -1.
         -5    1    3    3    0  503 -0.33553562380E+02  0.36687857624E+02  0.52031783060E+02  0.72119601315E+02  0.47000000000E+01 0. -1.
<mgrwt>
<rscale>  0 0.14217969E+03</rscale>
<asrwt>0</asrwt>
<pdfrwt beam="1">  1        5 0.51762251E-01 0.14218279E+03</pdfrwt>
<pdfrwt beam="2">  1       -5 0.98389257E-02 0.14218279E+03</pdfrwt>
<totfact> 0.21391877E+02</totfact>
</mgrwt>
</event>
<event>
 8    1  0.3759079E-007  0.1266946E+03  0.7546771E-02  0.1232447E+00
         -5   -1    0    0    0  501 -0.00000000000E+00  0.00000000000E+00  0.14622982022E+02  0.15359739686E+02  0.47000000000E+01 0.  1.
          5   -1    0    0  501    0  0.00000000000E+00 -0.00000000000E+00 -0.10817445385E+04  0.10817547488E+04  0.47000000000E+01 0.  1.
         25    2    1    2    0    0  0.18663192596E+02 -0.88940754895E+01 -0.47626369969E+03  0.49282718273E+03  0.12499640419E+03 0.  0.
         25    2    1    2    0    0 -0.18663192596E+02  0.88940754895E+01 -0.59085785678E+03  0.60428730576E+03  0.12499088624E+03 0.  0.
          5    1    3    3  502    0  0.68091419262E+02 -0.27376562977E+02 -0.28952596302E+03  0.29871941825E+03  0.47000000000E+01 0. -1.
         -5    1    3    3    0  502 -0.49428226667E+02  0.18482487487E+02 -0.18673773667E+03  0.19410776448E+03  0.47000000000E+01 0. -1.
          5    1    4    4  503    0 -0.68391009006E+02 -0.64343859780E+01 -0.24447116159E+03  0.25398222435E+03  0.47000000000E+01 0. -1.
         -5    1    4    4    0  503  0.49727816410E+02  0.15328461467E+02 -0.34638669519E+03  0.35030508141E+03  0.47000000000E+01 0. -1.
<mgrwt>
<rscale>  0 0.12669323E+03</rscale>
<asrwt>0</asrwt>
<pdfrwt beam="2">  1        5 0.16647963E+00 0.12669459E+03</pdfrwt>
<pdfrwt beam="1">  1       -5 0.23071495E-02 0.12669459E+03</pdfrwt>
<totfact> 0.13567454E+02</totfact>
</mgrwt>
</event>
<event>
 8    1  0.3759079E-007  0.1405294E+03  0.7546771E-02  0.1212650E+00
         -5   -1    0    0    0  501 -0.00000000000E+00  0.00000000000E+00  0.40428523981E+02  0.40700805290E+02  0.47000000000E+01 0. -1.
          5   -1    0    0  501    0  0.00000000000E+00 -0.00000000000E+00 -0.50230659968E+03  0.50232858776E+03  0.47000000000E+01 0. -1.
         25    2    1    2    0    0 -0.10305179629E+02  0.63350163709E+02 -0.18230844995E+03  0.23012733721E+03  0.12491109013E+03 0.  0.
         25    2    1    2    0    0  0.10305179629E+02 -0.63350163709E+02 -0.27956962575E+03  0.31290205584E+03  0.12501632269E+03 0.  0.
          5    1    3    3  502    0 -0.89931817273E+01  0.10052391062E+03 -0.14869660226E+03  0.17977403441E+03  0.47000000000E+01 0.  1.
         -5    1    3    3    0  502 -0.13119979022E+01 -0.37173746910E+02 -0.33611847687E+02  0.50353302799E+02  0.47000000000E+01 0.  1.
          5    1    4    4  503    0 -0.39680100539E+02  0.96004955882E+01 -0.15303462494E+03  0.15845619686E+03  0.47000000000E+01 0. -1.
         -5    1    4    4    0  503  0.49985280169E+02 -0.72950659297E+02 -0.12653500081E+03  0.15444585898E+03  0.47000000000E+01 0. -1.
<mgrwt>
<rscale>  0 0.14050602E+03</rscale>
<asrwt>0</asrwt>
<pdfrwt beam="2">  1        5 0.77300570E-01 0.14052943E+03</pdfrwt>
<pdfrwt beam="1">  1       -5 0.62424094E-02 0.14052943E+03</pdfrwt>
<totfact> 0.19133358E+02</totfact>
</mgrwt>
</event>
<event>
 8    1  0.3759079E-007  0.1476444E+03  0.7546771E-02  0.1203406E+00
          5   -1    0    0  501    0  0.00000000000E+00  0.00000000000E+00  0.14779053144E+04  0.14779127878E+04  0.47000000000E+01 0.  1.
         -5   -1    0    0    0  501 -0.00000000000E+00 -0.00000000000E+00 -0.15135138786E+02  0.15848104810E+02  0.47000000000E+01 0.  1.
         25    2    1    2    0    0 -0.81452647685E+01 -0.78094291022E+02  0.56694404672E+03  0.58585358920E+03  0.12503524401E+03 0.  0.
         25    2    1    2    0    0  0.81452647685E+01  0.78094291022E+02  0.89582612894E+03  0.90790730344E+03  0.12500461884E+03 0.  0.
          5    1    3    3  502    0  0.53200854885E+02 -0.74552230034E+01  0.20045402335E+03  0.20758086807E+03  0.47000000000E+01 0.  1.
         -5    1    3    3    0  502 -0.61346119654E+02 -0.70639068018E+02  0.36649002336E+03  0.37827272113E+03  0.47000000000E+01 0.  1.
          5    1    4    4  503    0 -0.41048692886E+02  0.65282645225E+02  0.29613668088E+03  0.30604875872E+03  0.47000000000E+01 0. -1.
         -5    1    4    4    0  503  0.49193957655E+02  0.12811645796E+02  0.59968944806E+03  0.60185854472E+03  0.47000000000E+01 0. -1.
<mgrwt>
<rscale>  0 0.14763794E+03</rscale>
<asrwt>0</asrwt>
<pdfrwt beam="1">  1        5 0.22742544E+00 0.14764442E+03</pdfrwt>
<pdfrwt beam="2">  1       -5 0.23839016E-02 0.14764442E+03</pdfrwt>
<totfact> 0.51582133E+01</totfact>
</mgrwt>
</event>
<event>
 8    1  0.3759079E-007  0.1288818E+03  0.7546771E-02  0.1229127E+00
          5   -1    0    0  501    0  0.00000000000E+00  0.00000000000E+00  0.57407057568E+03  0.57408981515E+03  0.47000000000E+01 0. -1.
         -5   -1    0    0    0  501 -0.00000000000E+00 -0.00000000000E+00 -0.29260034578E+02  0.29635107955E+02  0.47000000000E+01 0. -1.
         25    2    1    2    0    0  0.20246167074E+02  0.23951402932E+02  0.23176344182E+03  0.26518539767E+03  0.12500170075E+03 0.  0.
         25    2    1    2    0    0 -0.20246167074E+02 -0.23951402932E+02  0.31304709929E+03  0.33853952544E+03  0.12500778747E+03 0.  0.
          5    1    4    4  502    0  0.20783000546E+02 -0.60668363638E+02  0.10366455970E+03  0.12198776330E+03  0.47000000000E+01 0. -1.
         -5    1    4    4    0  502 -0.41029167621E+02  0.36716960705E+02  0.20938253959E+03  0.21655176214E+03  0.47000000000E+01 0. -1.
          5    1    3    3  503    0  0.71114078681E+02  0.24454029759E+02  0.16250818225E+03  0.17912624335E+03  0.47000000000E+01 0.  1.
         -5    1    3    3    0  503 -0.50867911606E+02 -0.50262682659E+00  0.69255259565E+02  0.86059154320E+02  0.47000000000E+01 0.  1.
<mgrwt>
<rscale>  0 0.12888035E+03</rscale>
<asrwt>0</asrwt>
<pdfrwt beam="1">  1        5 0.88348885E-01 0.12888182E+03</pdfrwt>
<pdfrwt beam="2">  1       -5 0.45318754E-02 0.12888182E+03</pdfrwt>
<totfact> 0.23216523E+02</totfact>
</mgrwt>
</event>
<event>
 8    1  0.3759079E-007  0.1899934E+03  0.7546771E-02  0.1158468E+00
          5   -1    0    0  501    0  0.00000000000E+00  0.00000000000E+00  0.58384672610E+03  0.58386564343E+03  0.47000000000E+01 0. -1.
         -5   -1    0    0    0  501 -0.00000000000E+00 -0.00000000000E+00 -0.63609768973E+02  0.63783169479E+02  0.47000000000E+01 0. -1.
         25    2    1    2    0    0  0.61743856401E+02  0.12906881432E+03  0.20433766995E+03  0.27901856541E+03  0.12500565528E+03 0.  0.
         25    2    1    2    0    0 -0.61743856401E+02 -0.12906881432E+03  0.31589928717E+03  0.36863024749E+03  0.12499934839E+03 0.  0.
          5    1    4    4  502    0 -0.31310244112E+02 -0.14081035863E+03  0.19065252712E+03  0.23911997947E+03  0.47000000000E+01 0.  1.
         -5    1    4    4    0  502 -0.30433612289E+02  0.11741544314E+02  0.12524676005E+03  0.12951026802E+03  0.47000000000E+01 0.  1.
          5    1    3    3  503    0  0.35455772875E+02 -0.76722309465E+01  0.95362968052E+02  0.10213794904E+03  0.47000000000E+01 0. -1.
         -5    1    3    3    0  503  0.26288083525E+02  0.13674104526E+03  0.10897470190E+03  0.17688061638E+03  0.47000000000E+01 0. -1.
<mgrwt>
<rscale>  0 0.18999232E+03</rscale>
<asrwt>0</asrwt>
<pdfrwt beam="1">  1        5 0.89837363E-01 0.18999336E+03</pdfrwt>
<pdfrwt beam="2">  1       -5 0.98009124E-02 0.18999336E+03</pdfrwt>
<totfact> 0.67918659E+01</totfact>
</mgrwt>
</event>
<event>
 8    1  0.3759079E-007  0.1296323E+03  0.7546771E-02  0.1228004E+00
          5   -1    0    0  501    0  0.00000000000E+00  0.00000000000E+00  0.16716056012E+03  0.16722662126E+03  0.47000000000E+01 0.  1.
         -5   -1    0    0    0  501 -0.00000000000E+00 -0.00000000000E+00 -0.10069573777E+03  0.10080536496E+03  0.47000000000E+01 0.  1.
         25    2    1    2    0    0 -0.43456078036E+01  0.34054360328E+02  0.40669639077E+02  0.13586221103E+03  0.12500374825E+03 0.  0.
         25    2    1    2    0    0  0.43456078036E+01 -0.34054360328E+02  0.25795183268E+02  0.13216977520E+03  0.12499949692E+03 0.  0.
          5    1    3    3  502    0 -0.42042931268E+02  0.23179080104E+01 -0.28312031430E+02  0.50957255527E+02  0.47000000000E+01 0.  1.
         -5    1    3    3    0  502  0.37697323465E+02  0.31736452318E+02  0.68981670508E+02  0.84904955498E+02  0.47000000000E+01 0.  1.
          5    1    4    4  503    0 -0.19357741129E+02 -0.75483940231E+01  0.71193427942E+02  0.74312142857E+02  0.47000000000E+01 0.  1.
         -5    1    4    4    0  503  0.23703348933E+02 -0.26505966305E+02 -0.45398244674E+02  0.57857632339E+02  0.47000000000E+01 0.  1.
<mgrwt>
<rscale>  0 0.12963123E+03</rscale>
<asrwt>0</asrwt>
<pdfrwt beam="1">  1        5 0.25730524E-01 0.12963225E+03</pdfrwt>
<pdfrwt beam="2">  1       -5 0.15505167E-01 0.12963225E+03</pdfrwt>
<totfact> 0.37884934E+02</totfact>
</mgrwt>
</event>
<event>
 8    1  0.3759079E-007  0.1377106E+03  0.7546771E-02  0.1216448E+00
          5   -1    0    0  501    0  0.00000000000E+00  0.00000000000E+00  0.21678340061E+04  0.21678391011E+04  0.47000000000E+01 0.  1.
         -5   -1    0    0    0  501 -0.00000000000E+00 -0.00000000000E+00 -0.81145893534E+01  0.93774495666E+01  0.47000000000E+01 0.  1.
         25    2    1    2    0    0 -0.39868869618E+02 -0.41776127651E+02  0.11028764463E+04  0.11114392462E+04  0.12500388229E+03 0.  0.
         25    2    1    2    0    0  0.39868869618E+02  0.41776127651E+02  0.10568429705E+04  0.10657773045E+04  0.12501770594E+03 0.  0.
          5    1    4    4  502    0 -0.22419833673E+02  0.59879348656E+02  0.34011908291E+03  0.34610874866E+03  0.47000000000E+01 0.  1.
         -5    1    4    4    0  502  0.62288703291E+02 -0.18103221004E+02  0.71672388759E+03  0.71966855580E+03  0.47000000000E+01 0.  1.
          5    1    3    3  503    0 -0.81827592934E+01  0.13627305722E+02  0.86339765975E+03  0.86355675544E+03  0.47000000000E+01 0.  1.
         -5    1    3    3    0  503 -0.31686110324E+02 -0.55403433373E+02  0.23947878655E+03  0.24788249076E+03  0.47000000000E+01 0.  1.
<mgrwt>
<rscale>  0 0.13770742E+03</rscale>
<asrwt>0</asrwt>
<pdfrwt beam="1">  1        5 0.33361052E+00 0.13771056E+03</pdfrwt>
<pdfrwt beam="2">  1       -5 0.13459331E-02 0.13771056E+03</pdfrwt>
<totfact> 0.26437627E+01</totfact>
</mgrwt>
</event>
<event>
 8    1  0.3759079E-007  0.1353942E+03  0.7546771E-02  0.1219667E+00
         -5   -1    0    0    0  501 -0.00000000000E+00  0.00000000000E+00  0.25069367974E+03  0.25073773362E+03  0.47000000000E+01 0.  1.
          5   -1    0    0  501    0  0.00000000000E+00 -0.00000000000E+00 -0.74089972601E+02  0.74238898429E+02  0.47000000000E+01 0.  1.
         25    2    1    2    0    0 -0.51997676461E+02  0.11824798984E+01  0.10804601423E+03  0.17322108226E+03  0.12500578200E+03 0.  0.
         25    2    1    2    0    0  0.51997676461E+02 -0.11824798984E+01  0.68557692915E+02  0.15175554979E+03  0.12499773205E+03 0.  0.
          5    1    3    3  502    0 -0.34451683233E+00 -0.57029653275E+02  0.41066998548E+02  0.70434994244E+02  0.47000000000E+01 0.  1.
         -5    1    3    3    0  502 -0.51653159629E+02  0.58212133173E+02  0.66979015678E+02  0.10278608801E+03  0.47000000000E+01 0.  1.
          5    1    4    4  503    0  0.74767825943E+02 -0.24841658412E+02  0.38257518797E+01  0.79019378423E+02  0.47000000000E+01 0.  1.
         -5    1    4    4    0  503 -0.22770149482E+02  0.23659178513E+02  0.64731941035E+02  0.72736171370E+02  0.47000000000E+01 0.  1.
<mgrwt>
<rscale>  0 0.13539239E+03</rscale>
<asrwt>0</asrwt>
<pdfrwt beam="2">  1        5 0.11413302E-01 0.13539425E+03</pdfrwt>
<pdfrwt beam="1">  1       -5 0.38583103E-01 0.13539425E+03</pdfrwt>
<totfact> 0.29901566E+02</totfact>
</mgrwt>
</event>
<event>
 8    1  0.3759079E-007  0.1784770E+03  0.7546771E-02  0.1169286E+00
          5   -1    0    0  501    0  0.00000000000E+00  0.00000000000E+00  0.32044196999E+03  0.32047643616E+03  0.47000000000E+01 0.  1.
         -5   -1    0    0    0  501 -0.00000000000E+00 -0.00000000000E+00 -0.99375068816E+02  0.99486151309E+02  0.47000000000E+01 0.  1.
         25    2    1    2    0    0 -0.77157529866E+02  0.10135816428E+03  0.11594405289E+03  0.21282769149E+03  0.12500336390E+03 0.  0.
         25    2    1    2    0    0  0.77157529866E+02 -0.10135816428E+03  0.10512284829E+03  0.20713489597E+03  0.12500915974E+03 0.  0.
          5    1    4    4  502    0  0.73040196770E+02 -0.23624060260E+02  0.83544059618E+00  0.76913942354E+02  0.47000000000E+01 0.  1.
         -5    1    4    4    0  502  0.41173330958E+01 -0.77734104015E+02  0.10428740769E+03  0.13022095362E+03  0.47000000000E+01 0.  1.
          5    1    3    3  503    0 -0.10912168409E+03  0.70666217783E+02  0.65935509944E+02  0.14584525274E+03  0.47000000000E+01 0. -1.
         -5    1    3    3    0  503  0.31964154221E+02  0.30691946492E+02  0.50008542946E+02  0.66982438759E+02  0.47000000000E+01 0. -1.
<mgrwt>
<rscale>  0 0.17847602E+03</rscale>
<asrwt>0</asrwt>
<pdfrwt beam="1">  1        5 0.49309962E-01 0.17847703E+03</pdfrwt>
<pdfrwt beam="2">  1       -5 0.15299668E-01 0.17847703E+03</pdfrwt>
<totfact> 0.11600890E+02</totfact>
</mgrwt>
</event>
<event>
 8    1  0.3759079E-007  0.1331386E+03  0.7546771E-02  0.1222872E+00
          5   -1    0    0  501    0  0.00000000000E+00  0.00000000000E+00  0.16528472278E+02  0.17183724737E+02  0.47000000000E+01 0. -1.
         -5   -1    0    0    0  501 -0.00000000000E+00 -0.00000000000E+00 -0.11408933471E+04  0.11409030281E+04  0.47000000000E+01 0. -1.
         25    2    1    2    0    0  0.30402707998E+02 -0.34305311712E+02 -0.72473032622E+03  0.73685815810E+03  0.12499888134E+03 0.  0.
         25    2    1    2    0    0 -0.30402707998E+02  0.34305311712E+02 -0.39963454862E+03  0.42122859473E+03  0.12499831001E+03 0.  0.
          5    1    4    4  502    0 -0.34426116083E+01  0.74586855073E+02 -0.15907915931E+03  0.17579339991E+03  0.47000000000E+01 0.  1.
         -5    1    4    4    0  502 -0.26960096390E+02 -0.40281543361E+02 -0.24055538930E+03  0.24543519482E+03  0.47000000000E+01 0.  1.
          5    1    3    3  503    0 -0.39058448443E+02  0.12430802875E+02 -0.13404057967E+03  0.14024640549E+03  0.47000000000E+01 0.  1.
         -5    1    3    3    0  503  0.69461156441E+02 -0.46736114587E+02 -0.59068974655E+03  0.59661175260E+03  0.47000000000E+01 0.  1.
<mgrwt>
<rscale>  0 0.13313851E+03</rscale>
<asrwt>0</asrwt>
<pdfrwt beam="1">  1        5 0.25939915E-02 0.13313865E+03</pdfrwt>
<pdfrwt beam="2">  1       -5 0.17557314E+00 0.13313865E+03</pdfrwt>
<totfact> 0.98152044E+01</totfact>
</mgrwt>
</event>
<event>
 8    1  0.3759079E-007  0.1738241E+03  0.7546771E-02  0.1173919E+00
         -5   -1    0    0    0  501 -0.00000000000E+00  0.00000000000E+00  0.56628036989E+03  0.56629987403E+03  0.47000000000E+01 0.  1.
          5   -1    0    0  501    0  0.00000000000E+00 -0.00000000000E+00 -0.53344485566E+02  0.53551135752E+02  0.47000000000E+01 0.  1.
         25    2    1    2    0    0 -0.11268289895E+03  0.43491249841E+02  0.24221763293E+03  0.29813451001E+03  0.12500351927E+03 0.  0.
         25    2    1    2    0    0  0.11268289895E+03 -0.43491249841E+02  0.27071825139E+03  0.32171649976E+03  0.12499684019E+03 0.  0.
          5    1    4    4  502    0  0.57359574794E+01  0.70777510901E+01  0.15772241648E+03  0.15805520058E+03  0.47000000000E+01 0. -1.
         -5    1    4    4    0  502  0.10694694147E+03 -0.50569000931E+02  0.11299583491E+03  0.16366129919E+03  0.47000000000E+01 0. -1.
          5    1    3    3  503    0 -0.95585770306E+02  0.56403285255E+02  0.86266497945E+02  0.14064838691E+03  0.47000000000E+01 0. -1.
         -5    1    3    3    0  503 -0.17097128643E+02 -0.12912035414E+02  0.15595113499E+03  0.15748612310E+03  0.47000000000E+01 0. -1.
<mgrwt>
<rscale>  0 0.17382286E+03</rscale>
<asrwt>0</asrwt>
<pdfrwt beam="2">  1        5 0.82242399E-02 0.17382406E+03</pdfrwt>
<pdfrwt beam="1">  1       -5 0.87137459E-01 0.17382406E+03</pdfrwt>
<totfact> 0.96600529E+01</totfact>
</mgrwt>
</event>
<event>
 8    1  0.3759079E-007  0.1508851E+03  0.7546771E-02  0.1199391E+00
         -5   -1    0    0    0  501 -0.00000000000E+00  0.00000000000E+00  0.95651567969E+02  0.95766969540E+02  0.47000000000E+01 0.  1.
          5   -1    0    0  501    0  0.00000000000E+00 -0.00000000000E+00 -0.23778514400E+03  0.23783158895E+03  0.47000000000E+01 0.  1.
         25    2    1    2    0    0  0.28667925190E+02  0.79484415790E+02 -0.73710158881E+02  0.16792709959E+03  0.12500680367E+03 0.  0.
         25    2    1    2    0    0 -0.28667925190E+02 -0.79484415790E+02 -0.68423417145E+02  0.16567145891E+03  0.12500258395E+03 0.  0.
          5    1    4    4  502    0 -0.72533098926E+02 -0.23129467432E+02 -0.18731821560E+02  0.78542942665E+02  0.47000000000E+01 0.  1.
         -5    1    4    4    0  502  0.43865173736E+02 -0.56354948358E+02 -0.49691595585E+02  0.87128516245E+02  0.47000000000E+01 0.  1.
          5    1    3    3  503    0  0.62829292073E+01  0.10342842242E+03 -0.83760374786E+02  0.13332218175E+03  0.47000000000E+01 0.  1.
         -5    1    3    3    0  503  0.22384995983E+02 -0.23944006627E+02  0.10050215905E+02  0.34604917833E+02  0.47000000000E+01 0.  1.
<mgrwt>
<rscale>  0 0.15088426E+03</rscale>
<asrwt>0</asrwt>
<pdfrwt beam="2">  1        5 0.36594780E-01 0.15088513E+03</pdfrwt>
<pdfrwt beam="1">  1       -5 0.14728076E-01 0.15088513E+03</pdfrwt>
<totfact> 0.21891929E+02</totfact>
</mgrwt>
</event>
<event>
 8    1  0.3759079E-007  0.1673272E+03  0.7546771E-02  0.1180665E+00
         -5   -1    0    0    0  501 -0.00000000000E+00  0.00000000000E+00  0.36154104184E+02  0.36458322086E+02  0.47000000000E+01 0.  1.
          5   -1    0    0  501    0  0.00000000000E+00 -0.00000000000E+00 -0.86707953023E+03  0.86709226830E+03  0.47000000000E+01 0.  1.
         25    2    1    2    0    0 -0.33922042908E+02 -0.10593959465E+03 -0.26498475126E+03  0.31339320326E+03  0.12499791493E+03 0.  0.
         25    2    1    2    0    0  0.33922042908E+02  0.10593959465E+03 -0.56594067478E+03  0.59015738713E+03  0.12499196573E+03 0.  0.
          5    1    3    3  502    0 -0.40309265050E+02 -0.12121735307E+03 -0.14979371794E+03  0.19692316133E+03  0.47000000000E+01 0.  1.
         -5    1    3    3    0  502  0.63872221417E+01  0.15277758419E+02 -0.11519103333E+03  0.11647004193E+03  0.47000000000E+01 0.  1.
          5    1    4    4  503    0  0.54088763944E+02  0.12679290358E+03 -0.46855867637E+03  0.48843767052E+03  0.47000000000E+01 0. -1.
         -5    1    4    4    0  503 -0.20166721035E+02 -0.20853308937E+02 -0.97381998417E+02  0.10171971661E+03  0.47000000000E+01 0. -1.
<mgrwt>
<rscale>  0 0.16732606E+03</rscale>
<asrwt>0</asrwt>
<pdfrwt beam="2">  1        5 0.13342122E+00 0.16732717E+03</pdfrwt>
<pdfrwt beam="1">  1       -5 0.55865518E-02 0.16732717E+03</pdfrwt>
<totfact> 0.63767904E+01</totfact>
</mgrwt>
</event>
<event>
 8    1  0.3759079E-007  0.1347739E+03  0.7546771E-02  0.1220540E+00
          5   -1    0    0  501    0  0.00000000000E+00  0.00000000000E+00  0.29094768897E+03  0.29098564864E+03  0.47000000000E+01 0. -1.
         -5   -1    0    0    0  501 -0.00000000000E+00 -0.00000000000E+00 -0.62401917437E+02  0.62578664893E+02  0.47000000000E+01 0. -1.
         25    2    1    2    0    0  0.32554043605E+02 -0.38455241526E+02  0.12143010612E+03  0.18140917002E+03  0.12500177974E+03 0.  0.
         25    2    1    2    0    0 -0.32554043605E+02  0.38455241526E+02  0.10711566540E+03  0.17215514351E+03  0.12500022523E+03 0.  0.
          5    1    3    3  502    0  0.23322172336E+02  0.72818069954E+00  0.13620595607E+03  0.13827004896E+03  0.47000000000E+01 0. -1.
         -5    1    3    3    0  502  0.92318712682E+01 -0.39183422226E+02 -0.14775849947E+02  0.43139121063E+02  0.47000000000E+01 0. -1.
          5    1    4    4  503    0 -0.57386003746E+01  0.57473744096E+01  0.12546274836E+03  0.12581317528E+03  0.47000000000E+01 0. -1.
         -5    1    4    4    0  503 -0.26815443230E+02  0.32707867117E+02 -0.18347082956E+02  0.46341968236E+02  0.47000000000E+01 0. -1.
<mgrwt>
<rscale>  0 0.13477358E+03</rscale>
<asrwt>0</asrwt>
<pdfrwt beam="1">  1        5 0.44777699E-01 0.13477395E+03</pdfrwt>
<pdfrwt beam="2">  1       -5 0.96168110E-02 0.13477395E+03</pdfrwt>
<totfact> 0.29667283E+02</totfact>
</mgrwt>
</event>
<event>
 8    1  0.3759079E-007  0.1609106E+03  0.7546771E-02  0.1187673E+00
          5   -1    0    0  501    0  0.00000000000E+00  0.00000000000E+00  0.43234179478E+02  0.43488898298E+02  0.47000000000E+01 0.  1.
         -5   -1    0    0    0  501 -0.00000000000E+00 -0.00000000000E+00 -0.74113600288E+03  0.74115090552E+03  0.47000000000E+01 0.  1.
         25    2    1    2    0    0 -0.18213409886E+02  0.99675557070E+02 -0.52201601710E+03  0.54625349381E+03  0.12500084964E+03 0.  0.
         25    2    1    2    0    0  0.18213409886E+02 -0.99675557070E+02 -0.17588580630E+03  0.23838631002E+03  0.12500108387E+03 0.  0.
          5    1    4    4  502    0  0.53852266254E+02 -0.93913348492E-01 -0.47347985655E+02  0.71860957035E+02  0.47000000000E+01 0.  1.
         -5    1    4    4    0  502 -0.35638856368E+02 -0.99581643721E+02 -0.12853782064E+03  0.16652535298E+03  0.47000000000E+01 0.  1.
          5    1    3    3  503    0  0.89725362079E+00 -0.29038559129E+02 -0.12552843131E+03  0.12893223045E+03  0.47000000000E+01 0. -1.
         -5    1    3    3    0  503 -0.19110663507E+02  0.12871411620E+03 -0.39648758578E+03  0.41732126336E+03  0.47000000000E+01 0. -1.
<mgrwt>
<rscale>  0 0.16091054E+03</rscale>
<asrwt>0</asrwt>
<pdfrwt beam="1">  1        5 0.66721529E-02 0.16091058E+03</pdfrwt>
<pdfrwt beam="2">  1       -5 0.11404165E+00 0.16091058E+03</pdfrwt>
<totfact> 0.70041680E+01</totfact>
</mgrwt>
</event>
<event>
 8    1  0.3759079E-007  0.1303812E+03  0.7546771E-02  0.1226895E+00
          5   -1    0    0  501    0  0.00000000000E+00  0.00000000000E+00  0.94264165105E+02  0.94381263092E+02  0.47000000000E+01 0. -1.
         -5   -1    0    0    0  501 -0.00000000000E+00 -0.00000000000E+00 -0.18224202083E+03  0.18230261698E+03  0.47000000000E+01 0. -1.
         25    2    1    2    0    0  0.36764268020E+02  0.43681605732E+01 -0.59112532928E+02  0.14315569397E+03  0.12501427493E+03 0.  0.
         25    2    1    2    0    0 -0.36764268020E+02 -0.43681605732E+01 -0.28865322802E+02  0.13352818610E+03  0.12500350953E+03 0.  0.
          5    1    4    4  502    0 -0.35197058452E+02 -0.22635638220E+02  0.42420232505E+02  0.59772662372E+02  0.47000000000E+01 0.  1.
         -5    1    4    4    0  502 -0.15672095680E+01  0.18267477647E+02 -0.71285555307E+02  0.73755523731E+02  0.47000000000E+01 0.  1.
          5    1    3    3  503    0  0.34922493336E+02 -0.14857599813E+02  0.32022297611E+02  0.49878315502E+02  0.47000000000E+01 0.  1.
         -5    1    3    3    0  503  0.18417746840E+01  0.19225760386E+02 -0.91134830539E+02  0.93277378467E+02  0.47000000000E+01 0.  1.
<mgrwt>
<rscale>  0 0.13037863E+03</rscale>
<asrwt>0</asrwt>
<pdfrwt beam="1">  1        5 0.14515848E-01 0.13038121E+03</pdfrwt>
<pdfrwt beam="2">  1       -5 0.28050903E-01 0.13038121E+03</pdfrwt>
<totfact> 0.36202445E+02</totfact>
</mgrwt>
</event>
<event>
 8    1  0.3759079E-007  0.1512936E+03  0.7546771E-02  0.1198892E+00
          5   -1    0    0  501    0  0.00000000000E+00  0.00000000000E+00  0.17789386433E+03  0.17795594109E+03  0.47000000000E+01 0. -1.
         -5   -1    0    0    0  501 -0.00000000000E+00 -0.00000000000E+00 -0.14445391482E+03  0.14453035496E+03  0.47000000000E+01 0. -1.
         25    2    1    2    0    0 -0.76072514671E+02 -0.38439333607E+02 -0.36766631867E+02  0.15569694316E+03  0.12500057214E+03 0.  0.
         25    2    1    2    0    0  0.76072514671E+02  0.38439333607E+02  0.70206581384E+02  0.16678935289E+03  0.12500045724E+03 0.  0.
          5    1    3    3  502    0 -0.46116122191E+02  0.25240564102E+02 -0.61418403353E+02  0.80982054015E+02  0.47000000000E+01 0.  1.
         -5    1    3    3    0  502 -0.29956392480E+02 -0.63679897709E+02  0.24651771486E+02  0.74714889146E+02  0.47000000000E+01 0.  1.
          5    1    4    4  503    0  0.10494842924E+03  0.25765304130E+02  0.78731331452E+02  0.13378615866E+03  0.47000000000E+01 0.  1.
         -5    1    4    4    0  503 -0.28875914572E+02  0.12674029477E+02 -0.85247500677E+01  0.33003194228E+02  0.47000000000E+01 0.  1.
<mgrwt>
<rscale>  0 0.15129357E+03</rscale>
<asrwt>0</asrwt>
<pdfrwt beam="1">  1        5 0.27378942E-01 0.15129360E+03</pdfrwt>
<pdfrwt beam="2">  1       -5 0.22234334E-01 0.15129360E+03</pdfrwt>
<totfact> 0.18171255E+02</totfact>
</mgrwt>
</event>
<event>
 8    1  0.3759079E-007  0.1319391E+03  0.7546771E-02  0.1224609E+00
          5   -1    0    0  501    0  0.00000000000E+00  0.00000000000E+00  0.31482548652E+03  0.31486056749E+03  0.47000000000E+01 0. -1.
         -5   -1    0    0    0  501 -0.00000000000E+00 -0.00000000000E+00 -0.55171087473E+02  0.55370921005E+02  0.47000000000E+01 0. -1.
         25    2    1    2    0    0 -0.10478041365E+02 -0.40904008973E+02  0.13321326652E+03  0.18748772186E+03  0.12499177641E+03 0.  0.
         25    2    1    2    0    0  0.10478041365E+02  0.40904008973E+02  0.12644113252E+03  0.18274376663E+03  0.12499998780E+03 0.  0.
          5    1    3    3  502    0 -0.62719601340E+02 -0.23001112566E+02  0.37151886927E+02  0.76584282158E+02  0.47000000000E+01 0. -1.
         -5    1    3    3    0  502  0.52241559975E+02 -0.17902896407E+02  0.96061379595E+02  0.11090343970E+03  0.47000000000E+01 0. -1.
          5    1    4    4  503    0  0.23648351198E+02  0.86586426833E+01 -0.19774868185E+02  0.32362818469E+02  0.47000000000E+01 0.  1.
         -5    1    4    4    0  503 -0.13170309833E+02  0.32245366290E+02  0.14621600071E+03  0.15038094816E+03  0.47000000000E+01 0.  1.
<mgrwt>
<rscale>  0 0.13193715E+03</rscale>
<asrwt>0</asrwt>
<pdfrwt beam="1">  1        5 0.48452759E-01 0.13193909E+03</pdfrwt>
<pdfrwt beam="2">  1       -5 0.85059302E-02 0.13193909E+03</pdfrwt>
<totfact> 0.30872392E+02</totfact>
</mgrwt>
</event>
<event>
 8    1  0.3759079E-007  0.1538243E+03  0.7546771E-02  0.1195851E+00
          5   -1    0    0  501    0  0.00000000000E+00  0.00000000000E+00  0.90378241392E+03  0.90379463470E+03  0.47000000000E+01 0.  1.
         -5   -1    0    0    0  501 -0.00000000000E+00 -0.00000000000E+00 -0.31915667735E+02  0.32259879835E+02  0.47000000000E+01 0.  1.
         25    2    1    2    0    0  0.89395988925E+02  0.67953394822E+01  0.23495188097E+03  0.28082786099E+03  0.12499632660E+03 0.  0.
         25    2    1    2    0    0 -0.89395988925E+02 -0.67953394822E+01  0.63691486522E+03  0.65522665355E+03  0.12499440989E+03 0.  0.
          5    1    3    3  502    0 -0.92910968481E+01 -0.39477224561E+02  0.38508797039E+02  0.56123018353E+02  0.47000000000E+01 0.  1.
         -5    1    3    3    0  502  0.98687085774E+02  0.46272564043E+02  0.19644308393E+03  0.22470484264E+03  0.47000000000E+01 0.  1.
          5    1    4    4  503    0 -0.92078529328E+02 -0.52057150189E+02  0.38879154291E+03  0.40295081125E+03  0.47000000000E+01 0.  1.
         -5    1    4    4    0  503  0.26825404022E+01  0.45261810707E+02  0.24812332231E+03  0.25227584229E+03  0.47000000000E+01 0.  1.
<mgrwt>
<rscale>  0 0.15382386E+03</rscale>
<asrwt>0</asrwt>
<pdfrwt beam="1">  1        5 0.13907087E+00 0.15382425E+03</pdfrwt>
<pdfrwt beam="2">  1       -5 0.49375205E-02 0.15382425E+03</pdfrwt>
<totfact> 0.68551605E+01</totfact>
</mgrwt>
</event>
<event>
 8    1  0.3759079E-007  0.1461007E+03  0.7546771E-02  0.1205354E+00
          5   -1    0    0  501    0  0.00000000000E+00  0.00000000000E+00  0.21717015898E+02  0.22219783516E+02  0.47000000000E+01 0.  1.
         -5   -1    0    0    0  501 -0.00000000000E+00 -0.00000000000E+00 -0.97151528773E+03  0.97152665650E+03  0.47000000000E+01 0.  1.
         25    2    1    2    0    0 -0.72368960085E+02  0.21863366048E+02 -0.48623976327E+03  0.50771499372E+03  0.12502053553E+03 0.  0.
         25    2    1    2    0    0  0.72368960085E+02 -0.21863366048E+02 -0.46355850856E+03  0.48603144630E+03  0.12499921108E+03 0.  0.
          5    1    3    3  502    0  0.14925769597E+02 -0.14621611106E+02 -0.12926181428E+02  0.25014921062E+02  0.47000000000E+01 0. -1.
         -5    1    3    3    0  502 -0.87294729682E+02  0.36484977154E+02 -0.47331358184E+03  0.48270007266E+03  0.47000000000E+01 0. -1.
          5    1    4    4  503    0  0.39709572311E+02  0.51553246786E+02 -0.22433409180E+03  0.23362889832E+03  0.47000000000E+01 0.  1.
         -5    1    4    4    0  503  0.32659387774E+02 -0.73416612833E+02 -0.23922441677E+03  0.25240254798E+03  0.47000000000E+01 0.  1.
<mgrwt>
<rscale>  0 0.14609611E+03</rscale>
<asrwt>0</asrwt>
<pdfrwt beam="1">  1        5 0.33806291E-02 0.14610068E+03</pdfrwt>
<pdfrwt beam="2">  1       -5 0.14950341E+00 0.14610068E+03</pdfrwt>
<totfact> 0.10349676E+02</totfact>
</mgrwt>
</event>
<event>
 8    1  0.3759079E-007  0.1818176E+03  0.7546771E-02  0.1166056E+00
          5   -1    0    0  501    0  0.00000000000E+00  0.00000000000E+00  0.33418202464E+02  0.33747092555E+02  0.47000000000E+01 0. -1.
         -5   -1    0    0    0  501 -0.00000000000E+00 -0.00000000000E+00 -0.12612522333E+04  0.12612609904E+04  0.47000000000E+01 0. -1.
         25    2    1    2    0    0 -0.48184904860E+02  0.12292630312E+03 -0.91744373194E+03  0.93528629997E+03  0.12499920229E+03 0.  0.
         25    2    1    2    0    0  0.48184904860E+02 -0.12292630312E+03 -0.31039029885E+03  0.35972178298E+03  0.12499984990E+03 0.  0.
          5    1    3    3  502    0 -0.51956893378E+02  0.79714403551E+02 -0.26891410161E+03  0.28529070953E+03  0.47000000000E+01 0. -1.
         -5    1    3    3    0  502  0.37719885179E+01  0.43211899572E+02 -0.64852963034E+03  0.64999559044E+03  0.47000000000E+01 0. -1.
          5    1    4    4  503    0 -0.13840069919E+02 -0.85732848708E+02 -0.79881782589E+02  0.11808834859E+03  0.47000000000E+01 0.  1.
         -5    1    4    4    0  503  0.62024974779E+02 -0.37193454416E+02 -0.23050851626E+03  0.24163343440E+03  0.47000000000E+01 0.  1.
<mgrwt>
<rscale>  0 0.18181744E+03</rscale>
<asrwt>0</asrwt>
<pdfrwt beam="1">  1        5 0.51672357E-02 0.18181756E+03</pdfrwt>
<pdfrwt beam="2">  1       -5 0.19406474E+00 0.18181756E+03</pdfrwt>
<totfact> 0.25645939E+01</totfact>
</mgrwt>
</event>
<event>
 8    1  0.3759079E-007  0.1361975E+03  0.7546771E-02  0.1218547E+00
         -5   -1    0    0    0  501 -0.00000000000E+00  0.00000000000E+00  0.32474718149E+03  0.32478119078E+03  0.47000000000E+01 0.  1.
          5   -1    0    0  501    0  0.00000000000E+00 -0.00000000000E+00 -0.59105671583E+02  0.59292245810E+02  0.47000000000E+01 0.  1.
         25    2    1    2    0    0  0.45145036042E+02 -0.29671759414E+02  0.16918569679E+03  0.21717980650E+03  0.12499912307E+03 0.  0.
         25    2    1    2    0    0 -0.45145036042E+02  0.29671759414E+02  0.96455813108E+02  0.16689363008E+03  0.12502508666E+03 0.  0.
          5    1    4    4  502    0  0.41750002627E+02 -0.51186037915E+01  0.26371488531E+02  0.49867907831E+02  0.47000000000E+01 0.  1.
         -5    1    4    4    0  502 -0.86895038669E+02  0.34790363206E+02  0.70084324577E+02  0.11702572225E+03  0.47000000000E+01 0.  1.
          5    1    3    3  503    0  0.81534511146E+02  0.97696491902E+01  0.99278113409E+02  0.12892461501E+03  0.47000000000E+01 0.  1.
         -5    1    3    3    0  503 -0.36389475104E+02 -0.39441408605E+02  0.69907583386E+02  0.88255191495E+02  0.47000000000E+01 0.  1.
<mgrwt>
<rscale>  0 0.13619154E+03</rscale>
<asrwt>0</asrwt>
<pdfrwt beam="2">  1        5 0.91101484E-02 0.13619750E+03</pdfrwt>
<pdfrwt beam="1">  1       -5 0.49978072E-01 0.13619750E+03</pdfrwt>
<totfact> 0.25967865E+02</totfact>
</mgrwt>
</event>
<event>
 8    1  0.3759079E-007  0.1301058E+03  0.7546771E-02  0.1227308E+00
         -5   -1    0    0    0  501 -0.00000000000E+00  0.00000000000E+00  0.94558509680E+03  0.94559677732E+03  0.47000000000E+01 0.  1.
          5   -1    0    0  501    0  0.00000000000E+00 -0.00000000000E+00 -0.17622747221E+02  0.18238728564E+02  0.47000000000E+01 0.  1.
         25    2    1    2    0    0 -0.58956027398E+01 -0.35596177352E+02  0.44011057358E+03  0.45893880292E+03  0.12500264745E+03 0.  0.
         25    2    1    2    0    0  0.58956027398E+01  0.35596177352E+02  0.48785177599E+03  0.50489670297E+03  0.12497791548E+03 0.  0.
          5    1    4    4  502    0  0.25656412190E+02  0.71383620615E+02  0.40850189666E+03  0.41551144671E+03  0.47000000000E+01 0. -1.
         -5    1    4    4    0  502 -0.19760809451E+02 -0.35787443263E+02  0.79349879338E+02  0.89385256259E+02  0.47000000000E+01 0. -1.
          5    1    3    3  503    0  0.18983290440E+02  0.30030397585E+02  0.30029588006E+03  0.30242667819E+03  0.47000000000E+01 0. -1.
         -5    1    3    3    0  503 -0.24878893180E+02 -0.65626574937E+02  0.13981469352E+03  0.15651212473E+03  0.47000000000E+01 0. -1.
<mgrwt>
<rscale>  0 0.13009982E+03</rscale>
<asrwt>0</asrwt>
<pdfrwt beam="2">  1        5 0.27594718E-02 0.13010576E+03</pdfrwt>
<pdfrwt beam="1">  1       -5 0.14552300E+00 0.13010576E+03</pdfrwt>
<totfact> 0.14907894E+02</totfact>
</mgrwt>
</event>
<event>
 8    1  0.3759079E-007  0.1534350E+03  0.7546771E-02  0.1196317E+00
          5   -1    0    0  501    0  0.00000000000E+00  0.00000000000E+00  0.60291573124E+02  0.60474488752E+02  0.47000000000E+01 0.  1.
         -5   -1    0    0    0  501 -0.00000000000E+00 -0.00000000000E+00 -0.38987674300E+03  0.38990507144E+03  0.47000000000E+01 0.  1.
         25    2    1    2    0    0  0.57629303707E+01  0.88768446181E+02 -0.17001269624E+03  0.22900728041E+03  0.12500787653E+03 0.  0.
         25    2    1    2    0    0 -0.57629303707E+01 -0.88768446181E+02 -0.15957247363E+03  0.22137227978E+03  0.12501705287E+03 0.  0.
          5    1    3    3  502    0 -0.82636743497E+01  0.94628733422E+02 -0.49061665438E+02  0.10701412299E+03  0.47000000000E+01 0. -1.
         -5    1    3    3    0  502  0.14026604720E+02 -0.58602872411E+01 -0.12095103081E+03  0.12199315743E+03  0.47000000000E+01 0. -1.
          5    1    4    4  503    0  0.20838845303E+02 -0.40131333008E+02  0.67774812196E+01  0.45965265302E+02  0.47000000000E+01 0.  1.
         -5    1    4    4    0  503 -0.26601775674E+02 -0.48637113173E+02 -0.16634995485E+03  0.17540701447E+03  0.47000000000E+01 0.  1.
<mgrwt>
<rscale>  0 0.15343317E+03</rscale>
<asrwt>0</asrwt>
<pdfrwt beam="1">  1        5 0.92918764E-02 0.15343504E+03</pdfrwt>
<pdfrwt beam="2">  1       -5 0.59997285E-01 0.15343504E+03</pdfrwt>
<totfact> 0.17608244E+02</totfact>
</mgrwt>
</event>
<event>
 8    1  0.3759079E-007  0.1500314E+03  0.7546771E-02  0.1200437E+00
          5   -1    0    0  501    0  0.00000000000E+00  0.00000000000E+00  0.66677720232E+02  0.66843162518E+02  0.47000000000E+01 0.  1.
         -5   -1    0    0    0  501 -0.00000000000E+00 -0.00000000000E+00 -0.42519662197E+03  0.42522259739E+03  0.47000000000E+01 0.  1.
         25    2    1    2    0    0 -0.30285120274E+02  0.77245723149E+02 -0.29131211046E+03  0.32767693201E+03  0.12500134325E+03 0.  0.
         25    2    1    2    0    0  0.30285120274E+02 -0.77245723149E+02 -0.67206791274E+02  0.16438882790E+03  0.12499137446E+03 0.  0.
          5    1    3    3  502    0 -0.64102869433E+02  0.19833522531E+02 -0.21961438671E+03  0.22968481739E+03  0.47000000000E+01 0. -1.
         -5    1    3    3    0  502  0.33817749159E+02  0.57412200618E+02 -0.71697723749E+02  0.97992114625E+02  0.47000000000E+01 0. -1.
          5    1    4    4  503    0  0.39361180207E+02 -0.96100136803E+02 -0.11369926762E+02  0.10457487287E+03  0.47000000000E+01 0. -1.
         -5    1    4    4    0  503 -0.90760599333E+01  0.18854413654E+02 -0.55836864512E+02  0.59813955033E+02  0.47000000000E+01 0. -1.
<mgrwt>
<rscale>  0 0.15002934E+03</rscale>
<asrwt>0</asrwt>
<pdfrwt beam="1">  1        5 0.10272835E-01 0.15003142E+03</pdfrwt>
<pdfrwt beam="2">  1       -5 0.65429588E-01 0.15003142E+03</pdfrwt>
<totfact> 0.12115105E+02</totfact>
</mgrwt>
</event>
<event>
 8    1  0.3759079E-007  0.1264259E+03  0.7546771E-02  0.1232860E+00
         -5   -1    0    0    0  501 -0.00000000000E+00  0.00000000000E+00  0.73136398107E+03  0.73137908284E+03  0.47000000000E+01 0. -1.
          5   -1    0    0  501    0  0.00000000000E+00 -0.00000000000E+00 -0.28957483164E+02  0.29336424990E+02  0.47000000000E+01 0. -1.
         25    2    1    2    0    0 -0.11027724814E+02 -0.15361401792E+02  0.54161673944E+03  0.55617488896E+03  0.12499692511E+03 0.  0.
         25    2    1    2    0    0  0.11027724814E+02  0.15361401792E+02  0.16078975847E+03  0.20454061887E+03  0.12500373978E+03 0.  0.
          5    1    4    4  502    0  0.90661162003E+00  0.69359882512E+02  0.72512587211E+02  0.10045785460E+03  0.47000000000E+01 0.  1.
         -5    1    4    4    0  502  0.10121113194E+02 -0.53998480720E+02  0.88277171258E+02  0.10408276427E+03  0.47000000000E+01 0.  1.
          5    1    3    3  503    0 -0.33243704544E+02  0.47448069950E+02  0.20978170162E+03  0.21768535911E+03  0.47000000000E+01 0. -1.
         -5    1    3    3    0  503  0.22215979730E+02 -0.62809471742E+02  0.33183503781E+03  0.33848952985E+03  0.47000000000E+01 0. -1.
<mgrwt>
<rscale>  0 0.12642426E+03</rscale>
<asrwt>0</asrwt>
<pdfrwt beam="2">  1        5 0.44853082E-02 0.12642594E+03</pdfrwt>
<pdfrwt beam="1">  1       -5 0.11254785E+00 0.12642594E+03</pdfrwt>
<totfact> 0.13032882E+02</totfact>
</mgrwt>
</event>
<event>
 8    1  0.3759079E-007  0.1280060E+03  0.7546771E-02  0.1230448E+00
          5   -1    0    0  501    0  0.00000000000E+00  0.00000000000E+00  0.38487309094E+02  0.38773224798E+02  0.47000000000E+01 0. -1.
         -5   -1    0    0    0  501 -0.00000000000E+00 -0.00000000000E+00 -0.43110829476E+03  0.43113391401E+03  0.47000000000E+01 0. -1.
         25    2    1    2    0    0 -0.26235756193E+02  0.84990292348E+01 -0.22682788818E+03  0.26045426910E+03  0.12499994814E+03 0.  0.
         25    2    1    2    0    0  0.26235756193E+02 -0.84990292348E+01 -0.16579309749E+03  0.20945286972E+03  0.12499041985E+03 0.  0.
          5    1    4    4  502    0 -0.26771588727E+02 -0.29625661960E+02 -0.72054981820E+01  0.40846138294E+02  0.47000000000E+01 0.  1.
         -5    1    4    4    0  502  0.53007344920E+02  0.21126632725E+02 -0.15858759931E+03  0.16860673142E+03  0.47000000000E+01 0.  1.
          5    1    3    3  503    0 -0.13243569868E+02  0.61597666443E+02 -0.69952282348E+02  0.94260683531E+02  0.47000000000E+01 0.  1.
         -5    1    3    3    0  503 -0.12992186326E+02 -0.53098637209E+02 -0.15687560583E+03  0.16619358557E+03  0.47000000000E+01 0.  1.
<mgrwt>
<rscale>  0 0.12800367E+03</rscale>
<asrwt>0</asrwt>
<pdfrwt beam="1">  1        5 0.59450890E-02 0.12800600E+03</pdfrwt>
<pdfrwt beam="2">  1       -5 0.66348314E-01 0.12800600E+03</pdfrwt>
<totfact> 0.28416324E+02</totfact>
</mgrwt>
</event>
<event>
 8    1  0.3759079E-007  0.1274584E+03  0.7546771E-02  0.1231279E+00
          5   -1    0    0  501    0  0.00000000000E+00  0.00000000000E+00  0.49372819946E+03  0.49375056956E+03  0.47000000000E+01 0.  1.
         -5   -1    0    0    0  501 -0.00000000000E+00 -0.00000000000E+00 -0.32773937150E+02  0.33109227661E+02  0.47000000000E+01 0.  1.
         25    2    1    2    0    0  0.17630865522E+02  0.17578510110E+02  0.21899818205E+03  0.25338512338E+03  0.12499586221E+03 0.  0.
         25    2    1    2    0    0 -0.17630865522E+02 -0.17578510110E+02  0.24195608026E+03  0.27347467385E+03  0.12500320405E+03 0.  0.
          5    1    4    4  502    0  0.25809801755E+02  0.44222770921E+02  0.10798047389E+03  0.11959796017E+03  0.47000000000E+01 0.  1.
         -5    1    4    4    0  502 -0.43440667277E+02 -0.61801281031E+02  0.13397560637E+03  0.15387671368E+03  0.47000000000E+01 0.  1.
          5    1    3    3  503    0  0.16290793008E+02 -0.53374972622E+02  0.10554013398E+03  0.11947839771E+03  0.47000000000E+01 0. -1.
         -5    1    3    3    0  503  0.13400725136E+01  0.70953482733E+02  0.11345804807E+03  0.13390672566E+03  0.47000000000E+01 0. -1.
<mgrwt>
<rscale>  0 0.12745663E+03</rscale>
<asrwt>0</asrwt>
<pdfrwt beam="1">  1        5 0.75985698E-01 0.12745843E+03</pdfrwt>
<pdfrwt beam="2">  1       -5 0.50696565E-02 0.12745843E+03</pdfrwt>
<totfact> 0.27256227E+02</totfact>
</mgrwt>
</event>
<event>
 8    1  0.3759079E-007  0.1774119E+03  0.7546771E-02  0.1170332E+00
          5   -1    0    0  501    0  0.00000000000E+00  0.00000000000E+00  0.35484228494E+02  0.35794140189E+02  0.47000000000E+01 0.  1.
         -5   -1    0    0    0  501 -0.00000000000E+00 -0.00000000000E+00 -0.10778203496E+04  0.10778305971E+04  0.47000000000E+01 0.  1.
         25    2    1    2    0    0  0.58609967253E+02  0.11141763044E+03 -0.75796151109E+03  0.77844757988E+03  0.12500386271E+03 0.  0.
         25    2    1    2    0    0 -0.58609967253E+02 -0.11141763044E+03 -0.28437461002E+03  0.33517715739E+03  0.12500316549E+03 0.  0.
          5    1    4    4  502    0 -0.14171585471E+02 -0.17487393594E+02 -0.19979000767E+03  0.20110887582E+03  0.47000000000E+01 0.  1.
         -5    1    4    4    0  502 -0.44438381782E+02 -0.93930236848E+02 -0.84584602346E+02  0.13406828157E+03  0.47000000000E+01 0.  1.
          5    1    3    3  503    0 -0.22778143620E+02  0.77490199462E+02 -0.24701472279E+03  0.25992679376E+03  0.47000000000E+01 0.  1.
         -5    1    3    3    0  503  0.81388110873E+02  0.33927430979E+02 -0.51094678830E+03  0.51852078612E+03  0.47000000000E+01 0.  1.
<mgrwt>
<rscale>  0 0.17741178E+03</rscale>
<asrwt>0</asrwt>
<pdfrwt beam="1">  1        5 0.54837405E-02 0.17741190E+03</pdfrwt>
<pdfrwt beam="2">  1       -5 0.16584312E+00 0.17741190E+03</pdfrwt>
<totfact> 0.36789285E+01</totfact>
</mgrwt>
</event>
<event>
 8    1  0.3759079E-007  0.1423194E+03  0.7546771E-02  0.1210242E+00
          5   -1    0    0  501    0  0.00000000000E+00  0.00000000000E+00  0.71870098878E+02  0.72023614966E+02  0.47000000000E+01 0.  1.
         -5   -1    0    0    0  501 -0.00000000000E+00 -0.00000000000E+00 -0.39415771973E+03  0.39418574051E+03  0.47000000000E+01 0.  1.
         25    2    1    2    0    0  0.53500470971E+02  0.42040263445E+02 -0.28581980663E+03  0.31929201029E+03  0.12499896730E+03 0.  0.
         25    2    1    2    0    0 -0.53500470971E+02 -0.42040263445E+02 -0.36467814223E+02  0.14691734519E+03  0.12500048280E+03 0.  0.
          5    1    3    3  502    0  0.15221430147E+02 -0.13439030550E+02  0.44078772998E+01  0.21303024671E+02  0.47000000000E+01 0. -1.
         -5    1    3    3    0  502  0.38279040824E+02  0.55479293995E+02 -0.29022768393E+03  0.29798898562E+03  0.47000000000E+01 0. -1.
          5    1    4    4  503    0 -0.53714576622E+02  0.33749106637E+02 -0.31062283061E+02  0.70789924208E+02  0.47000000000E+01 0. -1.
         -5    1    4    4    0  503  0.21410565097E+00 -0.75789370082E+02 -0.54055311627E+01  0.76127420985E+02  0.47000000000E+01 0. -1.
<mgrwt>
<rscale>  0 0.14231904E+03</rscale>
<asrwt>0</asrwt>
<pdfrwt beam="1">  1        5 0.11070903E-01 0.14231938E+03</pdfrwt>
<pdfrwt beam="2">  1       -5 0.60653612E-01 0.14231938E+03</pdfrwt>
<totfact> 0.12350423E+02</totfact>
</mgrwt>
</event>
<event>
 8    1  0.3759079E-007  0.1251639E+03  0.7546771E-02  0.1234830E+00
          5   -1    0    0  501    0  0.00000000000E+00  0.00000000000E+00  0.24106205868E+02  0.24560113219E+02  0.47000000000E+01 0.  1.
         -5   -1    0    0    0  501 -0.00000000000E+00 -0.00000000000E+00 -0.71084638056E+03  0.71086191821E+03  0.47000000000E+01 0.  1.
         25    2    1    2    0    0  0.42413387834E+01  0.35388987198E+01 -0.45677418081E+03  0.47360080734E+03  0.12499823878E+03 0.  0.
         25    2    1    2    0    0 -0.42413387834E+01 -0.35388987198E+01 -0.22996599388E+03  0.26182122408E+03  0.12504192210E+03 0.  0.
          5    1    4    4  502    0  0.21232010948E+02  0.23771626069E+01 -0.23393546596E+03  0.23495604147E+03  0.47000000000E+01 0.  1.
         -5    1    4    4    0  502 -0.25473349732E+02 -0.59160613267E+01  0.39694720798E+01  0.26865182612E+02  0.47000000000E+01 0.  1.
          5    1    3    3  503    0 -0.38879508364E+02  0.15175614268E+02 -0.54393196110E+02  0.68721359286E+02  0.47000000000E+01 0. -1.
         -5    1    3    3    0  503  0.43120847147E+02 -0.11636715548E+02 -0.40238098470E+03  0.40487944806E+03  0.47000000000E+01 0. -1.
<mgrwt>
<rscale>  0 0.12515296E+03</rscale>
<asrwt>0</asrwt>
<pdfrwt beam="1">  1        5 0.37447588E-02 0.12516387E+03</pdfrwt>
<pdfrwt beam="2">  1       -5 0.10939708E+00 0.12516387E+03</pdfrwt>
<totfact> 0.18734558E+02</totfact>
</mgrwt>
</event>
<event>
 8    1  0.3759079E-007  0.1288270E+03  0.7546771E-02  0.1229212E+00
         -5   -1    0    0    0  501 -0.00000000000E+00  0.00000000000E+00  0.80198828628E+03  0.80200205818E+03  0.47000000000E+01 0. -1.
          5   -1    0    0  501    0  0.00000000000E+00 -0.00000000000E+00 -0.30423403280E+02  0.30784305532E+02  0.47000000000E+01 0. -1.
         25    2    1    2    0    0  0.15242219103E+02  0.27181053972E+02  0.62288604543E+03  0.63606873309E+03  0.12500109074E+03 0.  0.
         25    2    1    2    0    0 -0.15242219103E+02 -0.27181053972E+02  0.14867883757E+03  0.19671763062E+03  0.12498517720E+03 0.  0.
          5    1    4    4  502    0 -0.19570964813E+02 -0.72885134159E+02  0.12165578011E+03  0.14323925537E+03  0.47000000000E+01 0. -1.
         -5    1    4    4    0  502  0.43287457100E+01  0.45704080187E+02  0.27023057457E+02  0.53478375250E+02  0.47000000000E+01 0. -1.
          5    1    3    3  503    0  0.65432542861E+02 -0.57737136244E+01  0.39001595885E+03  0.39553671333E+03  0.47000000000E+01 0. -1.
         -5    1    3    3    0  503 -0.50190323758E+02  0.32954767597E+02  0.23287008658E+03  0.24053201976E+03  0.47000000000E+01 0. -1.
<mgrwt>
<rscale>  0 0.12882318E+03</rscale>
<asrwt>0</asrwt>
<pdfrwt beam="2">  1        5 0.47093452E-02 0.12882705E+03</pdfrwt>
<pdfrwt beam="1">  1       -5 0.12341162E+00 0.12882705E+03</pdfrwt>
<totfact> 0.95887477E+01</totfact>
</mgrwt>
</event>
<event>
 8    1  0.3759079E-007  0.1951923E+03  0.7546771E-02  0.1153862E+00
          5   -1    0    0  501    0  0.00000000000E+00  0.00000000000E+00  0.19839008000E+03  0.19844574533E+03  0.47000000000E+01 0. -1.
         -5   -1    0    0    0  501 -0.00000000000E+00 -0.00000000000E+00 -0.23951441972E+03  0.23956052941E+03  0.47000000000E+01 0. -1.
         25    2    1    2    0    0  0.14464523877E+03 -0.39362079584E+02 -0.11815982152E+03  0.22816230261E+03  0.12499869800E+03 0.  0.
         25    2    1    2    0    0 -0.14464523877E+03  0.39362079584E+02  0.77035481803E+02  0.20984397214E+03  0.12501363436E+03 0.  0.
          5    1    4    4  502    0 -0.81963709919E+02 -0.28752485076E+02  0.78464081506E+02  0.11714716056E+03  0.47000000000E+01 0.  1.
         -5    1    4    4    0  502 -0.62681528853E+02  0.68114564660E+02 -0.14285997029E+01  0.92696811571E+02  0.47000000000E+01 0.  1.
          5    1    3    3  503    0  0.14107068050E+02 -0.63885651059E+01 -0.88822329284E+02  0.90284657127E+02  0.47000000000E+01 0.  1.
         -5    1    3    3    0  503  0.13053817072E+03 -0.32973514478E+02 -0.29337492238E+02  0.13787764548E+03  0.47000000000E+01 0.  1.
<mgrwt>
<rscale>  0 0.19518989E+03</rscale>
<asrwt>0</asrwt>
<pdfrwt beam="1">  1        5 0.30529380E-01 0.19519228E+03</pdfrwt>
<pdfrwt beam="2">  1       -5 0.36856201E-01 0.19519228E+03</pdfrwt>
<totfact> 0.58810813E+01</totfact>
</mgrwt>
</event>
<event>
 8    1  0.3759079E-007  0.1410841E+03  0.7546771E-02  0.1211881E+00
         -5   -1    0    0    0  501 -0.00000000000E+00  0.00000000000E+00  0.11831952551E+03  0.11841283763E+03  0.47000000000E+01 0. -1.
          5   -1    0    0  501    0  0.00000000000E+00 -0.00000000000E+00 -0.17860963093E+03  0.17867145900E+03  0.47000000000E+01 0. -1.
         25    2    1    2    0    0  0.65192775374E+02  0.54729405156E+01  0.60037633604E+01  0.14120101757E+03  0.12498652387E+03 0.  0.
         25    2    1    2    0    0 -0.65192775374E+02 -0.54729405156E+01 -0.66293868780E+02  0.15588327906E+03  0.12499867445E+03 0.  0.
          5    1    3    3  502    0  0.34310599566E+02 -0.56004037773E+02 -0.17868233525E+02  0.68227804147E+02  0.47000000000E+01 0. -1.
         -5    1    3    3    0  502  0.30882175809E+02  0.61476978289E+02  0.23871996885E+02  0.72973213424E+02  0.47000000000E+01 0. -1.
          5    1    4    4  503    0  0.95992923200E+01 -0.38621584315E+02  0.12726664690E+02  0.42045584574E+02  0.47000000000E+01 0.  1.
         -5    1    4    4    0  503 -0.74792067694E+02  0.33148643799E+02 -0.79020533470E+02  0.11383769448E+03  0.47000000000E+01 0.  1.
<mgrwt>
<rscale>  0 0.14108140E+03</rscale>
<asrwt>0</asrwt>
<pdfrwt beam="2">  1        5 0.27490339E-01 0.14108409E+03</pdfrwt>
<pdfrwt beam="1">  1       -5 0.18214938E-01 0.14108409E+03</pdfrwt>
<totfact> 0.25573283E+02</totfact>
</mgrwt>
</event>
<event>
 8    1  0.3759079E-007  0.1543544E+03  0.7546771E-02  0.1195223E+00
         -5   -1    0    0    0  501 -0.00000000000E+00  0.00000000000E+00  0.71233235339E+02  0.71388120978E+02  0.47000000000E+01 0. -1.
          5   -1    0    0  501    0  0.00000000000E+00 -0.00000000000E+00 -0.36349760155E+03  0.36352798563E+03  0.47000000000E+01 0. -1.
         25    2    1    2    0    0  0.71553307878E+02 -0.55503304308E+02 -0.84129808237E+02  0.17579278786E+03  0.12499914789E+03 0.  0.
         25    2    1    2    0    0 -0.71553307878E+02  0.55503304308E+02 -0.20813455798E+03  0.25912331874E+03  0.12499762972E+03 0.  0.
          5    1    3    3  502    0  0.79741796801E+02  0.15089289120E+02 -0.31273254748E+02  0.87100787974E+02  0.47000000000E+01 0. -1.
         -5    1    3    3    0  502 -0.81884889227E+01 -0.70592593428E+02 -0.52856553489E+02  0.88691999890E+02  0.47000000000E+01 0. -1.
          5    1    4    4  503    0 -0.53487871238E+02  0.88384944983E+02 -0.19186406617E+03  0.21796045686E+03  0.47000000000E+01 0.  1.
         -5    1    4    4    0  503 -0.18065436640E+02 -0.32881640675E+02 -0.16270491809E+02  0.41162861880E+02  0.47000000000E+01 0.  1.
<mgrwt>
<rscale>  0 0.15435409E+03</rscale>
<asrwt>0</asrwt>
<pdfrwt beam="2">  1        5 0.55936958E-01 0.15435440E+03</pdfrwt>
<pdfrwt beam="1">  1       -5 0.10973211E-01 0.15435440E+03</pdfrwt>
<totfact> 0.15362690E+02</totfact>
</mgrwt>
</event>
<event>
 8    1  0.3759079E-007  0.1316903E+03  0.7546771E-02  0.1224983E+00
         -5   -1    0    0    0  501 -0.00000000000E+00  0.00000000000E+00  0.66129665368E+02  0.66296475334E+02  0.47000000000E+01 0.  1.
          5   -1    0    0  501    0  0.00000000000E+00 -0.00000000000E+00 -0.26230531719E+03  0.26234742123E+03  0.47000000000E+01 0.  1.
         25    2    1    2    0    0 -0.13272266053E+02  0.39202998092E+02 -0.89918459898E+02  0.15946053034E+03  0.12501721162E+03 0.  0.
         25    2    1    2    0    0  0.13272266053E+02 -0.39202998092E+02 -0.10625719193E+03  0.16918336623E+03  0.12497756785E+03 0.  0.
          5    1    4    4  502    0 -0.25520351887E+02 -0.74219408946E+02 -0.71260695925E+02  0.10611308029E+03  0.47000000000E+01 0.  1.
         -5    1    4    4    0  502  0.38792617940E+02  0.35016410854E+02 -0.34996496002E+02  0.63070285937E+02  0.47000000000E+01 0.  1.
          5    1    3    3  503    0 -0.66882498772E+02  0.39072871152E+02 -0.58104292608E+02  0.96944090699E+02  0.47000000000E+01 0.  1.
         -5    1    3    3    0  503  0.53610232719E+02  0.13012693994E+00 -0.31814167290E+02  0.62516439643E+02  0.47000000000E+01 0.  1.
<mgrwt>
<rscale>  0 0.13168088E+03</rscale>
<asrwt>0</asrwt>
<pdfrwt beam="2">  1        5 0.40370734E-01 0.13169029E+03</pdfrwt>
<pdfrwt beam="1">  1       -5 0.10189865E-01 0.13169029E+03</pdfrwt>
<totfact> 0.32945698E+02</totfact>
</mgrwt>
</event>
<event>
 8    1  0.3759079E-007  0.1544617E+03  0.7546771E-02  0.1195096E+00
          5   -1    0    0  501    0  0.00000000000E+00  0.00000000000E+00  0.42015734099E+03  0.42018362794E+03  0.47000000000E+01 0. -1.
         -5   -1    0    0    0  501 -0.00000000000E+00 -0.00000000000E+00 -0.57479684554E+02  0.57671519283E+02  0.47000000000E+01 0. -1.
         25    2    1    2    0    0 -0.45224943702E+02  0.78658954090E+02  0.15282943795E+03  0.21729073318E+03  0.12500359608E+03 0.  0.
         25    2    1    2    0    0  0.45224943702E+02 -0.78658954090E+02  0.20984821849E+03  0.26056441404E+03  0.12500004987E+03 0.  0.
          5    1    4    4  502    0  0.44761331576E+02 -0.20267241964E+02  0.19356738870E+03  0.19976176278E+03  0.47000000000E+01 0. -1.
         -5    1    4    4    0  502  0.46361212566E+00 -0.58391712126E+02  0.16280829790E+02  0.60802651257E+02  0.47000000000E+01 0. -1.
          5    1    3    3  503    0  0.30991323379E+02  0.62762391759E+02  0.10338691555E+03  0.12494208358E+03  0.47000000000E+01 0. -1.
         -5    1    3    3    0  503 -0.76216267081E+02  0.15896562331E+02  0.49442522399E+02  0.92348649600E+02  0.47000000000E+01 0. -1.
<mgrwt>
<rscale>  0 0.15446101E+03</rscale>
<asrwt>0</asrwt>
<pdfrwt beam="1">  1        5 0.64656367E-01 0.15446173E+03</pdfrwt>
<pdfrwt beam="2">  1       -5 0.88598073E-02 0.15446173E+03</pdfrwt>
<totfact> 0.16248072E+02</totfact>
</mgrwt>
</event>
<event>
 8    1  0.3759079E-007  0.1718775E+03  0.7546771E-02  0.1175905E+00
         -5   -1    0    0    0  501 -0.00000000000E+00  0.00000000000E+00  0.14545438829E+03  0.14553030294E+03  0.47000000000E+01 0. -1.
          5   -1    0    0  501    0  0.00000000000E+00 -0.00000000000E+00 -0.20306861946E+03  0.20312300266E+03  0.47000000000E+01 0. -1.
         25    2    1    2    0    0  0.10823119465E+03 -0.46954704077E+02 -0.33233250613E+02  0.17506091326E+03  0.12499255448E+03 0.  0.
         25    2    1    2    0    0 -0.10823119465E+03  0.46954704077E+02 -0.24380980559E+02  0.17359239234E+03  0.12498460199E+03 0.  0.
          5    1    3    3  502    0 -0.55293139647E+01 -0.32609780949E+02 -0.48917229558E+02  0.59236445488E+02  0.47000000000E+01 0. -1.
         -5    1    3    3    0  502  0.11376050861E+03 -0.14344923128E+02  0.15683978945E+02  0.11582446777E+03  0.47000000000E+01 0. -1.
          5    1    4    4  503    0 -0.55646939678E+02 -0.36787994008E+02 -0.32330782668E+02  0.74278583095E+02  0.47000000000E+01 0.  1.
         -5    1    4    4    0  503 -0.52584254968E+02  0.83742698084E+02  0.79498021087E+01  0.99313809244E+02  0.47000000000E+01 0.  1.
<mgrwt>
<rscale>  0 0.17187605E+03</rscale>
<asrwt>0</asrwt>
<pdfrwt beam="2">  1        5 0.31251349E-01 0.17187750E+03</pdfrwt>
<pdfrwt beam="1">  1       -5 0.22387621E-01 0.17187750E+03</pdfrwt>
<totfact> 0.14399389E+02</totfact>
</mgrwt>
</event>
<event>
 8    1  0.3759079E-007  0.1502379E+03  0.7546771E-02  0.1200182E+00
          5   -1    0    0  501    0  0.00000000000E+00  0.00000000000E+00  0.10059714694E+03  0.10070688145E+03  0.47000000000E+01 0.  1.
         -5   -1    0    0    0  501 -0.00000000000E+00 -0.00000000000E+00 -0.25804758859E+03  0.25809038722E+03  0.47000000000E+01 0.  1.
         25    2    1    2    0    0  0.78282745433E+02  0.28613381154E+02 -0.14376003190E+03  0.20793689718E+03  0.12499557041E+03 0.  0.
         25    2    1    2    0    0 -0.78282745433E+02 -0.28613381154E+02 -0.13690409749E+02  0.15086037150E+03  0.12499804221E+03 0.  0.
          5    1    4    4  502    0 -0.16470279632E+02 -0.54963766323E+02 -0.48283675628E+02  0.75137800419E+02  0.47000000000E+01 0. -1.
         -5    1    4    4    0  502 -0.61812465801E+02  0.26350385169E+02  0.34593265879E+02  0.75722571081E+02  0.47000000000E+01 0. -1.
          5    1    3    3  503    0 -0.14281011547E+02  0.29023030484E+02  0.45973478871E+01  0.33007714202E+02  0.47000000000E+01 0. -1.
         -5    1    3    3    0  503  0.92563756980E+02 -0.40964932930E+00 -0.14835737979E+03  0.17492918297E+03  0.47000000000E+01 0. -1.
<mgrwt>
<rscale>  0 0.15023738E+03</rscale>
<asrwt>0</asrwt>
<pdfrwt beam="1">  1        5 0.15488218E-01 0.15023789E+03</pdfrwt>
<pdfrwt beam="2">  1       -5 0.39711362E-01 0.15023789E+03</pdfrwt>
<totfact> 0.16898096E+02</totfact>
</mgrwt>
</event>
<event>
 8    1  0.3759079E-007  0.1335711E+03  0.7546771E-02  0.1222253E+00
          5   -1    0    0  501    0  0.00000000000E+00  0.00000000000E+00  0.63684750283E+02  0.63857947184E+02  0.47000000000E+01 0. -1.
         -5   -1    0    0    0  501 -0.00000000000E+00 -0.00000000000E+00 -0.41378325747E+03  0.41380994932E+03  0.47000000000E+01 0. -1.
         25    2    1    2    0    0  0.59769927694E+01 -0.46701425582E+02 -0.31104223791E+03  0.33850926661E+03  0.12499800886E+03 0.  0.
         25    2    1    2    0    0 -0.59769927694E+01  0.46701425582E+02 -0.39056269270E+02  0.13915862990E+03  0.12499193779E+03 0.  0.
          5    1    4    4  502    0  0.14316079191E+02 -0.40166288974E+02 -0.36043826650E+01  0.43050696483E+02  0.47000000000E+01 0.  1.
         -5    1    4    4    0  502 -0.20293071960E+02  0.86867714556E+02 -0.35451886605E+02  0.96107933416E+02  0.47000000000E+01 0.  1.
          5    1    3    3  503    0 -0.51885300453E+02 -0.19883052527E+02 -0.22191673914E+03  0.22881553551E+03  0.47000000000E+01 0. -1.
         -5    1    3    3    0  503  0.57862293222E+02 -0.26818373055E+02 -0.89125498770E+02  0.10969373109E+03  0.47000000000E+01 0. -1.
<mgrwt>
<rscale>  0 0.13356972E+03</rscale>
<asrwt>0</asrwt>
<pdfrwt beam="1">  1        5 0.98130302E-02 0.13357114E+03</pdfrwt>
<pdfrwt beam="2">  1       -5 0.63674337E-01 0.13357114E+03</pdfrwt>
<totfact> 0.13426316E+02</totfact>
</mgrwt>
</event>
<event>
 8    1  0.3759079E-007  0.1858134E+03  0.7546771E-02  0.1162299E+00
          5   -1    0    0  501    0  0.00000000000E+00  0.00000000000E+00  0.66309809192E+03  0.66311474837E+03  0.47000000000E+01 0.  1.
         -5   -1    0    0    0  501 -0.00000000000E+00 -0.00000000000E+00 -0.58349343980E+02  0.58538328836E+02  0.47000000000E+01 0.  1.
         25    2    1    2    0    0 -0.13228837115E+03 -0.37430704691E+02  0.18296702270E+03  0.26075562534E+03  0.12496116979E+03 0.  0.
         25    2    1    2    0    0  0.13228837115E+03  0.37430704691E+02  0.42178172524E+03  0.46089745187E+03  0.12500146638E+03 0.  0.
          5    1    4    4  502    0  0.29508291669E+02 -0.34280050386E+02  0.45759899337E+02  0.64512940710E+02  0.47000000000E+01 0.  1.
         -5    1    4    4    0  502  0.10278007948E+03  0.71710755077E+02  0.37602182590E+03  0.39638451116E+03  0.47000000000E+01 0.  1.
          5    1    3    3  503    0  0.23057012266E+02  0.40548798165E+01  0.15061926559E+02  0.28231533728E+02  0.47000000000E+01 0. -1.
         -5    1    3    3    0  503 -0.15534538341E+03 -0.41485584507E+02  0.16790509614E+03  0.23252409161E+03  0.47000000000E+01 0. -1.
<mgrwt>
<rscale>  0 0.18580667E+03</rscale>
<asrwt>0</asrwt>
<pdfrwt beam="1">  1        5 0.10203092E+00 0.18581345E+03</pdfrwt>
<pdfrwt beam="2">  1       -5 0.89926402E-02 0.18581345E+03</pdfrwt>
<totfact> 0.57619610E+01</totfact>
</mgrwt>
</event>
<event>
 8    1  0.3759079E-007  0.1270850E+03  0.7546771E-02  0.1231848E+00
         -5   -1    0    0    0  501 -0.00000000000E+00  0.00000000000E+00  0.18787133098E+03  0.18793011202E+03  0.47000000000E+01 0. -1.
          5   -1    0    0  501    0  0.00000000000E+00 -0.00000000000E+00 -0.92317556799E+02  0.92437120754E+02  0.47000000000E+01 0. -1.
         25    2    1    2    0    0  0.75307635040E+01 -0.21610318348E+02  0.84908190704E+02  0.15283713422E+03  0.12500428189E+03 0.  0.
         25    2    1    2    0    0 -0.75307635040E+01  0.21610318348E+02  0.10645583481E+02  0.12753009856E+03  0.12500751710E+03 0.  0.
          5    1    3    3  502    0  0.51349566719E+02  0.25726479428E+02  0.60918097738E+02  0.83855437379E+02  0.47000000000E+01 0. -1.
         -5    1    3    3    0  502 -0.43818803215E+02 -0.47336797776E+02  0.23990092967E+02  0.68981696844E+02  0.47000000000E+01 0. -1.
          5    1    4    4  503    0 -0.62652085892E+01 -0.61799237574E+01  0.65281619950E+02  0.66039565410E+02  0.47000000000E+01 0.  1.
         -5    1    4    4    0  503 -0.12655549148E+01  0.27790242106E+02 -0.54636036469E+02  0.61490533146E+02  0.47000000000E+01 0.  1.
<mgrwt>
<rscale>  0 0.12708421E+03</rscale>
<asrwt>0</asrwt>
<pdfrwt beam="2">  1        5 0.14216420E-01 0.12708500E+03</pdfrwt>
<pdfrwt beam="1">  1       -5 0.28917000E-01 0.12708500E+03</pdfrwt>
<totfact> 0.35094419E+02</totfact>
</mgrwt>
</event>
<event>
 8    1  0.3759079E-007  0.1278246E+03  0.7546771E-02  0.1230720E+00
         -5   -1    0    0    0  501 -0.00000000000E+00  0.00000000000E+00  0.87465363963E+02  0.87591551494E+02  0.47000000000E+01 0. -1.
          5   -1    0    0  501    0  0.00000000000E+00 -0.00000000000E+00 -0.18688239222E+03  0.18694148422E+03  0.47000000000E+01 0. -1.
         25    2    1    2    0    0  0.25521666576E+02  0.79094375972E+01 -0.43625616252E+02  0.13506415546E+03  0.12500086811E+03 0.  0.
         25    2    1    2    0    0 -0.25521666576E+02 -0.79094375972E+01 -0.55791412010E+02  0.13946888026E+03  0.12499988896E+03 0.  0.
          5    1    3    3  502    0  0.71450001782E+02  0.46274214557E+01 -0.51221437262E+02  0.88160316578E+02  0.47000000000E+01 0.  1.
         -5    1    3    3    0  502 -0.45928335206E+02  0.32820161415E+01  0.75958210102E+01  0.46903838879E+02  0.47000000000E+01 0.  1.
          5    1    4    4  503    0 -0.69905643299E+02  0.27507860612E+01 -0.61449819080E+02  0.93233770995E+02  0.47000000000E+01 0. -1.
         -5    1    4    4    0  503  0.44383976723E+02 -0.10660223658E+02  0.56584070698E+01  0.46235109265E+02  0.47000000000E+01 0. -1.
<mgrwt>
<rscale>  0 0.12782437E+03</rscale>
<asrwt>0</asrwt>
<pdfrwt beam="2">  1        5 0.28765389E-01 0.12782461E+03</pdfrwt>
<pdfrwt beam="1">  1       -5 0.13470462E-01 0.12782461E+03</pdfrwt>
<totfact> 0.39138866E+02</totfact>
</mgrwt>
</event>
<event>
 8    1  0.3759079E-007  0.1669838E+03  0.7546771E-02  0.1181030E+00
          5   -1    0    0  501    0  0.00000000000E+00  0.00000000000E+00  0.11572680546E+03  0.11582220643E+03  0.47000000000E+01 0.  1.
         -5   -1    0    0    0  501 -0.00000000000E+00 -0.00000000000E+00 -0.25632890868E+03  0.25637199422E+03  0.47000000000E+01 0.  1.
         25    2    1    2    0    0  0.70981317840E+02  0.84969125394E+02 -0.11620472523E+03  0.20343827107E+03  0.12500196886E+03 0.  0.
         25    2    1    2    0    0 -0.70981317840E+02 -0.84969125394E+02 -0.24397377984E+02  0.16875592958E+03  0.12500092785E+03 0.  0.
          5    1    4    4  502    0 -0.42900762888E+02 -0.10964115785E+03  0.93199015737E+01  0.11819733295E+03  0.47000000000E+01 0. -1.
         -5    1    4    4    0  502 -0.28080554951E+02  0.24672032459E+02 -0.33717279558E+02  0.50558596626E+02  0.47000000000E+01 0. -1.
          5    1    3    3  503    0  0.52239327788E+02  0.97681507103E+02 -0.13424149700E+03  0.17410770722E+03  0.47000000000E+01 0. -1.
         -5    1    3    3    0  503  0.18741990051E+02 -0.12712381709E+02  0.18036771771E+02  0.29330563850E+02  0.47000000000E+01 0. -1.
<mgrwt>
<rscale>  0 0.16698361E+03</rscale>
<asrwt>0</asrwt>
<pdfrwt beam="1">  1        5 0.17814777E-01 0.16698381E+03</pdfrwt>
<pdfrwt beam="2">  1       -5 0.39445870E-01 0.16698381E+03</pdfrwt>
<totfact> 0.13702514E+02</totfact>
</mgrwt>
</event>
<event>
 8    1  0.3759079E-007  0.1275520E+03  0.7546771E-02  0.1231140E+00
         -5   -1    0    0    0  501 -0.00000000000E+00  0.00000000000E+00  0.22669016112E+03  0.22673887878E+03  0.47000000000E+01 0. -1.
          5   -1    0    0  501    0  0.00000000000E+00 -0.00000000000E+00 -0.72471946678E+02  0.72624190565E+02  0.47000000000E+01 0. -1.
         25    2    1    2    0    0 -0.18081754565E+02  0.17729706136E+02  0.93246844754E+02  0.15800152017E+03  0.12501285531E+03 0.  0.
         25    2    1    2    0    0  0.18081754565E+02 -0.17729706136E+02  0.60971369687E+02  0.14136154917E+03  0.12499714930E+03 0.  0.
          5    1    4    4  502    0  0.62820640826E+02 -0.34964174755E+02  0.12690187882E+02  0.73157756244E+02  0.47000000000E+01 0. -1.
         -5    1    4    4    0  502 -0.44738886261E+02  0.17234468620E+02  0.48281181805E+02  0.68203792922E+02  0.47000000000E+01 0. -1.
          5    1    3    3  503    0  0.53467534474E+02  0.13725350120E+02  0.34957250980E+02  0.65507723780E+02  0.47000000000E+01 0. -1.
         -5    1    3    3    0  503 -0.71549289039E+02  0.40043560161E+01  0.58289593774E+02  0.92493796395E+02  0.47000000000E+01 0. -1.
<mgrwt>
<rscale>  0 0.12754813E+03</rscale>
<asrwt>0</asrwt>
<pdfrwt beam="2">  1        5 0.11164989E-01 0.12755197E+03</pdfrwt>
<pdfrwt beam="1">  1       -5 0.34890867E-01 0.12755197E+03</pdfrwt>
<totfact> 0.37267195E+02</totfact>
</mgrwt>
</event>
<event>
 8    1  0.3759079E-007  0.1329137E+03  0.7546771E-02  0.1223195E+00
         -5   -1    0    0    0  501 -0.00000000000E+00  0.00000000000E+00  0.27263958609E+03  0.27268009444E+03  0.47000000000E+01 0.  1.
          5   -1    0    0  501    0  0.00000000000E+00 -0.00000000000E+00 -0.67483400914E+02  0.67646872795E+02  0.47000000000E+01 0.  1.
         25    2    1    2    0    0  0.22994196449E+02  0.38897231912E+02  0.13729694835E+03  0.19109246074E+03  0.12499659517E+03 0.  0.
         25    2    1    2    0    0 -0.22994196449E+02 -0.38897231912E+02  0.67859236835E+02  0.14923450650E+03  0.12499733672E+03 0.  0.
          5    1    4    4  502    0  0.18367713662E+02  0.18615367467E+02 -0.22151863114E+02  0.34593349802E+02  0.47000000000E+01 0. -1.
         -5    1    4    4    0  502 -0.41361910111E+02 -0.57512599379E+02  0.90011099949E+02  0.11464115670E+03  0.47000000000E+01 0. -1.
          5    1    3    3  503    0 -0.75636256401E+00 -0.44211291671E+02  0.32013459295E+02  0.54791988206E+02  0.47000000000E+01 0. -1.
         -5    1    3    3    0  503  0.23750559013E+02  0.83108523583E+02  0.10528348905E+03  0.13630047253E+03  0.47000000000E+01 0. -1.
<mgrwt>
<rscale>  0 0.13291356E+03</rscale>
<asrwt>0</asrwt>
<pdfrwt beam="2">  1        5 0.10397753E-01 0.13291374E+03</pdfrwt>
<pdfrwt beam="1">  1       -5 0.41960242E-01 0.13291374E+03</pdfrwt>
<totfact> 0.29476637E+02</totfact>
</mgrwt>
</event>
<event>
 8    1  0.3759079E-007  0.1432689E+03  0.7546771E-02  0.1209011E+00
         -5   -1    0    0    0  501 -0.00000000000E+00  0.00000000000E+00  0.79754887612E+02  0.79893254396E+02  0.47000000000E+01 0.  1.
          5   -1    0    0  501    0  0.00000000000E+00 -0.00000000000E+00 -0.31337206191E+03  0.31340730557E+03  0.47000000000E+01 0.  1.
         25    2    1    2    0    0 -0.69927168552E+02 -0.10564219579E+01 -0.33342569783E+02  0.14705701803E+03  0.12499245842E+03 0.  0.
         25    2    1    2    0    0  0.69927168552E+02  0.10564219579E+01 -0.20027460452E+03  0.24624354194E+03  0.12504015277E+03 0.  0.
          5    1    4    4  502    0  0.87675425776E+01  0.40599162606E+02 -0.10760812390E+02  0.43163026892E+02  0.47000000000E+01 0. -1.
         -5    1    4    4    0  502  0.61159625975E+02 -0.39542740648E+02 -0.18951379212E+03  0.20308051505E+03  0.47000000000E+01 0. -1.
          5    1    3    3  503    0 -0.10050901771E+03  0.23277247465E+02 -0.30035013476E+02  0.10755503207E+03  0.47000000000E+01 0.  1.
         -5    1    3    3    0  503  0.30581849155E+02 -0.24333669423E+02 -0.33075563069E+01  0.39501985951E+02  0.47000000000E+01 0.  1.
<mgrwt>
<rscale>  0 0.14325845E+03</rscale>
<asrwt>0</asrwt>
<pdfrwt beam="2">  1        5 0.48224440E-01 0.14326885E+03</pdfrwt>
<pdfrwt beam="1">  1       -5 0.12283338E-01 0.14326885E+03</pdfrwt>
<totfact> 0.16862124E+02</totfact>
</mgrwt>
</event>
<event>
 8    1  0.3759079E-007  0.1448094E+03  0.7546771E-02  0.1207001E+00
          5   -1    0    0  501    0  0.00000000000E+00  0.00000000000E+00  0.15688133469E+03  0.15695172243E+03  0.47000000000E+01 0.  1.
         -5   -1    0    0    0  501 -0.00000000000E+00 -0.00000000000E+00 -0.26252788515E+03  0.26256995350E+03  0.47000000000E+01 0.  1.
         25    2    1    2    0    0 -0.65869393512E+02  0.31707630455E+02 -0.19982789273E+03  0.24678116870E+03  0.12500243069E+03 0.  0.
         25    2    1    2    0    0  0.65869393512E+02 -0.31707630455E+02  0.94181342266E+02  0.17274050723E+03  0.12500002711E+03 0.  0.
          5    1    4    4  502    0  0.40896032742E+02  0.28509598443E+02 -0.87291996960E+01  0.50828846385E+02  0.47000000000E+01 0.  1.
         -5    1    4    4    0  502  0.24973360769E+02 -0.60217228898E+02  0.10291054196E+03  0.12191166085E+03  0.47000000000E+01 0.  1.
          5    1    3    3  503    0  0.26026117643E+02  0.66663146464E+01 -0.22176531186E+01  0.27364329626E+02  0.47000000000E+01 0.  1.
         -5    1    3    3    0  503 -0.91895511154E+02  0.25041315808E+02 -0.19761023961E+03  0.21941683907E+03  0.47000000000E+01 0.  1.
<mgrwt>
<rscale>  0 0.14480887E+03</rscale>
<asrwt>0</asrwt>
<pdfrwt beam="1">  1        5 0.24144240E-01 0.14480939E+03</pdfrwt>
<pdfrwt beam="2">  1       -5 0.40397556E-01 0.14480939E+03</pdfrwt>
<totfact> 0.70533252E+01</totfact>
</mgrwt>
</event>
<event>
 8    1  0.3759079E-007  0.1300354E+03  0.7546771E-02  0.1227407E+00
         -5   -1    0    0    0  501 -0.00000000000E+00  0.00000000000E+00  0.36294849556E+02  0.36597897539E+02  0.47000000000E+01 0.  1.
          5   -1    0    0  501    0  0.00000000000E+00 -0.00000000000E+00 -0.53562225931E+03  0.53564287979E+03  0.47000000000E+01 0.  1.
         25    2    1    2    0    0 -0.35710999194E+02  0.31761155249E+01 -0.14478217330E+03  0.19460495377E+03  0.12499538853E+03 0.  0.
         25    2    1    2    0    0  0.35710999194E+02 -0.31761155249E+01 -0.35454523646E+03  0.37763582356E+03  0.12498450850E+03 0.  0.
          5    1    4    4  502    0  0.72568711700E+02 -0.55492176490E+01 -0.31495431930E+03  0.32328830009E+03  0.47000000000E+01 0. -1.
         -5    1    4    4    0  502 -0.36857712507E+02  0.23731021241E+01 -0.39590917162E+02  0.54347523463E+02  0.47000000000E+01 0. -1.
          5    1    3    3  503    0  0.39878012890E+02  0.12725394631E+02 -0.16317839705E+02  0.45172485798E+02  0.47000000000E+01 0. -1.
         -5    1    3    3    0  503 -0.75589012083E+02 -0.95492791065E+01 -0.12846433359E+03  0.14943246797E+03  0.47000000000E+01 0. -1.
<mgrwt>
<rscale>  0 0.13003280E+03</rscale>
<asrwt>0</asrwt>
<pdfrwt beam="2">  1        5 0.82428316E-01 0.13003542E+03</pdfrwt>
<pdfrwt beam="1">  1       -5 0.56087210E-02 0.13003542E+03</pdfrwt>
<totfact> 0.19230384E+02</totfact>
</mgrwt>
</event>
<event>
 8    1  0.3759079E-007  0.1357698E+03  0.7546771E-02  0.1219139E+00
         -5   -1    0    0    0  501 -0.00000000000E+00  0.00000000000E+00  0.11748138005E+03  0.11757535736E+03  0.47000000000E+01 0. -1.
          5   -1    0    0  501    0  0.00000000000E+00 -0.00000000000E+00 -0.20120374042E+03  0.20125862754E+03  0.47000000000E+01 0. -1.
         25    2    1    2    0    0  0.49532542064E+02  0.18788244623E+02  0.33078820319E+02  0.13973639208E+03  0.12500232021E+03 0.  0.
         25    2    1    2    0    0 -0.49532542064E+02 -0.18788244623E+02 -0.11680118069E+03  0.17909759283E+03  0.12500784409E+03 0.  0.
          5    1    3    3  502    0 -0.91877788463E+01 -0.25101064666E+02 -0.31744396516E+02  0.41764523673E+02  0.47000000000E+01 0. -1.
         -5    1    3    3    0  502  0.58720320910E+02  0.43889309289E+02  0.64823216835E+02  0.97971868404E+02  0.47000000000E+01 0. -1.
          5    1    4    4  503    0 -0.53665071474E+01 -0.27121354679E+02  0.20378530199E+02  0.34666147344E+02  0.47000000000E+01 0.  1.
         -5    1    4    4    0  503 -0.44166034917E+02  0.83331100561E+01 -0.13717971089E+03  0.14443144548E+03  0.47000000000E+01 0.  1.
<mgrwt>
<rscale>  0 0.13576850E+03</rscale>
<asrwt>0</asrwt>
<pdfrwt beam="2">  1        5 0.30965873E-01 0.13576978E+03</pdfrwt>
<pdfrwt beam="1">  1       -5 0.18085510E-01 0.13576978E+03</pdfrwt>
<totfact> 0.20266823E+02</totfact>
</mgrwt>
</event>
<event>
 8    1  0.3759079E-007  0.1385500E+03  0.7546771E-02  0.1215299E+00
          5   -1    0    0  501    0  0.00000000000E+00  0.00000000000E+00  0.25327617828E+03  0.25331978305E+03  0.47000000000E+01 0.  1.
         -5   -1    0    0    0  501 -0.00000000000E+00 -0.00000000000E+00 -0.76962729422E+02  0.77106106892E+02  0.47000000000E+01 0.  1.
         25    2    1    2    0    0  0.29324224480E+02  0.52075719976E+02  0.66683038370E+02  0.15376197136E+03  0.12499730188E+03 0.  0.
         25    2    1    2    0    0 -0.29324224480E+02 -0.52075719976E+02  0.10963041049E+03  0.17666391858E+03  0.12497808797E+03 0.  0.
          5    1    3    3  502    0 -0.43649923120E+02  0.46307928464E+02  0.41892648745E+02  0.76333636399E+02  0.47000000000E+01 0.  1.
         -5    1    3    3    0  502  0.72974147601E+02  0.57677915121E+01  0.24790389624E+02  0.77428334960E+02  0.47000000000E+01 0.  1.
          5    1    4    4  503    0 -0.44526569134E+02 -0.50962653918E+02  0.20092148738E+01  0.67867034690E+02  0.47000000000E+01 0.  1.
         -5    1    4    4    0  503  0.15202344653E+02 -0.11130660575E+01  0.10762119562E+03  0.10879688389E+03  0.47000000000E+01 0.  1.
<mgrwt>
<rscale>  0 0.13854572E+03</rscale>
<asrwt>0</asrwt>
<pdfrwt beam="1">  1        5 0.38979949E-01 0.13855005E+03</pdfrwt>
<pdfrwt beam="2">  1       -5 0.11854803E-01 0.13855005E+03</pdfrwt>
<totfact> 0.27601828E+02</totfact>
</mgrwt>
</event>
<event>
 8    1  0.3759079E-007  0.1364534E+03  0.7546771E-02  0.1218188E+00
          5   -1    0    0  501    0  0.00000000000E+00  0.00000000000E+00  0.11749500178E+04  0.11749594181E+04  0.47000000000E+01 0.  1.
         -5   -1    0    0    0  501 -0.00000000000E+00 -0.00000000000E+00 -0.15684385679E+02  0.16373452725E+02  0.47000000000E+01 0.  1.
         25    2    1    2    0    0  0.14030087969E+02  0.52856872638E+02  0.64501215036E+03  0.65928765013E+03  0.12501535565E+03 0.  0.
         25    2    1    2    0    0 -0.14030087969E+02 -0.52856872638E+02  0.51425348173E+03  0.53204522073E+03  0.12499912429E+03 0.  0.
          5    1    4    4  502    0  0.54382413884E+01  0.36797587563E+02  0.23756112382E+03  0.24050158933E+03  0.47000000000E+01 0. -1.
         -5    1    4    4    0  502 -0.19468329357E+02 -0.89654460201E+02  0.27669235791E+03  0.29154363139E+03  0.47000000000E+01 0. -1.
          5    1    3    3  503    0  0.38006875385E+02 -0.71011476406E+01  0.65766266979E+02  0.76434552047E+02  0.47000000000E+01 0.  1.
         -5    1    3    3    0  503 -0.23976787416E+02  0.59958020278E+02  0.57924588339E+03  0.58285309809E+03  0.47000000000E+01 0.  1.
<mgrwt>
<rscale>  0 0.13644969E+03</rscale>
<asrwt>0</asrwt>
<pdfrwt beam="1">  1        5 0.18081531E+00 0.13645340E+03</pdfrwt>
<pdfrwt beam="2">  1       -5 0.24667101E-02 0.13645340E+03</pdfrwt>
<totfact> 0.98320661E+01</totfact>
</mgrwt>
</event>
<event>
 8    1  0.3759079E-007  0.1306506E+03  0.7546771E-02  0.1226495E+00
          5   -1    0    0  501    0  0.00000000000E+00  0.00000000000E+00  0.47183495840E+03  0.47185836642E+03  0.47000000000E+01 0.  1.
         -5   -1    0    0    0  501 -0.00000000000E+00 -0.00000000000E+00 -0.41491733262E+02  0.41757082383E+02  0.47000000000E+01 0.  1.
         25    2    1    2    0    0 -0.28004176000E+02  0.25699048334E+02  0.12208319978E+03  0.17881240921E+03  0.12499958024E+03 0.  0.
         25    2    1    2    0    0  0.28004176000E+02 -0.25699048334E+02  0.30826002535E+03  0.33480303960E+03  0.12499662849E+03 0.  0.
          5    1    3    3  502    0 -0.18973779867E+02  0.75813705730E+02  0.61690613342E+02  0.99677199366E+02  0.47000000000E+01 0. -1.
         -5    1    3    3    0  502 -0.90303961324E+01 -0.50114657396E+02  0.60392586439E+02  0.79135209844E+02  0.47000000000E+01 0. -1.
          5    1    4    4  503    0  0.22372924537E+02  0.48125387190E+02  0.93825027101E+02  0.10789729540E+03  0.47000000000E+01 0.  1.
         -5    1    4    4    0  503  0.56312514627E+01 -0.73824435524E+02  0.21443499825E+03  0.22690574420E+03  0.47000000000E+01 0.  1.
<mgrwt>
<rscale>  0 0.13064986E+03</rscale>
<asrwt>0</asrwt>
<pdfrwt beam="1">  1        5 0.72612207E-01 0.13065056E+03</pdfrwt>
<pdfrwt beam="2">  1       -5 0.64055555E-02 0.13065056E+03</pdfrwt>
<totfact> 0.20618596E+02</totfact>
</mgrwt>
</event>
<event>
 8    1  0.3759079E-007  0.1576585E+03  0.7546771E-02  0.1191367E+00
          5   -1    0    0  501    0  0.00000000000E+00  0.00000000000E+00  0.11254382606E+03  0.11264192285E+03  0.47000000000E+01 0.  1.
         -5   -1    0    0    0  501 -0.00000000000E+00 -0.00000000000E+00 -0.22151213930E+03  0.22156199552E+03  0.47000000000E+01 0.  1.
         25    2    1    2    0    0  0.14146007386E+01  0.96071175354E+02 -0.64999390461E+02  0.17052900366E+03  0.12499419386E+03 0.  0.
         25    2    1    2    0    0 -0.14146007386E+01 -0.96071175354E+02 -0.43968922785E+02  0.16367491471E+03  0.12499815881E+03 0.  0.
          5    1    3    3  502    0 -0.15718558397E+02  0.83218779379E+02  0.16258296265E+02  0.86364694852E+02  0.47000000000E+01 0. -1.
         -5    1    3    3    0  502  0.17133159136E+02  0.12852395975E+02 -0.81257686727E+02  0.84164308804E+02  0.47000000000E+01 0. -1.
          5    1    4    4  503    0 -0.57968051053E+02 -0.20179876437E+02 -0.27788797285E+02  0.67541317802E+02  0.47000000000E+01 0.  1.
         -5    1    4    4    0  503  0.56553450314E+02 -0.75891298917E+02 -0.16180125500E+02  0.96133596910E+02  0.47000000000E+01 0.  1.
<mgrwt>
<rscale>  0 0.15765774E+03</rscale>
<asrwt>0</asrwt>
<pdfrwt beam="1">  1        5 0.17325816E-01 0.15765853E+03</pdfrwt>
<pdfrwt beam="2">  1       -5 0.34090172E-01 0.15765853E+03</pdfrwt>
<totfact> 0.19041350E+02</totfact>
</mgrwt>
</event>
<event>
 8    1  0.3759079E-007  0.1388611E+03  0.7546771E-02  0.1214872E+00
          5   -1    0    0  501    0  0.00000000000E+00  0.00000000000E+00  0.38576111932E+02  0.38861374291E+02  0.47000000000E+01 0.  1.
         -5   -1    0    0    0  501 -0.00000000000E+00 -0.00000000000E+00 -0.51024788820E+03  0.51026953409E+03  0.47000000000E+01 0.  1.
         25    2    1    2    0    0 -0.39830353569E+02  0.45512693471E+02 -0.27889082237E+03  0.31154535368E+03  0.12499021669E+03 0.  0.
         25    2    1    2    0    0  0.39830353569E+02 -0.45512693471E+02 -0.19278095391E+03  0.23758555470E+03  0.12499814911E+03 0.  0.
          5    1    3    3  502    0  0.39053967354E+02  0.11555359023E+02 -0.15765124290E+03  0.16289488352E+03  0.47000000000E+01 0. -1.
         -5    1    3    3    0  502 -0.78884320923E+02  0.33957334448E+02 -0.12123957946E+03  0.14865047016E+03  0.47000000000E+01 0. -1.
          5    1    4    4  503    0 -0.28417566870E+02 -0.21031691961E+00 -0.13295878405E+03  0.13604312036E+03  0.47000000000E+01 0.  1.
         -5    1    4    4    0  503  0.68247920439E+02 -0.45302376552E+02 -0.59822169851E+02  0.10154243434E+03  0.47000000000E+01 0.  1.
<mgrwt>
<rscale>  0 0.13885930E+03</rscale>
<asrwt>0</asrwt>
<pdfrwt beam="1">  1        5 0.59583951E-02 0.13886108E+03</pdfrwt>
<pdfrwt beam="2">  1       -5 0.78523279E-01 0.13886108E+03</pdfrwt>
<totfact> 0.19880000E+02</totfact>
</mgrwt>
</event>
<event>
 8    1  0.3759079E-007  0.1314511E+03  0.7546771E-02  0.1225324E+00
         -5   -1    0    0    0  501 -0.00000000000E+00  0.00000000000E+00  0.11630601004E+04  0.11630695968E+04  0.47000000000E+01 0.  1.
          5   -1    0    0  501    0  0.00000000000E+00 -0.00000000000E+00 -0.15590346283E+02  0.16283393296E+02  0.47000000000E+01 0.  1.
         25    2    1    2    0    0  0.30036549193E+02  0.27433666600E+02  0.72803603758E+03  0.73980798664E+03  0.12499833890E+03 0.  0.
         25    2    1    2    0    0 -0.30036549193E+02 -0.27433666600E+02  0.41943371649E+03  0.43954500347E+03  0.12498146742E+03 0.  0.
          5    1    4    4  502    0 -0.59501298271E+02 -0.37752268238E+02  0.39012766102E+03  0.39646856136E+03  0.47000000000E+01 0.  1.
         -5    1    4    4    0  502  0.29464749078E+02  0.10318601638E+02  0.29306055476E+02  0.43076442118E+02  0.47000000000E+01 0.  1.
          5    1    3    3  503    0  0.20735773700E+02 -0.37268366114E+02  0.10637932974E+03  0.11470638701E+03  0.47000000000E+01 0.  1.
         -5    1    3    3    0  503  0.93007754929E+01  0.64702032714E+02  0.62165670784E+03  0.62510159963E+03  0.47000000000E+01 0.  1.
<mgrwt>
<rscale>  0 0.13144706E+03</rscale>
<asrwt>0</asrwt>
<pdfrwt beam="2">  1        5 0.24525565E-02 0.13145107E+03</pdfrwt>
<pdfrwt beam="1">  1       -5 0.17898637E+00 0.13145107E+03</pdfrwt>
<totfact> 0.10108435E+02</totfact>
</mgrwt>
</event>
<event>
 8    1  0.3759079E-007  0.1747777E+03  0.7546771E-02  0.1172960E+00
         -5   -1    0    0    0  501 -0.00000000000E+00  0.00000000000E+00  0.94481844597E+02  0.94598673133E+02  0.47000000000E+01 0. -1.
          5   -1    0    0  501    0  0.00000000000E+00 -0.00000000000E+00 -0.36635027870E+03  0.36638042620E+03  0.47000000000E+01 0. -1.
         25    2    1    2    0    0 -0.89113245617E+02 -0.83550474077E+02 -0.56618366912E+02  0.18371955301E+03  0.12500152969E+03 0.  0.
         25    2    1    2    0    0  0.89113245617E+02  0.83550474077E+02 -0.21525006719E+03  0.27725954632E+03  0.12497364657E+03 0.  0.
          5    1    4    4  502    0  0.10549256365E+03  0.27336590462E+02 -0.10035609364E+03  0.14822080048E+03  0.47000000000E+01 0.  1.
         -5    1    4    4    0  502 -0.16379318032E+02  0.56213883616E+02 -0.11489397355E+03  0.12903874585E+03  0.47000000000E+01 0.  1.
          5    1    3    3  503    0  0.88080733300E+01 -0.70464750699E+02 -0.44841637839E+02  0.84117333118E+02  0.47000000000E+01 0.  1.
         -5    1    3    3    0  503 -0.97921318947E+02 -0.13085723379E+02 -0.11776729073E+02  0.99602219897E+02  0.47000000000E+01 0.  1.
<mgrwt>
<rscale>  0 0.17477269E+03</rscale>
<asrwt>0</asrwt>
<pdfrwt beam="2">  1        5 0.56372887E-01 0.17477767E+03</pdfrwt>
<pdfrwt beam="1">  1       -5 0.14546974E-01 0.17477767E+03</pdfrwt>
<totfact> 0.94780839E+01</totfact>
</mgrwt>
</event>
<event>
 8    1  0.3759079E-007  0.1287437E+03  0.7546771E-02  0.1229336E+00
         -5   -1    0    0    0  501 -0.00000000000E+00  0.00000000000E+00  0.48391930365E+03  0.48394212717E+03  0.47000000000E+01 0. -1.
          5   -1    0    0  501    0  0.00000000000E+00 -0.00000000000E+00 -0.45176863454E+02  0.45420689025E+02  0.47000000000E+01 0. -1.
         25    2    1    2    0    0  0.23595991636E+02  0.19790983508E+02  0.35019727398E+03  0.37310925775E+03  0.12499573459E+03 0.  0.
         25    2    1    2    0    0 -0.23595991636E+02 -0.19790983508E+02  0.88545166217E+02  0.15625355844E+03  0.12500589673E+03 0.  0.
          5    1    4    4  502    0 -0.62323134398E+02  0.26640871872E+02  0.42919634539E+02  0.80362268288E+02  0.47000000000E+01 0. -1.
         -5    1    4    4    0  502  0.38727142762E+02 -0.46431855381E+02  0.45625531678E+02  0.75891290156E+02  0.47000000000E+01 0. -1.
          5    1    3    3  503    0 -0.34897870140E+02  0.50644146413E+02  0.14873477101E+03  0.16101805183E+03  0.47000000000E+01 0. -1.
         -5    1    3    3    0  503  0.58493861777E+02 -0.30853162905E+02  0.20146250297E+03  0.21209120592E+03  0.47000000000E+01 0. -1.
<mgrwt>
<rscale>  0 0.12874119E+03</rscale>
<asrwt>0</asrwt>
<pdfrwt beam="2">  1        5 0.69707983E-02 0.12874365E+03</pdfrwt>
<pdfrwt beam="1">  1       -5 0.74469633E-01 0.12874365E+03</pdfrwt>
<totfact> 0.16787384E+02</totfact>
</mgrwt>
</event>
<event>
 8    1  0.3759079E-007  0.1994835E+03  0.7546771E-02  0.1150179E+00
         -5   -1    0    0    0  501 -0.00000000000E+00  0.00000000000E+00  0.56253112039E+02  0.56449115264E+02  0.47000000000E+01 0.  1.
          5   -1    0    0  501    0  0.00000000000E+00 -0.00000000000E+00 -0.71872436563E+03  0.71873973297E+03  0.47000000000E+01 0.  1.
         25    2    1    2    0    0  0.32759721644E+02 -0.15197139137E+03 -0.27948352076E+03  0.34336333459E+03  0.12497534962E+03 0.  0.
         25    2    1    2    0    0 -0.32759721644E+02  0.15197139137E+03 -0.38298773283E+03  0.43182551364E+03  0.12500067030E+03 0.  0.
          5    1    3    3  502    0  0.11453092864E+02 -0.10301774047E+03 -0.65348159453E+02  0.12262259226E+03  0.47000000000E+01 0. -1.
         -5    1    3    3    0  502  0.21306628781E+02 -0.48953650895E+02 -0.21413536131E+03  0.22074074234E+03  0.47000000000E+01 0. -1.
          5    1    4    4  503    0 -0.43524194100E+02  0.10732860812E+03 -0.36382575802E+03  0.38184428474E+03  0.47000000000E+01 0. -1.
         -5    1    4    4    0  503  0.10764472456E+02  0.44642783248E+02 -0.19161974812E+02  0.49981228898E+02  0.47000000000E+01 0. -1.
<mgrwt>
<rscale>  0 0.19947954E+03</rscale>
<asrwt>0</asrwt>
<pdfrwt beam="2">  1        5 0.11058923E+00 0.19948351E+03</pdfrwt>
<pdfrwt beam="1">  1       -5 0.86705847E-02 0.19948351E+03</pdfrwt>
<totfact> 0.51178910E+01</totfact>
</mgrwt>
</event>
<event>
 8    1  0.3759079E-007  0.1323195E+03  0.7546771E-02  0.1224057E+00
          5   -1    0    0  501    0  0.00000000000E+00  0.00000000000E+00  0.57275032342E+03  0.57276960724E+03  0.47000000000E+01 0. -1.
         -5   -1    0    0    0  501 -0.00000000000E+00 -0.00000000000E+00 -0.32068768255E+02  0.32411354452E+02  0.47000000000E+01 0. -1.
         25    2    1    2    0    0 -0.21166425242E+02 -0.37889142267E+02  0.20103414767E+03  0.24067235038E+03  0.12499938820E+03 0.  0.
         25    2    1    2    0    0  0.21166425242E+02  0.37889142267E+02  0.33964740750E+03  0.36450861131E+03  0.12499024618E+03 0.  0.
          5    1    3    3  502    0 -0.16796041590E+02 -0.83091756297E+02  0.11124721898E+03  0.13994420569E+03  0.47000000000E+01 0. -1.
         -5    1    3    3    0  502 -0.43703836515E+01  0.45202614030E+02  0.89786928691E+02  0.10072814469E+03  0.47000000000E+01 0. -1.
          5    1    4    4  503    0  0.42588768344E+02  0.15926344551E+02  0.33206086365E+02  0.56499431958E+02  0.47000000000E+01 0. -1.
         -5    1    4    4    0  503 -0.21422343103E+02  0.21962797716E+02  0.30644132113E+03  0.30800917935E+03  0.47000000000E+01 0. -1.
<mgrwt>
<rscale>  0 0.13231735E+03</rscale>
<asrwt>0</asrwt>
<pdfrwt beam="1">  1        5 0.88143267E-01 0.13231951E+03</pdfrwt>
<pdfrwt beam="2">  1       -5 0.49614930E-02 0.13231951E+03</pdfrwt>
<totfact> 0.20283752E+02</totfact>
</mgrwt>
</event>
<event>
 8    1  0.3759079E-007  0.1390023E+03  0.7546771E-02  0.1214679E+00
          5   -1    0    0  501    0  0.00000000000E+00  0.00000000000E+00  0.13838575759E+03  0.13846554771E+03  0.47000000000E+01 0. -1.
         -5   -1    0    0    0  501 -0.00000000000E+00 -0.00000000000E+00 -0.14719414546E+03  0.14726916329E+03  0.47000000000E+01 0. -1.
         25    2    1    2    0    0 -0.13447075904E+02 -0.59292026858E+02 -0.37137567225E+02  0.14387502934E+03  0.12499782745E+03 0.  0.
         25    2    1    2    0    0  0.13447075904E+02  0.59292026858E+02  0.28329179358E+02  0.14185968167E+03  0.12500103432E+03 0.  0.
          5    1    3    3  502    0  0.52922297362E+02 -0.46695018760E+02 -0.12590624260E+02  0.71845724677E+02  0.47000000000E+01 0. -1.
         -5    1    3    3    0  502 -0.66369373266E+02 -0.12597008098E+02 -0.24546942965E+02  0.72029304659E+02  0.47000000000E+01 0. -1.
          5    1    4    4  503    0 -0.54328101670E+01 -0.38515817451E+02  0.56016867859E+01  0.39578434975E+02  0.47000000000E+01 0. -1.
         -5    1    4    4    0  503  0.18879886071E+02  0.97807844309E+02  0.22727492572E+02  0.10228124669E+03  0.47000000000E+01 0. -1.
<mgrwt>
<rscale>  0 0.13900153E+03</rscale>
<asrwt>0</asrwt>
<pdfrwt beam="1">  1        5 0.21302025E-01 0.13900225E+03</pdfrwt>
<pdfrwt beam="2">  1       -5 0.22657162E-01 0.13900225E+03</pdfrwt>
<totfact> 0.27529826E+02</totfact>
</mgrwt>
</event>
<event>
 8    1  0.3759079E-007  0.1653539E+03  0.7546771E-02  0.1182782E+00
          5   -1    0    0  501    0  0.00000000000E+00  0.00000000000E+00  0.20354017875E+02  0.20889615689E+02  0.47000000000E+01 0. -1.
         -5   -1    0    0    0  501 -0.00000000000E+00 -0.00000000000E+00 -0.18019183948E+04  0.18019245243E+04  0.47000000000E+01 0. -1.
         25    2    1    2    0    0  0.55618102955E+02  0.92863146474E+02 -0.13594426676E+04  0.13694620442E+04  0.12499994658E+03 0.  0.
         25    2    1    2    0    0 -0.55618102955E+02 -0.92863146474E+02 -0.42212170931E+03  0.45335209585E+03  0.12499779194E+03 0.  0.
          5    1    3    3  502    0 -0.28730284708E+02  0.67783189830E+02 -0.76077131275E+03  0.76433963026E+03  0.47000000000E+01 0.  1.
         -5    1    3    3    0  502  0.84348387663E+02  0.25079956644E+02 -0.59867135484E+03  0.60512241393E+03  0.47000000000E+01 0.  1.
          5    1    4    4  503    0 -0.54977390330E+02 -0.11415548962E+03 -0.25468656695E+03  0.28450189216E+03  0.47000000000E+01 0.  1.
         -5    1    4    4    0  503 -0.64071262543E+00  0.21292343141E+02 -0.16743514236E+03  0.16885020369E+03  0.47000000000E+01 0.  1.
<mgrwt>
<rscale>  0 0.16535353E+03</rscale>
<asrwt>0</asrwt>
<pdfrwt beam="1">  1        5 0.31730601E-02 0.16535394E+03</pdfrwt>
<pdfrwt beam="2">  1       -5 0.27725976E+00 0.16535394E+03</pdfrwt>
<totfact> 0.16107854E+01</totfact>
</mgrwt>
</event>
<event>
 8    1  0.3759079E-007  0.1340768E+03  0.7546771E-02  0.1221533E+00
         -5   -1    0    0    0  501 -0.00000000000E+00  0.00000000000E+00  0.73578118306E+02  0.73728078053E+02  0.47000000000E+01 0.  1.
          5   -1    0    0  501    0  0.00000000000E+00 -0.00000000000E+00 -0.24790862410E+03  0.24795317281E+03  0.47000000000E+01 0.  1.
         25    2    1    2    0    0  0.40517544084E+02  0.26603517029E+02 -0.66660747585E+02  0.14973389050E+03  0.12500865649E+03 0.  0.
         25    2    1    2    0    0 -0.40517544084E+02 -0.26603517029E+02 -0.10766975821E+03  0.17194736036E+03  0.12499479751E+03 0.  0.
          5    1    4    4  502    0 -0.48901759668E+02  0.11744910772E+02 -0.12027559126E+03  0.13045164959E+03  0.47000000000E+01 0.  1.
         -5    1    4    4    0  502  0.83842155838E+01 -0.38348427801E+02  0.12605833046E+02  0.41495710773E+02  0.47000000000E+01 0.  1.
          5    1    3    3  503    0 -0.20141037760E+02  0.48364479105E+02  0.54810830834E+01  0.52885881981E+02  0.47000000000E+01 0. -1.
         -5    1    3    3    0  503  0.60658581844E+02 -0.21760962076E+02 -0.72141830669E+02  0.96848008519E+02  0.47000000000E+01 0. -1.
<mgrwt>
<rscale>  0 0.13407355E+03</rscale>
<asrwt>0</asrwt>
<pdfrwt beam="2">  1        5 0.38154750E-01 0.13407678E+03</pdfrwt>
<pdfrwt beam="1">  1       -5 0.11334673E-01 0.13407678E+03</pdfrwt>
<totfact> 0.30858566E+02</totfact>
</mgrwt>
</event>
<event>
 8    1  0.3759079E-007  0.1318821E+03  0.7546771E-02  0.1224690E+00
         -5   -1    0    0    0  501 -0.00000000000E+00  0.00000000000E+00  0.11995442538E+04  0.11995534614E+04  0.47000000000E+01 0.  1.
          5   -1    0    0  501    0  0.00000000000E+00 -0.00000000000E+00 -0.15470993402E+02  0.16169156961E+02  0.47000000000E+01 0.  1.
         25    2    1    2    0    0 -0.13521900990E+02  0.39822880737E+02  0.76823419143E+03  0.77947204777E+03  0.12499678693E+03 0.  0.
         25    2    1    2    0    0  0.13521900990E+02 -0.39822880737E+02  0.41583906894E+03  0.43625057059E+03  0.12499490167E+03 0.  0.
          5    1    4    4  502    0  0.13449284166E+02 -0.60051966758E+02  0.41008048571E+03  0.41469894709E+03  0.47000000000E+01 0. -1.
         -5    1    4    4    0  502  0.72616824443E-01  0.20229086020E+02  0.57585832236E+01  0.21551623492E+02  0.47000000000E+01 0. -1.
          5    1    3    3  503    0  0.31255640261E+02  0.70544892788E+02  0.46330578644E+03  0.46971037746E+03  0.47000000000E+01 0. -1.
         -5    1    3    3    0  503 -0.44777541251E+02 -0.30722012051E+02  0.30492840499E+03  0.30976167032E+03  0.47000000000E+01 0. -1.
<mgrwt>
<rscale>  0 0.13188170E+03</rscale>
<asrwt>0</asrwt>
<pdfrwt beam="2">  1        5 0.24345656E-02 0.13188215E+03</pdfrwt>
<pdfrwt beam="1">  1       -5 0.18459971E+00 0.13188215E+03</pdfrwt>
<totfact> 0.93457656E+01</totfact>
</mgrwt>
</event>
<event>
 8    1  0.3759079E-007  0.1345843E+03  0.7546771E-02  0.1220819E+00
         -5   -1    0    0    0  501 -0.00000000000E+00  0.00000000000E+00  0.42201510386E+02  0.42462424317E+02  0.47000000000E+01 0. -1.
          5   -1    0    0  501    0  0.00000000000E+00 -0.00000000000E+00 -0.43260118984E+03  0.43262672069E+03  0.47000000000E+01 0. -1.
         25    2    1    2    0    0 -0.48650728159E+02 -0.10963011774E+02 -0.16940277951E+03  0.21633719588E+03  0.12496959485E+03 0.  0.
         25    2    1    2    0    0  0.48650728159E+02  0.10963011774E+02 -0.22099689995E+03  0.25875194913E+03  0.12500344160E+03 0.  0.
          5    1    4    4  502    0 -0.36653461508E+02  0.27490072952E+02 -0.95652624169E+02  0.10616352887E+03  0.47000000000E+01 0.  1.
         -5    1    4    4    0  502  0.85304189668E+02 -0.16527061178E+02 -0.12534427578E+03  0.15258842026E+03  0.47000000000E+01 0.  1.
          5    1    3    3  503    0  0.65715164549E+01  0.45120280896E+02 -0.10486259731E+03  0.11444334359E+03  0.47000000000E+01 0.  1.
         -5    1    3    3    0  503 -0.55222244614E+02 -0.56083292670E+02 -0.64540182201E+02  0.10189385229E+03  0.47000000000E+01 0.  1.
<mgrwt>
<rscale>  0 0.13457647E+03</rscale>
<asrwt>0</asrwt>
<pdfrwt beam="2">  1        5 0.66576060E-01 0.13458433E+03</pdfrwt>
<pdfrwt beam="1">  1       -5 0.65145746E-02 0.13458433E+03</pdfrwt>
<totfact> 0.24608050E+02</totfact>
</mgrwt>
</event>
<event>
 8    1  0.3759079E-007  0.1904363E+03  0.7546771E-02  0.1158070E+00
          5   -1    0    0  501    0  0.00000000000E+00  0.00000000000E+00  0.36781335956E+03  0.36784338715E+03  0.47000000000E+01 0. -1.
         -5   -1    0    0    0  501 -0.00000000000E+00 -0.00000000000E+00 -0.13005485378E+03  0.13013975178E+03  0.47000000000E+01 0. -1.
         25    2    1    2    0    0 -0.64430540896E+02 -0.12840472353E+03 -0.36968911740E+01  0.19046613046E+03  0.12499844888E+03 0.  0.
         25    2    1    2    0    0  0.64430540896E+02  0.12840472353E+03  0.24145539695E+03  0.30751700847E+03  0.12500773640E+03 0.  0.
          5    1    4    4  502    0 -0.14809465540E+02  0.72702242626E+02  0.17449351196E+03  0.18967079920E+03  0.47000000000E+01 0. -1.
         -5    1    4    4    0  502  0.79240006436E+02  0.55702480901E+02  0.66961884987E+02  0.11784620927E+03  0.47000000000E+01 0. -1.
          5    1    3    3  503    0 -0.26803558780E+02  0.13018837460E+02 -0.29036874282E+02  0.41870645567E+02  0.47000000000E+01 0.  1.
         -5    1    3    3    0  503 -0.37626982116E+02 -0.14142356099E+03  0.25339983108E+02  0.14859548489E+03  0.47000000000E+01 0.  1.
<mgrwt>
<rscale>  0 0.19043482E+03</rscale>
<asrwt>0</asrwt>
<pdfrwt beam="1">  1        5 0.56595511E-01 0.19043635E+03</pdfrwt>
<pdfrwt beam="2">  1       -5 0.20017280E-01 0.19043635E+03</pdfrwt>
<totfact> 0.53450569E+01</totfact>
</mgrwt>
</event>
<event>
 8    1  0.3759079E-007  0.1373368E+03  0.7546771E-02  0.1216960E+00
          5   -1    0    0  501    0  0.00000000000E+00  0.00000000000E+00  0.59009872409E+02  0.59196748573E+02  0.47000000000E+01 0. -1.
         -5   -1    0    0    0  501 -0.00000000000E+00 -0.00000000000E+00 -0.33369517375E+03  0.33372827118E+03  0.47000000000E+01 0. -1.
         25    2    1    2    0    0  0.56656113429E+02  0.51043388046E+01 -0.17868400467E+03  0.22536119296E+03  0.12499489712E+03 0.  0.
         25    2    1    2    0    0 -0.56656113429E+02 -0.51043388046E+01 -0.96001296675E+02  0.16756382679E+03  0.12500167048E+03 0.  0.
          5    1    4    4  502    0  0.31066605815E+02  0.29415637031E+01  0.66127725546E+01  0.32242914799E+02  0.47000000000E+01 0.  1.
         -5    1    4    4    0  502 -0.87722719244E+02 -0.80459025077E+01 -0.10261406923E+03  0.13532091199E+03  0.47000000000E+01 0.  1.
          5    1    3    3  503    0  0.15249133472E+02  0.20930678295E+02 -0.17885780572E+03  0.18078394296E+03  0.47000000000E+01 0. -1.
         -5    1    3    3    0  503  0.41406979958E+02 -0.15826339490E+02  0.17380105120E+00  0.44577250001E+02  0.47000000000E+01 0. -1.
<mgrwt>
<rscale>  0 0.13733522E+03</rscale>
<asrwt>0</asrwt>
<pdfrwt beam="1">  1        5 0.90953631E-02 0.13733677E+03</pdfrwt>
<pdfrwt beam="2">  1       -5 0.51354639E-01 0.13733677E+03</pdfrwt>
<totfact> 0.24650223E+02</totfact>
</mgrwt>
</event>
<event>
 8    1  0.3759079E-007  0.1341025E+03  0.7546771E-02  0.1221510E+00
          5   -1    0    0  501    0  0.00000000000E+00  0.00000000000E+00  0.10509851420E+04  0.10509956511E+04  0.47000000000E+01 0.  1.
         -5   -1    0    0    0  501 -0.00000000000E+00 -0.00000000000E+00 -0.22273865068E+02  0.22764337571E+02  0.47000000000E+01 0.  1.
         25    2    1    2    0    0 -0.93971878076E+01  0.47554413521E+02  0.25083417327E+03  0.28440818397E+03  0.12498201169E+03 0.  0.
         25    2    1    2    0    0  0.93971878076E+01 -0.47554413521E+02  0.77787710366E+03  0.78935180473E+03  0.12503501050E+03 0.  0.
          5    1    4    4  502    0  0.25637373854E+02 -0.84764268343E+02  0.61814336745E+03  0.62447223225E+03  0.47000000000E+01 0.  1.
         -5    1    4    4    0  502 -0.16240186046E+02  0.37209854823E+02  0.15973373621E+03  0.16487957248E+03  0.47000000000E+01 0.  1.
          5    1    3    3  503    0  0.44102424561E+00 -0.14831726896E+02  0.20653549647E+03  0.20712116243E+03  0.47000000000E+01 0.  1.
         -5    1    3    3    0  503 -0.98382120532E+01  0.62386140416E+02  0.44298676802E+02  0.77287021542E+02  0.47000000000E+01 0.  1.
<mgrwt>
<rscale>  0 0.13409015E+03</rscale>
<asrwt>0</asrwt>
<pdfrwt beam="1">  1        5 0.16172855E+00 0.13410251E+03</pdfrwt>
<pdfrwt beam="2">  1       -5 0.34652857E-02 0.13410251E+03</pdfrwt>
<totfact> 0.77926094E+01</totfact>
</mgrwt>
</event>
<event>
 8    1  0.3759079E-007  0.1293846E+03  0.7546771E-02  0.1228381E+00
          5   -1    0    0  501    0  0.00000000000E+00  0.00000000000E+00  0.79645063847E+01  0.92478841879E+01  0.47000000000E+01 0.  1.
         -5   -1    0    0    0  501 -0.00000000000E+00 -0.00000000000E+00 -0.19662261961E+04  0.19662318134E+04  0.47000000000E+01 0.  1.
         25    2    1    2    0    0 -0.31544651170E+02 -0.10346037364E+02 -0.10852170273E+04  0.10928997505E+04  0.12502704846E+03 0.  0.
         25    2    1    2    0    0  0.31544651170E+02  0.10346037364E+02 -0.87304466239E+03  0.88257994709E+03  0.12505308862E+03 0.  0.
          5    1    3    3  502    0  0.25763182678E+02  0.17713466914E+02 -0.85850190318E+02  0.91486904360E+02  0.47000000000E+01 0.  1.
         -5    1    3    3    0  502 -0.57307833848E+02 -0.28059504278E+02 -0.99936683701E+03  0.10014128462E+04  0.47000000000E+01 0.  1.
          5    1    4    4  503    0  0.20392114547E+01  0.61209361688E+02 -0.28272891318E+03  0.28932416541E+03  0.47000000000E+01 0.  1.
         -5    1    4    4    0  503  0.29505439715E+02 -0.50863324324E+02 -0.59031574921E+03  0.59325578168E+03  0.47000000000E+01 0.  1.
<mgrwt>
<rscale>  0 0.12937833E+03</rscale>
<asrwt>0</asrwt>
<pdfrwt beam="1">  1        5 0.13244637E-02 0.12938462E+03</pdfrwt>
<pdfrwt beam="2">  1       -5 0.30259513E+00 0.12938462E+03</pdfrwt>
<totfact> 0.42131607E+01</totfact>
</mgrwt>
</event>
<event>
 8    1  0.3759079E-007  0.1292000E+03  0.7546771E-02  0.1228648E+00
         -5   -1    0    0    0  501 -0.00000000000E+00  0.00000000000E+00  0.45835725441E+02  0.46076064575E+02  0.47000000000E+01 0. -1.
          5   -1    0    0  501    0  0.00000000000E+00 -0.00000000000E+00 -0.36353710062E+03  0.36356748139E+03  0.47000000000E+01 0. -1.
         25    2    1    2    0    0 -0.28940179592E+02  0.15164472372E+02 -0.16693363860E+03  0.21109115866E+03  0.12500056940E+03 0.  0.
         25    2    1    2    0    0  0.28940179592E+02 -0.15164472372E+02 -0.15076773657E+03  0.19855238731E+03  0.12499857958E+03 0.  0.
          5    1    4    4  502    0  0.27810390849E+02 -0.68888513548E+02 -0.76254279032E+02  0.10656383162E+03  0.47000000000E+01 0.  1.
         -5    1    4    4    0  502  0.11297887430E+01  0.53724041176E+02 -0.74513457542E+02  0.91988555689E+02  0.47000000000E+01 0.  1.
          5    1    3    3  503    0 -0.31204626030E+02 -0.31640465868E+02 -0.15663320058E+03  0.16288307858E+03  0.47000000000E+01 0.  1.
         -5    1    3    3    0  503  0.22644464381E+01  0.46804938239E+02 -0.10300438027E+02  0.48208080078E+02  0.47000000000E+01 0.  1.
<mgrwt>
<rscale>  0 0.12919951E+03</rscale>
<asrwt>0</asrwt>
<pdfrwt beam="2">  1        5 0.55949608E-01 0.12919999E+03</pdfrwt>
<pdfrwt beam="1">  1       -5 0.70724749E-02 0.12919999E+03</pdfrwt>
<totfact> 0.30906408E+02</totfact>
</mgrwt>
</event>
<event>
 8    1  0.3759079E-007  0.1402626E+03  0.7546771E-02  0.1212981E+00
          5   -1    0    0  501    0  0.00000000000E+00  0.00000000000E+00  0.33429375012E+02  0.33758156255E+02  0.47000000000E+01 0.  1.
         -5   -1    0    0    0  501 -0.00000000000E+00 -0.00000000000E+00 -0.73400502927E+03  0.73402007669E+03  0.47000000000E+01 0.  1.
         25    2    1    2    0    0  0.15125295387E+02  0.61774022998E+02 -0.52306112636E+03  0.54153719285E+03  0.12499913940E+03 0.  0.
         25    2    1    2    0    0 -0.15125295387E+02 -0.61774022998E+02 -0.17751452789E+03  0.22624104010E+03  0.12501518361E+03 0.  0.
          5    1    4    4  502    0 -0.49524168922E+02 -0.60104874937E+02 -0.46793523124E+02  0.90977816554E+02  0.47000000000E+01 0.  1.
         -5    1    4    4    0  502  0.34398873535E+02 -0.16691480608E+01 -0.13072100477E+03  0.13526322355E+03  0.47000000000E+01 0.  1.
          5    1    3    3  503    0  0.48788625357E+02  0.80367911416E+02 -0.27981856428E+03  0.29522847096E+03  0.47000000000E+01 0.  1.
         -5    1    3    3    0  503 -0.33663329970E+02 -0.18593888419E+02 -0.24324256208E+03  0.24630872189E+03  0.47000000000E+01 0.  1.
<mgrwt>
<rscale>  0 0.14025904E+03</rscale>
<asrwt>0</asrwt>
<pdfrwt beam="1">  1        5 0.51694297E-02 0.14026261E+03</pdfrwt>
<pdfrwt beam="2">  1       -5 0.11295029E+00 0.14026261E+03</pdfrwt>
<totfact> 0.10564166E+02</totfact>
</mgrwt>
</event>
<event>
 8    1  0.3759079E-007  0.1349929E+03  0.7546771E-02  0.1220238E+00
         -5   -1    0    0    0  501 -0.00000000000E+00  0.00000000000E+00  0.74944033376E+01  0.88462467401E+01  0.47000000000E+01 0. -1.
          5   -1    0    0  501    0  0.00000000000E+00 -0.00000000000E+00 -0.22665303890E+04  0.22665352621E+04  0.47000000000E+01 0. -1.
         25    2    1    2    0    0 -0.47664947571E+02  0.17865875484E+02 -0.98242108977E+03  0.99164919163E+03  0.12500313955E+03 0.  0.
         25    2    1    2    0    0  0.47664947571E+02 -0.17865875484E+02 -0.12766148959E+04  0.12837323172E+04  0.12502772917E+03 0.  0.
          5    1    3    3  502    0 -0.48661743808E+02 -0.28934666214E+02 -0.83439431724E+03  0.83632598122E+03  0.47000000000E+01 0. -1.
         -5    1    3    3    0  502  0.99679623769E+00  0.46800541698E+02 -0.14802677254E+03  0.15532321041E+03  0.47000000000E+01 0. -1.
          5    1    4    4  503    0  0.79452006694E+01 -0.13251423173E+01 -0.11478476970E+04  0.11478855812E+04  0.47000000000E+01 0. -1.
         -5    1    4    4    0  503  0.39719746901E+02 -0.16540733167E+02 -0.12876719897E+03  0.13584673599E+03  0.47000000000E+01 0. -1.
<mgrwt>
<rscale>  0 0.13498716E+03</rscale>
<asrwt>0</asrwt>
<pdfrwt beam="2">  1        5 0.34880084E+00 0.13499285E+03</pdfrwt>
<pdfrwt beam="1">  1       -5 0.12573497E-02 0.13499285E+03</pdfrwt>
<totfact> 0.23293721E+01</totfact>
</mgrwt>
</event>
<event>
 8    1  0.3759079E-007  0.1435046E+03  0.7546771E-02  0.1208691E+00
         -5   -1    0    0    0  501 -0.00000000000E+00  0.00000000000E+00  0.81030121350E+03  0.81031484412E+03  0.47000000000E+01 0. -1.
          5   -1    0    0  501    0  0.00000000000E+00 -0.00000000000E+00 -0.27116989049E+02  0.27521284402E+02  0.47000000000E+01 0. -1.
         25    2    1    2    0    0  0.57600879550E+02 -0.40624425924E+02  0.50259654995E+03  0.52268235933E+03  0.12500140570E+03 0.  0.
         25    2    1    2    0    0 -0.57600879550E+02  0.40624425924E+02  0.28058767451E+03  0.31515376920E+03  0.12499699935E+03 0.  0.
          5    1    3    3  502    0 -0.14404134449E+02 -0.64844529878E+01  0.30038674117E+01  0.16752326382E+02  0.47000000000E+01 0.  1.
         -5    1    3    3    0  502  0.72005013999E+02 -0.34139972936E+02  0.49959268253E+03  0.50593003294E+03  0.47000000000E+01 0.  1.
          5    1    4    4  503    0 -0.48350034238E+02 -0.34650723030E+02  0.74162342659E+02  0.95186876648E+02  0.47000000000E+01 0.  1.
         -5    1    4    4    0  503 -0.92508453115E+01  0.75275148954E+02  0.20642533185E+03  0.21996689255E+03  0.47000000000E+01 0.  1.
<mgrwt>
<rscale>  0 0.14350359E+03</rscale>
<asrwt>0</asrwt>
<pdfrwt beam="2">  1        5 0.42039930E-02 0.14350455E+03</pdfrwt>
<pdfrwt beam="1">  1       -5 0.12469386E+00 0.14350455E+03</pdfrwt>
<totfact> 0.11654128E+02</totfact>
</mgrwt>
</event>
<event>
 8    1  0.3759079E-007  0.1349093E+03  0.7546771E-02  0.1220350E+00
          5   -1    0    0  501    0  0.00000000000E+00  0.00000000000E+00  0.68729803551E+02  0.68890317869E+02  0.47000000000E+01 0. -1.
         -5   -1    0    0    0  501 -0.00000000000E+00 -0.00000000000E+00 -0.33279500155E+03  0.33282818850E+03  0.47000000000E+01 0. -1.
         25    2    1    2    0    0  0.33462440085E+02 -0.38137795412E+02 -0.22312393065E+03  0.26073895026E+03  0.12500514157E+03 0.  0.
         25    2    1    2    0    0 -0.33462440085E+02  0.38137795412E+02 -0.40941267352E+02  0.14097955611E+03  0.12499928613E+03 0.  0.
          5    1    4    4  502    0  0.38754253067E+02 -0.49091879806E+01 -0.40930847631E+02  0.56775140204E+02  0.47000000000E+01 0.  1.
         -5    1    4    4    0  502 -0.72216693151E+02  0.43046983392E+02 -0.10419721507E-01  0.84204415902E+02  0.47000000000E+01 0.  1.
          5    1    3    3  503    0  0.83122884597E+01 -0.82357660691E+02 -0.12299565219E+03  0.14833037070E+03  0.47000000000E+01 0.  1.
         -5    1    3    3    0  503  0.25150151625E+02  0.44219865279E+02 -0.10012827846E+03  0.11240857956E+03  0.47000000000E+01 0.  1.
<mgrwt>
<rscale>  0 0.13490792E+03</rscale>
<asrwt>0</asrwt>
<pdfrwt beam="1">  1        5 0.10588716E-01 0.13490927E+03</pdfrwt>
<pdfrwt beam="2">  1       -5 0.51214130E-01 0.13490927E+03</pdfrwt>
<totfact> 0.18911394E+02</totfact>
</mgrwt>
</event>
<event>
 8    1  0.3759079E-007  0.1295245E+03  0.7546771E-02  0.1228172E+00
         -5   -1    0    0    0  501 -0.00000000000E+00  0.00000000000E+00  0.77582572618E+02  0.77724806684E+02  0.47000000000E+01 0. -1.
          5   -1    0    0  501    0  0.00000000000E+00 -0.00000000000E+00 -0.25440432961E+03  0.25444774104E+03  0.47000000000E+01 0. -1.
         25    2    1    2    0    0  0.25765728924E+02 -0.21929341788E+02 -0.23774780573E+02  0.13168839197E+03  0.12502729130E+03 0.  0.
         25    2    1    2    0    0 -0.25765728924E+02  0.21929341788E+02 -0.15304697641E+03  0.20048415576E+03  0.12500300357E+03 0.  0.
          5    1    3    3  502    0  0.30259221270E+01 -0.82554439752E+01  0.51125242409E+02  0.52088280556E+02  0.47000000000E+01 0.  1.
         -5    1    3    3    0  502  0.22739806797E+02 -0.13673897813E+02 -0.74900022982E+02  0.79600111415E+02  0.47000000000E+01 0.  1.
          5    1    4    4  503    0  0.31095098562E+02  0.55958646175E+01 -0.13459759199E+03  0.13833589782E+03  0.47000000000E+01 0. -1.
         -5    1    4    4    0  503 -0.56860827487E+02  0.16333477171E+02 -0.18449384422E+02  0.62148257936E+02  0.47000000000E+01 0. -1.
<mgrwt>
<rscale>  0 0.12951862E+03</rscale>
<asrwt>0</asrwt>
<pdfrwt beam="2">  1        5 0.39153408E-01 0.12952449E+03</pdfrwt>
<pdfrwt beam="1">  1       -5 0.11950061E-01 0.12952449E+03</pdfrwt>
<totfact> 0.26343558E+02</totfact>
</mgrwt>
</event>
<event>
 8    1  0.3759079E-007  0.1361368E+03  0.7546771E-02  0.1218625E+00
          5   -1    0    0  501    0  0.00000000000E+00  0.00000000000E+00  0.37279157403E+03  0.37282120067E+03  0.47000000000E+01 0. -1.
         -5   -1    0    0    0  501 -0.00000000000E+00 -0.00000000000E+00 -0.52083936715E+02  0.52295568299E+02  0.47000000000E+01 0. -1.
         25    2    1    2    0    0 -0.49964907857E+02  0.20383177739E+02  0.11377460942E+03  0.17742012007E+03  0.12498508434E+03 0.  0.
         25    2    1    2    0    0  0.49964907857E+02 -0.20383177739E+02  0.20693302790E+03  0.24769664889E+03  0.12498154218E+03 0.  0.
          5    1    4    4  502    0  0.44549739769E+02 -0.15143841070E+02  0.22374279959E+03  0.22868525445E+03  0.47000000000E+01 0. -1.
         -5    1    4    4    0  502  0.54151680883E+01 -0.52393366690E+01 -0.16809771694E+02  0.19011394440E+02  0.47000000000E+01 0. -1.
          5    1    3    3  503    0 -0.11561326837E+02  0.66050374215E+02  0.27978267620E+02  0.72809269129E+02  0.47000000000E+01 0. -1.
         -5    1    3    3    0  503 -0.38403581021E+02 -0.45667196476E+02  0.85796341796E+02  0.10461085094E+03  0.47000000000E+01 0. -1.
<mgrwt>
<rscale>  0 0.13613602E+03</rscale>
<asrwt>0</asrwt>
<pdfrwt beam="1">  1        5 0.57371107E-01 0.13613683E+03</pdfrwt>
<pdfrwt beam="2">  1       -5 0.80314718E-02 0.13613683E+03</pdfrwt>
<totfact> 0.24000185E+02</totfact>
</mgrwt>
</event>
<event>
 8    1  0.3759079E-007  0.1276729E+03  0.7546771E-02  0.1230966E+00
         -5   -1    0    0    0  501 -0.00000000000E+00  0.00000000000E+00  0.17283379822E+03  0.17289769173E+03  0.47000000000E+01 0.  1.
          5   -1    0    0  501    0  0.00000000000E+00 -0.00000000000E+00 -0.16922139176E+03  0.16928664871E+03  0.47000000000E+01 0.  1.
         25    2    1    2    0    0  0.22918389353E+02 -0.11663637982E+02  0.11571659501E+03  0.17227928047E+03  0.12501410760E+03 0.  0.
         25    2    1    2    0    0 -0.22918389353E+02  0.11663637982E+02 -0.11210418855E+03  0.16990505997E+03  0.12505633647E+03 0.  0.
          5    1    4    4  502    0  0.38000969969E+02 -0.29135968204E+02 -0.20048097663E+02  0.52124798146E+02  0.47000000000E+01 0.  1.
         -5    1    4    4    0  502 -0.60919359322E+02  0.40799606187E+02 -0.92056090885E+02  0.11778026182E+03  0.47000000000E+01 0.  1.
          5    1    3    3  503    0 -0.21018777136E+01 -0.23160139838E+02 -0.21639395243E+02  0.32111732960E+02  0.47000000000E+01 0.  1.
         -5    1    3    3    0  503  0.25020267066E+02  0.11496501856E+02  0.13735599025E+03  0.14016754751E+03  0.47000000000E+01 0.  1.
<mgrwt>
<rscale>  0 0.12766260E+03</rscale>
<asrwt>0</asrwt>
<pdfrwt beam="2">  1        5 0.26043995E-01 0.12767294E+03</pdfrwt>
<pdfrwt beam="1">  1       -5 0.26599750E-01 0.12767294E+03</pdfrwt>
<totfact> 0.13428085E+02</totfact>
</mgrwt>
</event>
<event>
 8    1  0.3759079E-007  0.1586675E+03  0.7546771E-02  0.1190210E+00
          5   -1    0    0  501    0  0.00000000000E+00  0.00000000000E+00  0.62631386169E+02  0.62807487877E+02  0.47000000000E+01 0. -1.
         -5   -1    0    0    0  501 -0.00000000000E+00 -0.00000000000E+00 -0.41308023190E+03  0.41310696918E+03  0.47000000000E+01 0. -1.
         25    2    1    2    0    0 -0.91866669370E+02 -0.33340752024E+02 -0.21556991193E+03  0.26766535409E+03  0.12499305648E+03 0.  0.
         25    2    1    2    0    0  0.91866669370E+02  0.33340752024E+02 -0.13487893380E+03  0.20824910296E+03  0.12499708562E+03 0.  0.
          5    1    3    3  502    0 -0.12017212786E+03 -0.43110383621E+02 -0.16458604062E+03  0.20835186646E+03  0.47000000000E+01 0.  1.
         -5    1    3    3    0  502  0.28305458489E+02  0.97696315969E+01 -0.50983871313E+02  0.59313487638E+02  0.47000000000E+01 0.  1.
          5    1    4    4  503    0  0.39795775500E+02 -0.28551586321E+02 -0.11462098300E+03  0.12473554655E+03  0.47000000000E+01 0. -1.
         -5    1    4    4    0  503  0.52070893870E+02  0.61892338345E+02 -0.20257950802E+02  0.83513556414E+02  0.47000000000E+01 0. -1.
<mgrwt>
<rscale>  0 0.15866666E+03</rscale>
<asrwt>0</asrwt>
<pdfrwt beam="1">  1        5 0.96512011E-02 0.15866746E+03</pdfrwt>
<pdfrwt beam="2">  1       -5 0.63566406E-01 0.15866746E+03</pdfrwt>
<totfact> 0.14667533E+02</totfact>
</mgrwt>
</event>
<event>
 8    1  0.3759079E-007  0.1403106E+03  0.7546771E-02  0.1212912E+00
         -5   -1    0    0    0  501 -0.00000000000E+00  0.00000000000E+00  0.13791307444E+03  0.13799313788E+03  0.47000000000E+01 0. -1.
          5   -1    0    0  501    0  0.00000000000E+00 -0.00000000000E+00 -0.20295611760E+03  0.20301053094E+03  0.47000000000E+01 0. -1.
         25    2    1    2    0    0 -0.63039887868E+02 -0.94844109928E+01  0.60433100337E+02  0.15277156529E+03  0.12499203987E+03 0.  0.
         25    2    1    2    0    0  0.63039887868E+02  0.94844109928E+01 -0.12547614350E+03  0.18823210353E+03  0.12499232256E+03 0.  0.
          5    1    3    3  502    0 -0.35189644009E+02  0.39856077465E+02 -0.17619856604E+02  0.56208249422E+02  0.47000000000E+01 0.  1.
         -5    1    3    3    0  502 -0.27850243859E+02 -0.49340488458E+02  0.78052956941E+02  0.96563315868E+02  0.47000000000E+01 0.  1.
          5    1    4    4  503    0 -0.17339792458E+02  0.35138550799E+02 -0.86691316092E+02  0.95251563980E+02  0.47000000000E+01 0. -1.
         -5    1    4    4    0  503  0.80379680326E+02 -0.25654139806E+02 -0.38784827405E+02  0.92980539552E+02  0.47000000000E+01 0. -1.
<mgrwt>
<rscale>  0 0.14031053E+03</rscale>
<asrwt>0</asrwt>
<pdfrwt beam="2">  1        5 0.31234363E-01 0.14031059E+03</pdfrwt>
<pdfrwt beam="1">  1       -5 0.21227740E-01 0.14031059E+03</pdfrwt>
<totfact> 0.14947898E+02</totfact>
</mgrwt>
</event>
<event>
 8    1  0.3759079E-007  0.1387945E+03  0.7546771E-02  0.1214961E+00
          5   -1    0    0  501    0  0.00000000000E+00  0.00000000000E+00  0.13243283546E+03  0.13251620998E+03  0.47000000000E+01 0.  1.
         -5   -1    0    0    0  501 -0.00000000000E+00 -0.00000000000E+00 -0.15231893780E+03  0.15239143287E+03  0.47000000000E+01 0.  1.
         25    2    1    2    0    0  0.60022209984E+02 -0.60196266360E+01 -0.40526642468E+02  0.14458673384E+03  0.12499605296E+03 0.  0.
         25    2    1    2    0    0 -0.60022209984E+02  0.60196266360E+01  0.20640540128E+02  0.14032090901E+03  0.12500009605E+03 0.  0.
          5    1    3    3  502    0  0.58302933429E+02  0.43134106873E+02 -0.57152123826E+02  0.92456684345E+02  0.47000000000E+01 0.  1.
         -5    1    3    3    0  502  0.17192765547E+01 -0.49153733509E+02  0.16625481358E+02  0.52130049493E+02  0.47000000000E+01 0.  1.
          5    1    4    4  503    0 -0.40803616799E+02 -0.24153932255E+02 -0.44921659597E+02  0.65485823567E+02  0.47000000000E+01 0. -1.
         -5    1    4    4    0  503 -0.19218593185E+02  0.30173558891E+02  0.65562199724E+02  0.74835085440E+02  0.47000000000E+01 0. -1.
<mgrwt>
<rscale>  0 0.13879363E+03</rscale>
<asrwt>0</asrwt>
<pdfrwt beam="1">  1        5 0.20386272E-01 0.13879454E+03</pdfrwt>
<pdfrwt beam="2">  1       -5 0.23445673E-01 0.13879454E+03</pdfrwt>
<totfact> 0.28001353E+02</totfact>
</mgrwt>
</event>
<event>
 8    1  0.3759079E-007  0.1512644E+03  0.7546771E-02  0.1198929E+00
         -5   -1    0    0    0  501 -0.00000000000E+00  0.00000000000E+00  0.29783710133E+03  0.29787418305E+03  0.47000000000E+01 0.  1.
          5   -1    0    0  501    0  0.00000000000E+00 -0.00000000000E+00 -0.77270042091E+02  0.77412850385E+02  0.47000000000E+01 0.  1.
         25    2    1    2    0    0 -0.58994116903E+02 -0.61445668683E+02  0.12625841783E+03  0.19703148026E+03  0.12499736042E+03 0.  0.
         25    2    1    2    0    0  0.58994116903E+02  0.61445668683E+02  0.94308641405E+02  0.17825555317E+03  0.12500018546E+03 0.  0.
          5    1    3    3  502    0  0.23460444768E+02  0.10139908095E+02  0.68819929121E+02  0.73562781684E+02  0.47000000000E+01 0.  1.
         -5    1    3    3    0  502 -0.82454561672E+02 -0.71585576777E+02  0.57438488714E+02  0.12346869858E+03  0.47000000000E+01 0.  1.
          5    1    4    4  503    0 -0.38955216642E+02  0.11370501460E+02  0.20580873283E+02  0.45743409932E+02  0.47000000000E+01 0.  1.
         -5    1    4    4    0  503  0.97949333546E+02  0.50075167223E+02  0.73727768122E+02  0.13251214324E+03  0.47000000000E+01 0.  1.
<mgrwt>
<rscale>  0 0.15126383E+03</rscale>
<asrwt>0</asrwt>
<pdfrwt beam="2">  1        5 0.11901536E-01 0.15126441E+03</pdfrwt>
<pdfrwt beam="1">  1       -5 0.45834931E-01 0.15126441E+03</pdfrwt>
<totfact> 0.20201372E+02</totfact>
</mgrwt>
</event>
<event>
 8    1  0.3759079E-007  0.1657312E+03  0.7546771E-02  0.1182374E+00
         -5   -1    0    0    0  501 -0.00000000000E+00  0.00000000000E+00  0.76516508746E+02  0.76660720781E+02  0.47000000000E+01 0.  1.
          5   -1    0    0  501    0  0.00000000000E+00 -0.00000000000E+00 -0.36809893474E+03  0.36812893903E+03  0.47000000000E+01 0.  1.
         25    2    1    2    0    0  0.92997022707E+02  0.56507300451E+02 -0.10982450338E+03  0.19881711125E+03  0.12500120377E+03 0.  0.
         25    2    1    2    0    0 -0.92997022707E+02 -0.56507300451E+02 -0.18175792261E+03  0.24597254857E+03  0.12500012393E+03 0.  0.
          5    1    4    4  502    0  0.46150641498E+01 -0.58085795832E+02 -0.30637340203E+02  0.65999962949E+02  0.47000000000E+01 0.  1.
         -5    1    4    4    0  502 -0.97612086857E+02  0.15784953810E+01 -0.15112058240E+03  0.17997258562E+03  0.47000000000E+01 0.  1.
          5    1    3    3  503    0  0.84524869747E+02  0.14701317850E+02 -0.12637866556E+03  0.15282093921E+03  0.47000000000E+01 0.  1.
         -5    1    3    3    0  503  0.84721529606E+01  0.41805982601E+02  0.16554162173E+02  0.45996172039E+02  0.47000000000E+01 0.  1.
<mgrwt>
<rscale>  0 0.16573097E+03</rscale>
<asrwt>0</asrwt>
<pdfrwt beam="2">  1        5 0.56644006E-01 0.16573117E+03</pdfrwt>
<pdfrwt beam="1">  1       -5 0.11785172E-01 0.16573117E+03</pdfrwt>
<totfact> 0.13470772E+02</totfact>
</mgrwt>
</event>
<event>
 8    1  0.3759079E-007  0.1305915E+03  0.7546771E-02  0.1226585E+00
         -5   -1    0    0    0  501 -0.00000000000E+00  0.00000000000E+00  0.36062323754E+03  0.36065386378E+03  0.47000000000E+01 0.  1.
          5   -1    0    0  501    0  0.00000000000E+00 -0.00000000000E+00 -0.66343440587E+02  0.66509714395E+02  0.47000000000E+01 0.  1.
         25    2    1    2    0    0  0.36609385352E+02 -0.93269711967E+01  0.26186166845E+03  0.29261862718E+03  0.12500755209E+03 0.  0.
         25    2    1    2    0    0 -0.36609385352E+02  0.93269711967E+01  0.32418128511E+02  0.13454495100E+03  0.12499667714E+03 0.  0.
          5    1    4    4  502    0 -0.79291236944E+02  0.21083951446E+02  0.51601197641E+01  0.82342881299E+02  0.47000000000E+01 0. -1.
         -5    1    4    4    0  502  0.42681851591E+02 -0.11756980250E+02  0.27258008747E+02  0.52202069698E+02  0.47000000000E+01 0. -1.
          5    1    3    3  503    0  0.49916738467E+02 -0.57441723413E+02  0.19234270075E+03  0.20690344826E+03  0.47000000000E+01 0.  1.
         -5    1    3    3    0  503 -0.13307353115E+02  0.48114752216E+02  0.69518967694E+02  0.85715178919E+02  0.47000000000E+01 0.  1.
<mgrwt>
<rscale>  0 0.13058885E+03</rscale>
<asrwt>0</asrwt>
<pdfrwt beam="2">  1        5 0.10221830E-01 0.13059145E+03</pdfrwt>
<pdfrwt beam="1">  1       -5 0.55495643E-01 0.13059145E+03</pdfrwt>
<totfact> 0.16750214E+02</totfact>
</mgrwt>
</event>
<event>
 8    1  0.3759079E-007  0.1619268E+03  0.7546771E-02  0.1186539E+00
          5   -1    0    0  501    0  0.00000000000E+00  0.00000000000E+00  0.64613806856E+03  0.64615516220E+03  0.47000000000E+01 0. -1.
         -5   -1    0    0    0  501 -0.00000000000E+00 -0.00000000000E+00 -0.40861033372E+02  0.41130451593E+02  0.47000000000E+01 0. -1.
         25    2    1    2    0    0  0.71391831182E+02 -0.74148813645E+02  0.26728785548E+03  0.31251094315E+03  0.12500180711E+03 0.  0.
         25    2    1    2    0    0 -0.71391831182E+02  0.74148813645E+02  0.33798917971E+03  0.37477467064E+03  0.12499811210E+03 0.  0.
          5    1    4    4  502    0 -0.26977879993E+02  0.92497679404E+02  0.29412719460E+03  0.30954244185E+03  0.47000000000E+01 0.  1.
         -5    1    4    4    0  502 -0.44413951189E+02 -0.18348865758E+02  0.43861985104E+02  0.65232228784E+02  0.47000000000E+01 0.  1.
          5    1    3    3  503    0  0.15319974557E+02 -0.59705914571E+02  0.30941824414E+02  0.69130198562E+02  0.47000000000E+01 0. -1.
         -5    1    3    3    0  503  0.56071856626E+02 -0.14442899075E+02  0.23634603106E+03  0.24338074459E+03  0.47000000000E+01 0. -1.
<mgrwt>
<rscale>  0 0.16192610E+03</rscale>
<asrwt>0</asrwt>
<pdfrwt beam="1">  1        5 0.99427896E-01 0.16192681E+03</pdfrwt>
<pdfrwt beam="2">  1       -5 0.63083522E-02 0.16192681E+03</pdfrwt>
<totfact> 0.10843216E+02</totfact>
</mgrwt>
</event>
<event>
 8    1  0.3759079E-007  0.2102783E+03  0.7546771E-02  0.1141347E+00
         -5   -1    0    0    0  501 -0.00000000000E+00  0.00000000000E+00  0.57202684511E+03  0.57204615332E+03  0.47000000000E+01 0. -1.
          5   -1    0    0  501    0  0.00000000000E+00 -0.00000000000E+00 -0.80305494826E+02  0.80442914537E+02  0.47000000000E+01 0. -1.
         25    2    1    2    0    0 -0.49415562749E+02 -0.16170680544E+03  0.30990448192E+03  0.37451000005E+03  0.12500385376E+03 0.  0.
         25    2    1    2    0    0  0.49415562749E+02  0.16170680544E+03  0.18181686836E+03  0.27797906780E+03  0.12499599892E+03 0.  0.
          5    1    3    3  502    0  0.31664837901E+02 -0.90598256114E+02  0.10125175673E+03  0.13958765781E+03  0.47000000000E+01 0. -1.
         -5    1    3    3    0  502 -0.81080400650E+02 -0.71108549330E+02  0.20865272519E+03  0.23492234225E+03  0.47000000000E+01 0. -1.
          5    1    4    4  503    0 -0.30645401698E+02  0.87182254145E+02  0.12232403713E+03  0.15337909291E+03  0.47000000000E+01 0. -1.
         -5    1    4    4    0  503  0.80060964447E+02  0.74524551299E+02  0.59492831230E+02  0.12459997489E+03  0.47000000000E+01 0. -1.
<mgrwt>
<rscale>  0 0.21027711E+03</rscale>
<asrwt>0</asrwt>
<pdfrwt beam="2">  1        5 0.12366748E-01 0.21027827E+03</pdfrwt>
<pdfrwt beam="1">  1       -5 0.88016186E-01 0.21027827E+03</pdfrwt>
<totfact> 0.48509391E+01</totfact>
</mgrwt>
</event>
<event>
 8    1  0.3759079E-007  0.1416465E+03  0.7546771E-02  0.1211135E+00
         -5   -1    0    0    0  501 -0.00000000000E+00  0.00000000000E+00  0.42971745982E+03  0.42974316199E+03  0.47000000000E+01 0. -1.
          5   -1    0    0  501    0  0.00000000000E+00 -0.00000000000E+00 -0.47643483168E+02  0.47874747919E+02  0.47000000000E+01 0. -1.
         25    2    1    2    0    0  0.31101224428E+02  0.58898832497E+02  0.22728253778E+03  0.26780794496E+03  0.12500953873E+03 0.  0.
         25    2    1    2    0    0 -0.31101224428E+02 -0.58898832497E+02  0.15479143887E+03  0.20980996495E+03  0.12499389270E+03 0.  0.
          5    1    3    3  502    0 -0.21172762311E+02  0.31024405724E+02  0.55603232480E+01  0.38259728292E+02  0.47000000000E+01 0. -1.
         -5    1    3    3    0  502  0.52273986738E+02  0.27874426773E+02  0.22172221454E+03  0.22954821667E+03  0.47000000000E+01 0. -1.
          5    1    4    4  503    0 -0.59397504793E+02 -0.29400515273E+02  0.15502600865E+03  0.16866418479E+03  0.47000000000E+01 0.  1.
         -5    1    4    4    0  503  0.28296280365E+02 -0.29498317224E+02 -0.23456977808E+00  0.41145780155E+02  0.47000000000E+01 0.  1.
<mgrwt>
<rscale>  0 0.14164309E+03</rscale>
<asrwt>0</asrwt>
<pdfrwt beam="2">  1        5 0.73495332E-02 0.14164654E+03</pdfrwt>
<pdfrwt beam="1">  1       -5 0.66130146E-01 0.14164654E+03</pdfrwt>
<totfact> 0.20708309E+02</totfact>
</mgrwt>
</event>
<event>
 8    1  0.3759079E-007  0.1271755E+03  0.7546771E-02  0.1231708E+00
          5   -1    0    0  501    0  0.00000000000E+00  0.00000000000E+00  0.12289216615E+04  0.12289306490E+04  0.47000000000E+01 0.  1.
         -5   -1    0    0    0  501 -0.00000000000E+00 -0.00000000000E+00 -0.12861441757E+02  0.13693308003E+02  0.47000000000E+01 0.  1.
         25    2    1    2    0    0 -0.75859801365E+01  0.22165692647E+02  0.54761103474E+03  0.56218454665E+03  0.12499901636E+03 0.  0.
         25    2    1    2    0    0  0.75859801365E+01 -0.22165692647E+02  0.66844918500E+03  0.68043941037E+03  0.12499845295E+03 0.  0.
          5    1    3    3  502    0  0.16225827176E+02 -0.23101295956E+02  0.45802807793E+03  0.45892129773E+03  0.47000000000E+01 0. -1.
         -5    1    3    3    0  502 -0.23811807313E+02  0.45266988602E+02  0.89582956812E+02  0.10326324891E+03  0.47000000000E+01 0. -1.
          5    1    4    4  503    0  0.23702455031E+02  0.43250366445E+02  0.42220484551E+03  0.42510166095E+03  0.47000000000E+01 0.  1.
         -5    1    4    4    0  503 -0.16116474895E+02 -0.65416059091E+02  0.24624433949E+03  0.25533774942E+03  0.47000000000E+01 0.  1.
<mgrwt>
<rscale>  0 0.12717541E+03</rscale>
<asrwt>0</asrwt>
<pdfrwt beam="1">  1        5 0.18912955E+00 0.12717554E+03</pdfrwt>
<pdfrwt beam="2">  1       -5 0.20433645E-02 0.12717554E+03</pdfrwt>
<totfact> 0.11353571E+02</totfact>
</mgrwt>
</event>
<event>
 8    1  0.3759079E-007  0.1469113E+03  0.7546771E-02  0.1204321E+00
          5   -1    0    0  501    0  0.00000000000E+00  0.00000000000E+00  0.11974552921E+03  0.11983773097E+03  0.47000000000E+01 0. -1.
         -5   -1    0    0    0  501 -0.00000000000E+00 -0.00000000000E+00 -0.18831503243E+03  0.18837367501E+03  0.47000000000E+01 0. -1.
         25    2    1    2    0    0  0.20761769597E+02 -0.74352349772E+02 -0.66561558107E+02  0.16128636985E+03  0.12499411622E+03 0.  0.
         25    2    1    2    0    0 -0.20761769597E+02  0.74352349772E+02 -0.20079451151E+01  0.14692503614E+03  0.12499444550E+03 0.  0.
          5    1    3    3  502    0  0.64687473052E+01 -0.63114949242E+02 -0.10255679682E+03  0.12068690105E+03  0.47000000000E+01 0. -1.
         -5    1    3    3    0  502  0.14293022292E+02 -0.11237400530E+02  0.35995238717E+02  0.40599468805E+02  0.47000000000E+01 0. -1.
          5    1    4    4  503    0 -0.30086386003E+02  0.55074405577E+02  0.56419221878E+02  0.84519816432E+02  0.47000000000E+01 0. -1.
         -5    1    4    4    0  503  0.93246164052E+01  0.19277944195E+02 -0.58427166993E+02  0.62405219705E+02  0.47000000000E+01 0. -1.
<mgrwt>
<rscale>  0 0.14691124E+03</rscale>
<asrwt>0</asrwt>
<pdfrwt beam="1">  1        5 0.18433992E-01 0.14691131E+03</pdfrwt>
<pdfrwt beam="2">  1       -5 0.28983147E-01 0.14691131E+03</pdfrwt>
<totfact> 0.22874120E+02</totfact>
</mgrwt>
</event>
<event>
 8    1  0.3759079E-007  0.1258526E+03  0.7546771E-02  0.1233743E+00
          5   -1    0    0  501    0  0.00000000000E+00  0.00000000000E+00  0.11468183694E+02  0.12393919365E+02  0.47000000000E+01 0.  1.
         -5   -1    0    0    0  501 -0.00000000000E+00 -0.00000000000E+00 -0.16138782549E+04  0.16138850987E+04  0.47000000000E+01 0.  1.
         25    2    1    2    0    0 -0.11713600515E+02 -0.87769537262E+01 -0.11441786457E+04  0.11510791397E+04  0.12499667711E+03 0.  0.
         25    2    1    2    0    0  0.11713600515E+02  0.87769537262E+01 -0.45823142556E+03  0.47519987834E+03  0.12499856659E+03 0.  0.
          5    1    3    3  502    0  0.53116250557E+02 -0.23630056209E+02 -0.46774281493E+03  0.47136519446E+03  0.47000000000E+01 0. -1.
         -5    1    3    3    0  502 -0.64829851072E+02  0.14853102482E+02 -0.67643583075E+03  0.67971394525E+03  0.47000000000E+01 0. -1.
          5    1    4    4  503    0  0.23272291607E+02  0.27304170629E+02 -0.31762204867E+02  0.48146079263E+02  0.47000000000E+01 0. -1.
         -5    1    4    4    0  503 -0.11558691092E+02 -0.18527216903E+02 -0.42646922070E+03  0.42705379908E+03  0.47000000000E+01 0. -1.
<mgrwt>
<rscale>  0 0.12585216E+03</rscale>
<asrwt>0</asrwt>
<pdfrwt beam="1">  1        5 0.18360741E-02 0.12585263E+03</pdfrwt>
<pdfrwt beam="2">  1       -5 0.24836053E+00 0.12585263E+03</pdfrwt>
<totfact> 0.54914769E+01</totfact>
</mgrwt>
</event>
<event>
 8    1  0.3759079E-007  0.1290451E+03  0.7546771E-02  0.1228880E+00
         -5   -1    0    0    0  501 -0.00000000000E+00  0.00000000000E+00  0.22267769952E+03  0.22272729484E+03  0.47000000000E+01 0.  1.
          5   -1    0    0  501    0  0.00000000000E+00 -0.00000000000E+00 -0.74751131975E+02  0.74898743191E+02  0.47000000000E+01 0.  1.
         25    2    1    2    0    0 -0.31989348911E+02  0.19586905679E+01  0.68543074038E+02  0.14611911054E+03  0.12500194621E+03 0.  0.
         25    2    1    2    0    0  0.31989348911E+02 -0.19586905679E+01  0.79383493509E+02  0.15150692748E+03  0.12500182047E+03 0.  0.
          5    1    3    3  502    0  0.35882653561E+02  0.20388021344E+02 -0.77448499172E+01  0.42252916363E+02  0.47000000000E+01 0.  1.
         -5    1    3    3    0  502 -0.67872002472E+02 -0.18429330776E+02  0.76287923955E+02  0.10386619418E+03  0.47000000000E+01 0.  1.
          5    1    4    4  503    0  0.54551804895E+02  0.47818679030E+02  0.33725609256E+02  0.80137582951E+02  0.47000000000E+01 0.  1.
         -5    1    4    4    0  503 -0.22562455985E+02 -0.49777369598E+02  0.45657884253E+02  0.71369344530E+02  0.47000000000E+01 0.  1.
<mgrwt>
<rscale>  0 0.12904508E+03</rscale>
<asrwt>0</asrwt>
<pdfrwt beam="2">  1        5 0.11515344E-01 0.12904511E+03</pdfrwt>
<pdfrwt beam="1">  1       -5 0.34273277E-01 0.12904511E+03</pdfrwt>
<totfact> 0.36733046E+02</totfact>
</mgrwt>
</event>
<event>
 8    1  0.3759079E-007  0.1648827E+03  0.7546771E-02  0.1183294E+00
         -5   -1    0    0    0  501 -0.00000000000E+00  0.00000000000E+00  0.67860076491E+02  0.68022643152E+02  0.47000000000E+01 0. -1.
          5   -1    0    0  501    0  0.00000000000E+00 -0.00000000000E+00 -0.40200454500E+03  0.40203201888E+03  0.47000000000E+01 0. -1.
         25    2    1    2    0    0  0.42459458192E+02 -0.98775605296E+02 -0.15028001126E+03  0.22308815546E+03  0.12499927011E+03 0.  0.
         25    2    1    2    0    0 -0.42459458192E+02  0.98775605296E+02 -0.18386445725E+03  0.24696650657E+03  0.12500756352E+03 0.  0.
          5    1    3    3  502    0  0.76454502806E+02 -0.22826798047E+02 -0.89127379499E+02  0.11971688889E+03  0.47000000000E+01 0. -1.
         -5    1    3    3    0  502 -0.33995044614E+02 -0.75948807249E+02 -0.61152631765E+02  0.10337126657E+03  0.47000000000E+01 0. -1.
          5    1    4    4  503    0 -0.42526028633E+02  0.12792054837E+03 -0.15771620181E+03  0.20752980538E+03  0.47000000000E+01 0. -1.
         -5    1    4    4    0  503  0.66570440802E-01 -0.29144943076E+02 -0.26148255435E+02  0.39436701191E+02  0.47000000000E+01 0. -1.
<mgrwt>
<rscale>  0 0.16488116E+03</rscale>
<asrwt>0</asrwt>
<pdfrwt beam="2">  1        5 0.61861470E-01 0.16488274E+03</pdfrwt>
<pdfrwt beam="1">  1       -5 0.10454631E-01 0.16488274E+03</pdfrwt>
<totfact> 0.13701643E+02</totfact>
</mgrwt>
</event>
<event>
 8    1  0.3759079E-007  0.1443382E+03  0.7546771E-02  0.1207613E+00
         -5   -1    0    0    0  501 -0.00000000000E+00  0.00000000000E+00  0.63730450399E+03  0.63732183456E+03  0.47000000000E+01 0.  1.
          5   -1    0    0  501    0  0.00000000000E+00 -0.00000000000E+00 -0.32514832119E+02  0.32852767124E+02  0.47000000000E+01 0.  1.
         25    2    1    2    0    0 -0.27096017523E+01 -0.72106860251E+02  0.29516412168E+03  0.32855857767E+03  0.12498855547E+03 0.  0.
         25    2    1    2    0    0  0.27096017523E+01  0.72106860251E+02  0.30962555020E+03  0.34161602402E+03  0.12500714097E+03 0.  0.
          5    1    4    4  502    0 -0.42356395485E+02  0.82457542777E+02  0.24516111182E+03  0.26214379898E+03  0.47000000000E+01 0. -1.
         -5    1    4    4    0  502  0.45065997237E+02 -0.10350682526E+02  0.64464438381E+02  0.79472225032E+02  0.47000000000E+01 0. -1.
          5    1    3    3  503    0 -0.93325919187E+01 -0.78655951844E+02  0.78408268883E+02  0.11155179363E+03  0.47000000000E+01 0. -1.
         -5    1    3    3    0  503  0.66229901663E+01  0.65490915929E+01  0.21675585279E+03  0.21700678404E+03  0.47000000000E+01 0. -1.
<mgrwt>
<rscale>  0 0.14433421E+03</rscale>
<asrwt>0</asrwt>
<pdfrwt beam="2">  1        5 0.50296108E-02 0.14433824E+03</pdfrwt>
<pdfrwt beam="1">  1       -5 0.98074159E-01 0.14433824E+03</pdfrwt>
<totfact> 0.15809112E+02</totfact>
</mgrwt>
</event>
<event>
 8    1  0.3759079E-007  0.1646457E+03  0.7546771E-02  0.1183549E+00
          5   -1    0    0  501    0  0.00000000000E+00  0.00000000000E+00  0.32720826749E+02  0.33056655958E+02  0.47000000000E+01 0.  1.
         -5   -1    0    0    0  501 -0.00000000000E+00 -0.00000000000E+00 -0.98657932617E+03  0.98659052136E+03  0.47000000000E+01 0.  1.
         25    2    1    2    0    0  0.10609350653E+03  0.15078864180E+02 -0.68391845018E+03  0.70345761451E+03  0.12499985859E+03 0.  0.
         25    2    1    2    0    0 -0.10609350653E+03 -0.15078864180E+02 -0.26994004924E+03  0.31618956280E+03  0.12500002066E+03 0.  0.
          5    1    3    3  502    0  0.11903026575E+03  0.45684904390E+02 -0.59233787303E+03  0.60592207459E+03  0.47000000000E+01 0.  1.
         -5    1    3    3    0  502 -0.12936759219E+02 -0.30606040210E+02 -0.91580577149E+02  0.97535539920E+02  0.47000000000E+01 0.  1.
          5    1    4    4  503    0 -0.88824466912E+02 -0.65922395474E+02 -0.17870347642E+03  0.21022029072E+03  0.47000000000E+01 0. -1.
         -5    1    4    4    0  503 -0.17269039622E+02  0.50843531294E+02 -0.91236572830E+02  0.10596927208E+03  0.47000000000E+01 0. -1.
<mgrwt>
<rscale>  0 0.16464568E+03</rscale>
<asrwt>0</asrwt>
<pdfrwt beam="1">  1        5 0.50606683E-02 0.16464571E+03</pdfrwt>
<pdfrwt beam="2">  1       -5 0.15180811E+00 0.16464571E+03</pdfrwt>
<totfact> 0.52889457E+01</totfact>
</mgrwt>
</event>
<event>
 8    1  0.3759079E-007  0.1287682E+03  0.7546771E-02  0.1229297E+00
          5   -1    0    0  501    0  0.00000000000E+00  0.00000000000E+00  0.29948321760E+02  0.30314880442E+02  0.47000000000E+01 0. -1.
         -5   -1    0    0    0  501 -0.00000000000E+00 -0.00000000000E+00 -0.58879233225E+03  0.58881109069E+03  0.47000000000E+01 0. -1.
         25    2    1    2    0    0  0.95037358405E+01 -0.29408745648E+02 -0.35895964285E+03  0.38135505006E+03  0.12499781475E+03 0.  0.
         25    2    1    2    0    0 -0.95037358405E+01  0.29408745648E+02 -0.19988436764E+03  0.23777092107E+03  0.12500422059E+03 0.  0.
          5    1    3    3  502    0  0.59098954144E+02  0.88851757436E+01 -0.11822469560E+03  0.13255489949E+03  0.47000000000E+01 0. -1.
         -5    1    3    3    0  502 -0.49595218304E+02 -0.38293921392E+02 -0.24073494725E+03  0.24880015057E+03  0.47000000000E+01 0. -1.
          5    1    4    4  503    0 -0.21729161774E+02  0.73301875440E+02 -0.15850106340E+03  0.17603976402E+03  0.47000000000E+01 0. -1.
         -5    1    4    4    0  503  0.12225425933E+02 -0.43893129792E+02 -0.41383304234E+02  0.61731157057E+02  0.47000000000E+01 0. -1.
<mgrwt>
<rscale>  0 0.12876665E+03</rscale>
<asrwt>0</asrwt>
<pdfrwt beam="1">  1        5 0.46370743E-02 0.12876820E+03</pdfrwt>
<pdfrwt beam="2">  1       -5 0.90613067E-01 0.12876820E+03</pdfrwt>
<totfact> 0.21048349E+02</totfact>
</mgrwt>
</event>
<event>
 8    1  0.3759079E-007  0.2397100E+03  0.7546771E-02  0.1119987E+00
          5   -1    0    0  501    0  0.00000000000E+00  0.00000000000E+00  0.29936498066E+03  0.29940187315E+03  0.47000000000E+01 0.  1.
         -5   -1    0    0    0  501 -0.00000000000E+00 -0.00000000000E+00 -0.19186764258E+03  0.19192519967E+03  0.47000000000E+01 0.  1.
         25    2    1    2    0    0  0.20437137256E+03 -0.80897954425E+01  0.52146820049E+02  0.24531651344E+03  0.12501119236E+03 0.  0.
         25    2    1    2    0    0 -0.20437137256E+03  0.80897954425E+01  0.55350518039E+02  0.24601055938E+03  0.12499765106E+03 0.  0.
          5    1    3    3  502    0  0.13319327912E+02 -0.57071316722E+01  0.52006550026E+02  0.54191762230E+02  0.47000000000E+01 0.  1.
         -5    1    3    3    0  502  0.19105204465E+03 -0.23826637703E+01  0.14027002260E+00  0.19112475121E+03  0.47000000000E+01 0.  1.
          5    1    4    4  503    0 -0.14796425062E+02 -0.20912931775E+02  0.47307888422E+02  0.54003807431E+02  0.47000000000E+01 0.  1.
         -5    1    4    4    0  503 -0.18957494750E+03  0.29002727218E+02  0.80426296172E+01  0.19200675195E+03  0.47000000000E+01 0.  1.
<mgrwt>
<rscale>  0 0.23970827E+03</rscale>
<asrwt>0</asrwt>
<pdfrwt beam="1">  1        5 0.46063416E-01 0.23971004E+03</pdfrwt>
<pdfrwt beam="2">  1       -5 0.29525364E-01 0.23971004E+03</pdfrwt>
<totfact> 0.41700105E+01</totfact>
</mgrwt>
</event>
<event>
 8    1  0.3759079E-007  0.1259250E+03  0.7546771E-02  0.1233631E+00
         -5   -1    0    0    0  501 -0.00000000000E+00  0.00000000000E+00  0.80778634708E+02  0.80915250882E+02  0.47000000000E+01 0.  1.
          5   -1    0    0  501    0  0.00000000000E+00 -0.00000000000E+00 -0.20158699606E+03  0.20164177885E+03  0.47000000000E+01 0.  1.
         25    2    1    2    0    0 -0.12853116212E+02  0.79521101327E+01 -0.36832016516E+02  0.13120100055E+03  0.12501466495E+03 0.  0.
         25    2    1    2    0    0  0.12853116212E+02 -0.79521101327E+01 -0.83976344832E+02  0.15135602919E+03  0.12501272906E+03 0.  0.
          5    1    3    3  502    0 -0.55721637788E+00  0.64451647929E+02 -0.34228071854E+02  0.73129859248E+02  0.47000000000E+01 0.  1.
         -5    1    3    3    0  502 -0.12295899834E+02 -0.56499537796E+02 -0.26039446619E+01  0.58071141299E+02  0.47000000000E+01 0.  1.
          5    1    4    4  503    0  0.70476469466E+01 -0.63553043390E+02 -0.22059446478E+02  0.67803892444E+02  0.47000000000E+01 0. -1.
         -5    1    4    4    0  503  0.58054692658E+01  0.55600933258E+02 -0.61916898354E+02  0.83552136743E+02  0.47000000000E+01 0. -1.
<mgrwt>
<rscale>  0 0.12592452E+03</rscale>
<asrwt>0</asrwt>
<pdfrwt beam="2">  1        5 0.31028107E-01 0.12592500E+03</pdfrwt>
<pdfrwt beam="1">  1       -5 0.12442205E-01 0.12592500E+03</pdfrwt>
<totfact> 0.38659828E+02</totfact>
</mgrwt>
</event>
<event>
 8    1  0.3759079E-007  0.1468837E+03  0.7546771E-02  0.1204357E+00
          5   -1    0    0  501    0  0.00000000000E+00  0.00000000000E+00  0.81355846157E+02  0.81491494672E+02  0.47000000000E+01 0. -1.
         -5   -1    0    0    0  501 -0.00000000000E+00 -0.00000000000E+00 -0.26518423074E+03  0.26522587776E+03  0.47000000000E+01 0. -1.
         25    2    1    2    0    0 -0.74688016194E+01  0.76766210137E+02 -0.85327583027E+02  0.16986364731E+03  0.12499611289E+03 0.  0.
         25    2    1    2    0    0  0.74688016194E+01 -0.76766210137E+02 -0.98500801554E+02  0.17685372512E+03  0.12500399259E+03 0.  0.
          5    1    4    4  502    0  0.58408917123E+02 -0.67504837823E+02 -0.84513813840E+02  0.12301698850E+03  0.47000000000E+01 0.  1.
         -5    1    4    4    0  502 -0.50940115503E+02 -0.92613723138E+01 -0.13986987714E+02  0.53836736620E+02  0.47000000000E+01 0.  1.
          5    1    3    3  503    0 -0.12554599279E+02 -0.32256547849E+02 -0.74849196507E+01  0.35724177588E+02  0.47000000000E+01 0.  1.
         -5    1    3    3    0  503  0.50857976591E+01  0.10902275799E+03 -0.77842663377E+02  0.13413946973E+03  0.47000000000E+01 0.  1.
<mgrwt>
<rscale>  0 0.14688206E+03</rscale>
<asrwt>0</asrwt>
<pdfrwt beam="1">  1        5 0.12529922E-01 0.14688374E+03</pdfrwt>
<pdfrwt beam="2">  1       -5 0.40811212E-01 0.14688374E+03</pdfrwt>
<totfact> 0.23225934E+02</totfact>
</mgrwt>
</event>
<event>
 8    1  0.3759079E-007  0.1327367E+03  0.7546771E-02  0.1223454E+00
          5   -1    0    0  501    0  0.00000000000E+00  0.00000000000E+00  0.32214324123E+02  0.32555378645E+02  0.47000000000E+01 0. -1.
         -5   -1    0    0    0  501 -0.00000000000E+00 -0.00000000000E+00 -0.58562638547E+03  0.58564524531E+03  0.47000000000E+01 0. -1.
         25    2    1    2    0    0  0.32555381867E+01  0.44542950368E+02 -0.35941293245E+03  0.38313747532E+03  0.12498798352E+03 0.  0.
         25    2    1    2    0    0 -0.32555381867E+01 -0.44542950368E+02 -0.19399912890E+03  0.23506314864E+03  0.12499739549E+03 0.  0.
          5    1    4    4  502    0  0.24455762498E+02  0.22349245536E+02 -0.14176297438E+03  0.14565851846E+03  0.47000000000E+01 0.  1.
         -5    1    4    4    0  502 -0.27711300685E+02 -0.66892195904E+02 -0.52236154520E+02  0.89404630179E+02  0.47000000000E+01 0.  1.
          5    1    3    3  503    0  0.23378147292E+02  0.69167594035E+02 -0.33466390102E+03  0.34256781880E+03  0.47000000000E+01 0.  1.
         -5    1    3    3    0  503 -0.20122609105E+02 -0.24624643666E+02 -0.24749031428E+02  0.40569656513E+02  0.47000000000E+01 0.  1.
<mgrwt>
<rscale>  0 0.13273445E+03</rscale>
<asrwt>0</asrwt>
<pdfrwt beam="1">  1        5 0.49837360E-02 0.13273666E+03</pdfrwt>
<pdfrwt beam="2">  1       -5 0.90124045E-01 0.13273666E+03</pdfrwt>
<totfact> 0.19123658E+02</totfact>
</mgrwt>
</event>
<event>
 8    1  0.3759079E-007  0.1960816E+03  0.7546771E-02  0.1153088E+00
         -5   -1    0    0    0  501 -0.00000000000E+00  0.00000000000E+00  0.76803196882E+02  0.76946871615E+02  0.47000000000E+01 0. -1.
          5   -1    0    0  501    0  0.00000000000E+00 -0.00000000000E+00 -0.76755329844E+03  0.76756768819E+03  0.47000000000E+01 0. -1.
         25    2    1    2    0    0  0.94367714242E+02 -0.11797471569E+03 -0.96088924921E+02  0.21836000437E+03  0.12499884391E+03 0.  0.
         25    2    1    2    0    0 -0.94367714242E+02  0.11797471569E+03 -0.59466117664E+03  0.62615455544E+03  0.12499725301E+03 0.  0.
          5    1    4    4  502    0 -0.12381613244E+03  0.10558892573E+03 -0.47068389118E+03  0.49804103376E+03  0.47000000000E+01 0.  1.
         -5    1    4    4    0  502  0.29448418199E+02  0.12385789961E+02 -0.12397728546E+03  0.12811352168E+03  0.47000000000E+01 0.  1.
          5    1    3    3  503    0  0.98425080108E+01 -0.53037238670E+02 -0.97647227731E+02  0.11165524947E+03  0.47000000000E+01 0.  1.
         -5    1    3    3    0  503  0.84525206231E+02 -0.64937477023E+02  0.15583028107E+01  0.10670475490E+03  0.47000000000E+01 0.  1.
<mgrwt>
<rscale>  0 0.19608139E+03</rscale>
<asrwt>0</asrwt>
<pdfrwt beam="2">  1        5 0.11809728E+00 0.19608164E+03</pdfrwt>
<pdfrwt beam="1">  1       -5 0.11828036E-01 0.19608164E+03</pdfrwt>
<totfact> 0.25006472E+01</totfact>
</mgrwt>
</event>
<event>
 8    1  0.3759079E-007  0.1339623E+03  0.7546771E-02  0.1221707E+00
         -5   -1    0    0    0  501 -0.00000000000E+00  0.00000000000E+00  0.12909661688E+04  0.12909747244E+04  0.47000000000E+01 0. -1.
          5   -1    0    0  501    0  0.00000000000E+00 -0.00000000000E+00 -0.15780775706E+02  0.16465809481E+02  0.47000000000E+01 0. -1.
         25    2    1    2    0    0 -0.22449918292E+02  0.42520499502E+02  0.88084004368E+03  0.89096224473E+03  0.12499018877E+03 0.  0.
         25    2    1    2    0    0  0.22449918292E+02 -0.42520499502E+02  0.39434534939E+03  0.41647828910E+03  0.12503567089E+03 0.  0.
          5    1    3    3  502    0 -0.68531795191E+02  0.34075758356E+00  0.37301334207E+03  0.37928586374E+03  0.47000000000E+01 0. -1.
         -5    1    3    3    0  502  0.46081876899E+02  0.42179741918E+02  0.50782670161E+03  0.51167638100E+03  0.47000000000E+01 0. -1.
          5    1    4    4  503    0  0.57255716329E+02  0.18698335169E+02  0.22602141411E+03  0.23395643703E+03  0.47000000000E+01 0. -1.
         -5    1    4    4    0  503 -0.34805798036E+02 -0.61218834670E+02  0.16832393528E+03  0.18252185207E+03  0.47000000000E+01 0. -1.
<mgrwt>
<rscale>  0 0.13395173E+03</rscale>
<asrwt>0</asrwt>
<pdfrwt beam="2">  1        5 0.24811653E-02 0.13396235E+03</pdfrwt>
<pdfrwt beam="1">  1       -5 0.19866348E+00 0.13396235E+03</pdfrwt>
<totfact> 0.72902827E+01</totfact>
</mgrwt>
</event>
<event>
 8    1  0.3759079E-007  0.1411372E+03  0.7546771E-02  0.1211808E+00
          5   -1    0    0  501    0  0.00000000000E+00  0.00000000000E+00  0.11097950873E+03  0.11107898702E+03  0.47000000000E+01 0. -1.
         -5   -1    0    0    0  501 -0.00000000000E+00 -0.00000000000E+00 -0.17967745005E+03  0.17973891080E+03  0.47000000000E+01 0. -1.
         25    2    1    2    0    0 -0.34780123946E+02  0.55542312411E+02 -0.41219333382E+02  0.14703316624E+03  0.12500045216E+03 0.  0.
         25    2    1    2    0    0  0.34780123946E+02 -0.55542312411E+02 -0.27478607936E+02  0.14378473159E+03  0.12499747859E+03 0.  0.
          5    1    3    3  502    0 -0.11000622229E+02  0.57790819450E+02  0.33905760733E+02  0.68062347249E+02  0.47000000000E+01 0. -1.
         -5    1    3    3    0  502 -0.23779501717E+02 -0.22485070393E+01 -0.75125094115E+02  0.78970818988E+02  0.47000000000E+01 0. -1.
          5    1    4    4  503    0 -0.33029151425E+02  0.20160949339E+02 -0.12572540291E+02  0.40957874597E+02  0.47000000000E+01 0. -1.
         -5    1    4    4    0  503  0.67809275371E+02 -0.75703261750E+02 -0.14906067645E+02  0.10282685699E+03  0.47000000000E+01 0. -1.
<mgrwt>
<rscale>  0 0.14113657E+03</rscale>
<asrwt>0</asrwt>
<pdfrwt beam="1">  1        5 0.17086151E-01 0.14113723E+03</pdfrwt>
<pdfrwt beam="2">  1       -5 0.27655064E-01 0.14113723E+03</pdfrwt>
<totfact> 0.28441969E+02</totfact>
</mgrwt>
</event>
<event>
 8    1  0.3759079E-007  0.1398005E+03  0.7546771E-02  0.1213598E+00
         -5   -1    0    0    0  501 -0.00000000000E+00  0.00000000000E+00  0.81956049817E+02  0.82090706548E+02  0.47000000000E+01 0. -1.
          5   -1    0    0  501    0  0.00000000000E+00 -0.00000000000E+00 -0.29538582475E+03  0.29542321416E+03  0.47000000000E+01 0. -1.
         25    2    1    2    0    0  0.60089746500E+02 -0.17548531201E+02 -0.23624429767E+02  0.14178051811E+03  0.12499949220E+03 0.  0.
         25    2    1    2    0    0 -0.60089746500E+02  0.17548531201E+02 -0.18980534516E+03  0.23573340260E+03  0.12500175785E+03 0.  0.
          5    1    4    4  502    0  0.25866997931E+02  0.42306611332E+02 -0.76697448421E+02  0.91452389464E+02  0.47000000000E+01 0.  1.
         -5    1    4    4    0  502 -0.85956744430E+02 -0.24758080131E+02 -0.11310789674E+03  0.14428101313E+03  0.47000000000E+01 0.  1.
          5    1    3    3  503    0 -0.24703220044E+02 -0.27800849982E+02  0.23377188853E+02  0.44178267269E+02  0.47000000000E+01 0.  1.
         -5    1    3    3    0  503  0.84792966544E+02  0.10252318780E+02 -0.47001618620E+02  0.97602250838E+02  0.47000000000E+01 0.  1.
<mgrwt>
<rscale>  0 0.13979995E+03</rscale>
<asrwt>0</asrwt>
<pdfrwt beam="2">  1        5 0.45457207E-01 0.13980046E+03</pdfrwt>
<pdfrwt beam="1">  1       -5 0.12621858E-01 0.13980046E+03</pdfrwt>
<totfact> 0.18039852E+02</totfact>
</mgrwt>
</event>
<event>
 8    1  0.3759079E-007  0.1280481E+03  0.7546771E-02  0.1230382E+00
         -5   -1    0    0    0  501 -0.00000000000E+00  0.00000000000E+00  0.52678921567E+02  0.52888172378E+02  0.47000000000E+01 0. -1.
          5   -1    0    0  501    0  0.00000000000E+00 -0.00000000000E+00 -0.42176365664E+03  0.42178984348E+03  0.47000000000E+01 0. -1.
         25    2    1    2    0    0  0.21742226817E+02  0.17299852267E+02 -0.62616892042E+02  0.14253520496E+03  0.12499360051E+03 0.  0.
         25    2    1    2    0    0 -0.21742226817E+02 -0.17299852267E+02 -0.30646784303E+03  0.33214281089E+03  0.12499719478E+03 0.  0.
          5    1    3    3  502    0  0.70606255573E+02  0.22920309086E+02 -0.55075835928E+02  0.92552804375E+02  0.47000000000E+01 0. -1.
         -5    1    3    3    0  502 -0.48864028756E+02 -0.56204568187E+01 -0.75410561144E+01  0.49982400587E+02  0.47000000000E+01 0. -1.
          5    1    4    4  503    0  0.38916842605E+02 -0.24694785266E+02 -0.22756416671E+03  0.23223241167E+03  0.47000000000E+01 0.  1.
         -5    1    4    4    0  503 -0.60659069422E+02  0.73949329984E+01 -0.78903676315E+02  0.99910399224E+02  0.47000000000E+01 0.  1.
<mgrwt>
<rscale>  0 0.12804719E+03</rscale>
<asrwt>0</asrwt>
<pdfrwt beam="2">  1        5 0.64904825E-01 0.12804807E+03</pdfrwt>
<pdfrwt beam="1">  1       -5 0.81225603E-02 0.12804807E+03</pdfrwt>
<totfact> 0.17581631E+02</totfact>
</mgrwt>
</event>
<event>
 8    1  0.3759079E-007  0.1350453E+03  0.7546771E-02  0.1220158E+00
          5   -1    0    0  501    0  0.00000000000E+00  0.00000000000E+00  0.10486509870E+04  0.10486615195E+04  0.47000000000E+01 0.  1.
         -5   -1    0    0    0  501 -0.00000000000E+00 -0.00000000000E+00 -0.17289779058E+02  0.17917211275E+02  0.47000000000E+01 0.  1.
         25    2    1    2    0    0 -0.59986083178E+01 -0.50754819890E+02  0.57578789698E+03  0.59141265078E+03  0.12500074461E+03 0.  0.
         25    2    1    2    0    0  0.59986083178E+01  0.50754819890E+02  0.45557331091E+03  0.47516607997E+03  0.12499490748E+03 0.  0.
          5    1    3    3  502    0 -0.10413459156E+02  0.37359076507E+02  0.97543536695E+02  0.10507603095E+03  0.47000000000E+01 0.  1.
         -5    1    3    3    0  502  0.44148508381E+01 -0.88113896397E+02  0.47824436028E+03  0.48633661983E+03  0.47000000000E+01 0.  1.
          5    1    4    4  503    0  0.19409485135E+02  0.36768747111E+02  0.45315341646E+03  0.45508106720E+03  0.47000000000E+01 0.  1.
         -5    1    4    4    0  503 -0.13410876817E+02  0.13986072779E+02  0.24198944544E+01  0.20085012770E+02  0.47000000000E+01 0.  1.
<mgrwt>
<rscale>  0 0.13504391E+03</rscale>
<asrwt>0</asrwt>
<pdfrwt beam="1">  1        5 0.16138001E+00 0.13504526E+03</pdfrwt>
<pdfrwt beam="2">  1       -5 0.27090400E-02 0.13504526E+03</pdfrwt>
<totfact> 0.11696109E+02</totfact>
</mgrwt>
</event>
<event>
 8    1  0.3759079E-007  0.1356705E+03  0.7546771E-02  0.1219282E+00
         -5   -1    0    0    0  501 -0.00000000000E+00  0.00000000000E+00  0.26603478851E+03  0.26607630240E+03  0.47000000000E+01 0. -1.
          5   -1    0    0  501    0  0.00000000000E+00 -0.00000000000E+00 -0.70942888630E+02  0.71098406783E+02  0.47000000000E+01 0. -1.
         25    2    1    2    0    0  0.44315284434E+02  0.28501445918E+02  0.70060666930E+02  0.15267731071E+03  0.12500274918E+03 0.  0.
         25    2    1    2    0    0 -0.44315284434E+02 -0.28501445918E+02  0.12503123295E+03  0.18449739847E+03  0.12502121410E+03 0.  0.
          5    1    4    4  502    0 -0.31045418529E+02 -0.39007691720E+02 -0.76521234008E+01  0.50656322582E+02  0.47000000000E+01 0.  1.
         -5    1    4    4    0  502 -0.13269865906E+02  0.10506245802E+02  0.13268335635E+03  0.13384107589E+03  0.47000000000E+01 0.  1.
          5    1    3    3  503    0 -0.37327998354E+02  0.22043606091E+02 -0.17692647853E+01  0.43640810356E+02  0.47000000000E+01 0. -1.
         -5    1    3    3    0  503  0.81643282789E+02  0.64578398267E+01  0.71829931715E+02  0.10903650036E+03  0.47000000000E+01 0. -1.
<mgrwt>
<rscale>  0 0.13566623E+03</rscale>
<asrwt>0</asrwt>
<pdfrwt beam="2">  1        5 0.10929447E-01 0.13567049E+03</pdfrwt>
<pdfrwt beam="1">  1       -5 0.40943584E-01 0.13567049E+03</pdfrwt>
<totfact> 0.28605585E+02</totfact>
</mgrwt>
</event>
<event>
 8    1  0.3759079E-007  0.2600525E+03  0.7546771E-02  0.1107112E+00
          5   -1    0    0  501    0  0.00000000000E+00  0.00000000000E+00  0.34492029814E+03  0.34495231854E+03  0.47000000000E+01 0.  1.
         -5   -1    0    0    0  501 -0.00000000000E+00 -0.00000000000E+00 -0.20293886988E+03  0.20299328785E+03  0.47000000000E+01 0.  1.
         25    2    1    2    0    0 -0.16217638044E+03 -0.16031519677E+03  0.20325417018E+02  0.26084555929E+03  0.12500057014E+03 0.  0.
         25    2    1    2    0    0  0.16217638044E+03  0.16031519677E+03  0.12165601123E+03  0.28710004710E+03  0.12499644509E+03 0.  0.
          5    1    4    4  502    0  0.13357938228E+03  0.18042696982E+03  0.10921928606E+03  0.24969638615E+03  0.47000000000E+01 0. -1.
         -5    1    4    4    0  502  0.28596998163E+02 -0.20111773051E+02  0.12436725174E+02  0.37403660947E+02  0.47000000000E+01 0. -1.
          5    1    3    3  503    0 -0.10762703960E+03 -0.12156620342E+03  0.70508529529E+02  0.17707474185E+03  0.47000000000E+01 0. -1.
         -5    1    3    3    0  503 -0.54549340846E+02 -0.38748993354E+02 -0.50183112512E+02  0.83770817437E+02  0.47000000000E+01 0. -1.
<mgrwt>
<rscale>  0 0.26005197E+03</rscale>
<asrwt>0</asrwt>
<pdfrwt beam="1">  1        5 0.53071310E-01 0.26005246E+03</pdfrwt>
<pdfrwt beam="2">  1       -5 0.31228014E-01 0.26005246E+03</pdfrwt>
<totfact> 0.28075196E+01</totfact>
</mgrwt>
</event>
<event>
 8    1  0.3759079E-007  0.1371996E+03  0.7546771E-02  0.1217155E+00
          5   -1    0    0  501    0  0.00000000000E+00  0.00000000000E+00  0.14682812294E+03  0.14690332769E+03  0.47000000000E+01 0. -1.
         -5   -1    0    0    0  501 -0.00000000000E+00 -0.00000000000E+00 -0.13575859453E+03  0.13583992782E+03  0.47000000000E+01 0. -1.
         25    2    1    2    0    0  0.16137009047E+02  0.54207523453E+02 -0.28173604192E+02  0.14004161124E+03  0.12497616671E+03 0.  0.
         25    2    1    2    0    0 -0.16137009047E+02 -0.54207523453E+02  0.39243132600E+02  0.14270164427E+03  0.12499950864E+03 0.  0.
          5    1    4    4  502    0  0.27930723703E+00  0.30804758183E+02  0.46183876896E+02  0.55714016409E+02  0.47000000000E+01 0.  1.
         -5    1    4    4    0  502 -0.16416316284E+02 -0.85012281636E+02 -0.69407442958E+01  0.86987627860E+02  0.47000000000E+01 0.  1.
          5    1    3    3  503    0  0.27716517662E+02  0.78099593329E+02  0.19505953110E+02  0.85266195155E+02  0.47000000000E+01 0.  1.
         -5    1    3    3    0  503 -0.11579508615E+02 -0.23892069876E+02 -0.47679557302E+02  0.54775416085E+02  0.47000000000E+01 0.  1.
<mgrwt>
<rscale>  0 0.13719430E+03</rscale>
<asrwt>0</asrwt>
<pdfrwt beam="1">  1        5 0.22600983E-01 0.13719962E+03</pdfrwt>
<pdfrwt beam="2">  1       -5 0.20897979E-01 0.13719962E+03</pdfrwt>
<totfact> 0.28544900E+02</totfact>
</mgrwt>
</event>
<event>
 8    1  0.3759079E-007  0.1698334E+03  0.7546771E-02  0.1178023E+00
         -5   -1    0    0    0  501 -0.00000000000E+00  0.00000000000E+00  0.26956269033E+03  0.26960366099E+03  0.47000000000E+01 0. -1.
          5   -1    0    0  501    0  0.00000000000E+00 -0.00000000000E+00 -0.10947934360E+03  0.10958018377E+03  0.47000000000E+01 0. -1.
         25    2    1    2    0    0  0.80751167620E+02  0.81828125360E+02  0.10914233633E+03  0.20187518085E+03  0.12499978357E+03 0.  0.
         25    2    1    2    0    0 -0.80751167620E+02 -0.81828125360E+02  0.50941010399E+02  0.17730866391E+03  0.12500713014E+03 0.  0.
          5    1    4    4  502    0 -0.92895961681E+02 -0.20826641119E+02 -0.22326183360E+01  0.95344025830E+02  0.47000000000E+01 0. -1.
         -5    1    4    4    0  502  0.12144794061E+02 -0.61001484241E+02  0.53173628735E+02  0.81964638078E+02  0.47000000000E+01 0. -1.
          5    1    3    3  503    0  0.60961503368E+02  0.77641668479E+02  0.13588156091E+03  0.16801911252E+03  0.47000000000E+01 0.  1.
         -5    1    3    3    0  503  0.19789664252E+02  0.41864568814E+01 -0.26739224574E+02  0.33856068337E+02  0.47000000000E+01 0.  1.
<mgrwt>
<rscale>  0 0.16983202E+03</rscale>
<asrwt>0</asrwt>
<pdfrwt beam="2">  1        5 0.16853885E-01 0.16983338E+03</pdfrwt>
<pdfrwt beam="1">  1       -5 0.41482091E-01 0.16983338E+03</pdfrwt>
<totfact> 0.13754345E+02</totfact>
</mgrwt>
</event>
<event>
 8    1  0.3759079E-007  0.1521164E+03  0.7546771E-02  0.1197903E+00
          5   -1    0    0  501    0  0.00000000000E+00  0.00000000000E+00  0.13588136680E+04  0.13588217964E+04  0.47000000000E+01 0. -1.
         -5   -1    0    0    0  501 -0.00000000000E+00 -0.00000000000E+00 -0.16937021724E+02  0.17577050517E+02  0.47000000000E+01 0. -1.
         25    2    1    2    0    0 -0.84785686073E+02 -0.18008309938E+02  0.59010518557E+03  0.60939603279E+03  0.12500593170E+03 0.  0.
         25    2    1    2    0    0  0.84785686073E+02  0.18008309938E+02  0.75177146071E+03  0.76700281412E+03  0.12498030219E+03 0.  0.
          5    1    3    3  502    0  0.17866562033E+02 -0.31706456987E+02  0.28062331074E+03  0.28301244846E+03  0.47000000000E+01 0. -1.
         -5    1    3    3    0  502 -0.10265224811E+03  0.13698147050E+02  0.30948187483E+03  0.32638358433E+03  0.47000000000E+01 0. -1.
          5    1    4    4  503    0  0.10444258127E+03 -0.21874410987E+02  0.49845791961E+03  0.50977360687E+03  0.47000000000E+01 0.  1.
         -5    1    4    4    0  503 -0.19656895193E+02  0.39882720925E+02  0.25331354110E+03  0.25722920725E+03  0.47000000000E+01 0.  1.
<mgrwt>
<rscale>  0 0.15211112E+03</rscale>
<asrwt>0</asrwt>
<pdfrwt beam="1">  1        5 0.20909822E+00 0.15211639E+03</pdfrwt>
<pdfrwt beam="2">  1       -5 0.26555526E-02 0.15211639E+03</pdfrwt>
<totfact> 0.57685344E+01</totfact>
</mgrwt>
</event>
<event>
 8    1  0.3759079E-007  0.1283080E+03  0.7546771E-02  0.1229993E+00
          5   -1    0    0  501    0  0.00000000000E+00  0.00000000000E+00  0.46731898860E+02  0.46967652391E+02  0.47000000000E+01 0. -1.
         -5   -1    0    0    0  501 -0.00000000000E+00 -0.00000000000E+00 -0.45363909969E+03  0.45366344659E+03  0.47000000000E+01 0. -1.
         25    2    1    2    0    0 -0.13392130575E+02 -0.25640421897E+02 -0.32242556964E+03  0.34701757549E+03  0.12500467731E+03 0.  0.
         25    2    1    2    0    0  0.13392130575E+02  0.25640421897E+02 -0.84481631193E+02  0.15361352348E+03  0.12499275255E+03 0.  0.
          5    1    3    3  502    0  0.38017290573E+02  0.12586644480E+02 -0.37922756033E+02  0.55353079652E+02  0.47000000000E+01 0.  1.
         -5    1    3    3    0  502 -0.51409421148E+02 -0.38227066377E+02 -0.28450281360E+03  0.29166449584E+03  0.47000000000E+01 0.  1.
          5    1    4    4  503    0  0.13561537333E+02 -0.31601013426E+02 -0.89466852239E+02  0.95963258562E+02  0.47000000000E+01 0.  1.
         -5    1    4    4    0  503 -0.16940675778E+00  0.57241435323E+02  0.49852210456E+01  0.57650264920E+02  0.47000000000E+01 0.  1.
<mgrwt>
<rscale>  0 0.12830512E+03</rscale>
<asrwt>0</asrwt>
<pdfrwt beam="1">  1        5 0.72095310E-02 0.12830803E+03</pdfrwt>
<pdfrwt beam="2">  1       -5 0.69810635E-01 0.12830803E+03</pdfrwt>
<totfact> 0.18328037E+02</totfact>
</mgrwt>
</event>
<event>
 8    1  0.3759079E-007  0.1395346E+03  0.7546771E-02  0.1213957E+00
         -5   -1    0    0    0  501 -0.00000000000E+00  0.00000000000E+00  0.96105632911E+02  0.96220489903E+02  0.47000000000E+01 0.  1.
          5   -1    0    0  501    0  0.00000000000E+00 -0.00000000000E+00 -0.22320228653E+03  0.22325176531E+03  0.47000000000E+01 0.  1.
         25    2    1    2    0    0  0.58417279423E+02  0.20768869743E+02 -0.14709526649E+02  0.14030534698E+03  0.12500118292E+03 0.  0.
         25    2    1    2    0    0 -0.58417279423E+02 -0.20768869743E+02 -0.11238712697E+03  0.17916690823E+03  0.12500396077E+03 0.  0.
          5    1    3    3  502    0  0.42110619437E+01 -0.22570704484E+02  0.43625100948E+02  0.49521805059E+02  0.47000000000E+01 0. -1.
         -5    1    3    3    0  502  0.54206217480E+02  0.43339574227E+02 -0.58334627597E+02  0.90783541926E+02  0.47000000000E+01 0. -1.
          5    1    4    4  503    0  0.37462447680E+02 -0.21568337133E+02 -0.32742354825E+02  0.54431424310E+02  0.47000000000E+01 0.  1.
         -5    1    4    4    0  503 -0.95879727104E+02  0.79946738942E+00 -0.79644772146E+02  0.12473548392E+03  0.47000000000E+01 0.  1.
<mgrwt>
<rscale>  0 0.13953401E+03</rscale>
<asrwt>0</asrwt>
<pdfrwt beam="2">  1        5 0.34351454E-01 0.13953464E+03</pdfrwt>
<pdfrwt beam="1">  1       -5 0.14798123E-01 0.13953464E+03</pdfrwt>
<totfact> 0.24013032E+02</totfact>
</mgrwt>
</event>
<event>
 8    1  0.3759079E-007  0.1411407E+03  0.7546771E-02  0.1211824E+00
          5   -1    0    0  501    0  0.00000000000E+00  0.00000000000E+00  0.61230136652E+02  0.61410256753E+02  0.47000000000E+01 0. -1.
         -5   -1    0    0    0  501 -0.00000000000E+00 -0.00000000000E+00 -0.34211642593E+03  0.34214870874E+03  0.47000000000E+01 0. -1.
         25    2    1    2    0    0  0.27512949408E+02 -0.59326883444E+02 -0.18623036017E+03  0.23367166442E+03  0.12507620965E+03 0.  0.
         25    2    1    2    0    0 -0.27512949408E+02  0.59326883444E+02 -0.94655929112E+02  0.16988730107E+03  0.12500123465E+03 0.  0.
          5    1    3    3  502    0 -0.47415156131E+02 -0.43250728182E+02 -0.86526064631E+02  0.10783168542E+03  0.47000000000E+01 0.  1.
         -5    1    3    3    0  502  0.74928105539E+02 -0.16076155262E+02 -0.99704295535E+02  0.12583997900E+03  0.47000000000E+01 0.  1.
          5    1    4    4  503    0 -0.49771136308E+02  0.19640287611E+02  0.10934551944E+02  0.54813879019E+02  0.47000000000E+01 0.  1.
         -5    1    4    4    0  503  0.22258186900E+02  0.39686595834E+02 -0.10559048106E+03  0.11507342205E+03  0.47000000000E+01 0.  1.
<mgrwt>
<rscale>  0 0.14112410E+03</rscale>
<asrwt>0</asrwt>
<pdfrwt beam="1">  1        5 0.94363599E-02 0.14114071E+03</pdfrwt>
<pdfrwt beam="2">  1       -5 0.52649634E-01 0.14114071E+03</pdfrwt>
<totfact> 0.22130807E+02</totfact>
</mgrwt>
</event>
<event>
 8    1  0.3759079E-007  0.2202231E+03  0.7546771E-02  0.1133718E+00
          5   -1    0    0  501    0  0.00000000000E+00  0.00000000000E+00  0.11245739094E+04  0.11245837309E+04  0.47000000000E+01 0. -1.
         -5   -1    0    0    0  501 -0.00000000000E+00 -0.00000000000E+00 -0.50790175448E+02  0.51007175202E+02  0.47000000000E+01 0. -1.
         25    2    1    2    0    0  0.17338782999E+03 -0.52985816115E+02  0.30705269332E+03  0.37786185118E+03  0.12500954285E+03 0.  0.
         25    2    1    2    0    0 -0.17338782999E+03  0.52985816115E+02  0.76673104063E+03  0.79772905487E+03  0.12499728009E+03 0.  0.
          5    1    3    3  502    0  0.14635398885E+03 -0.63085929851E+02  0.15271472270E+03  0.22077862471E+03  0.47000000000E+01 0. -1.
         -5    1    3    3    0  502  0.27033841135E+02  0.10100113736E+02  0.15433797062E+03  0.15708322647E+03  0.47000000000E+01 0. -1.
          5    1    4    4  503    0 -0.48910555254E+02  0.43822730625E+02  0.48634472049E+03  0.49078096059E+03  0.47000000000E+01 0.  1.
         -5    1    4    4    0  503 -0.12447727473E+03  0.91630854905E+01  0.28038632014E+03  0.30694809428E+03  0.47000000000E+01 0.  1.
<mgrwt>
<rscale>  0 0.22022138E+03</rscale>
<asrwt>0</asrwt>
<pdfrwt beam="1">  1        5 0.17302882E+00 0.22022312E+03</pdfrwt>
<pdfrwt beam="2">  1       -5 0.78313210E-02 0.22022312E+03</pdfrwt>
<totfact> 0.18677265E+01</totfact>
</mgrwt>
</event>
<event>
 8    1  0.3759079E-007  0.1264041E+03  0.7546771E-02  0.1232894E+00
         -5   -1    0    0    0  501 -0.00000000000E+00  0.00000000000E+00  0.74329157159E+03  0.74330643102E+03  0.47000000000E+01 0.  1.
          5   -1    0    0  501    0  0.00000000000E+00 -0.00000000000E+00 -0.21320819301E+02  0.21832712513E+02  0.47000000000E+01 0.  1.
         25    2    1    2    0    0 -0.19188701068E+01  0.18621357308E+02  0.33535772056E+03  0.35838917484E+03  0.12501025113E+03 0.  0.
         25    2    1    2    0    0  0.19188701068E+01 -0.18621357308E+02  0.38661303173E+03  0.40674996870E+03  0.12500185489E+03 0.  0.
          5    1    3    3  502    0 -0.44168887604E+02  0.35505635309E+02  0.75407508834E+02  0.94445344826E+02  0.47000000000E+01 0. -1.
         -5    1    3    3    0  502  0.42250017497E+02 -0.16884278000E+02  0.25995021173E+03  0.26394383001E+03  0.47000000000E+01 0. -1.
          5    1    4    4  503    0  0.54342996945E+02 -0.11575460521E+02  0.93494055656E+02  0.10885945547E+03  0.47000000000E+01 0. -1.
         -5    1    4    4    0  503 -0.52424126839E+02 -0.70458967879E+01  0.29311897607E+03  0.29789051323E+03  0.47000000000E+01 0. -1.
<mgrwt>
<rscale>  0 0.12640204E+03</rscale>
<asrwt>0</asrwt>
<pdfrwt beam="2">  1        5 0.33206457E-02 0.12640411E+03</pdfrwt>
<pdfrwt beam="1">  1       -5 0.11439306E+00 0.12640411E+03</pdfrwt>
<totfact> 0.20452294E+02</totfact>
</mgrwt>
</event>
<event>
 8    1  0.3759079E-007  0.1486324E+03  0.7546771E-02  0.1202165E+00
         -5   -1    0    0    0  501 -0.00000000000E+00  0.00000000000E+00  0.27046054401E+02  0.27451394476E+02  0.47000000000E+01 0.  1.
          5   -1    0    0  501    0  0.00000000000E+00 -0.00000000000E+00 -0.83817407674E+03  0.83818725409E+03  0.47000000000E+01 0.  1.
         25    2    1    2    0    0 -0.18729478477E+02  0.78206313655E+02 -0.32666363807E+03  0.35888819645E+03  0.12499833699E+03 0.  0.
         25    2    1    2    0    0  0.18729478477E+02 -0.78206313655E+02 -0.48446438427E+03  0.50675045212E+03  0.12499304076E+03 0.  0.
          5    1    3    3  502    0 -0.40340552799E+02 -0.92802297741E+01 -0.37783820458E+02  0.56242243494E+02  0.47000000000E+01 0. -1.
         -5    1    3    3    0  502  0.21611074322E+02  0.87486543430E+02 -0.28887981762E+03  0.30264595296E+03  0.47000000000E+01 0. -1.
          5    1    4    4  503    0  0.13173092491E+01 -0.28436654589E+02 -0.42939674019E+03  0.43036499523E+03  0.47000000000E+01 0. -1.
         -5    1    4    4    0  503  0.17412169228E+02 -0.49769659067E+02 -0.55067644076E+02  0.76385456894E+02  0.47000000000E+01 0. -1.
<mgrwt>
<rscale>  0 0.14863134E+03</rscale>
<asrwt>0</asrwt>
<pdfrwt beam="2">  1        5 0.12898203E+00 0.14863245E+03</pdfrwt>
<pdfrwt beam="1">  1       -5 0.41931257E-02 0.14863245E+03</pdfrwt>
<totfact> 0.10839677E+02</totfact>
</mgrwt>
</event>
<event>
 8    1  0.3759079E-007  0.1688044E+03  0.7546771E-02  0.1179102E+00
         -5   -1    0    0    0  501 -0.00000000000E+00  0.00000000000E+00  0.45724393766E+03  0.45726809262E+03  0.47000000000E+01 0. -1.
          5   -1    0    0  501    0  0.00000000000E+00 -0.00000000000E+00 -0.63246425744E+02  0.63420819684E+02  0.47000000000E+01 0. -1.
         25    2    1    2    0    0  0.87288367853E+02  0.72465498269E+02  0.23038831294E+03  0.28560831228E+03  0.12499130252E+03 0.  0.
         25    2    1    2    0    0 -0.87288367853E+02 -0.72465498269E+02  0.16360919898E+03  0.23508060002E+03  0.12499764363E+03 0.  0.
          5    1    4    4  502    0 -0.53221414976E+02 -0.80370504490E+02  0.17341142553E+03  0.19845792881E+03  0.47000000000E+01 0. -1.
         -5    1    4    4    0  502 -0.34066952877E+02  0.79050062204E+01 -0.98022265435E+01  0.36622671214E+02  0.47000000000E+01 0. -1.
          5    1    3    3  503    0  0.61096328551E+02 -0.76441595233E+01  0.17258643481E+03  0.18330128755E+03  0.47000000000E+01 0. -1.
         -5    1    3    3    0  503  0.26192039302E+02  0.80109657793E+02  0.57801878126E+02  0.10230702473E+03  0.47000000000E+01 0. -1.
<mgrwt>
<rscale>  0 0.16880321E+03</rscale>
<asrwt>0</asrwt>
<pdfrwt beam="2">  1        5 0.97454925E-02 0.16880438E+03</pdfrwt>
<pdfrwt beam="1">  1       -5 0.70360493E-01 0.16880438E+03</pdfrwt>
<totfact> 0.11701737E+02</totfact>
</mgrwt>
</event>
<event>
 8    1  0.3759079E-007  0.1472008E+03  0.7546771E-02  0.1203958E+00
          5   -1    0    0  501    0  0.00000000000E+00  0.00000000000E+00  0.35094246822E+03  0.35097393921E+03  0.47000000000E+01 0.  1.
         -5   -1    0    0    0  501 -0.00000000000E+00 -0.00000000000E+00 -0.87202011723E+02  0.87328579793E+02  0.47000000000E+01 0.  1.
         25    2    1    2    0    0  0.75407552552E+02  0.18846087631E+02  0.13281512345E+02  0.14778960981E+03  0.12499558470E+03 0.  0.
         25    2    1    2    0    0 -0.75407552552E+02 -0.18846087631E+02  0.25045894415E+03  0.29051290919E+03  0.12500637464E+03 0.  0.
          5    1    4    4  502    0 -0.11695205519E+02 -0.47978087319E+02  0.19450354137E+03  0.20072964978E+03  0.47000000000E+01 0.  1.
         -5    1    4    4    0  502 -0.63712347033E+02  0.29131999688E+02  0.55955402786E+02  0.89783259415E+02  0.47000000000E+01 0.  1.
          5    1    3    3  503    0  0.84514222651E+02 -0.71132602435E+01  0.52348094081E+02  0.99778080035E+02  0.47000000000E+01 0. -1.
         -5    1    3    3    0  503 -0.91066700993E+01  0.25959347875E+02 -0.39066581736E+02  0.48011529771E+02  0.47000000000E+01 0. -1.
<mgrwt>
<rscale>  0 0.14719848E+03</rscale>
<asrwt>0</asrwt>
<pdfrwt beam="1">  1        5 0.54003306E-01 0.14720077E+03</pdfrwt>
<pdfrwt beam="2">  1       -5 0.13427851E-01 0.14720077E+03</pdfrwt>
<totfact> 0.11402482E+02</totfact>
</mgrwt>
</event>
<event>
 8    1  0.3759079E-007  0.1321509E+03  0.7546771E-02  0.1224299E+00
          5   -1    0    0  501    0  0.00000000000E+00  0.00000000000E+00  0.22484500720E+03  0.22489412456E+03  0.47000000000E+01 0. -1.
         -5   -1    0    0    0  501 -0.00000000000E+00 -0.00000000000E+00 -0.88671649155E+02  0.88796122460E+02  0.47000000000E+01 0. -1.
         25    2    1    2    0    0 -0.36674542809E+02 -0.22225786350E+02  0.12572358407E+02  0.13274532156E+03  0.12499699409E+03 0.  0.
         25    2    1    2    0    0  0.36674542809E+02  0.22225786350E+02  0.12360099964E+03  0.18094492546E+03  0.12499940508E+03 0.  0.
          5    1    3    3  502    0  0.64528284844E+01  0.12394429853E+02  0.58733036379E+02  0.60555102585E+02  0.47000000000E+01 0. -1.
         -5    1    3    3    0  502 -0.43127371293E+02 -0.34620216203E+02 -0.46160677972E+02  0.72190218973E+02  0.47000000000E+01 0. -1.
          5    1    4    4  503    0  0.14313233343E+02  0.50282196171E+02  0.34943852200E+00  0.52491713706E+02  0.47000000000E+01 0. -1.
         -5    1    4    4    0  503  0.22361309466E+02 -0.28056409821E+02  0.12325156111E+03  0.12845321176E+03  0.47000000000E+01 0. -1.
<mgrwt>
<rscale>  0 0.13215032E+03</rscale>
<asrwt>0</asrwt>
<pdfrwt beam="1">  1        5 0.34604892E-01 0.13215089E+03</pdfrwt>
<pdfrwt beam="2">  1       -5 0.13655145E-01 0.13215089E+03</pdfrwt>
<totfact> 0.26844957E+02</totfact>
</mgrwt>
</event>
<event>
 8    1  0.3759079E-007  0.1448757E+03  0.7546771E-02  0.1206917E+00
          5   -1    0    0  501    0  0.00000000000E+00  0.00000000000E+00  0.62411524213E+02  0.62588244540E+02  0.47000000000E+01 0. -1.
         -5   -1    0    0    0  501 -0.00000000000E+00 -0.00000000000E+00 -0.46920988471E+03  0.46923342370E+03  0.47000000000E+01 0. -1.
         25    2    1    2    0    0  0.71991809099E+02 -0.13379323456E+02 -0.34526163102E+03  0.37442564005E+03  0.12500855651E+03 0.  0.
         25    2    1    2    0    0 -0.71991809099E+02  0.13379323456E+02 -0.61536729484E+02  0.15739602819E+03  0.12499965496E+03 0.  0.
          5    1    4    4  502    0 -0.98951544748E+02  0.20357598875E+02 -0.13993038441E+02  0.10209669517E+03  0.47000000000E+01 0. -1.
         -5    1    4    4    0  502  0.26959735649E+02 -0.69782754192E+01 -0.47543691043E+02  0.55299333017E+02  0.47000000000E+01 0. -1.
          5    1    3    3  503    0  0.67463387634E+02 -0.64360698155E+02 -0.22989064599E+03  0.24812377406E+03  0.47000000000E+01 0. -1.
         -5    1    3    3    0  503  0.45284214651E+01  0.50981374698E+02 -0.11537098503E+03  0.12630186599E+03  0.47000000000E+01 0. -1.
<mgrwt>
<rscale>  0 0.14487377E+03</rscale>
<asrwt>0</asrwt>
<pdfrwt beam="1">  1        5 0.96171778E-02 0.14487569E+03</pdfrwt>
<pdfrwt beam="2">  1       -5 0.72201539E-01 0.14487569E+03</pdfrwt>
<totfact> 0.10773637E+02</totfact>
</mgrwt>
</event>
<event>
 8    1  0.3759079E-007  0.1692547E+03  0.7546771E-02  0.1178628E+00
          5   -1    0    0  501    0  0.00000000000E+00  0.00000000000E+00  0.17196919411E+03  0.17203340874E+03  0.47000000000E+01 0. -1.
         -5   -1    0    0    0  501 -0.00000000000E+00 -0.00000000000E+00 -0.24942184567E+03  0.24946612415E+03  0.47000000000E+01 0. -1.
         25    2    1    2    0    0 -0.60011478248E+02  0.97059128722E+02 -0.16024812927E+03  0.23307916608E+03  0.12499833093E+03 0.  0.
         25    2    1    2    0    0  0.60011478248E+02 -0.97059128722E+02  0.82795477705E+02  0.18842036682E+03  0.12500116605E+03 0.  0.
          5    1    3    3  502    0 -0.19229865062E+02 -0.29852245810E+02 -0.36204637811E+02  0.50929461898E+02  0.47000000000E+01 0.  1.
         -5    1    3    3    0  502 -0.40781613186E+02  0.12691137453E+03 -0.12404349145E+03  0.18214970418E+03  0.47000000000E+01 0.  1.
          5    1    4    4  503    0  0.18240509724E+01 -0.95851281574E+02  0.87447550898E+02  0.12984590675E+03  0.47000000000E+01 0. -1.
         -5    1    4    4    0  503  0.58187427276E+02 -0.12078471481E+01 -0.46520731929E+01  0.58574460072E+02  0.47000000000E+01 0. -1.
<mgrwt>
<rscale>  0 0.16925415E+03</rscale>
<asrwt>0</asrwt>
<pdfrwt beam="1">  1        5 0.26465145E-01 0.16925467E+03</pdfrwt>
<pdfrwt beam="2">  1       -5 0.38380937E-01 0.16925467E+03</pdfrwt>
<totfact> 0.68814698E+01</totfact>
</mgrwt>
</event>
<event>
 8    1  0.3759079E-007  0.1667982E+03  0.7546771E-02  0.1181232E+00
         -5   -1    0    0    0  501 -0.00000000000E+00  0.00000000000E+00  0.10946912649E+03  0.10956997606E+03  0.47000000000E+01 0. -1.
          5   -1    0    0  501    0  0.00000000000E+00 -0.00000000000E+00 -0.28160410945E+03  0.28164332845E+03  0.47000000000E+01 0. -1.
         25    2    1    2    0    0 -0.10799649047E+03  0.23012948727E+02 -0.24723104225E+02  0.16862047648E+03  0.12501518085E+03 0.  0.
         25    2    1    2    0    0  0.10799649047E+03 -0.23012948727E+02 -0.14741187874E+03  0.22259282804E+03  0.12499786933E+03 0.  0.
          5    1    4    4  502    0  0.92189874943E+02 -0.66019602857E+02 -0.72550944266E+02  0.13469703233E+03  0.47000000000E+01 0.  1.
         -5    1    4    4    0  502  0.15806615530E+02  0.43006654131E+02 -0.74860934472E+02  0.87895795713E+02  0.47000000000E+01 0.  1.
          5    1    3    3  503    0 -0.36481385210E+02  0.32951790312E+02 -0.68203989778E+02  0.84205618419E+02  0.47000000000E+01 0. -1.
         -5    1    3    3    0  503 -0.71515105263E+02 -0.99388415853E+01  0.43480885553E+02  0.84414858060E+02  0.47000000000E+01 0. -1.
<mgrwt>
<rscale>  0 0.16679494E+03</rscale>
<asrwt>0</asrwt>
<pdfrwt beam="2">  1        5 0.43334483E-01 0.16679818E+03</pdfrwt>
<pdfrwt beam="1">  1       -5 0.16852179E-01 0.16679818E+03</pdfrwt>
<totfact> 0.12499026E+02</totfact>
</mgrwt>
</event>
<event>
 8    1  0.3759079E-007  0.1393628E+03  0.7546771E-02  0.1214190E+00
          5   -1    0    0  501    0  0.00000000000E+00  0.00000000000E+00  0.55547639318E+03  0.55549627665E+03  0.47000000000E+01 0. -1.
         -5   -1    0    0    0  501 -0.00000000000E+00 -0.00000000000E+00 -0.34880667304E+02  0.35195893959E+02  0.47000000000E+01 0. -1.
         25    2    1    2    0    0 -0.59786900078E+02 -0.14867036550E+02  0.24493979381E+03  0.28181110115E+03  0.12500596763E+03 0.  0.
         25    2    1    2    0    0  0.59786900078E+02  0.14867036550E+02  0.27565593207E+03  0.30888106947E+03  0.12500327994E+03 0.  0.
          5    1    3    3  502    0 -0.43242686872E+02  0.46504647336E+02  0.17950970655E+03  0.19046899206E+03  0.47000000000E+01 0.  1.
         -5    1    3    3    0  502 -0.16544213206E+02 -0.61371683886E+02  0.65430087257E+02  0.91342109085E+02  0.47000000000E+01 0.  1.
          5    1    4    4  503    0 -0.31572889836E+01  0.50700796724E+02  0.18939984644E+03  0.19615027681E+03  0.47000000000E+01 0.  1.
         -5    1    4    4    0  503  0.62944189062E+02 -0.35833760174E+02  0.86256085627E+02  0.11273079265E+03  0.47000000000E+01 0.  1.
<mgrwt>
<rscale>  0 0.13936221E+03</rscale>
<asrwt>0</asrwt>
<pdfrwt beam="1">  1        5 0.85483689E-01 0.13936281E+03</pdfrwt>
<pdfrwt beam="2">  1       -5 0.53920339E-02 0.13936281E+03</pdfrwt>
<totfact> 0.19310316E+02</totfact>
</mgrwt>
</event>
<event>
 8    1  0.3759079E-007  0.1737859E+03  0.7546771E-02  0.1173958E+00
         -5   -1    0    0    0  501 -0.00000000000E+00  0.00000000000E+00  0.11564013832E+04  0.11564109344E+04  0.47000000000E+01 0.  1.
          5   -1    0    0  501    0  0.00000000000E+00 -0.00000000000E+00 -0.26282432411E+02  0.26699368035E+02  0.47000000000E+01 0.  1.
         25    2    1    2    0    0 -0.98661834513E+02 -0.69573497297E+02  0.63632891013E+03  0.65963142982E+03  0.12499804887E+03 0.  0.
         25    2    1    2    0    0  0.98661834513E+02  0.69573497297E+02  0.49379004071E+03  0.52347887261E+03  0.12500758637E+03 0.  0.
          5    1    3    3  502    0 -0.10123722532E+03 -0.37950114957E+02  0.60566652686E+03  0.61525866006E+03  0.47000000000E+01 0. -1.
         -5    1    3    3    0  502  0.25753908065E+01 -0.31623382340E+02  0.30662383267E+02  0.44372769758E+02  0.47000000000E+01 0. -1.
          5    1    4    4  503    0 -0.19985525434E+02  0.51585147125E+01  0.14864908584E+02  0.25866716222E+02  0.47000000000E+01 0. -1.
         -5    1    4    4    0  503  0.11864735995E+03  0.64414982584E+02  0.47892513212E+03  0.49761215639E+03  0.47000000000E+01 0. -1.
<mgrwt>
<rscale>  0 0.17378415E+03</rscale>
<asrwt>0</asrwt>
<pdfrwt beam="2">  1        5 0.40762578E-02 0.17378586E+03</pdfrwt>
<pdfrwt beam="1">  1       -5 0.17794071E+00 0.17378586E+03</pdfrwt>
<totfact> 0.48837433E+01</totfact>
</mgrwt>
</event>
<event>
 8    1  0.3759079E-007  0.1849623E+03  0.7546771E-02  0.1163086E+00
         -5   -1    0    0    0  501 -0.00000000000E+00  0.00000000000E+00  0.26840869832E+03  0.26844984510E+03  0.47000000000E+01 0. -1.
          5   -1    0    0  501    0  0.00000000000E+00 -0.00000000000E+00 -0.12740056070E+03  0.12748722629E+03  0.47000000000E+01 0. -1.
         25    2    1    2    0    0 -0.26555599695E+02 -0.13371816079E+03  0.67063276837E+02  0.19674484032E+03  0.12500121076E+03 0.  0.
         25    2    1    2    0    0  0.26555599695E+02  0.13371816079E+03  0.73944860782E+02  0.19919223107E+03  0.12499582426E+03 0.  0.
          5    1    4    4  502    0 -0.49722352072E+02  0.40355699273E+02  0.28750135633E+02  0.70353074263E+02  0.47000000000E+01 0.  1.
         -5    1    4    4    0  502  0.76277951766E+02  0.93362461518E+02  0.45194725149E+02  0.12883915681E+03  0.47000000000E+01 0.  1.
          5    1    3    3  503    0 -0.30981058100E+02  0.14042370300E+02 -0.26970580421E-01  0.34338096220E+02  0.47000000000E+01 0.  1.
         -5    1    3    3    0  503  0.44254584049E+01 -0.14776053109E+03  0.67090247417E+02  0.16240674410E+03  0.47000000000E+01 0.  1.
<mgrwt>
<rscale>  0 0.18496138E+03</rscale>
<asrwt>0</asrwt>
<pdfrwt beam="2">  1        5 0.19609918E-01 0.18496229E+03</pdfrwt>
<pdfrwt beam="1">  1       -5 0.41303478E-01 0.18496229E+03</pdfrwt>
<totfact> 0.10745644E+02</totfact>
</mgrwt>
</event>
<event>
 8    1  0.3759079E-007  0.1295384E+03  0.7546771E-02  0.1228144E+00
          5   -1    0    0  501    0  0.00000000000E+00  0.00000000000E+00  0.10939808108E+03  0.10949899609E+03  0.47000000000E+01 0. -1.
         -5   -1    0    0    0  501 -0.00000000000E+00 -0.00000000000E+00 -0.15630636683E+03  0.15637701337E+03  0.47000000000E+01 0. -1.
         25    2    1    2    0    0  0.28589685262E+02 -0.18351370966E+02 -0.42268627173E+02  0.13625455044E+03  0.12499809100E+03 0.  0.
         25    2    1    2    0    0 -0.28589685262E+02  0.18351370966E+02 -0.46396585762E+01  0.12962145902E+03  0.12500421308E+03 0.  0.
          5    1    3    3  502    0  0.13678700013E+02 -0.18315935696E+02  0.43343109418E+02  0.49226979071E+02  0.47000000000E+01 0.  1.
         -5    1    3    3    0  502  0.14910985249E+02 -0.35435269987E-01 -0.85611736591E+02  0.87027571371E+02  0.47000000000E+01 0.  1.
          5    1    4    4  503    0 -0.24987960107E+00 -0.51528114818E+02  0.99004197099E+01  0.52681280992E+02  0.47000000000E+01 0. -1.
         -5    1    4    4    0  503 -0.28339805661E+02  0.69879485784E+02 -0.14540078286E+02  0.76940178028E+02  0.47000000000E+01 0. -1.
<mgrwt>
<rscale>  0 0.12953692E+03</rscale>
<asrwt>0</asrwt>
<pdfrwt beam="1">  1        5 0.16843671E-01 0.12953840E+03</pdfrwt>
<pdfrwt beam="2">  1       -5 0.24060330E-01 0.12953840E+03</pdfrwt>
<totfact> 0.37033039E+02</totfact>
</mgrwt>
</event>
<event>
 8    1  0.3759079E-007  0.1365382E+03  0.7546771E-02  0.1218065E+00
         -5   -1    0    0    0  501 -0.00000000000E+00  0.00000000000E+00  0.22620323701E+03  0.22625205952E+03  0.47000000000E+01 0.  1.
          5   -1    0    0  501    0  0.00000000000E+00 -0.00000000000E+00 -0.22620393441E+03  0.22625275676E+03  0.47000000000E+01 0.  1.
         25    2    1    2    0    0  0.47324145922E+02  0.27892031473E+02  0.18040911039E+03  0.22625188697E+03  0.12499971616E+03 0.  0.
         25    2    1    2    0    0 -0.47324145922E+02 -0.27892031473E+02 -0.18040980779E+03  0.22625292930E+03  0.12500059626E+03 0.  0.
          5    1    3    3  502    0 -0.14522000166E+02  0.31734261776E+02 -0.23773290924E+00  0.35215030544E+02  0.47000000000E+01 0.  1.
         -5    1    3    3    0  502  0.61846146088E+02 -0.38422303031E+01  0.18064684330E+03  0.19103685643E+03  0.47000000000E+01 0.  1.
          5    1    4    4  503    0 -0.32522868988E+02 -0.30408273521E+02 -0.19779937316E+03  0.20280306242E+03  0.47000000000E+01 0.  1.
         -5    1    4    4    0  503 -0.14801276934E+02  0.25162420476E+01  0.17389565372E+02  0.23449866881E+02  0.47000000000E+01 0.  1.
<mgrwt>
<rscale>  0 0.13653803E+03</rscale>
<asrwt>0</asrwt>
<pdfrwt beam="2">  1        5 0.34808117E-01 0.13653823E+03</pdfrwt>
<pdfrwt beam="1">  1       -5 0.34808009E-01 0.13653823E+03</pdfrwt>
<totfact> 0.45809987E+01</totfact>
</mgrwt>
</event>
<event>
 8    1  0.3759079E-007  0.1312882E+03  0.7546771E-02  0.1225582E+00
         -5   -1    0    0    0  501 -0.00000000000E+00  0.00000000000E+00  0.27934934772E+03  0.27938888323E+03  0.47000000000E+01 0.  1.
          5   -1    0    0  501    0  0.00000000000E+00 -0.00000000000E+00 -0.64700776969E+02  0.64871261283E+02  0.47000000000E+01 0.  1.
         25    2    1    2    0    0  0.76492195348E+01 -0.39188720141E+02  0.14529764570E+03  0.19578073304E+03  0.12499769293E+03 0.  0.
         25    2    1    2    0    0 -0.76492195348E+01  0.39188720141E+02  0.69350925051E+02  0.14847941147E+03  0.12506925474E+03 0.  0.
          5    1    3    3  502    0 -0.67888863547E+01  0.17329519395E+02  0.13500170021E+03  0.13635963581E+03  0.47000000000E+01 0.  1.
         -5    1    3    3    0  502  0.14438105890E+02 -0.56518239537E+02  0.10295945497E+02  0.59421097227E+02  0.47000000000E+01 0.  1.
          5    1    4    4  503    0 -0.10274404183E+02  0.60660440265E+02  0.95823388241E+02  0.11397133029E+03  0.47000000000E+01 0.  1.
         -5    1    4    4    0  503  0.26251846481E+01 -0.21471720124E+02 -0.26472463190E+02  0.34508081182E+02  0.47000000000E+01 0.  1.
<mgrwt>
<rscale>  0 0.13127113E+03</rscale>
<asrwt>0</asrwt>
<pdfrwt beam="2">  1        5 0.99701212E-02 0.13128817E+03</pdfrwt>
<pdfrwt beam="1">  1       -5 0.42992977E-01 0.13128817E+03</pdfrwt>
<totfact> 0.30035425E+02</totfact>
</mgrwt>
</event>
<event>
 8    1  0.3759079E-007  0.1253040E+03  0.7546771E-02  0.1234597E+00
         -5   -1    0    0    0  501 -0.00000000000E+00  0.00000000000E+00  0.67934490949E+02  0.68096879962E+02  0.47000000000E+01 0. -1.
          5   -1    0    0  501    0  0.00000000000E+00 -0.00000000000E+00 -0.31862232090E+03  0.31865698388E+03  0.47000000000E+01 0. -1.
         25    2    1    2    0    0  0.69927251823E+01  0.52364568447E+01 -0.23766640902E+02  0.12753799250E+03  0.12499907050E+03 0.  0.
         25    2    1    2    0    0 -0.69927251823E+01 -0.52364568447E+01 -0.22692118905E+03  0.25921587134E+03  0.12499329275E+03 0.  0.
          5    1    4    4  502    0  0.53061628661E+02 -0.27625667814E+02 -0.12618982382E+03  0.13973072530E+03  0.47000000000E+01 0.  1.
         -5    1    4    4    0  502 -0.60054353843E+02  0.22389210969E+02 -0.10073136523E+03  0.11948514604E+03  0.47000000000E+01 0.  1.
          5    1    3    3  503    0  0.31020936324E+02  0.54253595078E+02  0.95741986998E+01  0.63399576892E+02  0.47000000000E+01 0. -1.
         -5    1    3    3    0  503 -0.24028211142E+02 -0.49017138233E+02 -0.33340839601E+02  0.64138415607E+02  0.47000000000E+01 0. -1.
<mgrwt>
<rscale>  0 0.12530253E+03</rscale>
<asrwt>0</asrwt>
<pdfrwt beam="2">  1        5 0.49033976E-01 0.12530398E+03</pdfrwt>
<pdfrwt beam="1">  1       -5 0.10466618E-01 0.12530398E+03</pdfrwt>
<totfact> 0.20619828E+02</totfact>
</mgrwt>
</event>
<event>
 8    1  0.3759079E-007  0.1260434E+03  0.7546771E-02  0.1233461E+00
          5   -1    0    0  501    0  0.00000000000E+00  0.00000000000E+00  0.40157719460E+03  0.40160469771E+03  0.47000000000E+01 0.  1.
         -5   -1    0    0    0  501 -0.00000000000E+00 -0.00000000000E+00 -0.44383552255E+02  0.44631711941E+02  0.47000000000E+01 0.  1.
         25    2    1    2    0    0  0.49755350276E+01  0.15227962041E+02  0.10392163139E+03  0.16333419831E+03  0.12498683167E+03 0.  0.
         25    2    1    2    0    0 -0.49755350276E+01 -0.15227962041E+02  0.25327201095E+03  0.28290221133E+03  0.12502120968E+03 0.  0.
          5    1    3    3  502    0  0.16186005656E+02  0.35319399568E+02 -0.15153081938E+02  0.41966089372E+02  0.47000000000E+01 0.  1.
         -5    1    3    3    0  502 -0.11210470628E+02 -0.20091437527E+02  0.11907471333E+03  0.12136810894E+03  0.47000000000E+01 0.  1.
          5    1    4    4  503    0 -0.57982610349E+02  0.20754129152E+02  0.12054047517E+03  0.13544302542E+03  0.47000000000E+01 0. -1.
         -5    1    4    4    0  503  0.53007075321E+02 -0.35982091193E+02  0.13273153578E+03  0.14745918592E+03  0.47000000000E+01 0. -1.
<mgrwt>
<rscale>  0 0.12603492E+03</rscale>
<asrwt>0</asrwt>
<pdfrwt beam="1">  1        5 0.61802314E-01 0.12604344E+03</pdfrwt>
<pdfrwt beam="2">  1       -5 0.68494434E-02 0.12604344E+03</pdfrwt>
<totfact> 0.26042004E+02</totfact>
</mgrwt>
</event>
<event>
 8    1  0.3759079E-007  0.1602846E+03  0.7546771E-02  0.1188377E+00
         -5   -1    0    0    0  501 -0.00000000000E+00  0.00000000000E+00  0.19138970425E+03  0.19144740503E+03  0.47000000000E+01 0. -1.
          5   -1    0    0  501    0  0.00000000000E+00 -0.00000000000E+00 -0.13435503140E+03  0.13443721383E+03  0.47000000000E+01 0. -1.
         25    2    1    2    0    0  0.78924914016E+02 -0.61938275115E+02  0.35450773753E+02  0.16415329150E+03  0.12499621504E+03 0.  0.
         25    2    1    2    0    0 -0.78924914016E+02  0.61938275115E+02  0.21583899103E+02  0.16173132737E+03  0.12500266227E+03 0.  0.
          5    1    3    3  502    0 -0.31815535977E+02 -0.17028078287E+01 -0.28111379980E+01  0.32328321652E+02  0.47000000000E+01 0.  1.
         -5    1    3    3    0  502  0.11074044999E+03 -0.60235467286E+02  0.38261911751E+02  0.13182496985E+03  0.47000000000E+01 0.  1.
          5    1    4    4  503    0 -0.76228917181E+02  0.89026978965E+02  0.44884143927E+02  0.12559190728E+03  0.47000000000E+01 0.  1.
         -5    1    4    4    0  503 -0.26959968348E+01 -0.27088703850E+02 -0.23300244824E+02  0.36139420085E+02  0.47000000000E+01 0.  1.
<mgrwt>
<rscale>  0 0.16028336E+03</rscale>
<asrwt>0</asrwt>
<pdfrwt beam="2">  1        5 0.20680765E-01 0.16028461E+03</pdfrwt>
<pdfrwt beam="1">  1       -5 0.29455330E-01 0.16028461E+03</pdfrwt>
<totfact> 0.18402066E+02</totfact>
</mgrwt>
</event>
<event>
 8    1  0.3759079E-007  0.1519780E+03  0.7546771E-02  0.1198066E+00
          5   -1    0    0  501    0  0.00000000000E+00  0.00000000000E+00  0.40010938933E+03  0.40013699333E+03  0.47000000000E+01 0. -1.
         -5   -1    0    0    0  501 -0.00000000000E+00 -0.00000000000E+00 -0.62731701810E+02  0.62907522698E+02  0.47000000000E+01 0. -1.
         25    2    1    2    0    0 -0.40410431446E+01 -0.86329724195E+02  0.10257648298E+03  0.18335554742E+03  0.12501268175E+03 0.  0.
         25    2    1    2    0    0  0.40410431446E+01  0.86329724195E+02  0.23480120454E+03  0.27968896861E+03  0.12500064879E+03 0.  0.
          5    1    4    4  502    0 -0.46477399972E+01 -0.32218070810E+02  0.46376112489E+02  0.56854545847E+02  0.47000000000E+01 0. -1.
         -5    1    4    4    0  502  0.86887831419E+01  0.11854779501E+03  0.18842509205E+03  0.22283442276E+03  0.47000000000E+01 0. -1.
          5    1    3    3  503    0 -0.18735746214E+02 -0.58183027577E+02  0.12831807470E+03  0.14221079839E+03  0.47000000000E+01 0.  1.
         -5    1    3    3    0  503  0.14694703069E+02 -0.28146696618E+02 -0.25741591716E+02  0.41144749032E+02  0.47000000000E+01 0.  1.
<mgrwt>
<rscale>  0 0.15197556E+03</rscale>
<asrwt>0</asrwt>
<pdfrwt beam="1">  1        5 0.61570940E-01 0.15197803E+03</pdfrwt>
<pdfrwt beam="2">  1       -5 0.96666789E-02 0.15197803E+03</pdfrwt>
<totfact> 0.15479690E+02</totfact>
</mgrwt>
</event>
<event>
 8    1  0.3759079E-007  0.1259105E+03  0.7546771E-02  0.1233656E+00
         -5   -1    0    0    0  501 -0.00000000000E+00  0.00000000000E+00  0.15286200353E+02  0.15992433249E+02  0.47000000000E+01 0. -1.
          5   -1    0    0  501    0  0.00000000000E+00 -0.00000000000E+00 -0.12368000663E+04  0.12368089965E+04  0.47000000000E+01 0. -1.
         25    2    1    2    0    0  0.14393732631E+02 -0.44735664907E+01 -0.34430770675E+03  0.36660500809E+03  0.12499697075E+03 0.  0.
         25    2    1    2    0    0 -0.14393732631E+02  0.44735664907E+01 -0.87720615916E+03  0.88619642169E+03  0.12500503913E+03 0.  0.
          5    1    4    4  502    0  0.55831395180E+01 -0.25246288027E+02 -0.80530730643E+03  0.80573599540E+03  0.47000000000E+01 0. -1.
         -5    1    4    4    0  502 -0.19976872149E+02  0.29719854518E+02 -0.71898852735E+02  0.80460426286E+02  0.47000000000E+01 0. -1.
          5    1    3    3  503    0  0.38615401558E+02  0.40463829966E+02 -0.27342241273E+03  0.27912430305E+03  0.47000000000E+01 0. -1.
         -5    1    3    3    0  503 -0.24221668927E+02 -0.44937396457E+02 -0.70885294020E+02  0.87480705040E+02  0.47000000000E+01 0. -1.
<mgrwt>
<rscale>  0 0.12590849E+03</rscale>
<asrwt>0</asrwt>
<pdfrwt beam="2">  1        5 0.19033187E+00 0.12591049E+03</pdfrwt>
<pdfrwt beam="1">  1       -5 0.24067367E-02 0.12591049E+03</pdfrwt>
<totfact> 0.85594245E+01</totfact>
</mgrwt>
</event>
<event>
 8    1  0.3759079E-007  0.1415315E+03  0.7546771E-02  0.1211284E+00
         -5   -1    0    0    0  501 -0.00000000000E+00  0.00000000000E+00  0.92903473525E+01  0.10411558670E+02  0.47000000000E+01 0. -1.
          5   -1    0    0  501    0  0.00000000000E+00 -0.00000000000E+00 -0.24932486922E+04  0.24932531221E+04  0.47000000000E+01 0. -1.
         25    2    1    2    0    0 -0.35515721231E+02 -0.56063606313E+02 -0.70382228537E+03  0.71791153485E+03  0.12500667213E+03 0.  0.
         25    2    1    2    0    0  0.35515721231E+02  0.56063606313E+02 -0.17801360594E+04  0.17857531459E+04  0.12500165487E+03 0.  0.
          5    1    3    3  502    0 -0.22836109224E+02 -0.23393935671E+02 -0.34882397770E+02  0.48037857829E+02  0.47000000000E+01 0. -1.
         -5    1    3    3    0  502 -0.12679612007E+02 -0.32669670642E+02 -0.66893988760E+03  0.66987367702E+03  0.47000000000E+01 0. -1.
          5    1    4    4  503    0 -0.20452875494E+02  0.27827649258E+02 -0.13532912314E+03  0.13974533891E+03  0.47000000000E+01 0.  1.
         -5    1    4    4    0  503  0.55968596724E+02  0.28235957055E+02 -0.16448069363E+04  0.16460078070E+04  0.47000000000E+01 0.  1.
<mgrwt>
<rscale>  0 0.14153038E+03</rscale>
<asrwt>0</asrwt>
<pdfrwt beam="2">  1        5 0.38366281E+00 0.14153149E+03</pdfrwt>
<pdfrwt beam="1">  1       -5 0.15158740E-02 0.14153149E+03</pdfrwt>
<totfact> 0.10251745E+01</totfact>
</mgrwt>
</event>
<event>
 8    1  0.3759079E-007  0.1369150E+03  0.7546771E-02  0.1217546E+00
          5   -1    0    0  501    0  0.00000000000E+00  0.00000000000E+00  0.15667090114E+03  0.15674138338E+03  0.47000000000E+01 0.  1.
         -5   -1    0    0    0  501 -0.00000000000E+00 -0.00000000000E+00 -0.39665552694E+03  0.39668337128E+03  0.47000000000E+01 0.  1.
         25    2    1    2    0    0 -0.18506648858E+02  0.52686932642E+02 -0.35126184639E+03  0.37700211911E+03  0.12500921630E+03 0.  0.
         25    2    1    2    0    0  0.18506648858E+02 -0.52686932642E+02  0.11127722060E+03  0.17642263556E+03  0.12499567029E+03 0.  0.
          5    1    4    4  502    0  0.37757430656E+02  0.17856270301E+02 -0.13564693509E+01  0.42052347948E+02  0.47000000000E+01 0. -1.
         -5    1    4    4    0  502 -0.19250781798E+02 -0.70543202944E+02  0.11263368995E+03  0.13437028761E+03  0.47000000000E+01 0. -1.
          5    1    3    3  503    0  0.21947425911E+02 -0.28748685564E+02 -0.17334165787E+03  0.17713722584E+03  0.47000000000E+01 0. -1.
         -5    1    3    3    0  503 -0.40454074769E+02  0.81435618206E+02 -0.17792018853E+03  0.19986489327E+03  0.47000000000E+01 0. -1.
<mgrwt>
<rscale>  0 0.13691189E+03</rscale>
<asrwt>0</asrwt>
<pdfrwt beam="1">  1        5 0.24110779E-01 0.13691498E+03</pdfrwt>
<pdfrwt beam="2">  1       -5 0.61031491E-01 0.13691498E+03</pdfrwt>
<totfact> 0.28992350E+01</totfact>
</mgrwt>
</event>
<event>
 8    1  0.3759079E-007  0.1409789E+03  0.7546771E-02  0.1212018E+00
         -5   -1    0    0    0  501 -0.00000000000E+00  0.00000000000E+00  0.13143701880E+03  0.13152102459E+03  0.47000000000E+01 0.  1.
          5   -1    0    0  501    0  0.00000000000E+00 -0.00000000000E+00 -0.15613055948E+03  0.15620128553E+03  0.47000000000E+01 0.  1.
         25    2    1    2    0    0  0.72053983679E+01 -0.64780379639E+02 -0.38302878315E+02  0.14608952415E+03  0.12500649274E+03 0.  0.
         25    2    1    2    0    0 -0.72053983679E+01  0.64780379639E+02  0.13609337634E+02  0.14163278597E+03  0.12500486646E+03 0.  0.
          5    1    3    3  502    0 -0.18896234463E+02 -0.16397239598E+02 -0.75414137947E+02  0.79594719333E+02  0.47000000000E+01 0. -1.
         -5    1    3    3    0  502  0.26101632831E+02 -0.48383140041E+02  0.37111259632E+02  0.66494804821E+02  0.47000000000E+01 0. -1.
          5    1    4    4  503    0  0.28487064946E+02 -0.24415363022E+02 -0.15903631648E+02  0.41019974651E+02  0.47000000000E+01 0.  1.
         -5    1    4    4    0  503 -0.35692463314E+02  0.89195742661E+02  0.29512969283E+02  0.10061281132E+03  0.47000000000E+01 0.  1.
<mgrwt>
<rscale>  0 0.14097850E+03</rscale>
<asrwt>0</asrwt>
<pdfrwt beam="2">  1        5 0.24031989E-01 0.14097886E+03</pdfrwt>
<pdfrwt beam="1">  1       -5 0.20232982E-01 0.14097886E+03</pdfrwt>
<totfact> 0.27238651E+02</totfact>
</mgrwt>
</event>
<event>
 8    1  0.3759079E-007  0.1542874E+03  0.7546771E-02  0.1195301E+00
          5   -1    0    0  501    0  0.00000000000E+00  0.00000000000E+00  0.15616521089E+04  0.15616591815E+04  0.47000000000E+01 0. -1.
         -5   -1    0    0    0  501 -0.00000000000E+00 -0.00000000000E+00 -0.15443350260E+02  0.16142709415E+02  0.47000000000E+01 0. -1.
         25    2    1    2    0    0 -0.71018355349E+02 -0.55995521573E+02  0.92121569123E+03  0.93404654319E+03  0.12500195941E+03 0.  0.
         25    2    1    2    0    0  0.71018355349E+02  0.55995521573E+02  0.62499306742E+03  0.64375534775E+03  0.12500203279E+03 0.  0.
          5    1    4    4  502    0 -0.34726645297E+02  0.26081072612E+02  0.20450551467E+03  0.20911900385E+03  0.47000000000E+01 0. -1.
         -5    1    4    4    0  502  0.10574500065E+03  0.29914448962E+02  0.42048755275E+03  0.43463634390E+03  0.47000000000E+01 0. -1.
          5    1    3    3  503    0 -0.83573750830E+02 -0.21998380029E+01  0.73496107074E+03  0.73971567282E+03  0.47000000000E+01 0. -1.
         -5    1    3    3    0  503  0.12555395480E+02 -0.53795683570E+02  0.18625462049E+03  0.19433087037E+03  0.47000000000E+01 0. -1.
<mgrwt>
<rscale>  0 0.15428742E+03</rscale>
<asrwt>0</asrwt>
<pdfrwt beam="1">  1        5 0.24030862E+00 0.15428744E+03</pdfrwt>
<pdfrwt beam="2">  1       -5 0.24302398E-02 0.15428744E+03</pdfrwt>
<totfact> 0.41810748E+01</totfact>
</mgrwt>
</event>
<event>
 8    1  0.3759079E-007  0.1599721E+03  0.7546771E-02  0.1188733E+00
         -5   -1    0    0    0  501 -0.00000000000E+00  0.00000000000E+00  0.12709994813E+03  0.12718681855E+03  0.47000000000E+01 0.  1.
          5   -1    0    0  501    0  0.00000000000E+00 -0.00000000000E+00 -0.21258885097E+03  0.21264079937E+03  0.47000000000E+01 0.  1.
         25    2    1    2    0    0 -0.99046620187E+02  0.12274598047E+02 -0.33344077746E+01  0.16000686745E+03  0.12502072079E+03 0.  0.
         25    2    1    2    0    0  0.99046620187E+02 -0.12274598047E+02 -0.82154495071E+02  0.17982075047E+03  0.12500097005E+03 0.  0.
          5    1    4    4  502    0  0.46472226001E+02  0.43755933068E+02  0.41962095254E+01  0.64140062695E+02  0.47000000000E+01 0.  1.
         -5    1    4    4    0  502  0.52574394186E+02 -0.56030531115E+02 -0.86350704596E+02  0.11568068778E+03  0.47000000000E+01 0.  1.
          5    1    3    3  503    0 -0.10551984622E+02  0.16408848000E+01 -0.55440895381E+02  0.56655271273E+02  0.47000000000E+01 0. -1.
         -5    1    3    3    0  503 -0.88494635566E+02  0.10633713247E+02  0.52106487606E+02  0.10335159618E+03  0.47000000000E+01 0. -1.
<mgrwt>
<rscale>  0 0.15996826E+03</rscale>
<asrwt>0</asrwt>
<pdfrwt beam="2">  1        5 0.32716655E-01 0.15997212E+03</pdfrwt>
<pdfrwt beam="1">  1       -5 0.19564517E-01 0.15997212E+03</pdfrwt>
<totfact> 0.16579554E+02</totfact>
</mgrwt>
</event>
<event>
 8    1  0.3759079E-007  0.1252664E+03  0.7546771E-02  0.1234658E+00
         -5   -1    0    0    0  501 -0.00000000000E+00  0.00000000000E+00  0.31837887395E+03  0.31841356344E+03  0.47000000000E+01 0. -1.
          5   -1    0    0  501    0  0.00000000000E+00 -0.00000000000E+00 -0.50378258795E+02  0.50597025202E+02  0.47000000000E+01 0. -1.
         25    2    1    2    0    0  0.36156299403E+01  0.70942284452E+01  0.16294823291E+03  0.20553294778E+03  0.12501305994E+03 0.  0.
         25    2    1    2    0    0 -0.36156299403E+01 -0.70942284452E+01  0.10505238225E+03  0.16347764086E+03  0.12500214073E+03 0.  0.
          5    1    4    4  502    0 -0.52742785504E+02  0.31827746338E+02  0.43946433552E+02  0.75816791555E+02  0.47000000000E+01 0.  1.
         -5    1    4    4    0  502  0.49127155564E+02 -0.38921974783E+02  0.61105948697E+02  0.87660849305E+02  0.47000000000E+01 0.  1.
          5    1    3    3  503    0 -0.86350888678E+01  0.65076577504E+02  0.86310738154E+02  0.10854104855E+03  0.47000000000E+01 0. -1.
         -5    1    3    3    0  503  0.12250718808E+02 -0.57982349058E+02  0.76637494757E+02  0.96991899230E+02  0.47000000000E+01 0. -1.
<mgrwt>
<rscale>  0 0.12526366E+03</rscale>
<asrwt>0</asrwt>
<pdfrwt beam="2">  1        5 0.77699977E-02 0.12526638E+03</pdfrwt>
<pdfrwt beam="1">  1       -5 0.49000863E-01 0.12526638E+03</pdfrwt>
<totfact> 0.34547715E+02</totfact>
</mgrwt>
</event>
<event>
 8    1  0.3759079E-007  0.1488224E+03  0.7546771E-02  0.1201930E+00
         -5   -1    0    0    0  501 -0.00000000000E+00  0.00000000000E+00  0.63392984904E+02  0.63566976765E+02  0.47000000000E+01 0.  1.
          5   -1    0    0  501    0  0.00000000000E+00 -0.00000000000E+00 -0.35928273197E+03  0.35931347246E+03  0.47000000000E+01 0.  1.
         25    2    1    2    0    0  0.73342193937E+02 -0.33786818054E+02 -0.11164224610E+03  0.18603609009E+03  0.12499923686E+03 0.  0.
         25    2    1    2    0    0 -0.73342193937E+02  0.33786818054E+02 -0.18424750097E+03  0.23684435914E+03  0.12500992904E+03 0.  0.
          5    1    4    4  502    0 -0.97316986116E+02  0.37188240757E+01 -0.16920040729E+03  0.19528259847E+03  0.47000000000E+01 0.  1.
         -5    1    4    4    0  502  0.23974792179E+02  0.30067993978E+02 -0.15047093681E+02  0.41561760672E+02  0.47000000000E+01 0.  1.
          5    1    3    3  503    0  0.25458806704E+02 -0.75077155046E+02 -0.87572244616E+02  0.11821894127E+03  0.47000000000E+01 0. -1.
         -5    1    3    3    0  503  0.47883387234E+02  0.41290336992E+02 -0.24070001487E+02  0.67817148816E+02  0.47000000000E+01 0. -1.
<mgrwt>
<rscale>  0 0.14882016E+03</rscale>
<asrwt>0</asrwt>
<pdfrwt beam="2">  1        5 0.55290014E-01 0.14882241E+03</pdfrwt>
<pdfrwt beam="1">  1       -5 0.97685158E-02 0.14882241E+03</pdfrwt>
<totfact> 0.19089112E+02</totfact>
</mgrwt>
</event>
<event>
 8    1  0.3759079E-007  0.1339209E+03  0.7546771E-02  0.1221757E+00
          5   -1    0    0  501    0  0.00000000000E+00  0.00000000000E+00  0.79066064365E+02  0.79205634485E+02  0.47000000000E+01 0. -1.
         -5   -1    0    0    0  501 -0.00000000000E+00 -0.00000000000E+00 -0.25633237091E+03  0.25637545588E+03  0.47000000000E+01 0. -1.
         25    2    1    2    0    0 -0.18944751068E+02 -0.44123786216E+02 -0.14591319593E+03  0.19805419814E+03  0.12501596919E+03 0.  0.
         25    2    1    2    0    0  0.18944751068E+02  0.44123786216E+02 -0.31353110616E+02  0.13752689222E+03  0.12499926574E+03 0.  0.
          5    1    3    3  502    0  0.15134594242E+02 -0.44314120620E+02  0.10939448534E+01  0.47075300791E+02  0.47000000000E+01 0.  1.
         -5    1    3    3    0  502 -0.34079345310E+02  0.19033440485E+00 -0.14700714078E+03  0.15097889735E+03  0.47000000000E+01 0.  1.
          5    1    4    4  503    0 -0.48660864536E+02  0.34254901131E+02  0.51617709861E+01  0.59916707758E+02  0.47000000000E+01 0. -1.
         -5    1    4    4    0  503  0.67605615603E+02  0.98688850846E+01 -0.36514881602E+02  0.77610184463E+02  0.47000000000E+01 0. -1.
<mgrwt>
<rscale>  0 0.13391699E+03</rscale>
<asrwt>0</asrwt>
<pdfrwt beam="1">  1        5 0.12178060E-01 0.13392089E+03</pdfrwt>
<pdfrwt beam="2">  1       -5 0.39449799E-01 0.13392089E+03</pdfrwt>
<totfact> 0.25386412E+02</totfact>
</mgrwt>
</event>
<event>
 8    1  0.3759079E-007  0.1256499E+03  0.7546771E-02  0.1234058E+00
         -5   -1    0    0    0  501 -0.00000000000E+00  0.00000000000E+00  0.10146911416E+03  0.10157790669E+03  0.47000000000E+01 0.  1.
          5   -1    0    0  501    0  0.00000000000E+00 -0.00000000000E+00 -0.15846049029E+03  0.15853017689E+03  0.47000000000E+01 0.  1.
         25    2    1    2    0    0  0.12710113366E+02  0.14780189740E+01 -0.10324098533E+02  0.12607332954E+03  0.12499666351E+03 0.  0.
         25    2    1    2    0    0 -0.12710113366E+02 -0.14780189740E+01 -0.46667277602E+02  0.13403475404E+03  0.12499499578E+03 0.  0.
          5    1    3    3  502    0  0.13538740049E+02 -0.59321594760E+02  0.98891959886E+01  0.61824228942E+02  0.47000000000E+01 0.  1.
         -5    1    3    3    0  502 -0.82862668281E+00  0.60799613733E+02 -0.20213294522E+02  0.64249100599E+02  0.47000000000E+01 0.  1.
          5    1    4    4  503    0 -0.13121866509E+02 -0.26061023765E+02 -0.84022192625E+02  0.89068396156E+02  0.47000000000E+01 0. -1.
         -5    1    4    4    0  503  0.41175314314E+00  0.24583004791E+02  0.37354915023E+02  0.44966357887E+02  0.47000000000E+01 0. -1.
<mgrwt>
<rscale>  0 0.12564949E+03</rscale>
<asrwt>0</asrwt>
<pdfrwt beam="2">  1        5 0.24392266E-01 0.12564990E+03</pdfrwt>
<pdfrwt beam="1">  1       -5 0.15624362E-01 0.12564990E+03</pdfrwt>
<totfact> 0.40907497E+02</totfact>
</mgrwt>
</event>
<event>
 8    1  0.3759079E-007  0.1276870E+03  0.7546771E-02  0.1230937E+00
          5   -1    0    0  501    0  0.00000000000E+00  0.00000000000E+00  0.90585230179E+01  0.10205235875E+02  0.47000000000E+01 0.  1.
         -5   -1    0    0    0  501 -0.00000000000E+00 -0.00000000000E+00 -0.16930955186E+04  0.16931020421E+04  0.47000000000E+01 0.  1.
         25    2    1    2    0    0 -0.14771047195E+02 -0.21423333567E+02 -0.87015756441E+03  0.87947606871E+03  0.12500730175E+03 0.  0.
         25    2    1    2    0    0  0.14771047195E+02  0.21423333567E+02 -0.81387943116E+03  0.82383120928E+03  0.12498395846E+03 0.  0.
          5    1    4    4  502    0 -0.10638535954E+02 -0.13588939713E+02 -0.72143820179E+03  0.72165989686E+03  0.47000000000E+01 0.  1.
         -5    1    4    4    0  502  0.25409583149E+02  0.35012273281E+02 -0.92441229366E+02  0.10217131243E+03  0.47000000000E+01 0.  1.
          5    1    3    3  503    0 -0.43418010751E+02 -0.63119046941E+02 -0.50424937325E+03  0.51005750476E+03  0.47000000000E+01 0. -1.
         -5    1    3    3    0  503  0.28646963556E+02  0.41695713373E+02 -0.36590819116E+03  0.36941856395E+03  0.47000000000E+01 0. -1.
<mgrwt>
<rscale>  0 0.12768128E+03</rscale>
<asrwt>0</asrwt>
<pdfrwt beam="1">  1        5 0.14823308E-02 0.12768699E+03</pdfrwt>
<pdfrwt beam="2">  1       -5 0.26056471E+00 0.12768699E+03</pdfrwt>
<totfact> 0.64659892E+01</totfact>
</mgrwt>
</event>
<event>
 8    1  0.3759079E-007  0.1523939E+03  0.7546771E-02  0.1197566E+00
         -5   -1    0    0    0  501 -0.00000000000E+00  0.00000000000E+00  0.50572997337E+02  0.50790924974E+02  0.47000000000E+01 0. -1.
          5   -1    0    0  501    0  0.00000000000E+00 -0.00000000000E+00 -0.48518239701E+03  0.48520516111E+03  0.47000000000E+01 0. -1.
         25    2    1    2    0    0  0.31907525007E+02  0.81119939952E+02 -0.15384324394E+03  0.21654480815E+03  0.12500150167E+03 0.  0.
         25    2    1    2    0    0 -0.31907525007E+02 -0.81119939952E+02 -0.28076615574E+03  0.31945127794E+03  0.12498379879E+03 0.  0.
          5    1    3    3  502    0  0.64316426825E+02 -0.45673227761E+00 -0.65128869027E+02  0.91655174130E+02  0.47000000000E+01 0. -1.
         -5    1    3    3    0  502 -0.32408901819E+02  0.81576672229E+02 -0.88714374909E+02  0.12488963402E+03  0.47000000000E+01 0. -1.
          5    1    4    4  503    0  0.22529301058E+02 -0.79374271898E+02 -0.23168628571E+03  0.24598469349E+03  0.47000000000E+01 0. -1.
         -5    1    4    4    0  503 -0.54436826064E+02 -0.17456680538E+01 -0.49079870031E+02  0.73466584453E+02  0.47000000000E+01 0. -1.
<mgrwt>
<rscale>  0 0.15239030E+03</rscale>
<asrwt>0</asrwt>
<pdfrwt beam="2">  1        5 0.74661957E-01 0.15239393E+03</pdfrwt>
<pdfrwt beam="1">  1       -5 0.77989762E-02 0.15239393E+03</pdfrwt>
<totfact> 0.14569870E+02</totfact>
</mgrwt>
</event>
<event>
 8    1  0.3759079E-007  0.1545705E+03  0.7546771E-02  0.1194973E+00
         -5   -1    0    0    0  501 -0.00000000000E+00  0.00000000000E+00  0.41096996530E+03  0.41099683986E+03  0.47000000000E+01 0. -1.
          5   -1    0    0  501    0  0.00000000000E+00 -0.00000000000E+00 -0.75165024859E+02  0.75311824849E+02  0.47000000000E+01 0. -1.
         25    2    1    2    0    0  0.90836247609E+02  0.40658292626E+01  0.28394749383E+03  0.32329279767E+03  0.12499719567E+03 0.  0.
         25    2    1    2    0    0 -0.90836247609E+02 -0.40658292626E+01  0.51857446607E+02  0.16301586704E+03  0.12496888929E+03 0.  0.
          5    1    4    4  502    0 -0.10822437104E+03 -0.36645134126E+02  0.52387266094E+02  0.12578511832E+03  0.47000000000E+01 0. -1.
         -5    1    4    4    0  502  0.17388123428E+02  0.32579304864E+02 -0.52981948715E+00  0.37230748722E+02  0.47000000000E+01 0. -1.
          5    1    3    3  503    0  0.48502098073E+02 -0.12635986893E+02  0.18036466571E+02  0.53474534206E+02  0.47000000000E+01 0.  1.
         -5    1    3    3    0  503  0.42334149536E+02  0.16701816155E+02  0.26591102726E+03  0.26981826346E+03  0.47000000000E+01 0.  1.
<mgrwt>
<rscale>  0 0.15456482E+03</rscale>
<asrwt>0</asrwt>
<pdfrwt beam="2">  1        5 0.11577209E-01 0.15457055E+03</pdfrwt>
<pdfrwt beam="1">  1       -5 0.63239509E-01 0.15457055E+03</pdfrwt>
<totfact> 0.10686932E+02</totfact>
</mgrwt>
</event>
<event>
 8    1  0.3759079E-007  0.1886237E+03  0.7546771E-02  0.1159712E+00
         -5   -1    0    0    0  501 -0.00000000000E+00  0.00000000000E+00  0.32280124783E+02  0.32620491352E+02  0.47000000000E+01 0. -1.
          5   -1    0    0  501    0  0.00000000000E+00 -0.00000000000E+00 -0.13546208056E+04  0.13546289591E+04  0.47000000000E+01 0. -1.
         25    2    1    2    0    0 -0.94126852605E+02 -0.10531541211E+03 -0.35814398291E+03  0.40477895425E+03  0.12501075515E+03 0.  0.
         25    2    1    2    0    0  0.94126852605E+02  0.10531541211E+03 -0.96419669787E+03  0.98247049621E+03  0.12498721266E+03 0.  0.
          5    1    4    4  502    0  0.40823885313E+02 -0.24742544277E+02 -0.24210139553E+03  0.24680753398E+03  0.47000000000E+01 0.  1.
         -5    1    4    4    0  502  0.53302967292E+02  0.13005795639E+03 -0.72209530233E+03  0.73566296223E+03  0.47000000000E+01 0.  1.
          5    1    3    3  503    0 -0.25120842311E+02  0.13706866171E+02 -0.16540254039E+03  0.16792565398E+03  0.47000000000E+01 0.  1.
         -5    1    3    3    0  503 -0.69006010293E+02 -0.11902227828E+03 -0.19274144252E+03  0.23685330027E+03  0.47000000000E+01 0.  1.
<mgrwt>
<rscale>  0 0.18861977E+03</rscale>
<asrwt>0</asrwt>
<pdfrwt beam="2">  1        5 0.20842997E+00 0.18862367E+03</pdfrwt>
<pdfrwt beam="1">  1       -5 0.49929833E-02 0.18862367E+03</pdfrwt>
<totfact> 0.21871378E+01</totfact>
</mgrwt>
</event>
<event>
 8    1  0.3759079E-007  0.1498894E+03  0.7546771E-02  0.1200613E+00
         -5   -1    0    0    0  501 -0.00000000000E+00  0.00000000000E+00  0.56178840648E+03  0.56180806657E+03  0.47000000000E+01 0. -1.
          5   -1    0    0  501    0  0.00000000000E+00 -0.00000000000E+00 -0.39853888772E+02  0.40130069153E+02  0.47000000000E+01 0. -1.
         25    2    1    2    0    0  0.79642782133E+02 -0.22366019463E+02  0.26835655619E+03  0.30737301522E+03  0.12497886886E+03 0.  0.
         25    2    1    2    0    0 -0.79642782133E+02  0.22366019463E+02  0.25357796152E+03  0.29456512050E+03  0.12499446417E+03 0.  0.
          5    1    3    3  502    0  0.67298113019E+02 -0.11822368042E+01  0.41641667790E+02  0.79287780875E+02  0.47000000000E+01 0.  1.
         -5    1    3    3    0  502  0.12344669114E+02 -0.21183782658E+02  0.22671488840E+03  0.22808523434E+03  0.47000000000E+01 0.  1.
          5    1    4    4  503    0 -0.90223821829E+02  0.40565247312E+01  0.25716820321E+03  0.27260661797E+03  0.47000000000E+01 0. -1.
         -5    1    4    4    0  503  0.10581039695E+02  0.18309494731E+02 -0.35902416821E+01  0.21958502538E+02  0.47000000000E+01 0. -1.
<mgrwt>
<rscale>  0 0.14988613E+03</rscale>
<asrwt>0</asrwt>
<pdfrwt beam="2">  1        5 0.61541241E-02 0.14988938E+03</pdfrwt>
<pdfrwt beam="1">  1       -5 0.86451747E-01 0.14988938E+03</pdfrwt>
<totfact> 0.15426953E+02</totfact>
</mgrwt>
</event>
<event>
 8    1  0.3759079E-007  0.1511986E+03  0.7546771E-02  0.1199010E+00
          5   -1    0    0  501    0  0.00000000000E+00  0.00000000000E+00  0.41552912137E+02  0.41817873057E+02  0.47000000000E+01 0. -1.
         -5   -1    0    0    0  501 -0.00000000000E+00 -0.00000000000E+00 -0.58109116892E+03  0.58111017595E+03  0.47000000000E+01 0. -1.
         25    2    1    2    0    0  0.84311277550E+02 -0.11225958668E+02 -0.34395212236E+03  0.37571807161E+03  0.12500637259E+03 0.  0.
         25    2    1    2    0    0 -0.84311277550E+02  0.11225958668E+02 -0.19558613442E+03  0.24720997740E+03  0.12499769309E+03 0.  0.
          5    1    4    4  502    0 -0.77899388822E+02 -0.42552928764E+02 -0.80467769201E+02  0.11990086908E+03  0.47000000000E+01 0. -1.
         -5    1    4    4    0  502 -0.64118887285E+01  0.53778887432E+02 -0.11511836522E+03  0.12730910832E+03  0.47000000000E+01 0. -1.
          5    1    3    3  503    0  0.86115042011E+02  0.43070736118E+02 -0.23027649950E+03  0.24964023112E+03  0.47000000000E+01 0. -1.
         -5    1    3    3    0  503 -0.18037644613E+01 -0.54296694786E+02 -0.11367562285E+03  0.12607784049E+03  0.47000000000E+01 0. -1.
<mgrwt>
<rscale>  0 0.15119677E+03</rscale>
<asrwt>0</asrwt>
<pdfrwt beam="1">  1        5 0.64145998E-02 0.15119857E+03</pdfrwt>
<pdfrwt beam="2">  1       -5 0.89420479E-01 0.15119857E+03</pdfrwt>
<totfact> 0.13317341E+02</totfact>
</mgrwt>
</event>
<event>
 8    1  0.3759079E-007  0.1262339E+03  0.7546771E-02  0.1233155E+00
          5   -1    0    0  501    0  0.00000000000E+00  0.00000000000E+00  0.17560786362E+02  0.18178867337E+02  0.47000000000E+01 0.  1.
         -5   -1    0    0    0  501 -0.00000000000E+00 -0.00000000000E+00 -0.91293173934E+03  0.91294383765E+03  0.47000000000E+01 0.  1.
         25    2    1    2    0    0  0.17304671066E+02 -0.31020225565E+01 -0.51968472978E+03  0.53479565773E+03  0.12500041192E+03 0.  0.
         25    2    1    2    0    0 -0.17304671066E+02  0.31020225565E+01 -0.37568622320E+03  0.39632704725E+03  0.12500366353E+03 0.  0.
          5    1    4    4  502    0  0.72201467797E+01  0.25044874895E+02 -0.87573880323E+01  0.27895485713E+02  0.47000000000E+01 0.  1.
         -5    1    4    4    0  502 -0.24524817846E+02 -0.21942852338E+02 -0.36692883517E+03  0.36843156154E+03  0.47000000000E+01 0.  1.
          5    1    3    3  503    0  0.59367524608E+02  0.23853699284E+02 -0.39852949094E+03  0.40365993992E+03  0.47000000000E+01 0.  1.
         -5    1    3    3    0  503 -0.42062853542E+02 -0.26955721841E+02 -0.12115523883E+03  0.13113571781E+03  0.47000000000E+01 0.  1.
<mgrwt>
<rscale>  0 0.12623307E+03</rscale>
<asrwt>0</asrwt>
<pdfrwt beam="1">  1        5 0.27501355E-02 0.12623387E+03</pdfrwt>
<pdfrwt beam="2">  1       -5 0.14049948E+00 0.12623387E+03</pdfrwt>
<totfact> 0.16302726E+02</totfact>
</mgrwt>
</event>
<event>
 8    1  0.3759079E-007  0.1442809E+03  0.7546771E-02  0.1207691E+00
         -5   -1    0    0    0  501 -0.00000000000E+00  0.00000000000E+00  0.64168454489E+02  0.64340349327E+02  0.47000000000E+01 0. -1.
          5   -1    0    0  501    0  0.00000000000E+00 -0.00000000000E+00 -0.32501686310E+03  0.32505084418E+03  0.47000000000E+01 0. -1.
         25    2    1    2    0    0  0.30891968391E+00  0.72081192978E+02 -0.11817424492E+03  0.18649964633E+03  0.12498468748E+03 0.  0.
         25    2    1    2    0    0 -0.30891968391E+00 -0.72081192978E+02 -0.14267416369E+03  0.20289154718E+03  0.12495306767E+03 0.  0.
          5    1    3    3  502    0  0.22434072049E+02  0.14621368311E+02  0.20926180704E+02  0.34308410614E+02  0.47000000000E+01 0.  1.
         -5    1    3    3    0  502 -0.22125152365E+02  0.57459824667E+02 -0.13910042563E+03  0.15219123571E+03  0.47000000000E+01 0.  1.
          5    1    4    4  503    0  0.47920579546E+02 -0.59377842899E+02 -0.34886363559E+02  0.84031294966E+02  0.47000000000E+01 0.  1.
         -5    1    4    4    0  503 -0.48229499230E+02 -0.12703350079E+02 -0.10778780013E+03  0.11886025221E+03  0.47000000000E+01 0.  1.
<mgrwt>
<rscale>  0 0.14427401E+03</rscale>
<asrwt>0</asrwt>
<pdfrwt beam="2">  1        5 0.50018430E-01 0.14428086E+03</pdfrwt>
<pdfrwt beam="1">  1       -5 0.98879067E-02 0.14428086E+03</pdfrwt>
<totfact> 0.22922913E+02</totfact>
</mgrwt>
</event>
<event>
 8    1  0.3759079E-007  0.1649808E+03  0.7546771E-02  0.1183187E+00
         -5   -1    0    0    0  501 -0.00000000000E+00  0.00000000000E+00  0.69169535744E+02  0.69329031978E+02  0.47000000000E+01 0.  1.
          5   -1    0    0  501    0  0.00000000000E+00 -0.00000000000E+00 -0.45502009215E+03  0.45504436516E+03  0.47000000000E+01 0.  1.
         25    2    1    2    0    0 -0.10649051573E+03  0.15907530817E+02 -0.96049083843E+02  0.19090332966E+03  0.12500150115E+03 0.  0.
         25    2    1    2    0    0  0.10649051573E+03 -0.15907530817E+02 -0.28980147257E+03  0.33347006748E+03  0.12499645164E+03 0.  0.
          5    1    3    3  502    0 -0.12072717517E+03  0.30392827439E+02 -0.10968985028E+03  0.16599014441E+03  0.47000000000E+01 0. -1.
         -5    1    3    3    0  502  0.14236659440E+02 -0.14485296623E+02  0.13640766442E+02  0.24913185252E+02  0.47000000000E+01 0. -1.
          5    1    4    4  503    0  0.13126064062E+03 -0.23276641781E+02 -0.26789361049E+03  0.29926615975E+03  0.47000000000E+01 0.  1.
         -5    1    4    4    0  503 -0.24770124885E+02  0.73691109642E+01 -0.21907862076E+02  0.34203907730E+02  0.47000000000E+01 0.  1.
<mgrwt>
<rscale>  0 0.16497981E+03</rscale>
<asrwt>0</asrwt>
<pdfrwt beam="2">  1        5 0.70017225E-01 0.16498077E+03</pdfrwt>
<pdfrwt beam="1">  1       -5 0.10655603E-01 0.16498077E+03</pdfrwt>
<totfact> 0.10049079E+02</totfact>
</mgrwt>
</event>
<event>
 8    1  0.3759079E-007  0.1429060E+03  0.7546771E-02  0.1209472E+00
          5   -1    0    0  501    0  0.00000000000E+00  0.00000000000E+00  0.11213117428E+03  0.11222963177E+03  0.47000000000E+01 0.  1.
         -5   -1    0    0    0  501 -0.00000000000E+00 -0.00000000000E+00 -0.23179833418E+03  0.23184597846E+03  0.47000000000E+01 0.  1.
         25    2    1    2    0    0  0.77325239172E+01  0.68821001682E+02 -0.13961557431E+03  0.19978644348E+03  0.12500396877E+03 0.  0.
         25    2    1    2    0    0 -0.77325239172E+01 -0.68821001682E+02  0.19948414422E+02  0.14428916675E+03  0.12500120881E+03 0.  0.
          5    1    4    4  502    0  0.54538804297E+02 -0.57525055627E+02  0.95407396876E+01  0.79979553093E+02  0.47000000000E+01 0.  1.
         -5    1    4    4    0  502 -0.62271328215E+02 -0.11295946055E+02  0.10407674735E+02  0.64309613654E+02  0.47000000000E+01 0.  1.
          5    1    3    3  503    0 -0.25560626717E+01 -0.13214314875E+02 -0.11138746394E+03  0.11229607606E+03  0.47000000000E+01 0. -1.
         -5    1    3    3    0  503  0.10288586589E+02  0.82035316557E+02 -0.28228110372E+02  0.87490367423E+02  0.47000000000E+01 0. -1.
<mgrwt>
<rscale>  0 0.14290536E+03</rscale>
<asrwt>0</asrwt>
<pdfrwt beam="1">  1        5 0.17262189E-01 0.14290596E+03</pdfrwt>
<pdfrwt beam="2">  1       -5 0.35672521E-01 0.14290596E+03</pdfrwt>
<totfact> 0.16947818E+02</totfact>
</mgrwt>
</event>
<event>
 8    1  0.3759079E-007  0.1664711E+03  0.7546771E-02  0.1181580E+00
         -5   -1    0    0    0  501 -0.00000000000E+00  0.00000000000E+00  0.30964297309E+03  0.30967864115E+03  0.47000000000E+01 0.  1.
          5   -1    0    0  501    0  0.00000000000E+00 -0.00000000000E+00 -0.11368622982E+03  0.11378334171E+03  0.47000000000E+01 0.  1.
         25    2    1    2    0    0  0.44461798557E+02  0.10054708973E+03  0.19578933075E+03  0.25699436504E+03  0.12500429129E+03 0.  0.
         25    2    1    2    0    0 -0.44461798557E+02 -0.10054708973E+03  0.16741252372E+00  0.16646761782E+03  0.12499948389E+03 0.  0.
          5    1    3    3  502    0 -0.35893216657E+02  0.66488056319E+02  0.11679939858E+03  0.13918755025E+03  0.47000000000E+01 0.  1.
         -5    1    3    3    0  502  0.80355015214E+02  0.34059033415E+02  0.78989932166E+02  0.11780681479E+03  0.47000000000E+01 0.  1.
          5    1    4    4  503    0 -0.69298318511E+01 -0.12130718949E+02 -0.54081440327E+02  0.56054162197E+02  0.47000000000E+01 0. -1.
         -5    1    4    4    0  503 -0.37531966706E+02 -0.88416370785E+02  0.54248852851E+02  0.11041345563E+03  0.47000000000E+01 0. -1.
<mgrwt>
<rscale>  0 0.16647024E+03</rscale>
<asrwt>0</asrwt>
<pdfrwt beam="2">  1        5 0.17500403E-01 0.16647114E+03</pdfrwt>
<pdfrwt beam="1">  1       -5 0.47647594E-01 0.16647114E+03</pdfrwt>
<totfact> 0.95530642E+01</totfact>
</mgrwt>
</event>
<event>
 8    1  0.3759079E-007  0.1393545E+03  0.7546771E-02  0.1214201E+00
          5   -1    0    0  501    0  0.00000000000E+00  0.00000000000E+00  0.11420893465E+03  0.11430560246E+03  0.47000000000E+01 0. -1.
         -5   -1    0    0    0  501 -0.00000000000E+00 -0.00000000000E+00 -0.17526963967E+03  0.17533264553E+03  0.47000000000E+01 0. -1.
         25    2    1    2    0    0 -0.49635731479E+02  0.36483914534E+02 -0.56028546587E+02  0.15019609179E+03  0.12499954438E+03 0.  0.
         25    2    1    2    0    0  0.49635731479E+02 -0.36483914534E+02 -0.50321584361E+01  0.13944215620E+03  0.12499604173E+03 0.  0.
          5    1    4    4  502    0  0.30502311843E+02 -0.78811146790E+02 -0.25598708802E+02  0.88424949977E+02  0.47000000000E+01 0.  1.
         -5    1    4    4    0  502  0.19133419636E+02  0.42327232255E+02  0.20566550366E+02  0.51017206228E+02  0.47000000000E+01 0.  1.
          5    1    3    3  503    0 -0.44207922492E+02  0.33682126430E+02 -0.95166358468E+02  0.11030662644E+03  0.47000000000E+01 0. -1.
         -5    1    3    3    0  503 -0.54278089872E+01  0.28017881039E+01  0.39137811881E+02  0.39889465348E+02  0.47000000000E+01 0. -1.
<mgrwt>
<rscale>  0 0.13935368E+03</rscale>
<asrwt>0</asrwt>
<pdfrwt beam="1">  1        5 0.17582888E-01 0.13935447E+03</pdfrwt>
<pdfrwt beam="2">  1       -5 0.26976843E-01 0.13935447E+03</pdfrwt>
<totfact> 0.28191410E+02</totfact>
</mgrwt>
</event>
<event>
 8    1  0.3759079E-007  0.1530674E+03  0.7546771E-02  0.1196764E+00
          5   -1    0    0  501    0  0.00000000000E+00  0.00000000000E+00  0.28637842312E+03  0.28641698838E+03  0.47000000000E+01 0. -1.
         -5   -1    0    0    0  501 -0.00000000000E+00 -0.00000000000E+00 -0.82010080555E+02  0.82144648716E+02  0.47000000000E+01 0. -1.
         25    2    1    2    0    0 -0.34873533997E+02  0.81103389701E+02  0.90562347675E+02  0.17782246700E+03  0.12500147103E+03 0.  0.
         25    2    1    2    0    0  0.34873533997E+02 -0.81103389701E+02  0.11380599490E+03  0.19073917009E+03  0.12504280603E+03 0.  0.
          5    1    3    3  502    0 -0.32111023548E+01 -0.32658755447E+02  0.31399401859E+02  0.45660901467E+02  0.47000000000E+01 0. -1.
         -5    1    3    3    0  502 -0.31662431642E+02  0.11376214515E+03  0.59162945815E+02  0.13216156553E+03  0.47000000000E+01 0. -1.
          5    1    4    4  503    0 -0.62489495163E+01 -0.97217843336E+02  0.41746722895E+02  0.10609070320E+03  0.47000000000E+01 0.  1.
         -5    1    4    4    0  503  0.41122483513E+02  0.16114453635E+02  0.72059272000E+02  0.84648466894E+02  0.47000000000E+01 0.  1.
<mgrwt>
<rscale>  0 0.15305895E+03</rscale>
<asrwt>0</asrwt>
<pdfrwt beam="1">  1        5 0.44071537E-01 0.15306739E+03</pdfrwt>
<pdfrwt beam="2">  1       -5 0.12630253E-01 0.15306739E+03</pdfrwt>
<totfact> 0.19802241E+02</totfact>
</mgrwt>
</event>
<event>
 8    1  0.3759079E-007  0.1288589E+03  0.7546771E-02  0.1229159E+00
          5   -1    0    0  501    0  0.00000000000E+00  0.00000000000E+00  0.29946778594E+03  0.29950466576E+03  0.47000000000E+01 0.  1.
         -5   -1    0    0    0  501 -0.00000000000E+00 -0.00000000000E+00 -0.65044207661E+02  0.65213794171E+02  0.47000000000E+01 0.  1.
         25    2    1    2    0    0  0.30480498341E+02 -0.70887110229E+01  0.46774371110E+02  0.13708559904E+03  0.12500123627E+03 0.  0.
         25    2    1    2    0    0 -0.30480498341E+02  0.70887110229E+01  0.18764920717E+03  0.22763286090E+03  0.12500073522E+03 0.  0.
          5    1    3    3  502    0  0.26702879151E+02  0.51999524900E+02  0.50754742825E+02  0.77557257971E+02  0.47000000000E+01 0.  1.
         -5    1    3    3    0  502  0.37776191908E+01 -0.59088235923E+02 -0.39803717149E+01  0.59528341067E+02  0.47000000000E+01 0.  1.
          5    1    4    4  503    0  0.48671100511E+02  0.14824334895E+01  0.80871413322E+02  0.94516396073E+02  0.47000000000E+01 0. -1.
         -5    1    4    4    0  503 -0.79151598852E+02  0.56062775333E+01  0.10677779384E+03  0.13311646482E+03  0.47000000000E+01 0. -1.
<mgrwt>
<rscale>  0 0.12885879E+03</rscale>
<asrwt>0</asrwt>
<pdfrwt beam="1">  1        5 0.46087850E-01 0.12885891E+03</pdfrwt>
<pdfrwt beam="2">  1       -5 0.10022683E-01 0.12885891E+03</pdfrwt>
<totfact> 0.25585920E+02</totfact>
</mgrwt>
</event>
<event>
 8    1  0.3759079E-007  0.1315055E+03  0.7546771E-02  0.1225271E+00
         -5   -1    0    0    0  501 -0.00000000000E+00  0.00000000000E+00  0.12591323049E+02  0.13439918755E+02  0.47000000000E+01 0.  1.
          5   -1    0    0  501    0  0.00000000000E+00 -0.00000000000E+00 -0.14527717659E+04  0.14527793686E+04  0.47000000000E+01 0.  1.
         25    2    1    2    0    0 -0.35507508785E+02 -0.19963364648E+02 -0.50417501569E+03  0.52102097483E+03  0.12494435026E+03 0.  0.
         25    2    1    2    0    0  0.35507508785E+02  0.19963364648E+02 -0.93600542714E+03  0.94519831249E+03  0.12503747914E+03 0.  0.
          5    1    3    3  502    0 -0.77651267582E+02 -0.36455983664E+02 -0.32729648891E+03  0.33838416002E+03  0.47000000000E+01 0. -1.
         -5    1    3    3    0  502  0.42143758797E+02  0.16492619016E+02 -0.17687852678E+03  0.18263681481E+03  0.47000000000E+01 0. -1.
          5    1    4    4  503    0  0.74413504770E+02  0.30325161390E+02 -0.77498864944E+03  0.77915754625E+03  0.47000000000E+01 0.  1.
         -5    1    4    4    0  503 -0.38905995984E+02 -0.10361796742E+02 -0.16101677769E+03  0.16604076624E+03  0.47000000000E+01 0.  1.
<mgrwt>
<rscale>  0 0.13148333E+03</rscale>
<asrwt>0</asrwt>
<pdfrwt beam="2">  1        5 0.22356908E+00 0.13150548E+03</pdfrwt>
<pdfrwt beam="1">  1       -5 0.20029892E-02 0.13150548E+03</pdfrwt>
<totfact> 0.69793499E+01</totfact>
</mgrwt>
</event>
<event>
 8    1  0.3759079E-007  0.1838720E+03  0.7546771E-02  0.1164109E+00
         -5   -1    0    0    0  501 -0.00000000000E+00  0.00000000000E+00  0.55437036869E+03  0.55439029184E+03  0.47000000000E+01 0.  1.
          5   -1    0    0  501    0  0.00000000000E+00 -0.00000000000E+00 -0.68699709382E+02  0.68860293850E+02  0.47000000000E+01 0.  1.
         25    2    1    2    0    0  0.13250015093E+03  0.24980454385E+02  0.34787511781E+03  0.39347934162E+03  0.12501432554E+03 0.  0.
         25    2    1    2    0    0 -0.13250015093E+03 -0.24980454385E+02  0.13779554150E+03  0.22977124407E+03  0.12500760075E+03 0.  0.
          5    1    4    4  502    0  0.42352675204E+01  0.16361667197E+02  0.68916090236E+02  0.71113705696E+02  0.47000000000E+01 0.  1.
         -5    1    4    4    0  502 -0.13673541845E+03 -0.41342121582E+02  0.68879451262E+02  0.15865753837E+03  0.47000000000E+01 0.  1.
          5    1    3    3  503    0  0.28724843142E+02 -0.46152602498E+02  0.72966476190E+02  0.91111887141E+02  0.47000000000E+01 0.  1.
         -5    1    3    3    0  503  0.10377530779E+03  0.71133056883E+02  0.27490864162E+03  0.30236745448E+03  0.47000000000E+01 0.  1.
<mgrwt>
<rscale>  0 0.18387081E+03</rscale>
<asrwt>0</asrwt>
<pdfrwt beam="2">  1        5 0.10583071E-01 0.18387195E+03</pdfrwt>
<pdfrwt beam="1">  1       -5 0.85301636E-01 0.18387195E+03</pdfrwt>
<totfact> 0.66501612E+01</totfact>
</mgrwt>
</event>
<event>
 8    1  0.3759079E-007  0.1289841E+03  0.7546771E-02  0.1228972E+00
         -5   -1    0    0    0  501 -0.00000000000E+00  0.00000000000E+00  0.38563778811E+02  0.38849131730E+02  0.47000000000E+01 0. -1.
          5   -1    0    0  501    0  0.00000000000E+00 -0.00000000000E+00 -0.47520162773E+03  0.47522486993E+03  0.47000000000E+01 0. -1.
         25    2    1    2    0    0  0.21639472520E+02  0.23312956105E+02 -0.13864967598E+03  0.18936903453E+03  0.12500055158E+03 0.  0.
         25    2    1    2    0    0 -0.21639472520E+02 -0.23312956105E+02 -0.29798817294E+03  0.32470496713E+03  0.12499841508E+03 0.  0.
          5    1    3    3  502    0 -0.32942355727E+02  0.52447270871E+02 -0.95005975830E+02  0.11350832774E+03  0.47000000000E+01 0.  1.
         -5    1    3    3    0  502  0.54581828247E+02 -0.29134314766E+02 -0.43643700148E+02  0.75860706787E+02  0.47000000000E+01 0.  1.
          5    1    4    4  503    0 -0.25013435039E+02 -0.73545176396E+02 -0.16513737929E+03  0.18255686496E+03  0.47000000000E+01 0.  1.
         -5    1    4    4    0  503  0.33739625194E+01  0.50232220291E+02 -0.13285079365E+03  0.14214810217E+03  0.47000000000E+01 0.  1.
<mgrwt>
<rscale>  0 0.12898358E+03</rscale>
<asrwt>0</asrwt>
<pdfrwt beam="2">  1        5 0.73131677E-01 0.12898410E+03</pdfrwt>
<pdfrwt beam="1">  1       -5 0.59566275E-02 0.12898410E+03</pdfrwt>
<totfact> 0.22820937E+02</totfact>
</mgrwt>
</event>
<event>
 8    1  0.3759079E-007  0.1860986E+03  0.7546771E-02  0.1162029E+00
         -5   -1    0    0    0  501 -0.00000000000E+00  0.00000000000E+00  0.16142514890E+03  0.16149355621E+03  0.47000000000E+01 0. -1.
          5   -1    0    0  501    0  0.00000000000E+00 -0.00000000000E+00 -0.29618871542E+03  0.29622600349E+03  0.47000000000E+01 0. -1.
         25    2    1    2    0    0 -0.73656538770E+00  0.13786268034E+03  0.52858819384E+02  0.19345674107E+03  0.12499917888E+03 0.  0.
         25    2    1    2    0    0  0.73656538770E+00 -0.13786268034E+03 -0.18762238590E+03  0.26426281863E+03  0.12500406578E+03 0.  0.
          5    1    4    4  502    0 -0.56029363294E+02 -0.33114734915E+02 -0.83443972621E+02  0.10592856926E+03  0.47000000000E+01 0. -1.
         -5    1    4    4    0  502  0.56765928682E+02 -0.10474794542E+03 -0.10417841328E+03  0.15833424937E+03  0.47000000000E+01 0. -1.
          5    1    3    3  503    0 -0.25022153205E+02  0.96089940409E+02 -0.24265984240E+02  0.10232454637E+03  0.47000000000E+01 0.  1.
         -5    1    3    3    0  503  0.24285587817E+02  0.41772739929E+02  0.77124803624E+02  0.91132194700E+02  0.47000000000E+01 0.  1.
<mgrwt>
<rscale>  0 0.18609775E+03</rscale>
<asrwt>0</asrwt>
<pdfrwt beam="2">  1        5 0.45575625E-01 0.18609857E+03</pdfrwt>
<pdfrwt beam="1">  1       -5 0.24842769E-01 0.18609857E+03</pdfrwt>
<totfact> 0.55974076E+01</totfact>
</mgrwt>
</event>
<event>
 8    1  0.3759079E-007  0.2218462E+03  0.7546771E-02  0.1132515E+00
         -5   -1    0    0    0  501 -0.00000000000E+00  0.00000000000E+00  0.16021103676E+03  0.16027996225E+03  0.47000000000E+01 0. -1.
          5   -1    0    0  501    0  0.00000000000E+00 -0.00000000000E+00 -0.39121125665E+03  0.39123948846E+03  0.47000000000E+01 0. -1.
         25    2    1    2    0    0  0.58372151551E+02  0.17373402687E+03  0.12399515106E+02  0.22218807350E+03  0.12499188719E+03 0.  0.
         25    2    1    2    0    0 -0.58372151551E+02 -0.17373402687E+03 -0.24339973500E+03  0.32933137721E+03  0.12499961940E+03 0.  0.
          5    1    4    4  502    0 -0.42443767185E+02 -0.15728518282E+03 -0.25546575301E+03  0.30302630755E+03  0.47000000000E+01 0. -1.
         -5    1    4    4    0  502 -0.15928384366E+02 -0.16448844049E+02  0.12066018013E+02  0.26305069659E+02  0.47000000000E+01 0. -1.
          5    1    3    3  503    0 -0.78120181690E+01  0.15097879693E+03  0.19259418039E+01  0.15126607023E+03  0.47000000000E+01 0.  1.
         -5    1    3    3    0  503  0.66184169720E+02  0.22755229937E+02  0.10473573302E+02  0.70922003276E+02  0.47000000000E+01 0.  1.
<mgrwt>
<rscale>  0 0.22184509E+03</rscale>
<asrwt>0</asrwt>
<pdfrwt beam="2">  1        5 0.60193820E-01 0.22184617E+03</pdfrwt>
<pdfrwt beam="1">  1       -5 0.24655326E-01 0.22184617E+03</pdfrwt>
<totfact> 0.32652371E+01</totfact>
</mgrwt>
</event>
<event>
 8    1  0.3759079E-007  0.1260932E+03  0.7546771E-02  0.1233374E+00
         -5   -1    0    0    0  501 -0.00000000000E+00  0.00000000000E+00  0.86646675900E+02  0.86774053983E+02  0.47000000000E+01 0. -1.
          5   -1    0    0  501    0  0.00000000000E+00 -0.00000000000E+00 -0.18389252718E+03  0.18395257963E+03  0.47000000000E+01 0. -1.
         25    2    1    2    0    0  0.12409741442E+02 -0.10881461546E+02 -0.56967883798E+02  0.13835670417E+03  0.12499931966E+03 0.  0.
         25    2    1    2    0    0 -0.12409741442E+02  0.10881461546E+02 -0.40277967481E+02  0.13236992945E+03  0.12500830240E+03 0.  0.
          5    1    3    3  502    0  0.46897420101E+02 -0.48381275641E+02 -0.88507967278E+01  0.68121527049E+02  0.47000000000E+01 0.  1.
         -5    1    3    3    0  502 -0.34487678658E+02  0.37499814095E+02 -0.48117087070E+02  0.70235177116E+02  0.47000000000E+01 0.  1.
          5    1    4    4  503    0 -0.36760952073E+02 -0.14289625129E+02  0.32594837161E+02  0.51381654247E+02  0.47000000000E+01 0. -1.
         -5    1    4    4    0  503  0.24351210630E+02  0.25171086675E+02 -0.72872804641E+02  0.80988275200E+02  0.47000000000E+01 0. -1.
<mgrwt>
<rscale>  0 0.12609093E+03</rscale>
<asrwt>0</asrwt>
<pdfrwt beam="2">  1        5 0.28305576E-01 0.12609315E+03</pdfrwt>
<pdfrwt beam="1">  1       -5 0.13344676E-01 0.12609315E+03</pdfrwt>
<totfact> 0.40861773E+02</totfact>
</mgrwt>
</event>
<event>
 8    1  0.3759079E-007  0.1486382E+03  0.7546771E-02  0.1202157E+00
          5   -1    0    0  501    0  0.00000000000E+00  0.00000000000E+00  0.11076878378E+04  0.11076978089E+04  0.47000000000E+01 0.  1.
         -5   -1    0    0    0  501 -0.00000000000E+00 -0.00000000000E+00 -0.19913085418E+02  0.20460229003E+02  0.47000000000E+01 0.  1.
         25    2    1    2    0    0  0.10696186805E+02  0.79712352794E+02  0.48094805093E+03  0.50339251056E+03  0.12499809755E+03 0.  0.
         25    2    1    2    0    0 -0.10696186805E+02 -0.79712352794E+02  0.60682670142E+03  0.62476552739E+03  0.12499940424E+03 0.  0.
          5    1    4    4  502    0  0.16901144614E+02  0.22680957956E+02  0.27218727892E+03  0.27369340392E+03  0.47000000000E+01 0.  1.
         -5    1    4    4    0  502 -0.27597331418E+02 -0.10239331075E+03  0.33463942250E+03  0.35107212347E+03  0.47000000000E+01 0.  1.
          5    1    3    3  503    0  0.56140317724E+02  0.60278460506E+02  0.17538911506E+03  0.19382636497E+03  0.47000000000E+01 0.  1.
         -5    1    3    3    0  503 -0.45444130919E+02  0.19433892287E+02  0.30555893587E+03  0.30956614559E+03  0.47000000000E+01 0.  1.
<mgrwt>
<rscale>  0 0.14863794E+03</rscale>
<asrwt>0</asrwt>
<pdfrwt beam="1">  1        5 0.17045642E+00 0.14863821E+03</pdfrwt>
<pdfrwt beam="2">  1       -5 0.31064057E-02 0.14863821E+03</pdfrwt>
<totfact> 0.82639235E+01</totfact>
</mgrwt>
</event>
<event>
 8    1  0.3759079E-007  0.1330849E+03  0.7546771E-02  0.1222952E+00
         -5   -1    0    0    0  501 -0.00000000000E+00  0.00000000000E+00  0.64832205863E+02  0.65002345473E+02  0.47000000000E+01 0. -1.
          5   -1    0    0  501    0  0.00000000000E+00 -0.00000000000E+00 -0.34177527203E+03  0.34180758706E+03  0.47000000000E+01 0. -1.
         25    2    1    2    0    0  0.17352789409E+02 -0.42237470789E+02 -0.47000873461E+02  0.14113155044E+03  0.12499563666E+03 0.  0.
         25    2    1    2    0    0 -0.17352789409E+02  0.42237470789E+02 -0.22994219271E+03  0.26567838210E+03  0.12500586982E+03 0.  0.
          5    1    3    3  502    0  0.11405923544E+02 -0.86178214978E+02 -0.21145591412E+02  0.89587978350E+02  0.47000000000E+01 0. -1.
         -5    1    3    3    0  502  0.59468658647E+01  0.43940744189E+02 -0.25855282049E+02  0.51543572085E+02  0.47000000000E+01 0. -1.
          5    1    4    4  503    0 -0.98584513962E+01  0.75788980161E+02 -0.76041118170E+02  0.10791431893E+03  0.47000000000E+01 0. -1.
         -5    1    4    4    0  503 -0.74943380123E+01 -0.33551509372E+02 -0.15390107454E+03  0.15776406317E+03  0.47000000000E+01 0. -1.
<mgrwt>
<rscale>  0 0.13308250E+03</rscale>
<asrwt>0</asrwt>
<pdfrwt beam="2">  1        5 0.52596384E-01 0.13308490E+03</pdfrwt>
<pdfrwt beam="1">  1       -5 0.99897591E-02 0.13308490E+03</pdfrwt>
<totfact> 0.19692402E+02</totfact>
</mgrwt>
</event>
<event>
 8    1  0.3759079E-007  0.1318319E+03  0.7546771E-02  0.1224771E+00
         -5   -1    0    0    0  501 -0.00000000000E+00  0.00000000000E+00  0.15926165979E+03  0.15933099597E+03  0.47000000000E+01 0. -1.
          5   -1    0    0  501    0  0.00000000000E+00 -0.00000000000E+00 -0.12668559076E+03  0.12677274512E+03  0.47000000000E+01 0. -1.
         25    2    1    2    0    0 -0.36658930545E+02  0.20303396177E+02  0.69759348952E+02  0.14915099405E+03  0.12499418856E+03 0.  0.
         25    2    1    2    0    0  0.36658930545E+02 -0.20303396177E+02 -0.37183279920E+02  0.13695274704E+03  0.12496941039E+03 0.  0.
          5    1    4    4  502    0 -0.17424171844E+02 -0.42546494914E+02  0.24093944221E+02  0.52119230060E+02  0.47000000000E+01 0. -1.
         -5    1    4    4    0  502  0.54083102389E+02  0.22243098737E+02 -0.61277224142E+02  0.84833516985E+02  0.47000000000E+01 0. -1.
          5    1    3    3  503    0  0.31918749664E+02 -0.25214623776E+02 -0.31855646503E+00  0.40948446985E+02  0.47000000000E+01 0.  1.
         -5    1    3    3    0  503 -0.68577680210E+02  0.45518019953E+02  0.70077905417E+02  0.10820254706E+03  0.47000000000E+01 0.  1.
<mgrwt>
<rscale>  0 0.13182604E+03</rscale>
<asrwt>0</asrwt>
<pdfrwt beam="2">  1        5 0.19502129E-01 0.13183191E+03</pdfrwt>
<pdfrwt beam="1">  1       -5 0.24513832E-01 0.13183191E+03</pdfrwt>
<totfact> 0.27449296E+02</totfact>
</mgrwt>
</event>
<event>
 8    1  0.3759079E-007  0.1773608E+03  0.7546771E-02  0.1170382E+00
          5   -1    0    0  501    0  0.00000000000E+00  0.00000000000E+00  0.10596959671E+04  0.10597063898E+04  0.47000000000E+01 0. -1.
         -5   -1    0    0    0  501 -0.00000000000E+00 -0.00000000000E+00 -0.34653321908E+02  0.34970597925E+02  0.47000000000E+01 0. -1.
         25    2    1    2    0    0  0.11209894791E+03  0.57144130061E+02  0.30228177327E+03  0.35047270086E+03  0.12500087149E+03 0.  0.
         25    2    1    2    0    0 -0.11209894791E+03 -0.57144130061E+02  0.72276087192E+03  0.74420428692E+03  0.12500046784E+03 0.  0.
          5    1    3    3  502    0 -0.49909120312E+01  0.30595681416E+01  0.15279578683E+03  0.15298010535E+03  0.47000000000E+01 0. -1.
         -5    1    3    3    0  502  0.11708985994E+03  0.54084561919E+02  0.14948598644E+03  0.19749259550E+03  0.47000000000E+01 0. -1.
          5    1    4    4  503    0 -0.60693112929E+02 -0.16729582520E+02  0.10176189848E+03  0.11975436055E+03  0.47000000000E+01 0. -1.
         -5    1    4    4    0  503 -0.51405834979E+02 -0.40414547541E+02  0.62099897344E+03  0.62444992637E+03  0.47000000000E+01 0. -1.
<mgrwt>
<rscale>  0 0.17736070E+03</rscale>
<asrwt>0</asrwt>
<pdfrwt beam="1">  1        5 0.16305537E+00 0.17736077E+03</pdfrwt>
<pdfrwt beam="2">  1       -5 0.53564875E-02 0.17736077E+03</pdfrwt>
<totfact> 0.40159122E+01</totfact>
</mgrwt>
</event>
<event>
 8    1  0.3759079E-007  0.1251707E+03  0.7546771E-02  0.1234806E+00
         -5   -1    0    0    0  501 -0.00000000000E+00  0.00000000000E+00  0.21703666318E+03  0.21708754723E+03  0.47000000000E+01 0. -1.
          5   -1    0    0  501    0  0.00000000000E+00 -0.00000000000E+00 -0.86009221979E+02  0.86137542717E+02  0.47000000000E+01 0. -1.
         25    2    1    2    0    0 -0.58256638335E+01  0.28349177369E+01  0.12652986602E+03  0.17798178919E+03  0.12500294065E+03 0.  0.
         25    2    1    2    0    0  0.58256638335E+01 -0.28349177369E+01  0.44975751832E+01  0.12524330076E+03  0.12499472423E+03 0.  0.
          5    1    4    4  502    0 -0.12249435256E+00 -0.58815126288E+02  0.26419629229E+02  0.64647667349E+02  0.47000000000E+01 0. -1.
         -5    1    4    4    0  502  0.59481581861E+01  0.55980208551E+02 -0.21922054046E+02  0.60595633414E+02  0.47000000000E+01 0. -1.
          5    1    3    3  503    0 -0.53572333390E+02  0.37851559208E+02  0.67625515996E+02  0.94329400788E+02  0.47000000000E+01 0. -1.
         -5    1    3    3    0  503  0.47746669556E+02 -0.35016641471E+02  0.58904350021E+02  0.83652388400E+02  0.47000000000E+01 0. -1.
<mgrwt>
<rscale>  0 0.12516867E+03</rscale>
<asrwt>0</asrwt>
<pdfrwt beam="2">  1        5 0.13245973E-01 0.12517072E+03</pdfrwt>
<pdfrwt beam="1">  1       -5 0.33404040E-01 0.12517072E+03</pdfrwt>
<totfact> 0.29820449E+02</totfact>
</mgrwt>
</event>
<event>
 8    1  0.3759079E-007  0.1663131E+03  0.7546771E-02  0.1181759E+00
         -5   -1    0    0    0  501 -0.00000000000E+00  0.00000000000E+00  0.57256762237E+02  0.57449341353E+02  0.47000000000E+01 0. -1.
          5   -1    0    0  501    0  0.00000000000E+00 -0.00000000000E+00 -0.58573148631E+03  0.58575034277E+03  0.47000000000E+01 0. -1.
         25    2    1    2    0    0  0.89716534738E+02 -0.63022331430E+02 -0.12891965709E+03  0.21042888908E+03  0.12505666120E+03 0.  0.
         25    2    1    2    0    0 -0.89716534738E+02  0.63022331430E+02 -0.39955506699E+03  0.43277079505E+03  0.12500175450E+03 0.  0.
          5    1    3    3  502    0 -0.25374044525E+01 -0.39141868625E+02  0.11061839199E+02  0.41024122017E+02  0.47000000000E+01 0. -1.
         -5    1    3    3    0  502  0.92253939191E+02 -0.23880462804E+02 -0.13998149628E+03  0.16940476706E+03  0.47000000000E+01 0. -1.
          5    1    4    4  503    0 -0.12103769434E+03  0.49424134423E+02 -0.33398708125E+03  0.35869531493E+03  0.47000000000E+01 0. -1.
         -5    1    4    4    0  503  0.31321159599E+02  0.13598197007E+02 -0.65567985740E+02  0.74075480116E+02  0.47000000000E+01 0. -1.
<mgrwt>
<rscale>  0 0.16630275E+03</rscale>
<asrwt>0</asrwt>
<pdfrwt beam="2">  1        5 0.90128797E-01 0.16631308E+03</pdfrwt>
<pdfrwt beam="1">  1       -5 0.88249973E-02 0.16631308E+03</pdfrwt>
<totfact> 0.77931229E+01</totfact>
</mgrwt>
</event>
<event>
 8    1  0.3759079E-007  0.1437851E+03  0.7546771E-02  0.1208326E+00
          5   -1    0    0  501    0  0.00000000000E+00  0.00000000000E+00  0.30688164819E+03  0.30691763716E+03  0.47000000000E+01 0.  1.
         -5   -1    0    0    0  501 -0.00000000000E+00 -0.00000000000E+00 -0.67370390846E+02  0.67534136278E+02  0.47000000000E+01 0.  1.
         25    2    1    2    0    0 -0.45051839384E+02 -0.54946062845E+02  0.11169895904E+03  0.18207155290E+03  0.12499861947E+03 0.  0.
         25    2    1    2    0    0  0.45051839384E+02  0.54946062845E+02  0.12781229831E+03  0.19238022054E+03  0.12500171040E+03 0.  0.
          5    1    3    3  502    0  0.11385891291E+02 -0.27359194241E+02  0.11513772531E+03  0.11898298122E+03  0.47000000000E+01 0. -1.
         -5    1    3    3    0  502 -0.56437730675E+02 -0.27586868604E+02 -0.34387662659E+01  0.63088571680E+02  0.47000000000E+01 0. -1.
          5    1    4    4  503    0  0.84001203082E+02  0.49152617239E+02  0.61839235804E+02  0.11540521212E+03  0.47000000000E+01 0.  1.
         -5    1    4    4    0  503 -0.38949363698E+02  0.57934456067E+01  0.65973062501E+02  0.76975008413E+02  0.47000000000E+01 0.  1.
<mgrwt>
<rscale>  0 0.14378447E+03</rscale>
<asrwt>0</asrwt>
<pdfrwt beam="1">  1        5 0.47227925E-01 0.14378514E+03</pdfrwt>
<pdfrwt beam="2">  1       -5 0.10380040E-01 0.14378514E+03</pdfrwt>
<totfact> 0.23742578E+02</totfact>
</mgrwt>
</event>
<event>
 8    1  0.3759079E-007  0.1840728E+03  0.7546771E-02  0.1163919E+00
          5   -1    0    0  501    0  0.00000000000E+00  0.00000000000E+00  0.88703707392E+03  0.88704952540E+03  0.47000000000E+01 0.  1.
         -5   -1    0    0    0  501 -0.00000000000E+00 -0.00000000000E+00 -0.58183035037E+02  0.58372558331E+02  0.47000000000E+01 0.  1.
         25    2    1    2    0    0 -0.64350466778E+02  0.11881252781E+03  0.13688359520E+03  0.22938723269E+03  0.12499593813E+03 0.  0.
         25    2    1    2    0    0  0.64350466778E+02 -0.11881252781E+03  0.69197044368E+03  0.71603485104E+03  0.12500165450E+03 0.  0.
          5    1    4    4  502    0  0.91258165306E+02 -0.11503238182E+03  0.64543055023E+03  0.66193896001E+03  0.47000000000E+01 0. -1.
         -5    1    4    4    0  502 -0.26907698528E+02 -0.37801459862E+01  0.46539893455E+02  0.54095891032E+02  0.47000000000E+01 0. -1.
          5    1    3    3  503    0 -0.50587783742E+02 -0.10514790838E+02  0.24237360574E+02  0.57264512029E+02  0.47000000000E+01 0. -1.
         -5    1    3    3    0  503 -0.13762683036E+02  0.12932731865E+03  0.11264623462E+03  0.17212272066E+03  0.47000000000E+01 0. -1.
<mgrwt>
<rscale>  0 0.18407188E+03</rscale>
<asrwt>0</asrwt>
<pdfrwt beam="1">  1        5 0.13648277E+00 0.18407285E+03</pdfrwt>
<pdfrwt beam="2">  1       -5 0.89667733E-02 0.18407285E+03</pdfrwt>
<totfact> 0.27464308E+01</totfact>
</mgrwt>
</event>
<event>
 8    1  0.3759079E-007  0.1257839E+03  0.7546771E-02  0.1233874E+00
         -5   -1    0    0    0  501 -0.00000000000E+00  0.00000000000E+00  0.19568178733E+04  0.19568235177E+04  0.47000000000E+01 0. -1.
          5   -1    0    0  501    0  0.00000000000E+00 -0.00000000000E+00 -0.73921809358E+01  0.87598138672E+01  0.47000000000E+01 0. -1.
         25    2    1    2    0    0  0.37336558791E+01  0.13503752556E+02  0.98191272615E+03  0.98993645299E+03  0.12500115061E+03 0.  0.
         25    2    1    2    0    0 -0.37336558791E+01 -0.13503752556E+02  0.96751296625E+03  0.97564687858E+03  0.12493678520E+03 0.  0.
          5    1    3    3  502    0  0.30230089985E+02  0.62183911853E+02  0.60138254370E+03  0.60536249562E+03  0.47000000000E+01 0.  1.
         -5    1    3    3    0  502 -0.26496434106E+02 -0.48680159297E+02  0.38053018245E+03  0.38457395737E+03  0.47000000000E+01 0.  1.
          5    1    4    4  503    0  0.42761649914E+02 -0.16618047628E+02  0.15326510128E+03  0.16005311456E+03  0.47000000000E+01 0.  1.
         -5    1    4    4    0  503 -0.46495305793E+02  0.31142950723E+01  0.81424786497E+03  0.81559376402E+03  0.47000000000E+01 0.  1.
<mgrwt>
<rscale>  0 0.12576786E+03</rscale>
<asrwt>0</asrwt>
<pdfrwt beam="2">  1        5 0.12428943E-02 0.12578386E+03</pdfrwt>
<pdfrwt beam="1">  1       -5 0.30115479E+00 0.12578386E+03</pdfrwt>
<totfact> 0.47136399E+01</totfact>
</mgrwt>
</event>
<event>
 8    1  0.3759079E-007  0.1357888E+03  0.7546771E-02  0.1219111E+00
          5   -1    0    0  501    0  0.00000000000E+00  0.00000000000E+00  0.22871165003E+03  0.22875993718E+03  0.47000000000E+01 0. -1.
         -5   -1    0    0    0  501 -0.00000000000E+00 -0.00000000000E+00 -0.82643964405E+02  0.82777502092E+02  0.47000000000E+01 0. -1.
         25    2    1    2    0    0  0.50950570865E+02 -0.14733419838E+02  0.47935972194E+02  0.14400108728E+03  0.12500168549E+03 0.  0.
         25    2    1    2    0    0 -0.50950570865E+02  0.14733419838E+02  0.98131713427E+02  0.16753635199E+03  0.12500224689E+03 0.  0.
          5    1    4    4  502    0  0.24955076106E+02  0.41263251010E+02  0.12628393626E+02  0.50069731705E+02  0.47000000000E+01 0. -1.
         -5    1    4    4    0  502 -0.75905646971E+02 -0.26529831173E+02  0.85503319800E+02  0.11746662028E+03  0.47000000000E+01 0. -1.
          5    1    3    3  503    0  0.69625742691E+02 -0.56313080881E+02  0.27209556875E+02  0.93708895570E+02  0.47000000000E+01 0. -1.
         -5    1    3    3    0  503 -0.18675171826E+02  0.41579661043E+02  0.20726415319E+02  0.50292191711E+02  0.47000000000E+01 0. -1.
<mgrwt>
<rscale>  0 0.13578866E+03</rscale>
<asrwt>0</asrwt>
<pdfrwt beam="1">  1        5 0.35200394E-01 0.13578879E+03</pdfrwt>
<pdfrwt beam="2">  1       -5 0.12728442E-01 0.13578879E+03</pdfrwt>
<totfact> 0.29691776E+02</totfact>
</mgrwt>
</event>
<event>
 8    1  0.3759079E-007  0.1378080E+03  0.7546771E-02  0.1216311E+00
          5   -1    0    0  501    0  0.00000000000E+00  0.00000000000E+00  0.86950248859E+02  0.87077182870E+02  0.47000000000E+01 0. -1.
         -5   -1    0    0    0  501 -0.00000000000E+00 -0.00000000000E+00 -0.24319905402E+03  0.24324446525E+03  0.47000000000E+01 0. -1.
         25    2    1    2    0    0 -0.53451712297E+02 -0.22568258916E+02 -0.13117402548E+03  0.19025687854E+03  0.12499857205E+03 0.  0.
         25    2    1    2    0    0  0.53451712297E+02  0.22568258916E+02 -0.25074779675E+02  0.14006476957E+03  0.12499193271E+03 0.  0.
          5    1    4    4  502    0  0.23433815630E+02 -0.17988072353E+02  0.44726818720E+02  0.53807924832E+02  0.47000000000E+01 0.  1.
         -5    1    4    4    0  502  0.30017896667E+02  0.40556331269E+02 -0.69801598395E+02  0.86256844742E+02  0.47000000000E+01 0.  1.
          5    1    3    3  503    0 -0.60391941717E+02  0.34615421641E+02 -0.10671988124E+03  0.12750151800E+03  0.47000000000E+01 0. -1.
         -5    1    3    3    0  503  0.69402294194E+01 -0.57183680557E+02 -0.24454144237E+02  0.62755360543E+02  0.47000000000E+01 0. -1.
<mgrwt>
<rscale>  0 0.13780653E+03</rscale>
<asrwt>0</asrwt>
<pdfrwt beam="1">  1        5 0.13390219E-01 0.13780804E+03</pdfrwt>
<pdfrwt beam="2">  1       -5 0.37428496E-01 0.13780804E+03</pdfrwt>
<totfact> 0.24087400E+02</totfact>
</mgrwt>
</event>
<event>
 8    1  0.3759079E-007  0.1611986E+03  0.7546771E-02  0.1187352E+00
          5   -1    0    0  501    0  0.00000000000E+00  0.00000000000E+00  0.73777568760E+02  0.73927123927E+02  0.47000000000E+01 0. -1.
         -5   -1    0    0    0  501 -0.00000000000E+00 -0.00000000000E+00 -0.39178304612E+03  0.39181123673E+03  0.47000000000E+01 0. -1.
         25    2    1    2    0    0 -0.10165525274E+03 -0.53247488896E+01 -0.23349244046E+03  0.28372891896E+03  0.12498494447E+03 0.  0.
         25    2    1    2    0    0  0.10165525274E+03  0.53247488896E+01 -0.84513036903E+02  0.18200944169E+03  0.12499136010E+03 0.  0.
          5    1    3    3  502    0 -0.12571848062E+02 -0.28219507585E+02  0.15495865210E+01  0.31287109014E+02  0.47000000000E+01 0.  1.
         -5    1    3    3    0  502 -0.89083404675E+02  0.22894758696E+02 -0.23504202698E+03  0.25244180995E+03  0.47000000000E+01 0.  1.
          5    1    4    4  503    0  0.64622384002E+02 -0.27302160139E+01  0.22297748964E+02  0.68576863463E+02  0.47000000000E+01 0. -1.
         -5    1    4    4    0  503  0.37032868735E+02  0.80549649036E+01 -0.10681078587E+03  0.11343257823E+03  0.47000000000E+01 0. -1.
<mgrwt>
<rscale>  0 0.16119734E+03</rscale>
<asrwt>0</asrwt>
<pdfrwt beam="1">  1        5 0.11364068E-01 0.16119858E+03</pdfrwt>
<pdfrwt beam="2">  1       -5 0.60287986E-01 0.16119858E+03</pdfrwt>
<totfact> 0.12434276E+02</totfact>
</mgrwt>
</event>
<event>
 8    1  0.3759079E-007  0.1369692E+03  0.7546771E-02  0.1217468E+00
         -5   -1    0    0    0  501 -0.00000000000E+00  0.00000000000E+00  0.22726606419E+03  0.22731465842E+03  0.47000000000E+01 0. -1.
          5   -1    0    0  501    0  0.00000000000E+00 -0.00000000000E+00 -0.86453650814E+02  0.86581312875E+02  0.47000000000E+01 0. -1.
         25    2    1    2    0    0  0.24074238977E+02 -0.50561178516E+02  0.10426522398E+03  0.17213890244E+03  0.12499825217E+03 0.  0.
         25    2    1    2    0    0 -0.24074238977E+02  0.50561178516E+02  0.36547189390E+02  0.14175706886E+03  0.12499347088E+03 0.  0.
          5    1    4    4  502    0 -0.27921559763E+02  0.87684582850E+02  0.45976377212E+02  0.10297629257E+03  0.47000000000E+01 0. -1.
         -5    1    4    4    0  502  0.38473207862E+01 -0.37123404334E+02 -0.94291878225E+01  0.38780776289E+02  0.47000000000E+01 0. -1.
          5    1    3    3  503    0  0.35291070333E+01 -0.59668164532E+02  0.12661758016E+03  0.14009584598E+03  0.47000000000E+01 0. -1.
         -5    1    3    3    0  503  0.20545131944E+02  0.91069860155E+01 -0.22352356173E+02  0.32043056461E+02  0.47000000000E+01 0. -1.
<mgrwt>
<rscale>  0 0.13696812E+03</rscale>
<asrwt>0</asrwt>
<pdfrwt beam="2">  1        5 0.13314120E-01 0.13696921E+03</pdfrwt>
<pdfrwt beam="1">  1       -5 0.34977568E-01 0.13696921E+03</pdfrwt>
<totfact> 0.27833456E+02</totfact>
</mgrwt>
</event>
<event>
 8    1  0.3759079E-007  0.1721139E+03  0.7546771E-02  0.1175663E+00
         -5   -1    0    0    0  501 -0.00000000000E+00  0.00000000000E+00  0.29098028490E+02  0.29475163477E+02  0.47000000000E+01 0.  1.
          5   -1    0    0  501    0  0.00000000000E+00 -0.00000000000E+00 -0.10426154778E+04  0.10426260713E+04  0.47000000000E+01 0.  1.
         25    2    1    2    0    0 -0.46670103459E+01 -0.11820903725E+03 -0.41354170001E+03  0.44792848486E+03  0.12501212912E+03 0.  0.
         25    2    1    2    0    0  0.46670103459E+01  0.11820903725E+03 -0.59997574934E+03  0.62417274996E+03  0.12500225806E+03 0.  0.
          5    1    3    3  502    0  0.29234501792E+02  0.14447192425E+02 -0.55117339601E+02  0.64213616848E+02  0.47000000000E+01 0. -1.
         -5    1    3    3    0  502 -0.33901512138E+02 -0.13265622967E+03 -0.35842436041E+03  0.38371486801E+03  0.47000000000E+01 0. -1.
          5    1    4    4  503    0  0.60329132583E+02  0.31854363651E+02 -0.27102778584E+03  0.27952183353E+03  0.47000000000E+01 0.  1.
         -5    1    4    4    0  503 -0.55662122237E+02  0.86354673599E+02 -0.32894796350E+03  0.34465091643E+03  0.47000000000E+01 0.  1.
<mgrwt>
<rscale>  0 0.17211209E+03</rscale>
<asrwt>0</asrwt>
<pdfrwt beam="2">  1        5 0.16043218E+00 0.17211389E+03</pdfrwt>
<pdfrwt beam="1">  1       -5 0.45064458E-02 0.17211389E+03</pdfrwt>
<totfact> 0.55636859E+01</totfact>
</mgrwt>
</event>
<event>
 8    1  0.3759079E-007  0.1301607E+03  0.7546771E-02  0.1227247E+00
          5   -1    0    0  501    0  0.00000000000E+00  0.00000000000E+00  0.11690291181E+03  0.11699735377E+03  0.47000000000E+01 0. -1.
         -5   -1    0    0    0  501 -0.00000000000E+00 -0.00000000000E+00 -0.17781110943E+03  0.17787321507E+03  0.47000000000E+01 0. -1.
         25    2    1    2    0    0 -0.43717760672E+01 -0.35744621346E+02 -0.94109317373E+02  0.16061868980E+03  0.12508001245E+03 0.  0.
         25    2    1    2    0    0  0.43717760672E+01  0.35744621346E+02  0.33201119751E+02  0.13425187904E+03  0.12499784915E+03 0.  0.
          5    1    3    3  502    0  0.11608458564E+02  0.23230012971E+02 -0.95744425126E+02  0.99315027844E+02  0.47000000000E+01 0.  1.
         -5    1    3    3    0  502 -0.15980234631E+02 -0.58974634317E+02  0.16351077531E+01  0.61303661954E+02  0.47000000000E+01 0.  1.
          5    1    4    4  503    0 -0.51124875379E+02  0.38058547972E+02 -0.87251653560E+01  0.64501352441E+02  0.47000000000E+01 0. -1.
         -5    1    4    4    0  503  0.55496651446E+02 -0.23139266269E+01  0.41926285107E+02  0.69750526600E+02  0.47000000000E+01 0. -1.
<mgrwt>
<rscale>  0 0.13014093E+03</rscale>
<asrwt>0</asrwt>
<pdfrwt beam="1">  1        5 0.17997105E-01 0.13016067E+03</pdfrwt>
<pdfrwt beam="2">  1       -5 0.27367598E-01 0.13016067E+03</pdfrwt>
<totfact> 0.25652486E+02</totfact>
</mgrwt>
</event>
<event>
 8    1  0.3759079E-007  0.1290512E+03  0.7546771E-02  0.1228881E+00
         -5   -1    0    0    0  501 -0.00000000000E+00  0.00000000000E+00  0.12962678814E+02  0.13788438709E+02  0.47000000000E+01 0. -1.
          5   -1    0    0  501    0  0.00000000000E+00 -0.00000000000E+00 -0.19367662025E+04  0.19367719053E+04  0.47000000000E+01 0. -1.
         25    2    1    2    0    0  0.29775237314E+02  0.11918080157E+02 -0.37881524934E+03  0.40019394753E+03  0.12500238844E+03 0.  0.
         25    2    1    2    0    0 -0.29775237314E+02 -0.11918080157E+02 -0.15449882744E+04  0.15503663965E+04  0.12497435762E+03 0.  0.
          5    1    4    4  502    0  0.28903159368E+02  0.40493858943E+02 -0.55463774722E+03  0.55688442775E+03  0.47000000000E+01 0. -1.
         -5    1    4    4    0  502 -0.58678396681E+02 -0.52411939100E+02 -0.99035052714E+03  0.99348196874E+03  0.47000000000E+01 0. -1.
          5    1    3    3  503    0  0.85826953419E+01  0.47932034517E+02 -0.33824056325E+03  0.34176001993E+03  0.47000000000E+01 0. -1.
         -5    1    3    3    0  503  0.21192541972E+02 -0.36013954360E+02 -0.40574686090E+02  0.58433927603E+02  0.47000000000E+01 0. -1.
<mgrwt>
<rscale>  0 0.12904437E+03</rscale>
<asrwt>0</asrwt>
<pdfrwt beam="2">  1        5 0.29802777E+00 0.12905116E+03</pdfrwt>
<pdfrwt beam="1">  1       -5 0.20582185E-02 0.12905116E+03</pdfrwt>
<totfact> 0.22508564E+01</totfact>
</mgrwt>
</event>
<event>
 8    1  0.3759079E-007  0.1830439E+03  0.7546771E-02  0.1164889E+00
          5   -1    0    0  501    0  0.00000000000E+00  0.00000000000E+00  0.45232597697E+03  0.45235039454E+03  0.47000000000E+01 0.  1.
         -5   -1    0    0    0  501 -0.00000000000E+00 -0.00000000000E+00 -0.76553458831E+02  0.76697601390E+02  0.47000000000E+01 0.  1.
         25    2    1    2    0    0 -0.13242539359E+02 -0.13305506312E+03  0.13936335233E+03  0.23005912131E+03  0.12500416254E+03 0.  0.
         25    2    1    2    0    0  0.13242539359E+02  0.13305506312E+03  0.23640916581E+03  0.29898887462E+03  0.12500415513E+03 0.  0.
          5    1    3    3  502    0  0.49713531990E+02 -0.99644182982E+02  0.80207935375E+02  0.13731642787E+03  0.47000000000E+01 0.  1.
         -5    1    3    3    0  502 -0.62956071349E+02 -0.33410880140E+02  0.59155416957E+02  0.92742693441E+02  0.47000000000E+01 0.  1.
          5    1    4    4  503    0 -0.13003342643E+02  0.81524048095E+02  0.22519293832E+03  0.23989415751E+03  0.47000000000E+01 0.  1.
         -5    1    4    4    0  503  0.26245882002E+02  0.51531015027E+02  0.11216227488E+02  0.59094717114E+02  0.47000000000E+01 0.  1.
<mgrwt>
<rscale>  0 0.18304386E+03</rscale>
<asrwt>0</asrwt>
<pdfrwt beam="1">  1        5 0.69601576E-01 0.18304386E+03</pdfrwt>
<pdfrwt beam="2">  1       -5 0.11790422E-01 0.18304386E+03</pdfrwt>
<totfact> 0.87758329E+01</totfact>
</mgrwt>
</event>
<event>
 8    1  0.3759079E-007  0.1414711E+03  0.7546771E-02  0.1211364E+00
          5   -1    0    0  501    0  0.00000000000E+00  0.00000000000E+00  0.12325313772E+03  0.12334271749E+03  0.47000000000E+01 0.  1.
         -5   -1    0    0    0  501 -0.00000000000E+00 -0.00000000000E+00 -0.16220567081E+03  0.16227374909E+03  0.47000000000E+01 0.  1.
         25    2    1    2    0    0 -0.55147364530E+02  0.36710942626E+02 -0.18357965947E+02  0.14265719635E+03  0.12500054253E+03 0.  0.
         25    2    1    2    0    0  0.55147364530E+02 -0.36710942626E+02 -0.20594567144E+02  0.14295927023E+03  0.12499716647E+03 0.  0.
          5    1    3    3  502    0 -0.17929879698E+02 -0.37411754288E+02  0.25290104719E+02  0.48813925693E+02  0.47000000000E+01 0. -1.
         -5    1    3    3    0  502 -0.37217484832E+02  0.74122696914E+02 -0.43648070666E+02  0.93843270658E+02  0.47000000000E+01 0. -1.
          5    1    4    4  503    0 -0.13340938267E+02 -0.25559823044E+00  0.41263161290E+02  0.43620917505E+02  0.47000000000E+01 0.  1.
         -5    1    4    4    0  503  0.68488302797E+02 -0.36455344395E+02 -0.61857728434E+02  0.99338352724E+02  0.47000000000E+01 0.  1.
<mgrwt>
<rscale>  0 0.14147031E+03</rscale>
<asrwt>0</asrwt>
<pdfrwt beam="1">  1        5 0.18974149E-01 0.14147106E+03</pdfrwt>
<pdfrwt beam="2">  1       -5 0.24966846E-01 0.14147106E+03</pdfrwt>
<totfact> 0.28574762E+02</totfact>
</mgrwt>
</event>
<event>
 8    1  0.3759079E-007  0.2587216E+03  0.7546771E-02  0.1107915E+00
         -5   -1    0    0    0  501 -0.00000000000E+00  0.00000000000E+00  0.11161245113E+04  0.11161344071E+04  0.47000000000E+01 0.  1.
          5   -1    0    0  501    0  0.00000000000E+00 -0.00000000000E+00 -0.59929417231E+02  0.60113434851E+02  0.47000000000E+01 0.  1.
         25    2    1    2    0    0 -0.21984778032E+03 -0.54565447325E+02  0.54672755806E+03  0.60485126469E+03  0.12499438029E+03 0.  0.
         25    2    1    2    0    0  0.21984778032E+03  0.54565447325E+02  0.50946753603E+03  0.57139657729E+03  0.12500577472E+03 0.  0.
          5    1    3    3  502    0 -0.73298771396E+02 -0.17472412300E+01  0.63482948231E+02  0.97097566685E+02  0.47000000000E+01 0. -1.
         -5    1    3    3    0  502 -0.14654900892E+03 -0.52818206095E+02  0.48324460983E+03  0.50775369800E+03  0.47000000000E+01 0. -1.
          5    1    4    4  503    0  0.50588886367E+02 -0.39279139923E+02  0.10706191343E+03  0.12484562293E+03  0.47000000000E+01 0. -1.
         -5    1    4    4    0  503  0.16925889395E+03  0.93844587248E+02  0.40240562260E+03  0.44655095436E+03  0.47000000000E+01 0. -1.
<mgrwt>
<rscale>  0 0.25872025E+03</rscale>
<asrwt>0</asrwt>
<pdfrwt beam="2">  1        5 0.92348272E-02 0.25872162E+03</pdfrwt>
<pdfrwt beam="1">  1       -5 0.17172637E+00 0.25872162E+03</pdfrwt>
<totfact> 0.14821714E+01</totfact>
</mgrwt>
</event>
<event>
 8    1  0.3759079E-007  0.1280757E+03  0.7546771E-02  0.1230341E+00
         -5   -1    0    0    0  501 -0.00000000000E+00  0.00000000000E+00  0.13297501869E+02  0.14103671719E+02  0.47000000000E+01 0.  1.
          5   -1    0    0  501    0  0.00000000000E+00 -0.00000000000E+00 -0.12414630505E+04  0.12414719472E+04  0.47000000000E+01 0.  1.
         25    2    1    2    0    0 -0.25799327040E+02 -0.10608553152E+02 -0.73360685369E+03  0.74470215408E+03  0.12499654330E+03 0.  0.
         25    2    1    2    0    0  0.25799327040E+02  0.10608553152E+02 -0.49455869491E+03  0.51087346483E+03  0.12500099074E+03 0.  0.
          5    1    3    3  502    0 -0.65321334460E+02 -0.35916825098E+02 -0.32992585671E+03  0.33827511878E+03  0.47000000000E+01 0.  1.
         -5    1    3    3    0  502  0.39522007420E+02  0.25308271946E+02 -0.40368099698E+03  0.40642703530E+03  0.47000000000E+01 0.  1.
          5    1    4    4  503    0  0.16467253271E+02  0.47093477346E+02 -0.78782902577E+02  0.93369169308E+02  0.47000000000E+01 0.  1.
         -5    1    4    4    0  503  0.93320737686E+01 -0.36484924194E+02 -0.41577579233E+03  0.41750429553E+03  0.47000000000E+01 0.  1.
<mgrwt>
<rscale>  0 0.12807465E+03</rscale>
<asrwt>0</asrwt>
<pdfrwt beam="2">  1        5 0.19105692E+00 0.12807574E+03</pdfrwt>
<pdfrwt beam="1">  1       -5 0.21084679E-02 0.12807574E+03</pdfrwt>
<totfact> 0.10501347E+02</totfact>
</mgrwt>
</event>
<event>
 8    1  0.3759079E-007  0.1461280E+03  0.7546771E-02  0.1205315E+00
         -5   -1    0    0    0  501 -0.00000000000E+00  0.00000000000E+00  0.21630985160E+03  0.21636090659E+03  0.47000000000E+01 0.  1.
          5   -1    0    0  501    0  0.00000000000E+00 -0.00000000000E+00 -0.15276901064E+03  0.15284129224E+03  0.47000000000E+01 0.  1.
         25    2    1    2    0    0 -0.75121385088E+02  0.92543056039E+01  0.14164778184E+03  0.20350944535E+03  0.12499254208E+03 0.  0.
         25    2    1    2    0    0  0.75121385088E+02 -0.92543056039E+01 -0.78106940885E+02  0.16569275347E+03  0.12499811866E+03 0.  0.
          5    1    4    4  502    0 -0.14365790695E+02 -0.44666328043E+02 -0.40845478903E+02  0.62385093972E+02  0.47000000000E+01 0. -1.
         -5    1    4    4    0  502  0.89487175783E+02  0.35412022439E+02 -0.37261461983E+02  0.10330765950E+03  0.47000000000E+01 0. -1.
          5    1    3    3  503    0 -0.12793049288E+02  0.60397799678E+02  0.40125319817E+02  0.73781349991E+02  0.47000000000E+01 0. -1.
         -5    1    3    3    0  503 -0.62328335800E+02 -0.51143494074E+02  0.10152246203E+03  0.12972809536E+03  0.47000000000E+01 0. -1.
<mgrwt>
<rscale>  0 0.14612681E+03</rscale>
<asrwt>0</asrwt>
<pdfrwt beam="2">  1        5 0.23512412E-01 0.14612801E+03</pdfrwt>
<pdfrwt beam="1">  1       -5 0.33287926E-01 0.14612801E+03</pdfrwt>
<totfact> 0.11002215E+02</totfact>
</mgrwt>
</event>
<event>
 8    1  0.3759079E-007  0.1264054E+03  0.7546771E-02  0.1232889E+00
         -5   -1    0    0    0  501 -0.00000000000E+00  0.00000000000E+00  0.22980183152E+03  0.22984988965E+03  0.47000000000E+01 0. -1.
          5   -1    0    0  501    0  0.00000000000E+00 -0.00000000000E+00 -0.81077503801E+02  0.81213617224E+02  0.47000000000E+01 0. -1.
         25    2    1    2    0    0 -0.85186842102E+01  0.16772474395E+02  0.13332841784E+03  0.18372477002E+03  0.12499776093E+03 0.  0.
         25    2    1    2    0    0  0.85186842102E+01 -0.16772474395E+02  0.15395909878E+02  0.12733873685E+03  0.12499694389E+03 0.  0.
          5    1    4    4  502    0 -0.28645507629E+02 -0.24230777080E+02 -0.43188809127E+02  0.57402603591E+02  0.47000000000E+01 0. -1.
         -5    1    4    4    0  502  0.37164191839E+02  0.74583026846E+01  0.58584719005E+02  0.69936133257E+02  0.47000000000E+01 0. -1.
          5    1    3    3  503    0 -0.60740558499E+02 -0.17594295731E+01  0.33745653816E+02  0.69666133743E+02  0.47000000000E+01 0. -1.
         -5    1    3    3    0  503  0.52221874289E+02  0.18531903968E+02  0.99582764025E+02  0.11405863628E+03  0.47000000000E+01 0. -1.
<mgrwt>
<rscale>  0 0.12640519E+03</rscale>
<asrwt>0</asrwt>
<pdfrwt beam="2">  1        5 0.12487629E-01 0.12640540E+03</pdfrwt>
<pdfrwt beam="1">  1       -5 0.35368295E-01 0.12640540E+03</pdfrwt>
<totfact> 0.29657578E+02</totfact>
</mgrwt>
</event>
<event>
 8    1  0.3759079E-007  0.1347138E+03  0.7546771E-02  0.1220625E+00
          5   -1    0    0  501    0  0.00000000000E+00  0.00000000000E+00  0.16723508774E+03  0.16730111945E+03  0.47000000000E+01 0.  1.
         -5   -1    0    0    0  501 -0.00000000000E+00 -0.00000000000E+00 -0.12683424209E+03  0.12692129438E+03  0.47000000000E+01 0.  1.
         25    2    1    2    0    0  0.22493515456E+02 -0.44893923333E+02 -0.35884875639E+02  0.13941141866E+03  0.12500558693E+03 0.  0.
         25    2    1    2    0    0 -0.22493515456E+02  0.44893923333E+02  0.76285721285E+02  0.15481099517E+03  0.12500204144E+03 0.  0.
          5    1    4    4  502    0  0.32283119854E+02  0.56901436742E+02  0.73439264535E+02  0.98465165954E+02  0.47000000000E+01 0. -1.
         -5    1    4    4    0  502 -0.54776635309E+02 -0.12007513410E+02  0.28464567498E+01  0.56345829217E+02  0.47000000000E+01 0. -1.
          5    1    3    3  503    0 -0.98631364451E+01  0.16284338516E+02 -0.62201807061E+02  0.65219751173E+02  0.47000000000E+01 0.  1.
         -5    1    3    3    0  503  0.32356651901E+02 -0.61178261848E+02  0.26316931422E+02  0.74191667487E+02  0.47000000000E+01 0.  1.
<mgrwt>
<rscale>  0 0.13471302E+03</rscale>
<asrwt>0</asrwt>
<pdfrwt beam="1">  1        5 0.25740251E-01 0.13471384E+03</pdfrwt>
<pdfrwt beam="2">  1       -5 0.19524736E-01 0.13471384E+03</pdfrwt>
<totfact> 0.25132234E+02</totfact>
</mgrwt>
</event>
<event>
 8    1  0.3759079E-007  0.1306718E+03  0.7546771E-02  0.1226477E+00
          5   -1    0    0  501    0  0.00000000000E+00  0.00000000000E+00  0.19893765952E+02  0.20441426656E+02  0.47000000000E+01 0. -1.
         -5   -1    0    0    0  501 -0.00000000000E+00 -0.00000000000E+00 -0.11428299520E+04  0.11428396165E+04  0.47000000000E+01 0. -1.
         25    2    1    2    0    0 -0.37481985826E+02 -0.66996714338E+01 -0.85795882901E+03  0.86785279031E+03  0.12500131400E+03 0.  0.
         25    2    1    2    0    0  0.37481985826E+02  0.66996714338E+01 -0.26497735702E+03  0.29542825290E+03  0.12496026576E+03 0.  0.
          5    1    3    3  502    0 -0.11114823630E+02  0.52813430181E+02 -0.22031449108E+03  0.22687741777E+03  0.47000000000E+01 0. -1.
         -5    1    3    3    0  502 -0.26367162197E+02 -0.59513101615E+02 -0.63764433793E+03  0.64097537254E+03  0.47000000000E+01 0. -1.
          5    1    4    4  503    0  0.73378026484E+01  0.82594464807E+01  0.11880142698E+02  0.16890517884E+02  0.47000000000E+01 0. -1.
         -5    1    4    4    0  503  0.30144183178E+02 -0.15597750468E+01 -0.27685749972E+03  0.27853773501E+03  0.47000000000E+01 0. -1.
<mgrwt>
<rscale>  0 0.13066196E+03</rscale>
<asrwt>0</asrwt>
<pdfrwt beam="1">  1        5 0.31034514E-02 0.13067178E+03</pdfrwt>
<pdfrwt beam="2">  1       -5 0.17586281E+00 0.13067178E+03</pdfrwt>
<totfact> 0.72768187E+01</totfact>
</mgrwt>
</event>
<event>
 8    1  0.3759079E-007  0.1419309E+03  0.7546771E-02  0.1210755E+00
          5   -1    0    0  501    0  0.00000000000E+00  0.00000000000E+00  0.21343791850E+03  0.21348966029E+03  0.47000000000E+01 0.  1.
         -5   -1    0    0    0  501 -0.00000000000E+00 -0.00000000000E+00 -0.99533951843E+02  0.99644857216E+02  0.47000000000E+01 0.  1.
         25    2    1    2    0    0 -0.42692122178E+01  0.67095027368E+02  0.20929241037E+02  0.14346220352E+03  0.12499360718E+03 0.  0.
         25    2    1    2    0    0  0.42692122178E+01 -0.67095027368E+02  0.92974725617E+02  0.16967231399E+03  0.12499770263E+03 0.  0.
          5    1    3    3  502    0 -0.99608023045E+01  0.82706861854E+02 -0.30789467105E+02  0.88936628364E+02  0.47000000000E+01 0.  1.
         -5    1    3    3    0  502  0.56915900867E+01 -0.15611834486E+02  0.51718708142E+02  0.54525575151E+02  0.47000000000E+01 0.  1.
          5    1    4    4  503    0  0.33785643939E+02 -0.93016994113E+02  0.82022012031E+02  0.12862088239E+03  0.47000000000E+01 0.  1.
         -5    1    4    4    0  503 -0.29516431721E+02  0.25921966745E+02  0.10952713586E+02  0.41051431600E+02  0.47000000000E+01 0.  1.
<mgrwt>
<rscale>  0 0.14193005E+03</rscale>
<asrwt>0</asrwt>
<pdfrwt beam="1">  1        5 0.32849114E-01 0.14193095E+03</pdfrwt>
<pdfrwt beam="2">  1       -5 0.15325427E-01 0.14193095E+03</pdfrwt>
<totfact> 0.24780817E+02</totfact>
</mgrwt>
</event>
<event>
 8    1  0.3759079E-007  0.1356894E+03  0.7546771E-02  0.1219252E+00
          5   -1    0    0  501    0  0.00000000000E+00  0.00000000000E+00  0.84076160105E+02  0.84207426621E+02  0.47000000000E+01 0.  1.
         -5   -1    0    0    0  501 -0.00000000000E+00 -0.00000000000E+00 -0.33168618546E+03  0.33171948333E+03  0.47000000000E+01 0.  1.
         25    2    1    2    0    0  0.51106608509E+02  0.13177659877E+02 -0.24517856735E+03  0.28022157302E+03  0.12500425572E+03 0.  0.
         25    2    1    2    0    0 -0.51106608509E+02 -0.13177659877E+02 -0.24314580027E+01  0.13570533693E+03  0.12499796130E+03 0.  0.
          5    1    3    3  502    0  0.48738146108E+01  0.33085633833E+02 -0.42404129299E+01  0.34036514757E+02  0.47000000000E+01 0. -1.
         -5    1    3    3    0  502  0.46232793898E+02 -0.19907973956E+02 -0.24093815442E+03  0.24618505826E+03  0.47000000000E+01 0. -1.
          5    1    4    4  503    0 -0.61822337619E+02 -0.37661677835E+02 -0.44895007240E+02  0.85311517869E+02  0.47000000000E+01 0. -1.
         -5    1    4    4    0  503  0.10715729111E+02  0.24484017958E+02  0.42463549238E+02  0.50393819061E+02  0.47000000000E+01 0. -1.
<mgrwt>
<rscale>  0 0.13568790E+03</rscale>
<asrwt>0</asrwt>
<pdfrwt beam="1">  1        5 0.12947453E-01 0.13568935E+03</pdfrwt>
<pdfrwt beam="2">  1       -5 0.51041302E-01 0.13568935E+03</pdfrwt>
<totfact> 0.13373469E+02</totfact>
</mgrwt>
</event>
<event>
 8    1  0.3759079E-007  0.1365013E+03  0.7546771E-02  0.1218121E+00
          5   -1    0    0  501    0  0.00000000000E+00  0.00000000000E+00  0.21046071781E+03  0.21051319137E+03  0.47000000000E+01 0. -1.
         -5   -1    0    0    0  501 -0.00000000000E+00 -0.00000000000E+00 -0.90086469428E+02  0.90208990538E+02  0.47000000000E+01 0. -1.
         25    2    1    2    0    0 -0.54696059209E+02 -0.37586428798E+01  0.39615524955E+02  0.14213372750E+03  0.12500728133E+03 0.  0.
         25    2    1    2    0    0  0.54696059209E+02  0.37586428798E+01  0.80758723428E+02  0.15858845441E+03  0.12499016031E+03 0.  0.
          5    1    4    4  502    0  0.27454516297E+02 -0.58801946205E+02  0.22821222974E+02  0.68951559522E+02  0.47000000000E+01 0. -1.
         -5    1    4    4    0  502  0.27241542911E+02  0.62560589084E+02  0.57937500454E+02  0.89636894891E+02  0.47000000000E+01 0. -1.
          5    1    3    3  503    0 -0.38509661936E+02  0.56361161448E+02  0.44121027429E+00  0.68424113065E+02  0.47000000000E+01 0. -1.
         -5    1    3    3    0  503 -0.16186397272E+02 -0.60119804327E+02  0.39174314681E+02  0.73709614432E+02  0.47000000000E+01 0. -1.
<mgrwt>
<rscale>  0 0.13649739E+03</rscale>
<asrwt>0</asrwt>
<pdfrwt beam="1">  1        5 0.32392033E-01 0.13650131E+03</pdfrwt>
<pdfrwt beam="2">  1       -5 0.13872918E-01 0.13650131E+03</pdfrwt>
<totfact> 0.30097285E+02</totfact>
</mgrwt>
</event>
<event>
 8    1  0.3759079E-007  0.1297099E+03  0.7546771E-02  0.1227892E+00
         -5   -1    0    0    0  501 -0.00000000000E+00  0.00000000000E+00  0.10308476249E+02  0.11329372559E+02  0.47000000000E+01 0. -1.
          5   -1    0    0  501    0  0.00000000000E+00 -0.00000000000E+00 -0.15603569475E+04  0.15603640260E+04  0.47000000000E+01 0. -1.
         25    2    1    2    0    0  0.25608779801E+02  0.23258103544E+02 -0.72460182577E+03  0.73611986985E+03  0.12501163101E+03 0.  0.
         25    2    1    2    0    0 -0.25608779801E+02 -0.23258103544E+02 -0.82544664553E+03  0.83557352875E+03  0.12499683339E+03 0.  0.
          5    1    4    4  502    0  0.29807963525E+02  0.29804800974E+02 -0.15375448604E+03  0.15949725022E+03  0.47000000000E+01 0.  1.
         -5    1    4    4    0  502 -0.55416743327E+02 -0.53062904518E+02 -0.67169215948E+03  0.67607627853E+03  0.47000000000E+01 0.  1.
          5    1    3    3  503    0  0.19097670775E+02  0.41725044204E+02 -0.89400301421E+02  0.10059922583E+03  0.47000000000E+01 0.  1.
         -5    1    3    3    0  503  0.65111090269E+01 -0.18466940660E+02 -0.63520152435E+03  0.63552064402E+03  0.47000000000E+01 0.  1.
<mgrwt>
<rscale>  0 0.12970633E+03</rscale>
<asrwt>0</asrwt>
<pdfrwt beam="2">  1        5 0.24013381E+00 0.12970990E+03</pdfrwt>
<pdfrwt beam="1">  1       -5 0.16649956E-02 0.12970990E+03</pdfrwt>
<totfact> 0.72857119E+01</totfact>
</mgrwt>
</event>
<event>
 8    1  0.3759079E-007  0.1542393E+03  0.7546771E-02  0.1195359E+00
          5   -1    0    0  501    0  0.00000000000E+00  0.00000000000E+00  0.12012755744E+04  0.12012847687E+04  0.47000000000E+01 0. -1.
         -5   -1    0    0    0  501 -0.00000000000E+00 -0.00000000000E+00 -0.20816594929E+02  0.21340586319E+02  0.47000000000E+01 0. -1.
         25    2    1    2    0    0 -0.78537318891E+02  0.44682913280E+02  0.43937119185E+03  0.46565739608E+03  0.12500037240E+03 0.  0.
         25    2    1    2    0    0  0.78537318891E+02 -0.44682913280E+02  0.74108778761E+03  0.75696795898E+03  0.12499883514E+03 0.  0.
          5    1    4    4  502    0  0.62056878298E+02 -0.41895639012E+02  0.17241424665E+03  0.18802942100E+03  0.47000000000E+01 0.  1.
         -5    1    4    4    0  502  0.16480440593E+02 -0.27872742679E+01  0.56867354096E+03  0.56893853799E+03  0.47000000000E+01 0.  1.
          5    1    3    3  503    0  0.22871513428E+02  0.46499697450E+02  0.12891813222E+03  0.13902267011E+03  0.47000000000E+01 0.  1.
         -5    1    3    3    0  503 -0.10140883232E+03 -0.18167841708E+01  0.31045305964E+03  0.32663472598E+03  0.47000000000E+01 0.  1.
<mgrwt>
<rscale>  0 0.15423900E+03</rscale>
<asrwt>0</asrwt>
<pdfrwt beam="1">  1        5 0.18485267E+00 0.15423932E+03</pdfrwt>
<pdfrwt beam="2">  1       -5 0.32435668E-02 0.15423932E+03</pdfrwt>
<totfact> 0.61374195E+01</totfact>
</mgrwt>
</event>
<event>
 8    1  0.3759079E-007  0.1609176E+03  0.7546771E-02  0.1187665E+00
         -5   -1    0    0    0  501 -0.00000000000E+00  0.00000000000E+00  0.14491078363E+03  0.14498698290E+03  0.47000000000E+01 0. -1.
          5   -1    0    0  501    0  0.00000000000E+00 -0.00000000000E+00 -0.19685266389E+03  0.19690876385E+03  0.47000000000E+01 0. -1.
         25    2    1    2    0    0  0.10118788178E+03 -0.56771079032E+01  0.26157566615E+02  0.16302708616E+03  0.12498958179E+03 0.  0.
         25    2    1    2    0    0 -0.10118788178E+03  0.56771079032E+01 -0.78099446874E+02  0.17886866059E+03  0.12499302847E+03 0.  0.
          5    1    4    4  502    0 -0.44415139232E+02 -0.14200283125E+02 -0.10333683745E+03  0.11346781309E+03  0.47000000000E+01 0.  1.
         -5    1    4    4    0  502 -0.56772742551E+02  0.19877391029E+02  0.25237390576E+02  0.65400847501E+02  0.47000000000E+01 0.  1.
          5    1    3    3  503    0 -0.18706499291E+02  0.21887964716E+02 -0.15528368884E+02  0.33048999309E+02  0.47000000000E+01 0. -1.
         -5    1    3    3    0  503  0.11989438107E+03 -0.27565072619E+02  0.41685935500E+02  0.12997808685E+03  0.47000000000E+01 0. -1.
<mgrwt>
<rscale>  0 0.16091693E+03</rscale>
<asrwt>0</asrwt>
<pdfrwt beam="2">  1        5 0.30295202E-01 0.16091760E+03</pdfrwt>
<pdfrwt beam="1">  1       -5 0.22304143E-01 0.16091760E+03</pdfrwt>
<totfact> 0.15116458E+02</totfact>
</mgrwt>
</event>
<event>
 8    1  0.3759079E-007  0.1278647E+03  0.7546771E-02  0.1230660E+00
         -5   -1    0    0    0  501 -0.00000000000E+00  0.00000000000E+00  0.18477777206E+03  0.18483753690E+03  0.47000000000E+01 0. -1.
          5   -1    0    0  501    0  0.00000000000E+00 -0.00000000000E+00 -0.10993335314E+03  0.11003377724E+03  0.47000000000E+01 0. -1.
         25    2    1    2    0    0  0.26878817775E+02 -0.13458242834E+01  0.10270873398E+03  0.16400570680E+03  0.12499802294E+03 0.  0.
         25    2    1    2    0    0 -0.26878817775E+02  0.13458242834E+01 -0.27864315057E+02  0.13086560734E+03  0.12500042017E+03 0.  0.
          5    1    3    3  502    0  0.11861944205E+02  0.40361888749E+02 -0.93981057911E+01  0.43361298137E+02  0.47000000000E+01 0. -1.
         -5    1    3    3    0  502  0.15016873571E+02 -0.41707713032E+02  0.11210683977E+03  0.12064440866E+03  0.47000000000E+01 0. -1.
          5    1    4    4  503    0 -0.23214676513E+02  0.41464915854E+02  0.32770577066E+02  0.57915983749E+02  0.47000000000E+01 0. -1.
         -5    1    4    4    0  503 -0.36641412624E+01 -0.40119091571E+02 -0.60634892123E+02  0.72949623593E+02  0.47000000000E+01 0. -1.
<mgrwt>
<rscale>  0 0.12786414E+03</rscale>
<asrwt>0</asrwt>
<pdfrwt beam="2">  1        5 0.16925146E-01 0.12786472E+03</pdfrwt>
<pdfrwt beam="1">  1       -5 0.28439672E-01 0.12786472E+03</pdfrwt>
<totfact> 0.26479137E+02</totfact>
</mgrwt>
</event>
<event>
 8    1  0.3759079E-007  0.1506192E+03  0.7546771E-02  0.1199715E+00
         -5   -1    0    0    0  501 -0.00000000000E+00  0.00000000000E+00  0.10799494620E+04  0.10799596893E+04  0.47000000000E+01 0.  1.
          5   -1    0    0  501    0  0.00000000000E+00 -0.00000000000E+00 -0.25433646866E+02  0.25864268652E+02  0.47000000000E+01 0.  1.
         25    2    1    2    0    0  0.14552083550E+02  0.82761257777E+02  0.76270459337E+03  0.77743404999E+03  0.12499686559E+03 0.  0.
         25    2    1    2    0    0 -0.14552083550E+02 -0.82761257777E+02  0.29181122180E+03  0.32838990798E+03  0.12499981429E+03 0.  0.
          5    1    4    4  502    0  0.17470582717E+02 -0.72842719919E+02  0.65670471443E+02  0.99729553921E+02  0.47000000000E+01 0. -1.
         -5    1    4    4    0  502 -0.32022666267E+02 -0.99185378587E+01  0.22614075035E+03  0.22866035406E+03  0.47000000000E+01 0. -1.
          5    1    3    3  503    0  0.40978505808E+02  0.64345409126E+02  0.20506847078E+03  0.21884866305E+03  0.47000000000E+01 0. -1.
         -5    1    3    3    0  503 -0.26426422258E+02  0.18415848651E+02  0.55763612260E+03  0.55858538694E+03  0.47000000000E+01 0. -1.
<mgrwt>
<rscale>  0 0.15061859E+03</rscale>
<asrwt>0</asrwt>
<pdfrwt beam="2">  1        5 0.39467798E-02 0.15061920E+03</pdfrwt>
<pdfrwt beam="1">  1       -5 0.16618000E+00 0.15061920E+03</pdfrwt>
<totfact> 0.60384764E+01</totfact>
</mgrwt>
</event>
<event>
 8    1  0.3759079E-007  0.1648358E+03  0.7546771E-02  0.1183344E+00
          5   -1    0    0  501    0  0.00000000000E+00  0.00000000000E+00  0.65182057162E+03  0.65183751624E+03  0.47000000000E+01 0.  1.
         -5   -1    0    0    0  501 -0.00000000000E+00 -0.00000000000E+00 -0.45075731004E+02  0.45320100679E+02  0.47000000000E+01 0.  1.
         25    2    1    2    0    0  0.86436049638E+02  0.63828600801E+02  0.20595431415E+03  0.26379543389E+03  0.12500228185E+03 0.  0.
         25    2    1    2    0    0 -0.86436049638E+02 -0.63828600801E+02  0.40079052646E+03  0.43336218303E+03  0.12499781848E+03 0.  0.
          5    1    4    4  502    0 -0.57169651676E+02 -0.91267122121E+02  0.18748037362E+03  0.21626150177E+03  0.47000000000E+01 0.  1.
         -5    1    4    4    0  502 -0.29266397962E+02  0.27438521320E+02  0.21331015284E+03  0.21710068126E+03  0.47000000000E+01 0.  1.
          5    1    3    3  503    0  0.81457586076E+02  0.21914683985E+02  0.20454124463E+03  0.22130251345E+03  0.47000000000E+01 0. -1.
         -5    1    3    3    0  503  0.49784635625E+01  0.41913916817E+02  0.14130695226E+01  0.42492920444E+02  0.47000000000E+01 0. -1.
<mgrwt>
<rscale>  0 0.16483499E+03</rscale>
<asrwt>0</asrwt>
<pdfrwt beam="1">  1        5 0.10030018E+00 0.16483583E+03</pdfrwt>
<pdfrwt beam="2">  1       -5 0.69548295E-02 0.16483583E+03</pdfrwt>
<totfact> 0.90414417E+01</totfact>
</mgrwt>
</event>
<event>
 8    1  0.3759079E-007  0.1364757E+03  0.7546771E-02  0.1218153E+00
         -5   -1    0    0    0  501 -0.00000000000E+00  0.00000000000E+00  0.26369202981E+03  0.26373391247E+03  0.47000000000E+01 0. -1.
          5   -1    0    0  501    0  0.00000000000E+00 -0.00000000000E+00 -0.15177725928E+03  0.15185001296E+03  0.47000000000E+01 0. -1.
         25    2    1    2    0    0 -0.49986904026E+02 -0.22385312950E+02  0.20793080220E+03  0.24871664010E+03  0.12499982300E+03 0.  0.
         25    2    1    2    0    0  0.49986904026E+02  0.22385312950E+02 -0.96016031668E+02  0.16686728533E+03  0.12500327903E+03 0.  0.
          5    1    4    4  502    0  0.16965104527E+01  0.62373973186E+02 -0.80767139330E+02  0.10217050198E+03  0.47000000000E+01 0. -1.
         -5    1    4    4    0  502  0.48290393574E+02 -0.39988660236E+02 -0.15248892337E+02  0.64696783355E+02  0.47000000000E+01 0. -1.
          5    1    3    3  503    0 -0.11718752157E+02  0.41155080911E+02  0.14523770784E+03  0.15148317271E+03  0.47000000000E+01 0.  1.
         -5    1    3    3    0  503 -0.38268151869E+02 -0.63540393860E+02  0.62693094361E+02  0.97233467386E+02  0.47000000000E+01 0.  1.
<mgrwt>
<rscale>  0 0.13647489E+03</rscale>
<asrwt>0</asrwt>
<pdfrwt beam="2">  1        5 0.23359166E-01 0.13647568E+03</pdfrwt>
<pdfrwt beam="1">  1       -5 0.40576822E-01 0.13647568E+03</pdfrwt>
<totfact> 0.73063588E+01</totfact>
</mgrwt>
</event>
<event>
 8    1  0.3759079E-007  0.1257527E+03  0.7546771E-02  0.1233903E+00
          5   -1    0    0  501    0  0.00000000000E+00  0.00000000000E+00  0.69749129428E+03  0.69750712942E+03  0.47000000000E+01 0. -1.
         -5   -1    0    0    0  501 -0.00000000000E+00 -0.00000000000E+00 -0.22435666392E+02  0.22922677123E+02  0.47000000000E+01 0. -1.
         25    2    1    2    0    0  0.13797552908E+02  0.37448679090E+00  0.34959398550E+03  0.37151861824E+03  0.12497846334E+03 0.  0.
         25    2    1    2    0    0 -0.13797552908E+02 -0.37448679090E+00  0.32546164239E+03  0.34891118830E+03  0.12499289559E+03 0.  0.
          5    1    3    3  502    0 -0.55739912732E+02 -0.23359263854E+01  0.15437602829E+03  0.16421462339E+03  0.47000000000E+01 0.  1.
         -5    1    3    3    0  502  0.69537465640E+02  0.27104131763E+01  0.19521795721E+03  0.20730399486E+03  0.47000000000E+01 0.  1.
          5    1    4    4  503    0  0.69848589160E+01 -0.38333986191E+02  0.29033428569E+03  0.29297503340E+03  0.47000000000E+01 0.  1.
         -5    1    4    4    0  503 -0.20782411824E+02  0.37959499400E+02  0.35127356697E+02  0.55936154895E+02  0.47000000000E+01 0.  1.
<mgrwt>
<rscale>  0 0.12574909E+03</rscale>
<asrwt>0</asrwt>
<pdfrwt beam="1">  1        5 0.10734502E+00 0.12575268E+03</pdfrwt>
<pdfrwt beam="2">  1       -5 0.34903218E-02 0.12575268E+03</pdfrwt>
<totfact> 0.22052577E+02</totfact>
</mgrwt>
</event>
<event>
 8    1  0.3759079E-007  0.1424176E+03  0.7546771E-02  0.1210114E+00
         -5   -1    0    0    0  501 -0.00000000000E+00  0.00000000000E+00  0.74433636790E+02  0.74581876390E+02  0.47000000000E+01 0.  1.
          5   -1    0    0  501    0  0.00000000000E+00 -0.00000000000E+00 -0.30079720178E+03  0.30083391864E+03  0.47000000000E+01 0.  1.
         25    2    1    2    0    0  0.19062594234E+02  0.65525455036E+02 -0.55166490875E+02  0.15272496476E+03  0.12499842155E+03 0.  0.
         25    2    1    2    0    0 -0.19062594234E+02 -0.65525455036E+02 -0.17119707412E+03  0.22269083026E+03  0.12500319971E+03 0.  0.
          5    1    3    3  502    0  0.25751796495E+02  0.67926122930E+02 -0.90633890988E+02  0.11624846405E+03  0.47000000000E+01 0.  1.
         -5    1    3    3    0  502 -0.66892022612E+01 -0.24006678939E+01  0.35467400114E+02  0.36476500710E+02  0.47000000000E+01 0.  1.
          5    1    4    4  503    0  0.26856347529E+02  0.24564817258E+02 -0.72770975201E+02  0.81500910923E+02  0.47000000000E+01 0.  1.
         -5    1    4    4    0  503 -0.45918941763E+02 -0.90090272294E+02 -0.98426098919E+02  0.14118991934E+03  0.47000000000E+01 0.  1.
<mgrwt>
<rscale>  0 0.14241653E+03</rscale>
<asrwt>0</asrwt>
<pdfrwt beam="2">  1        5 0.46290719E-01 0.14241758E+03</pdfrwt>
<pdfrwt beam="1">  1       -5 0.11465556E-01 0.14241758E+03</pdfrwt>
<totfact> 0.20721362E+02</totfact>
</mgrwt>
</event>
<event>
 8    1  0.3759079E-007  0.1617877E+03  0.7546771E-02  0.1186695E+00
         -5   -1    0    0    0  501 -0.00000000000E+00  0.00000000000E+00  0.57695417506E+03  0.57697331838E+03  0.47000000000E+01 0. -1.
          5   -1    0    0  501    0  0.00000000000E+00 -0.00000000000E+00 -0.46744631648E+02  0.46980321284E+02  0.47000000000E+01 0. -1.
         25    2    1    2    0    0 -0.95490636553E+02  0.37828779169E+02  0.32119771155E+03  0.35964092237E+03  0.12499657971E+03 0.  0.
         25    2    1    2    0    0  0.95490636553E+02 -0.37828779169E+02  0.20901183186E+03  0.26431271729E+03  0.12500315379E+03 0.  0.
          5    1    3    3  502    0  0.23214359053E+01  0.28351745487E+02  0.20661381774E+03  0.20861584364E+03  0.47000000000E+01 0.  1.
         -5    1    3    3    0  502 -0.97812072458E+02  0.94770336825E+01  0.11458389381E+03  0.15102507873E+03  0.47000000000E+01 0.  1.
          5    1    4    4  503    0  0.15896187989E+02 -0.62312957544E+02  0.40105871295E+02  0.75935264422E+02  0.47000000000E+01 0.  1.
         -5    1    4    4    0  503  0.79594448564E+02  0.24484178374E+02  0.16890596057E+03  0.18837745287E+03  0.47000000000E+01 0.  1.
<mgrwt>
<rscale>  0 0.16178645E+03</rscale>
<asrwt>0</asrwt>
<pdfrwt beam="2">  1        5 0.72110841E-02 0.16178772E+03</pdfrwt>
<pdfrwt beam="1">  1       -5 0.88781786E-01 0.16178772E+03</pdfrwt>
<totfact> 0.11340038E+02</totfact>
</mgrwt>
</event>
<event>
 8    1  0.3759079E-007  0.1566327E+03  0.7546771E-02  0.1192552E+00
         -5   -1    0    0    0  501 -0.00000000000E+00  0.00000000000E+00  0.18529682578E+04  0.18529742185E+04  0.47000000000E+01 0.  1.
          5   -1    0    0  501    0  0.00000000000E+00 -0.00000000000E+00 -0.31672391581E+02  0.32019219049E+02  0.47000000000E+01 0.  1.
         25    2    1    2    0    0  0.91792771002E+02 -0.21974647346E+02  0.16311000192E+04  0.16386033875E+04  0.12499996365E+03 0.  0.
         25    2    1    2    0    0 -0.91792771002E+02  0.21974647346E+02  0.19019584704E+03  0.24639005008E+03  0.12499919445E+03 0.  0.
          5    1    3    3  502    0  0.43295229668E+02  0.51205904462E+02  0.82073245085E+03  0.82348064182E+03  0.47000000000E+01 0. -1.
         -5    1    3    3    0  502  0.48497541334E+02 -0.73180551808E+02  0.81036756835E+03  0.81512274567E+03  0.47000000000E+01 0. -1.
          5    1    4    4  503    0 -0.47841168600E+02  0.56650799986E+02  0.36562840517E+02  0.82807136520E+02  0.47000000000E+01 0. -1.
         -5    1    4    4    0  503 -0.43951602402E+02 -0.34676152640E+02  0.15363300652E+03  0.16358291356E+03  0.47000000000E+01 0. -1.
<mgrwt>
<rscale>  0 0.15663250E+03</rscale>
<asrwt>0</asrwt>
<pdfrwt beam="2">  1        5 0.48998135E-02 0.15663266E+03</pdfrwt>
<pdfrwt beam="1">  1       -5 0.28509916E+00 0.15663266E+03</pdfrwt>
<totfact> 0.69569731E+00</totfact>
</mgrwt>
</event>
<event>
 8    1  0.3759079E-007  0.1263016E+03  0.7546771E-02  0.1233059E+00
          5   -1    0    0  501    0  0.00000000000E+00  0.00000000000E+00  0.15154516305E+03  0.15161802810E+03  0.47000000000E+01 0. -1.
         -5   -1    0    0    0  501 -0.00000000000E+00 -0.00000000000E+00 -0.10582968037E+03  0.10593399476E+03  0.47000000000E+01 0. -1.
         25    2    1    2    0    0 -0.17971706824E+02  0.21186304369E+01  0.12112914550E+02  0.12688115063E+03  0.12499853137E+03 0.  0.
         25    2    1    2    0    0  0.17971706824E+02 -0.21186304369E+01  0.33602568140E+02  0.13067087224E+03  0.12497309080E+03 0.  0.
          5    1    4    4  502    0 -0.46601058703E+02 -0.17891138825E+02 -0.98791759511E+01  0.51102246900E+02  0.47000000000E+01 0. -1.
         -5    1    4    4    0  502  0.64572765527E+02  0.15772508389E+02  0.43481744091E+02  0.79568625336E+02  0.47000000000E+01 0. -1.
          5    1    3    3  503    0 -0.70899543285E+02 -0.92057507692E+01  0.23921582588E+01  0.71688935732E+02  0.47000000000E+01 0. -1.
         -5    1    3    3    0  503  0.52927836461E+02  0.11324381206E+02  0.97207562915E+01  0.55192214895E+02  0.47000000000E+01 0. -1.
<mgrwt>
<rscale>  0 0.12629534E+03</rscale>
<asrwt>0</asrwt>
<pdfrwt beam="1">  1        5 0.23328270E-01 0.12630164E+03</pdfrwt>
<pdfrwt beam="2">  1       -5 0.16295118E-01 0.12630164E+03</pdfrwt>
<totfact> 0.41331621E+02</totfact>
</mgrwt>
</event>
<event>
 8    1  0.3759079E-007  0.1453387E+03  0.7546771E-02  0.1206321E+00
          5   -1    0    0  501    0  0.00000000000E+00  0.00000000000E+00  0.13518038268E+03  0.13526206364E+03  0.47000000000E+01 0. -1.
         -5   -1    0    0    0  501 -0.00000000000E+00 -0.00000000000E+00 -0.16309153513E+03  0.16315924378E+03  0.47000000000E+01 0. -1.
         25    2    1    2    0    0 -0.54897290208E+02 -0.49845076072E+02 -0.44843886470E+02  0.15209965696E+03  0.12500034965E+03 0.  0.
         25    2    1    2    0    0  0.54897290208E+02  0.49845076072E+02  0.16932734014E+02  0.14632165047E+03  0.12500025534E+03 0.  0.
          5    1    3    3  502    0 -0.57737158703E+02 -0.40753480374E+02 -0.84954600453E+02  0.11060650883E+03  0.47000000000E+01 0. -1.
         -5    1    3    3    0  502  0.28398684952E+01 -0.90915956985E+01  0.40110713983E+02  0.41493148129E+02  0.47000000000E+01 0. -1.
          5    1    4    4  503    0  0.89634433754E+02  0.58166482462E+02  0.23977538093E+02  0.10961151276E+03  0.47000000000E+01 0. -1.
         -5    1    4    4    0  503 -0.34737143547E+02 -0.83214063899E+01 -0.70448040782E+01  0.36710137709E+02  0.47000000000E+01 0. -1.
<mgrwt>
<rscale>  0 0.14533866E+03</rscale>
<asrwt>0</asrwt>
<pdfrwt beam="1">  1        5 0.20808473E-01 0.14533868E+03</pdfrwt>
<pdfrwt beam="2">  1       -5 0.25102497E-01 0.14533868E+03</pdfrwt>
<totfact> 0.24022444E+02</totfact>
</mgrwt>
</event>
<event>
 8    1  0.3759079E-007  0.1441779E+03  0.7546771E-02  0.1207817E+00
          5   -1    0    0  501    0  0.00000000000E+00  0.00000000000E+00  0.67231614755E+02  0.67395697360E+02  0.47000000000E+01 0. -1.
         -5   -1    0    0    0  501 -0.00000000000E+00 -0.00000000000E+00 -0.34017423465E+03  0.34020670176E+03  0.47000000000E+01 0. -1.
         25    2    1    2    0    0 -0.69216886536E+02 -0.19261827416E+02 -0.19852334155E+03  0.24535106169E+03  0.12499452370E+03 0.  0.
         25    2    1    2    0    0  0.69216886536E+02  0.19261827416E+02 -0.74419278348E+02  0.16225133743E+03  0.12500108852E+03 0.  0.
          5    1    3    3  502    0  0.33759291591E+02  0.12500035167E+02 -0.50534791436E+02  0.62223755860E+02  0.47000000000E+01 0.  1.
         -5    1    3    3    0  502 -0.10297617813E+03 -0.31761862582E+02 -0.14798855012E+03  0.18312730583E+03  0.47000000000E+01 0.  1.
          5    1    4    4  503    0  0.24703667991E+02  0.69181409098E+02 -0.21064514686E+02  0.76564628622E+02  0.47000000000E+01 0. -1.
         -5    1    4    4    0  503  0.44513218545E+02 -0.49919581683E+02 -0.53354763661E+02  0.85686708806E+02  0.47000000000E+01 0. -1.
<mgrwt>
<rscale>  0 0.14417648E+03</rscale>
<asrwt>0</asrwt>
<pdfrwt beam="1">  1        5 0.10358445E-01 0.14417790E+03</pdfrwt>
<pdfrwt beam="2">  1       -5 0.52349616E-01 0.14417790E+03</pdfrwt>
<totfact> 0.19174953E+02</totfact>
</mgrwt>
</event>
<event>
 8    1  0.3759079E-007  0.1331333E+03  0.7546771E-02  0.1222887E+00
         -5   -1    0    0    0  501 -0.00000000000E+00  0.00000000000E+00  0.13121247269E+03  0.13129662215E+03  0.47000000000E+01 0. -1.
          5   -1    0    0  501    0  0.00000000000E+00 -0.00000000000E+00 -0.14134361967E+03  0.14142174097E+03  0.47000000000E+01 0. -1.
         25    2    1    2    0    0 -0.45202069694E+02  0.72061283758E+01  0.24048616206E+02  0.13526755169E+03  0.12499527675E+03 0.  0.
         25    2    1    2    0    0  0.45202069694E+02 -0.72061283758E+01 -0.34179763183E+02  0.13745081143E+03  0.12501725466E+03 0.  0.
          5    1    3    3  502    0 -0.74398304559E+02 -0.16387110264E+02 -0.18292567751E+02  0.78487917153E+02  0.47000000000E+01 0.  1.
         -5    1    3    3    0  502  0.29196234865E+02  0.23593238640E+02  0.42341183957E+02  0.56779634542E+02  0.47000000000E+01 0.  1.
          5    1    4    4  503    0  0.35123252331E+02 -0.47524301604E+02  0.25534267781E+02  0.64546811915E+02  0.47000000000E+01 0.  1.
         -5    1    4    4    0  503  0.10078817364E+02  0.40318173228E+02 -0.59714030964E+02  0.72903999519E+02  0.47000000000E+01 0.  1.
<mgrwt>
<rscale>  0 0.13312812E+03</rscale>
<asrwt>0</asrwt>
<pdfrwt beam="2">  1        5 0.21757655E-01 0.13313328E+03</pdfrwt>
<pdfrwt beam="1">  1       -5 0.20199017E-01 0.13313328E+03</pdfrwt>
<totfact> 0.32349137E+02</totfact>
</mgrwt>
</event>
<event>
 8    1  0.3759079E-007  0.1255246E+03  0.7546771E-02  0.1234253E+00
         -5   -1    0    0    0  501 -0.00000000000E+00  0.00000000000E+00  0.16662434207E+02  0.17312617182E+02  0.47000000000E+01 0.  1.
          5   -1    0    0  501    0  0.00000000000E+00 -0.00000000000E+00 -0.93411384334E+03  0.93412566730E+03  0.47000000000E+01 0.  1.
         25    2    1    2    0    0 -0.38167045074E+01  0.10767344858E+02 -0.41679510414E+03  0.43528677932E+03  0.12500367383E+03 0.  0.
         25    2    1    2    0    0  0.38167045074E+01 -0.10767344858E+02 -0.50065630500E+03  0.51615150516E+03  0.12500055041E+03 0.  0.
          5    1    4    4  502    0  0.30078263910E+01  0.34961653917E+01  0.62164759647E+01  0.90556482630E+01  0.47000000000E+01 0. -1.
         -5    1    4    4    0  502  0.80887811646E+00 -0.14263510249E+02 -0.50687278096E+03  0.50709585690E+03  0.47000000000E+01 0. -1.
          5    1    3    3  503    0 -0.11276023638E+02  0.34756510511E+02 -0.40579195985E+03  0.40746087961E+03  0.47000000000E+01 0.  1.
         -5    1    3    3    0  503  0.74593191302E+01 -0.23989165654E+02 -0.11003144285E+02  0.27825899712E+02  0.47000000000E+01 0.  1.
<mgrwt>
<rscale>  0 0.12552381E+03</rscale>
<asrwt>0</asrwt>
<pdfrwt beam="2">  1        5 0.14376071E+00 0.12552458E+03</pdfrwt>
<pdfrwt beam="1">  1       -5 0.26143758E-02 0.12552458E+03</pdfrwt>
<totfact> 0.16596349E+02</totfact>
</mgrwt>
</event>
<event>
 8    1  0.3759079E-007  0.1262624E+03  0.7546771E-02  0.1233129E+00
         -5   -1    0    0    0  501 -0.00000000000E+00  0.00000000000E+00  0.15157454285E+03  0.15164739378E+03  0.47000000000E+01 0.  1.
          5   -1    0    0  501    0  0.00000000000E+00 -0.00000000000E+00 -0.10540883294E+03  0.10551356340E+03  0.47000000000E+01 0.  1.
         25    2    1    2    0    0 -0.12150630151E+02 -0.12551845788E+02  0.14933064298E+02  0.12714241740E+03  0.12504803576E+03 0.  0.
         25    2    1    2    0    0  0.12150630151E+02  0.12551845788E+02  0.31232645619E+02  0.13001853978E+03  0.12499662351E+03 0.  0.
          5    1    4    4  502    0  0.30704506920E+02 -0.49926545468E+02  0.26519958349E+02  0.64504456268E+02  0.47000000000E+01 0.  1.
         -5    1    4    4    0  502 -0.18553876768E+02  0.62478391256E+02  0.47126872702E+01  0.65514083512E+02  0.47000000000E+01 0.  1.
          5    1    3    3  503    0  0.18156592803E+02 -0.42980800142E+02  0.52139727546E+02  0.70125974015E+02  0.47000000000E+01 0.  1.
         -5    1    3    3    0  503 -0.30307222955E+02  0.30428954354E+02 -0.37206663248E+02  0.57016443385E+02  0.47000000000E+01 0.  1.
<mgrwt>
<rscale>  0 0.12624969E+03</rscale>
<asrwt>0</asrwt>
<pdfrwt beam="2">  1        5 0.16230404E-01 0.12626242E+03</pdfrwt>
<pdfrwt beam="1">  1       -5 0.23332821E-01 0.12626242E+03</pdfrwt>
<totfact> 0.41612172E+02</totfact>
</mgrwt>
</event>
<event>
 8    1  0.3759079E-007  0.1301691E+03  0.7546771E-02  0.1227210E+00
         -5   -1    0    0    0  501 -0.00000000000E+00  0.00000000000E+00  0.35087437805E+02  0.35400823320E+02  0.47000000000E+01 0.  1.
          5   -1    0    0  501    0  0.00000000000E+00 -0.00000000000E+00 -0.50181743103E+03  0.50183944054E+03  0.47000000000E+01 0.  1.
         25    2    1    2    0    0  0.35524118613E+02 -0.73233754749E+01 -0.28887712578E+03  0.31685011173E+03  0.12501361794E+03 0.  0.
         25    2    1    2    0    0 -0.35524118613E+02  0.73233754749E+01 -0.17785286745E+03  0.22039015214E+03  0.12499832746E+03 0.  0.
          5    1    4    4  502    0  0.42977006826E+02 -0.17523629494E+02 -0.77953253531E+02  0.90845475630E+02  0.47000000000E+01 0.  1.
         -5    1    4    4    0  502 -0.78501125439E+02  0.24847004969E+02 -0.99899613915E+02  0.12954467651E+03  0.47000000000E+01 0.  1.
          5    1    3    3  503    0  0.78535586464E+02 -0.24491754653E+01 -0.12872137440E+03  0.15088114206E+03  0.47000000000E+01 0.  1.
         -5    1    3    3    0  503 -0.43011467851E+02 -0.48742000097E+01 -0.16015575138E+03  0.16596896967E+03  0.47000000000E+01 0.  1.
<mgrwt>
<rscale>  0 0.13016545E+03</rscale>
<asrwt>0</asrwt>
<pdfrwt beam="2">  1        5 0.77228476E-01 0.13016912E+03</pdfrwt>
<pdfrwt beam="1">  1       -5 0.54238673E-02 0.13016912E+03</pdfrwt>
<totfact> 0.23648374E+02</totfact>
</mgrwt>
</event>
<event>
 8    1  0.3759079E-007  0.1391154E+03  0.7546771E-02  0.1214527E+00
          5   -1    0    0  501    0  0.00000000000E+00  0.00000000000E+00  0.64301313606E+02  0.64472854221E+02  0.47000000000E+01 0. -1.
         -5   -1    0    0    0  501 -0.00000000000E+00 -0.00000000000E+00 -0.30840889437E+03  0.30844470514E+03  0.47000000000E+01 0. -1.
         25    2    1    2    0    0  0.58809763507E+02 -0.16316723405E+02 -0.15215326173E+03  0.20615818796E+03  0.12500303860E+03 0.  0.
         25    2    1    2    0    0 -0.58809763507E+02  0.16316723405E+02 -0.91954319037E+02  0.16675937140E+03  0.12501306898E+03 0.  0.
          5    1    3    3  502    0 -0.38528147841E+01 -0.47869050965E+02 -0.12568738599E+02  0.49863347381E+02  0.47000000000E+01 0.  1.
         -5    1    3    3    0  502  0.62662578291E+02  0.31552327560E+02 -0.13958452313E+03  0.15629484057E+03  0.47000000000E+01 0.  1.
          5    1    4    4  503    0 -0.83124103519E+02 -0.13100034282E+02 -0.22276717487E+02  0.87175510472E+02  0.47000000000E+01 0.  1.
         -5    1    4    4    0  503  0.24314340012E+02  0.29416757688E+02 -0.69677601551E+02  0.79583860933E+02  0.47000000000E+01 0.  1.
<mgrwt>
<rscale>  0 0.13911313E+03</rscale>
<asrwt>0</asrwt>
<pdfrwt beam="1">  1        5 0.99084601E-02 0.13911539E+03</pdfrwt>
<pdfrwt beam="2">  1       -5 0.47463471E-01 0.13911539E+03</pdfrwt>
<totfact> 0.25203694E+02</totfact>
</mgrwt>
</event>
<event>
 8    1  0.3759079E-007  0.1483684E+03  0.7546771E-02  0.1202494E+00
         -5   -1    0    0    0  501 -0.00000000000E+00  0.00000000000E+00  0.58160894723E+03  0.58162793735E+03  0.47000000000E+01 0.  1.
          5   -1    0    0  501    0  0.00000000000E+00 -0.00000000000E+00 -0.39958228597E+02  0.40233692754E+02  0.47000000000E+01 0.  1.
         25    2    1    2    0    0 -0.79920319010E+02  0.57510585423E+00  0.34475828276E+03  0.37532846689E+03  0.12500238555E+03 0.  0.
         25    2    1    2    0    0  0.79920319010E+02 -0.57510585423E+00  0.19689243588E+03  0.24653316321E+03  0.12499752445E+03 0.  0.
          5    1    4    4  502    0  0.74060737224E+02  0.48604253691E+02  0.16530169052E+03  0.18760091994E+03  0.47000000000E+01 0.  1.
         -5    1    4    4    0  502  0.58595817861E+01 -0.49179359545E+02  0.31590745362E+02  0.58932243268E+02  0.47000000000E+01 0.  1.
          5    1    3    3  503    0 -0.90118902434E+02 -0.12086200046E+02  0.34654966600E+03  0.35831027590E+03  0.47000000000E+01 0. -1.
         -5    1    3    3    0  503  0.10198583424E+02  0.12661305901E+02 -0.17913832407E+01  0.17018190999E+02  0.47000000000E+01 0. -1.
<mgrwt>
<rscale>  0 0.14836738E+03</rscale>
<asrwt>0</asrwt>
<pdfrwt beam="2">  1        5 0.61700707E-02 0.14836841E+03</pdfrwt>
<pdfrwt beam="1">  1       -5 0.89500941E-01 0.14836841E+03</pdfrwt>
<totfact> 0.14105121E+02</totfact>
</mgrwt>
</event>
<event>
 8    1  0.3759079E-007  0.1416069E+03  0.7546771E-02  0.1211185E+00
         -5   -1    0    0    0  501 -0.00000000000E+00  0.00000000000E+00  0.20540133209E+02  0.21071000742E+02  0.47000000000E+01 0. -1.
          5   -1    0    0  501    0  0.00000000000E+00 -0.00000000000E+00 -0.11908052640E+04  0.11908145392E+04  0.47000000000E+01 0. -1.
         25    2    1    2    0    0 -0.89651119245E+01 -0.65927052039E+02 -0.32028765698E+03  0.35019288961E+03  0.12499650914E+03 0.  0.
         25    2    1    2    0    0  0.89651119245E+01  0.65927052039E+02 -0.84997747383E+03  0.86169265035E+03  0.12500307289E+03 0.  0.
          5    1    3    3  502    0  0.21338385640E+02 -0.96098934547E+02 -0.22621253953E+03  0.24674791785E+03  0.47000000000E+01 0.  1.
         -5    1    3    3    0  502 -0.30303497564E+02  0.30171882509E+02 -0.94075117451E+02  0.10344497176E+03  0.47000000000E+01 0.  1.
          5    1    4    4  503    0 -0.73253336539E+01 -0.11912600601E+02 -0.58047095085E+03  0.58065840677E+03  0.47000000000E+01 0.  1.
         -5    1    4    4    0  503  0.16290445578E+02  0.77839652640E+02 -0.26950652298E+03  0.28103424359E+03  0.47000000000E+01 0.  1.
<mgrwt>
<rscale>  0 0.14160546E+03</rscale>
<asrwt>0</asrwt>
<pdfrwt beam="2">  1        5 0.18324231E+00 0.14160691E+03</pdfrwt>
<pdfrwt beam="1">  1       -5 0.32015709E-02 0.14160691E+03</pdfrwt>
<totfact> 0.62790788E+01</totfact>
</mgrwt>
</event>
<event>
 8    1  0.3759079E-007  0.1399455E+03  0.7546771E-02  0.1213407E+00
          5   -1    0    0  501    0  0.00000000000E+00  0.00000000000E+00  0.70913140053E+02  0.71068723305E+02  0.47000000000E+01 0.  1.
         -5   -1    0    0    0  501 -0.00000000000E+00 -0.00000000000E+00 -0.34349048574E+03  0.34352263942E+03  0.47000000000E+01 0.  1.
         25    2    1    2    0    0  0.36214875873E+02 -0.51468298202E+02 -0.22836631952E+03  0.26782842131E+03  0.12498153631E+03 0.  0.
         25    2    1    2    0    0 -0.36214875873E+02  0.51468298202E+02 -0.44211026169E+02  0.14676294141E+03  0.12499697269E+03 0.  0.
          5    1    4    4  502    0  0.31317563164E+02  0.35315211580E+02  0.20551605722E+02  0.51695381121E+02  0.47000000000E+01 0.  1.
         -5    1    4    4    0  502 -0.67532439037E+02  0.16153086622E+02 -0.64762631891E+02  0.95067560289E+02  0.47000000000E+01 0.  1.
          5    1    3    3  503    0 -0.17419576026E+02 -0.69282648884E+02 -0.72175393752E+02  0.10166073248E+03  0.47000000000E+01 0.  1.
         -5    1    3    3    0  503  0.53634451900E+02  0.17814350682E+02 -0.15619092576E+03  0.16616768883E+03  0.47000000000E+01 0.  1.
<mgrwt>
<rscale>  0 0.13994206E+03</rscale>
<asrwt>0</asrwt>
<pdfrwt beam="1">  1        5 0.10924155E-01 0.13994551E+03</pdfrwt>
<pdfrwt beam="2">  1       -5 0.52859130E-01 0.13994551E+03</pdfrwt>
<totfact> 0.16940791E+02</totfact>
</mgrwt>
</event>
<event>
 8    1  0.3759079E-007  0.1263680E+03  0.7546771E-02  0.1232953E+00
          5   -1    0    0  501    0  0.00000000000E+00  0.00000000000E+00  0.99066287073E+02  0.99177715412E+02  0.47000000000E+01 0. -1.
         -5   -1    0    0    0  501 -0.00000000000E+00 -0.00000000000E+00 -0.17839034078E+03  0.17845224482E+03  0.47000000000E+01 0. -1.
         25    2    1    2    0    0  0.18514474985E+02 -0.29068477522E+00 -0.83064055776E+02  0.15122341458E+03  0.12500405382E+03 0.  0.
         25    2    1    2    0    0 -0.18514474985E+02  0.29068477522E+00  0.37400020725E+01  0.12640654566E+03  0.12498702688E+03 0.  0.
          5    1    4    4  502    0 -0.26092986532E+02 -0.59783767674E+02 -0.17819941907E+01  0.65423301099E+02  0.47000000000E+01 0.  1.
         -5    1    4    4    0  502  0.75785115464E+01  0.60074452449E+02  0.55219962632E+01  0.60983244560E+02  0.47000000000E+01 0.  1.
          5    1    3    3  503    0  0.48651459055E+01  0.23091171072E+02 -0.11008542326E+03  0.11268434780E+03  0.47000000000E+01 0.  1.
         -5    1    3    3    0  503  0.13649329080E+02 -0.23381855847E+02  0.27021367481E+02  0.38539066773E+02  0.47000000000E+01 0.  1.
<mgrwt>
<rscale>  0 0.12636384E+03</rscale>
<asrwt>0</asrwt>
<pdfrwt beam="1">  1        5 0.15254301E-01 0.12636805E+03</pdfrwt>
<pdfrwt beam="2">  1       -5 0.27458001E-01 0.12636805E+03</pdfrwt>
<totfact> 0.34103986E+02</totfact>
</mgrwt>
</event>
<event>
 8    1  0.3759079E-007  0.2139524E+03  0.7546771E-02  0.1138474E+00
         -5   -1    0    0    0  501 -0.00000000000E+00  0.00000000000E+00  0.13588066454E+04  0.13588147739E+04  0.47000000000E+01 0.  1.
          5   -1    0    0  501    0  0.00000000000E+00 -0.00000000000E+00 -0.44456612288E+02  0.44704366410E+02  0.47000000000E+01 0.  1.
         25    2    1    2    0    0 -0.14838682357E+03  0.90172991034E+02  0.10041626679E+04  0.10267026413E+04  0.12500332964E+03 0.  0.
         25    2    1    2    0    0  0.14838682357E+03 -0.90172991034E+02  0.31018736526E+03  0.37681649895E+03  0.12499861835E+03 0.  0.
          5    1    3    3  502    0 -0.39858586969E+02  0.58473149577E+02  0.67327122351E+03  0.67699634163E+03  0.47000000000E+01 0. -1.
         -5    1    3    3    0  502 -0.10852823660E+03  0.31699841456E+02  0.33089144436E+03  0.34970629969E+03  0.47000000000E+01 0. -1.
          5    1    4    4  503    0  0.15011430759E+03 -0.91961838009E+02  0.32022633147E+03  0.36545626053E+03  0.47000000000E+01 0.  1.
         -5    1    4    4    0  503 -0.17274840237E+01  0.17888469753E+01 -0.10038966203E+02  0.11360238421E+02  0.47000000000E+01 0.  1.
<mgrwt>
<rscale>  0 0.21395176E+03</rscale>
<asrwt>0</asrwt>
<pdfrwt beam="2">  1        5 0.68591618E-02 0.21395245E+03</pdfrwt>
<pdfrwt beam="1">  1       -5 0.20906687E+00 0.21395245E+03</pdfrwt>
<totfact> 0.13015785E+01</totfact>
</mgrwt>
</event>
<event>
 8    1  0.3759079E-007  0.1808249E+03  0.7546771E-02  0.1167008E+00
          5   -1    0    0  501    0  0.00000000000E+00  0.00000000000E+00  0.50541346811E+02  0.50759410334E+02  0.47000000000E+01 0.  1.
         -5   -1    0    0    0  501 -0.00000000000E+00 -0.00000000000E+00 -0.76929158987E+03  0.76930594710E+03  0.47000000000E+01 0.  1.
         25    2    1    2    0    0 -0.13063827480E+03  0.23061551356E+01 -0.52395303983E+03  0.55427675988E+03  0.12499704557E+03 0.  0.
         25    2    1    2    0    0  0.13063827480E+03 -0.23061551356E+01 -0.19479720323E+03  0.26578859756E+03  0.12500380399E+03 0.  0.
          5    1    4    4  502    0 -0.12862679663E+02 -0.29067143487E+02 -0.19354455994E+02  0.37510429556E+02  0.47000000000E+01 0. -1.
         -5    1    4    4    0  502  0.14350095446E+03  0.26760988352E+02 -0.17544274724E+03  0.22827816801E+03  0.47000000000E+01 0. -1.
          5    1    3    3  503    0 -0.13298132322E+03 -0.34620678382E+02 -0.34323574322E+03  0.36975057691E+03  0.47000000000E+01 0. -1.
         -5    1    3    3    0  503  0.23430484179E+01  0.36926833518E+02 -0.18071729660E+03  0.18452618297E+03  0.47000000000E+01 0. -1.
<mgrwt>
<rscale>  0 0.18082369E+03</rscale>
<asrwt>0</asrwt>
<pdfrwt beam="1">  1        5 0.77934709E-02 0.18082486E+03</pdfrwt>
<pdfrwt beam="2">  1       -5 0.11837042E+00 0.18082486E+03</pdfrwt>
<totfact> 0.50498381E+01</totfact>
</mgrwt>
</event>
<event>
 8    1  0.3759079E-007  0.1511043E+03  0.7546771E-02  0.1199125E+00
          5   -1    0    0  501    0  0.00000000000E+00  0.00000000000E+00  0.80116645532E+03  0.80118024135E+03  0.47000000000E+01 0.  1.
         -5   -1    0    0    0  501 -0.00000000000E+00 -0.00000000000E+00 -0.28370973884E+02  0.28757645229E+02  0.47000000000E+01 0.  1.
         25    2    1    2    0    0  0.37800993826E+02 -0.76013601609E+02  0.40844038155E+03  0.43549517302E+03  0.12500207069E+03 0.  0.
         25    2    1    2    0    0 -0.37800993826E+02  0.76013601609E+02  0.36435509988E+03  0.39444271356E+03  0.12499373066E+03 0.  0.
          5    1    4    4  502    0  0.23580263497E+02 -0.13950196155E+02  0.22921835934E+02  0.36029673353E+02  0.47000000000E+01 0. -1.
         -5    1    4    4    0  502 -0.61381257323E+02  0.89963797764E+02  0.34143326395E+03  0.35841304020E+03  0.47000000000E+01 0. -1.
          5    1    3    3  503    0 -0.44596508894E+02 -0.37963626678E+02  0.19081786051E+03  0.19965878755E+03  0.47000000000E+01 0. -1.
         -5    1    3    3    0  503  0.82397502720E+02 -0.38049974931E+02  0.21762252104E+03  0.23583638547E+03  0.47000000000E+01 0. -1.
<mgrwt>
<rscale>  0 0.15110255E+03</rscale>
<asrwt>0</asrwt>
<pdfrwt beam="1">  1        5 0.12328719E+00 0.15110427E+03</pdfrwt>
<pdfrwt beam="2">  1       -5 0.43955695E-02 0.15110427E+03</pdfrwt>
<totfact> 0.11330606E+02</totfact>
</mgrwt>
</event>
<event>
 8    1  0.3759079E-007  0.1413507E+03  0.7546771E-02  0.1211524E+00
          5   -1    0    0  501    0  0.00000000000E+00  0.00000000000E+00  0.21298465553E+03  0.21303650742E+03  0.47000000000E+01 0.  1.
         -5   -1    0    0    0  501 -0.00000000000E+00 -0.00000000000E+00 -0.97076479738E+02  0.97190189414E+02  0.47000000000E+01 0.  1.
         25    2    1    2    0    0 -0.59431913791E+02 -0.28686790052E+02  0.28990357450E+02  0.14429294813E+03  0.12499971902E+03 0.  0.
         25    2    1    2    0    0  0.59431913791E+02  0.28686790052E+02  0.86917818347E+02  0.16593374870E+03  0.12499687001E+03 0.  0.
          5    1    4    4  502    0  0.45012360373E+02  0.32169342015E+02  0.11842364956E+03  0.13079460971E+03  0.47000000000E+01 0. -1.
         -5    1    4    4    0  502  0.14419553418E+02 -0.34825519627E+01 -0.31505831217E+02  0.35139138999E+02  0.47000000000E+01 0. -1.
          5    1    3    3  503    0  0.51998481708E+01 -0.64772712309E+02  0.14325724659E+01  0.65166593779E+02  0.47000000000E+01 0. -1.
         -5    1    3    3    0  503 -0.64631761962E+02  0.36085922257E+02  0.27557784984E+02  0.79126354350E+02  0.47000000000E+01 0. -1.
<mgrwt>
<rscale>  0 0.14135005E+03</rscale>
<asrwt>0</asrwt>
<pdfrwt beam="1">  1        5 0.32779606E-01 0.14135068E+03</pdfrwt>
<pdfrwt beam="2">  1       -5 0.14947579E-01 0.14135068E+03</pdfrwt>
<totfact> 0.26001486E+02</totfact>
</mgrwt>
</event>
<event>
 8    1  0.3759079E-007  0.1491179E+03  0.7546771E-02  0.1201562E+00
         -5   -1    0    0    0  501 -0.00000000000E+00  0.00000000000E+00  0.12889070971E+04  0.12889156663E+04  0.47000000000E+01 0.  1.
          5   -1    0    0  501    0  0.00000000000E+00 -0.00000000000E+00 -0.17333298495E+02  0.17959210359E+02  0.47000000000E+01 0.  1.
         25    2    1    2    0    0  0.44700612501E+02  0.67912339800E+02  0.53704326811E+03  0.55736131180E+03  0.12500371763E+03 0.  0.
         25    2    1    2    0    0 -0.44700612501E+02 -0.67912339800E+02  0.73453053048E+03  0.74951356489E+03  0.12500101234E+03 0.  0.
          5    1    4    4  502    0 -0.36196956064E+02 -0.10081348676E+03  0.64068075324E+03  0.64959025263E+03  0.47000000000E+01 0.  1.
         -5    1    4    4    0  502 -0.85036564366E+01  0.32901146959E+02  0.93849777240E+02  0.99923312255E+02  0.47000000000E+01 0.  1.
          5    1    3    3  503    0 -0.23903285369E+02  0.39478438682E+02  0.38811936810E+03  0.39088188506E+03  0.47000000000E+01 0.  1.
         -5    1    3    3    0  503  0.68603897870E+02  0.28433901118E+02  0.14892390000E+03  0.16647942674E+03  0.47000000000E+01 0.  1.
<mgrwt>
<rscale>  0 0.14911737E+03</rscale>
<asrwt>0</asrwt>
<pdfrwt beam="2">  1        5 0.27154688E-02 0.14911794E+03</pdfrwt>
<pdfrwt beam="1">  1       -5 0.19834211E+00 0.14911794E+03</pdfrwt>
<totfact> 0.65370767E+01</totfact>
</mgrwt>
</event>
<event>
 8    1  0.3759079E-007  0.1840750E+03  0.7546771E-02  0.1163917E+00
          5   -1    0    0  501    0  0.00000000000E+00  0.00000000000E+00  0.51533022996E+02  0.51746907725E+02  0.47000000000E+01 0.  1.
         -5   -1    0    0    0  501 -0.00000000000E+00 -0.00000000000E+00 -0.65819187010E+03  0.65820865071E+03  0.47000000000E+01 0.  1.
         25    2    1    2    0    0 -0.33359485693E+02 -0.13094764734E+03 -0.32415476696E+03  0.37277330051E+03  0.12499391585E+03 0.  0.
         25    2    1    2    0    0  0.33359485693E+02  0.13094764734E+03 -0.28250408014E+03  0.33718225793E+03  0.12499271232E+03 0.  0.
          5    1    3    3  502    0 -0.29470408869E+02 -0.12585544439E+03 -0.14847423692E+03  0.19691314560E+03  0.47000000000E+01 0.  1.
         -5    1    3    3    0  502 -0.38890768243E+01 -0.50922029504E+01 -0.17568053004E+03  0.17586015491E+03  0.47000000000E+01 0.  1.
          5    1    4    4  503    0  0.77897158523E+02  0.56546039694E+02 -0.13225814764E+03  0.16364513292E+03  0.47000000000E+01 0. -1.
         -5    1    4    4    0  503 -0.44537672830E+02  0.74401607644E+02 -0.15024593251E+03  0.17353712501E+03  0.47000000000E+01 0. -1.
<mgrwt>
<rscale>  0 0.18407484E+03</rscale>
<asrwt>0</asrwt>
<pdfrwt beam="1">  1        5 0.79459013E-02 0.18407504E+03</pdfrwt>
<pdfrwt beam="2">  1       -5 0.10127803E+00 0.18407504E+03</pdfrwt>
<totfact> 0.72507860E+01</totfact>
</mgrwt>
</event>
<event>
 8    1  0.3759079E-007  0.2115272E+03  0.7546771E-02  0.1140366E+00
         -5   -1    0    0    0  501 -0.00000000000E+00  0.00000000000E+00  0.22912898087E+03  0.22917718009E+03  0.47000000000E+01 0. -1.
          5   -1    0    0  501    0  0.00000000000E+00 -0.00000000000E+00 -0.23483575132E+03  0.23488277948E+03  0.47000000000E+01 0. -1.
         25    2    1    2    0    0  0.17022103453E+03 -0.11630701932E+02  0.92497100614E+02  0.23086674911E+03  0.12503306922E+03 0.  0.
         25    2    1    2    0    0 -0.17022103453E+03  0.11630701932E+02 -0.98203871062E+02  0.23319321046E+03  0.12499839714E+03 0.  0.
          5    1    3    3  502    0 -0.67420322934E+01  0.16794343110E+02 -0.13061254524E+02  0.22807703297E+02  0.47000000000E+01 0. -1.
         -5    1    3    3    0  502  0.17696306682E+03 -0.28425045042E+02  0.10555835514E+03  0.20805904581E+03  0.47000000000E+01 0. -1.
          5    1    4    4  503    0 -0.39135155813E+02  0.34476079394E+02  0.19104422751E+02  0.55742528105E+02  0.47000000000E+01 0. -1.
         -5    1    4    4    0  503 -0.13108587872E+03 -0.22845377461E+02 -0.11730829381E+03  0.17745068235E+03  0.47000000000E+01 0. -1.
<mgrwt>
<rscale>  0 0.21152204E+03</rscale>
<asrwt>0</asrwt>
<pdfrwt beam="2">  1        5 0.36135902E-01 0.21152717E+03</pdfrwt>
<pdfrwt beam="1">  1       -5 0.35257937E-01 0.21152717E+03</pdfrwt>
<totfact> 0.46857249E+01</totfact>
</mgrwt>
</event>
<event>
 8    1  0.3759079E-007  0.1620417E+03  0.7546771E-02  0.1186413E+00
          5   -1    0    0  501    0  0.00000000000E+00  0.00000000000E+00  0.10214440775E+04  0.10214548905E+04  0.47000000000E+01 0. -1.
         -5   -1    0    0    0  501 -0.00000000000E+00 -0.00000000000E+00 -0.27270935331E+02  0.27672981658E+02  0.47000000000E+01 0. -1.
         25    2    1    2    0    0 -0.54192352098E+01  0.10296410963E+03  0.36368057079E+03  0.39814702886E+03  0.12500609199E+03 0.  0.
         25    2    1    2    0    0  0.54192352098E+01 -0.10296410963E+03  0.63049257133E+03  0.65098084332E+03  0.12499679949E+03 0.  0.
          5    1    4    4  502    0 -0.40619253499E+02 -0.91872113125E+02  0.28488910751E+03  0.30211637245E+03  0.47000000000E+01 0.  1.
         -5    1    4    4    0  502  0.46038488709E+02 -0.11091996502E+02  0.34560346382E+03  0.34886447087E+03  0.47000000000E+01 0.  1.
          5    1    3    3  503    0 -0.22449671734E+02 -0.19860768365E+02  0.32395821881E+02  0.44384875311E+02  0.47000000000E+01 0.  1.
         -5    1    3    3    0  503  0.17030436524E+02  0.12282487799E+03  0.33128474891E+03  0.35376215354E+03  0.47000000000E+01 0.  1.
<mgrwt>
<rscale>  0 0.16203987E+03</rscale>
<asrwt>0</asrwt>
<pdfrwt beam="1">  1        5 0.15717701E+00 0.16204166E+03</pdfrwt>
<pdfrwt beam="2">  1       -5 0.42272868E-02 0.16204166E+03</pdfrwt>
<totfact> 0.64453308E+01</totfact>
</mgrwt>
</event>
<event>
 8    1  0.3759079E-007  0.1453563E+03  0.7546771E-02  0.1206298E+00
         -5   -1    0    0    0  501 -0.00000000000E+00  0.00000000000E+00  0.79879414229E+02  0.80017565681E+02  0.47000000000E+01 0. -1.
          5   -1    0    0  501    0  0.00000000000E+00 -0.00000000000E+00 -0.26422160785E+03  0.26426340658E+03  0.47000000000E+01 0. -1.
         25    2    1    2    0    0  0.65933604058E+02  0.34005338617E+02 -0.88712441662E+02  0.17028906125E+03  0.12499945550E+03 0.  0.
         25    2    1    2    0    0 -0.65933604058E+02 -0.34005338617E+02 -0.95629751963E+02  0.17399191101E+03  0.12499812974E+03 0.  0.
          5    1    3    3  502    0 -0.22140222215E+02  0.21251118757E+02 -0.73626496617E+02  0.79904633735E+02  0.47000000000E+01 0.  1.
         -5    1    3    3    0  502  0.88073826273E+02  0.12754219860E+02 -0.15085945045E+02  0.90384427511E+02  0.47000000000E+01 0.  1.
          5    1    4    4  503    0 -0.73709075528E+02 -0.68204388402E+01 -0.11679792566E+03  0.13835964600E+03  0.47000000000E+01 0.  1.
         -5    1    4    4    0  503  0.77754714699E+01 -0.27184899777E+02  0.21168173700E+02  0.35632265017E+02  0.47000000000E+01 0.  1.
<mgrwt>
<rscale>  0 0.14535606E+03</rscale>
<asrwt>0</asrwt>
<pdfrwt beam="2">  1        5 0.40663320E-01 0.14535635E+03</pdfrwt>
<pdfrwt beam="1">  1       -5 0.12302983E-01 0.14535635E+03</pdfrwt>
<totfact> 0.24089160E+02</totfact>
</mgrwt>
</event>
<event>
 8    1  0.3759079E-007  0.1470166E+03  0.7546771E-02  0.1204189E+00
         -5   -1    0    0    0  501 -0.00000000000E+00  0.00000000000E+00  0.26132235337E+03  0.26136461576E+03  0.47000000000E+01 0.  1.
          5   -1    0    0  501    0  0.00000000000E+00 -0.00000000000E+00 -0.82620067746E+02  0.82753643994E+02  0.47000000000E+01 0.  1.
         25    2    1    2    0    0  0.36860972290E+02  0.68037653125E+02  0.86144986970E+02  0.17039610935E+03  0.12500408706E+03 0.  0.
         25    2    1    2    0    0 -0.36860972290E+02 -0.68037653125E+02  0.92557298651E+02  0.17372215040E+03  0.12499871393E+03 0.  0.
          5    1    4    4  502    0  0.16588507652E+02 -0.87076386182E+02  0.67513019252E+02  0.11152386913E+03  0.47000000000E+01 0.  1.
         -5    1    4    4    0  502 -0.53449479942E+02  0.19038733057E+02  0.25044279399E+02  0.62198281271E+02  0.47000000000E+01 0.  1.
          5    1    3    3  503    0  0.70588992328E+02  0.35158188884E+00  0.34585296880E+02  0.78747458422E+02  0.47000000000E+01 0.  1.
         -5    1    3    3    0  503 -0.33728020038E+02  0.67686071236E+02  0.51559690090E+02  0.91648650930E+02  0.47000000000E+01 0.  1.
<mgrwt>
<rscale>  0 0.14701544E+03</rscale>
<asrwt>0</asrwt>
<pdfrwt beam="2">  1        5 0.12724306E-01 0.14701658E+03</pdfrwt>
<pdfrwt beam="1">  1       -5 0.40216964E-01 0.14701658E+03</pdfrwt>
<totfact> 0.23294699E+02</totfact>
</mgrwt>
</event>
<event>
 8    1  0.3759079E-007  0.1263091E+03  0.7546771E-02  0.1233039E+00
          5   -1    0    0  501    0  0.00000000000E+00  0.00000000000E+00  0.83588249691E+01  0.95895753224E+01  0.47000000000E+01 0. -1.
         -5   -1    0    0    0  501 -0.00000000000E+00 -0.00000000000E+00 -0.19359992019E+04  0.19360049070E+04  0.47000000000E+01 0. -1.
         25    2    1    2    0    0 -0.18047276924E+02 -0.17366199538E+01 -0.12429862721E+04  0.12493873990E+04  0.12500111980E+03 0.  0.
         25    2    1    2    0    0  0.18047276924E+02  0.17366199538E+01 -0.68465410486E+03  0.69620708336E+03  0.12499735827E+03 0.  0.
          5    1    3    3  502    0 -0.46290444650E+02  0.37191770615E+02 -0.99228782092E+03  0.99407406295E+03  0.47000000000E+01 0. -1.
         -5    1    3    3    0  502  0.28243167726E+02 -0.38928390569E+02 -0.25069845119E+03  0.25531333601E+03  0.47000000000E+01 0. -1.
          5    1    4    4  503    0  0.67398402549E+01 -0.30482995514E+02 -0.41568152603E+02  0.52198082082E+02  0.47000000000E+01 0. -1.
         -5    1    4    4    0  503  0.11307436670E+02  0.32219615468E+02 -0.64308595226E+03  0.64400900128E+03  0.47000000000E+01 0. -1.
<mgrwt>
<rscale>  0 0.12630821E+03</rscale>
<asrwt>0</asrwt>
<pdfrwt beam="1">  1        5 0.13810866E-02 0.12630914E+03</pdfrwt>
<pdfrwt beam="2">  1       -5 0.29794081E+00 0.12630914E+03</pdfrwt>
<totfact> 0.41959428E+01</totfact>
</mgrwt>
</event>
<event>
 8    1  0.3759079E-007  0.1360787E+03  0.7546771E-02  0.1218706E+00
         -5   -1    0    0    0  501 -0.00000000000E+00  0.00000000000E+00  0.27023536121E+02  0.27429208966E+02  0.47000000000E+01 0. -1.
          5   -1    0    0  501    0  0.00000000000E+00 -0.00000000000E+00 -0.71074475061E+03  0.71076029048E+03  0.47000000000E+01 0. -1.
         25    2    1    2    0    0 -0.50633981599E+02 -0.18105022723E+02 -0.26474681479E+03  0.29767053939E+03  0.12500112855E+03 0.  0.
         25    2    1    2    0    0  0.50633981599E+02  0.18105022723E+02 -0.41897439970E+03  0.44051896005E+03  0.12500325845E+03 0.  0.
          5    1    3    3  502    0 -0.88981783902E+02  0.79761564283E+01 -0.17445680919E+03  0.19605775988E+03  0.47000000000E+01 0.  1.
         -5    1    3    3    0  502  0.38347802304E+02 -0.26081179151E+02 -0.90290005600E+02  0.10161277950E+03  0.47000000000E+01 0.  1.
          5    1    4    4  503    0  0.58639511370E+02  0.62507808580E+02 -0.21375296290E+03  0.23034373787E+03  0.47000000000E+01 0.  1.
         -5    1    4    4    0  503 -0.80055297707E+01 -0.44402785857E+02 -0.20522143680E+03  0.21017522218E+03  0.47000000000E+01 0.  1.
<mgrwt>
<rscale>  0 0.13607819E+03</rscale>
<asrwt>0</asrwt>
<pdfrwt beam="2">  1        5 0.10937773E+00 0.13607868E+03</pdfrwt>
<pdfrwt beam="1">  1       -5 0.41898686E-02 0.13607868E+03</pdfrwt>
<totfact> 0.16045477E+02</totfact>
</mgrwt>
</event>
<event>
 8    1  0.3759079E-007  0.1514045E+03  0.7546771E-02  0.1198768E+00
          5   -1    0    0  501    0  0.00000000000E+00  0.00000000000E+00  0.55313597970E+02  0.55512918500E+02  0.47000000000E+01 0. -1.
         -5   -1    0    0    0  501 -0.00000000000E+00 -0.00000000000E+00 -0.53911046798E+03  0.53913095504E+03  0.47000000000E+01 0. -1.
         25    2    1    2    0    0 -0.30221056063E+02  0.79838725461E+02 -0.38547973716E+03  0.41414725328E+03  0.12504313386E+03 0.  0.
         25    2    1    2    0    0  0.30221056063E+02 -0.79838725461E+02 -0.98317132850E+02  0.18049662026E+03  0.12500094800E+03 0.  0.
          5    1    4    4  502    0  0.49400513542E+02 -0.45764582760E+02  0.71826213179E+01  0.67885844050E+02  0.47000000000E+01 0. -1.
         -5    1    4    4    0  502 -0.19179457478E+02 -0.34074142702E+02 -0.10549975417E+03  0.11261077621E+03  0.47000000000E+01 0. -1.
          5    1    3    3  503    0  0.30931509281E+02  0.36821735101E+02 -0.46752013456E+02  0.67234211563E+02  0.47000000000E+01 0. -1.
         -5    1    3    3    0  503 -0.61152565344E+02  0.43016990360E+02 -0.33872772370E+03  0.34691304172E+03  0.47000000000E+01 0. -1.
<mgrwt>
<rscale>  0 0.15139578E+03</rscale>
<asrwt>0</asrwt>
<pdfrwt beam="1">  1        5 0.85266929E-02 0.15140449E+03</pdfrwt>
<pdfrwt beam="2">  1       -5 0.82956977E-01 0.15140449E+03</pdfrwt>
<totfact> 0.97768021E+01</totfact>
</mgrwt>
</event>
<event>
 8    1  0.3759079E-007  0.1619340E+03  0.7546771E-02  0.1186531E+00
          5   -1    0    0  501    0  0.00000000000E+00  0.00000000000E+00  0.61309128367E+03  0.61310929867E+03  0.47000000000E+01 0. -1.
         -5   -1    0    0    0  501 -0.00000000000E+00 -0.00000000000E+00 -0.50071909271E+02  0.50292008292E+02  0.47000000000E+01 0. -1.
         25    2    1    2    0    0 -0.73262036613E+02 -0.72315516811E+02  0.15389700715E+03  0.22339706549E+03  0.12500040032E+03 0.  0.
         25    2    1    2    0    0  0.73262036613E+02  0.72315516811E+02  0.40912236725E+03  0.44000424147E+03  0.12500304454E+03 0.  0.
          5    1    4    4  502    0  0.97594995509E+02  0.15787895385E+02  0.22484899850E+03  0.24566888879E+03  0.47000000000E+01 0. -1.
         -5    1    4    4    0  502 -0.24332958896E+02  0.56527621426E+02  0.18427336875E+03  0.19433535268E+03  0.47000000000E+01 0. -1.
          5    1    3    3  503    0 -0.69628200689E+02 -0.80506566001E+02  0.17219305062E+03  0.20248933350E+03  0.47000000000E+01 0.  1.
         -5    1    3    3    0  503 -0.36338359233E+01  0.81910491896E+01 -0.18296043470E+02  0.20907731991E+02  0.47000000000E+01 0.  1.
<mgrwt>
<rscale>  0 0.16193349E+03</rscale>
<asrwt>0</asrwt>
<pdfrwt beam="1">  1        5 0.94340054E-01 0.16193400E+03</pdfrwt>
<pdfrwt beam="2">  1       -5 0.77216870E-02 0.16193400E+03</pdfrwt>
<totfact> 0.87273781E+01</totfact>
</mgrwt>
</event>
<event>
 8    1  0.3759079E-007  0.1766092E+03  0.7546771E-02  0.1171126E+00
          5   -1    0    0  501    0  0.00000000000E+00  0.00000000000E+00  0.62897885788E+03  0.62899641784E+03  0.47000000000E+01 0.  1.
         -5   -1    0    0    0  501 -0.00000000000E+00 -0.00000000000E+00 -0.58119966117E+02  0.58309694404E+02  0.47000000000E+01 0.  1.
         25    2    1    2    0    0  0.31370816837E+02 -0.12075346243E+03  0.15302553685E+03  0.23368126053E+03  0.12499835901E+03 0.  0.
         25    2    1    2    0    0 -0.31370816837E+02  0.12075346243E+03  0.41783335491E+03  0.45362485172E+03  0.12500106711E+03 0.  0.
          5    1    4    4  502    0  0.10961381409E+02 -0.80423212803E+01  0.66338090635E-01  0.14384895367E+02  0.47000000000E+01 0. -1.
         -5    1    4    4    0  502 -0.42332198247E+02  0.12879578371E+03  0.41776701682E+03  0.43923995635E+03  0.47000000000E+01 0. -1.
          5    1    3    3  503    0  0.41424981033E+02  0.55369463516E+01  0.11343794949E+02  0.43559826817E+02  0.47000000000E+01 0. -1.
         -5    1    3    3    0  503 -0.10054164195E+02 -0.12629040879E+03  0.14168174190E+03  0.19012143371E+03  0.47000000000E+01 0. -1.
<mgrwt>
<rscale>  0 0.17660868E+03</rscale>
<asrwt>0</asrwt>
<pdfrwt beam="1">  1        5 0.96781925E-01 0.17660915E+03</pdfrwt>
<pdfrwt beam="2">  1       -5 0.89574784E-02 0.17660915E+03</pdfrwt>
<totfact> 0.65091203E+01</totfact>
</mgrwt>
</event>
<event>
 8    1  0.3759079E-007  0.1265369E+03  0.7546771E-02  0.1232692E+00
         -5   -1    0    0    0  501 -0.00000000000E+00  0.00000000000E+00  0.36404323069E+02  0.36706467252E+02  0.47000000000E+01 0.  1.
          5   -1    0    0  501    0  0.00000000000E+00 -0.00000000000E+00 -0.48965705382E+03  0.48967960990E+03  0.47000000000E+01 0.  1.
         25    2    1    2    0    0  0.10717121822E+02  0.16305363322E+02 -0.14086676367E+03  0.18934515624E+03  0.12500968566E+03 0.  0.
         25    2    1    2    0    0 -0.10717121822E+02 -0.16305363322E+02 -0.31238596708E+03  0.33704092092E+03  0.12502347129E+03 0.  0.
          5    1    3    3  502    0 -0.46182857958E+02  0.80463902169E+01 -0.11841280061E+03  0.12744128888E+03  0.47000000000E+01 0. -1.
         -5    1    3    3    0  502  0.56899979781E+02  0.82589731047E+01 -0.22453963063E+02  0.61903867351E+02  0.47000000000E+01 0. -1.
          5    1    4    4  503    0  0.69977790768E+00  0.16231965549E+02 -0.29942867848E+03  0.29990596842E+03  0.47000000000E+01 0. -1.
         -5    1    4    4    0  503 -0.11416899730E+02 -0.32537328870E+02 -0.12957288595E+02  0.37134952500E+02  0.47000000000E+01 0. -1.
<mgrwt>
<rscale>  0 0.12653351E+03</rscale>
<asrwt>0</asrwt>
<pdfrwt beam="2">  1        5 0.75356827E-01 0.12653691E+03</pdfrwt>
<pdfrwt beam="1">  1       -5 0.56256424E-02 0.12653691E+03</pdfrwt>
<totfact> 0.23297414E+02</totfact>
</mgrwt>
</event>
<event>
 8    1  0.3759079E-007  0.1355386E+03  0.7546771E-02  0.1219489E+00
         -5   -1    0    0    0  501 -0.00000000000E+00  0.00000000000E+00  0.21312511370E+04  0.21312563194E+04  0.47000000000E+01 0. -1.
          5   -1    0    0  501    0  0.00000000000E+00 -0.00000000000E+00 -0.98933191786E+01  0.10952979703E+02  0.47000000000E+01 0. -1.
         25    2    1    2    0    0  0.27129282292E+02  0.44568888036E+02  0.15071058278E+04  0.15131813031E+04  0.12500918308E+03 0.  0.
         25    2    1    2    0    0 -0.27129282292E+02 -0.44568888036E+02  0.61425198993E+03  0.62902799600E+03  0.12509328070E+03 0.  0.
          5    1    4    4  502    0 -0.75968996618E+02 -0.26442987576E+02  0.30934070694E+03  0.31966276450E+03  0.47000000000E+01 0. -1.
         -5    1    4    4    0  502  0.48839714325E+02 -0.18125900460E+02  0.30491128299E+03  0.30936523150E+03  0.47000000000E+01 0. -1.
          5    1    3    3  503    0  0.64200102683E+02  0.51666083890E+02  0.12995813249E+04  0.13021999644E+04  0.47000000000E+01 0. -1.
         -5    1    3    3    0  503 -0.37070820390E+02 -0.70971958543E+01  0.20752450296E+03  0.21098133862E+03  0.47000000000E+01 0. -1.
<mgrwt>
<rscale>  0 0.13551919E+03</rscale>
<asrwt>0</asrwt>
<pdfrwt beam="2">  1        5 0.16039596E-02 0.13553860E+03</pdfrwt>
<pdfrwt beam="1">  1       -5 0.32796680E+00 0.13553860E+03</pdfrwt>
<totfact> 0.21769808E+01</totfact>
</mgrwt>
</event>
<event>
 8    1  0.3759079E-007  0.1322190E+03  0.7546771E-02  0.1224201E+00
          5   -1    0    0  501    0  0.00000000000E+00  0.00000000000E+00  0.11557660059E+04  0.11557755623E+04  0.47000000000E+01 0. -1.
         -5   -1    0    0    0  501 -0.00000000000E+00 -0.00000000000E+00 -0.15367825502E+02  0.16070471700E+02  0.47000000000E+01 0. -1.
         25    2    1    2    0    0 -0.22038423479E+02  0.36968321942E+02  0.45541637321E+03  0.47422010524E+03  0.12501314447E+03 0.  0.
         25    2    1    2    0    0  0.22038423479E+02 -0.36968321942E+02  0.68498180716E+03  0.69762592872E+03  0.12501804410E+03 0.  0.
          5    1    4    4  502    0 -0.29793299026E+02 -0.13842827075E+01  0.52203708737E+03  0.52290952133E+03  0.47000000000E+01 0.  1.
         -5    1    4    4    0  502  0.51831722504E+02 -0.35584039235E+02  0.16294471979E+03  0.17471640739E+03  0.47000000000E+01 0.  1.
          5    1    3    3  503    0 -0.43026012351E+02  0.33217798599E+02  0.72771699811E+02  0.90953120759E+02  0.47000000000E+01 0. -1.
         -5    1    3    3    0  503  0.20987588872E+02  0.37505233436E+01  0.38264467340E+03  0.38326698448E+03  0.47000000000E+01 0. -1.
<mgrwt>
<rscale>  0 0.13221783E+03</rscale>
<asrwt>0</asrwt>
<pdfrwt beam="1">  1        5 0.17786495E+00 0.13221899E+03</pdfrwt>
<pdfrwt beam="2">  1       -5 0.24190655E-02 0.13221899E+03</pdfrwt>
<totfact> 0.10544715E+02</totfact>
</mgrwt>
</event>
<event>
 8    1  0.3759079E-007  0.1268139E+03  0.7546771E-02  0.1232268E+00
         -5   -1    0    0    0  501 -0.00000000000E+00  0.00000000000E+00  0.32974821260E+03  0.32978170615E+03  0.47000000000E+01 0.  1.
          5   -1    0    0  501    0  0.00000000000E+00 -0.00000000000E+00 -0.49182674905E+02  0.49406735480E+02  0.47000000000E+01 0.  1.
         25    2    1    2    0    0 -0.16236277333E+02  0.13896526171E+02  0.16060674477E+03  0.20462651665E+03  0.12498301768E+03 0.  0.
         25    2    1    2    0    0  0.16236277333E+02 -0.13896526171E+02  0.11995879293E+03  0.17456192499E+03  0.12500009406E+03 0.  0.
          5    1    4    4  502    0 -0.53709241221E+02 -0.60421646087E+01  0.67785184855E+02  0.86822299160E+02  0.47000000000E+01 0. -1.
         -5    1    4    4    0  502  0.69945518553E+02 -0.78543615624E+01  0.52173608070E+02  0.87739625827E+02  0.47000000000E+01 0. -1.
          5    1    3    3  503    0 -0.30471039262E+02 -0.47905675445E+02  0.44672973932E+02  0.72396150267E+02  0.47000000000E+01 0.  1.
         -5    1    3    3    0  503  0.14234761929E+02  0.61802201616E+02  0.11593377084E+03  0.13223036638E+03  0.47000000000E+01 0.  1.
<mgrwt>
<rscale>  0 0.12680965E+03</rscale>
<asrwt>0</asrwt>
<pdfrwt beam="2">  1        5 0.75863774E-02 0.12681385E+03</pdfrwt>
<pdfrwt beam="1">  1       -5 0.50750305E-01 0.12681385E+03</pdfrwt>
<totfact> 0.33564948E+02</totfact>
</mgrwt>
</event>
<event>
 8    1  0.3759079E-007  0.1251348E+03  0.7546771E-02  0.1234860E+00
          5   -1    0    0  501    0  0.00000000000E+00  0.00000000000E+00  0.57522432122E+03  0.57524352211E+03  0.47000000000E+01 0. -1.
         -5   -1    0    0    0  501 -0.00000000000E+00 -0.00000000000E+00 -0.30280180614E+02  0.30642769751E+02  0.47000000000E+01 0. -1.
         25    2    1    2    0    0  0.13831025598E+00  0.56471737657E+01  0.17339213818E+03  0.21382810720E+03  0.12500286454E+03 0.  0.
         25    2    1    2    0    0 -0.13831025598E+00 -0.56471737657E+01  0.37155200243E+03  0.39205818466E+03  0.12500727958E+03 0.  0.
          5    1    3    3  502    0  0.21608192289E+02  0.26403857918E+02 -0.32722432912E+01  0.34595885060E+02  0.47000000000E+01 0.  1.
         -5    1    3    3    0  502 -0.21469882033E+02 -0.20756684153E+02  0.17666438147E+03  0.17923222214E+03  0.47000000000E+01 0.  1.
          5    1    4    4  503    0  0.59074817834E+02  0.13662387632E+02  0.14970518450E+03  0.16158659351E+03  0.47000000000E+01 0. -1.
         -5    1    4    4    0  503 -0.59213128090E+02 -0.19309561397E+02  0.22184681793E+03  0.23047159115E+03  0.47000000000E+01 0. -1.
<mgrwt>
<rscale>  0 0.12513374E+03</rscale>
<asrwt>0</asrwt>
<pdfrwt beam="1">  1        5 0.88525418E-01 0.12513485E+03</pdfrwt>
<pdfrwt beam="2">  1       -5 0.46878578E-02 0.12513485E+03</pdfrwt>
<totfact> 0.21623925E+02</totfact>
</mgrwt>
</event>
<event>
 8    1  0.3759079E-007  0.1317616E+03  0.7546771E-02  0.1224866E+00
         -5   -1    0    0    0  501 -0.00000000000E+00  0.00000000000E+00  0.54152223655E+03  0.54154263237E+03  0.47000000000E+01 0.  1.
          5   -1    0    0  501    0  0.00000000000E+00 -0.00000000000E+00 -0.34524589967E+02  0.34843038220E+02  0.47000000000E+01 0.  1.
         25    2    1    2    0    0 -0.24883316253E+02  0.33420872533E+02  0.33306725594E+03  0.35818184886E+03  0.12499722287E+03 0.  0.
         25    2    1    2    0    0  0.24883316253E+02 -0.33420872533E+02  0.17393039064E+03  0.21820382173E+03  0.12499997152E+03 0.  0.
          5    1    4    4  502    0 -0.13080902713E+02 -0.29433579943E+02 -0.69460802703E+01  0.33283384371E+02  0.47000000000E+01 0. -1.
         -5    1    4    4    0  502  0.37964218966E+02 -0.39872925899E+01  0.18087647091E+03  0.18492043736E+03  0.47000000000E+01 0. -1.
          5    1    3    3  503    0 -0.71188742579E+02  0.88921895433E+01  0.24753151305E+03  0.25776122295E+03  0.47000000000E+01 0. -1.
         -5    1    3    3    0  503  0.46305426325E+02  0.24528682990E+02  0.85535742891E+02  0.10042062591E+03  0.47000000000E+01 0. -1.
<mgrwt>
<rscale>  0 0.13176098E+03</rscale>
<asrwt>0</asrwt>
<pdfrwt beam="2">  1        5 0.53375403E-02 0.13176163E+03</pdfrwt>
<pdfrwt beam="1">  1       -5 0.83337178E-01 0.13176163E+03</pdfrwt>
<totfact> 0.20456720E+02</totfact>
</mgrwt>
</event>
<event>
 8    1  0.3759079E-007  0.1254353E+03  0.7546771E-02  0.1234392E+00
         -5   -1    0    0    0  501 -0.00000000000E+00  0.00000000000E+00  0.15717990894E+03  0.15725016304E+03  0.47000000000E+01 0.  1.
          5   -1    0    0  501    0  0.00000000000E+00 -0.00000000000E+00 -0.13091252424E+03  0.13099686639E+03  0.47000000000E+01 0.  1.
         25    2    1    2    0    0 -0.93609069455E+00 -0.10377202820E+02  0.83178283325E+02  0.15050504413E+03  0.12499831553E+03 0.  0.
         25    2    1    2    0    0  0.93609069455E+00  0.10377202820E+02 -0.56910898623E+02  0.13774198530E+03  0.12500176610E+03 0.  0.
          5    1    3    3  502    0  0.58483617402E+01  0.37494719571E+02  0.93345903894E+02  0.10087420436E+03  0.47000000000E+01 0.  1.
         -5    1    3    3    0  502 -0.67844524348E+01 -0.47871922390E+02 -0.10167620569E+02  0.49630839769E+02  0.47000000000E+01 0.  1.
          5    1    4    4  503    0  0.87574523759E+01  0.52925817519E+02  0.12996467472E+02  0.55397051355E+02  0.47000000000E+01 0. -1.
         -5    1    4    4    0  503 -0.78213616813E+01 -0.42548614699E+02 -0.69907366095E+02  0.82344933941E+02  0.47000000000E+01 0. -1.
<mgrwt>
<rscale>  0 0.12543440E+03</rscale>
<asrwt>0</asrwt>
<pdfrwt beam="2">  1        5 0.20152280E-01 0.12543526E+03</pdfrwt>
<pdfrwt beam="1">  1       -5 0.24193416E-01 0.12543526E+03</pdfrwt>
<totfact> 0.26005591E+02</totfact>
</mgrwt>
</event>
<event>
 8    1  0.3759079E-007  0.1448788E+03  0.7546771E-02  0.1206913E+00
          5   -1    0    0  501    0  0.00000000000E+00  0.00000000000E+00  0.11690239747E+04  0.11690334227E+04  0.47000000000E+01 0. -1.
         -5   -1    0    0    0  501 -0.00000000000E+00 -0.00000000000E+00 -0.36239106894E+02  0.36542617155E+02  0.47000000000E+01 0. -1.
         25    2    1    2    0    0  0.71308395370E+02 -0.16722598087E+02  0.13729285769E+03  0.19959760063E+03  0.12500136346E+03 0.  0.
         25    2    1    2    0    0 -0.71308395370E+02  0.16722598087E+02  0.99549201009E+03  0.10059784392E+04  0.12499498183E+03 0.  0.
          5    1    4    4  502    0 -0.85268338938E+02 -0.19457074165E+02  0.41336701261E+03  0.42254425149E+03  0.47000000000E+01 0.  1.
         -5    1    4    4    0  502  0.13959943568E+02  0.36179672252E+02  0.58212499748E+03  0.58343418772E+03  0.47000000000E+01 0.  1.
          5    1    3    3  503    0  0.72191131633E+01 -0.26879302127E+02  0.13125872603E+03  0.13425928510E+03  0.47000000000E+01 0.  1.
         -5    1    3    3    0  503  0.64089282207E+02  0.10156704040E+02  0.60341316641E+01  0.65338315525E+02  0.47000000000E+01 0.  1.
<mgrwt>
<rscale>  0 0.14487745E+03</rscale>
<asrwt>0</asrwt>
<pdfrwt beam="1">  1        5 0.17987389E+00 0.14487882E+03</pdfrwt>
<pdfrwt beam="2">  1       -5 0.55993217E-02 0.14487882E+03</pdfrwt>
<totfact> 0.26595840E+01</totfact>
</mgrwt>
</event>
<event>
 8    1  0.3759079E-007  0.2997407E+03  0.7546771E-02  0.1085370E+00
         -5   -1    0    0    0  501 -0.00000000000E+00  0.00000000000E+00  0.12695305762E+03  0.12704002849E+03  0.47000000000E+01 0.  1.
          5   -1    0    0  501    0  0.00000000000E+00 -0.00000000000E+00 -0.76945380559E+03  0.76946815979E+03  0.47000000000E+01 0.  1.
         25    2    1    2    0    0 -0.85723740896E+02 -0.25859320267E+03 -0.19391868851E+03  0.35699884174E+03  0.12499884414E+03 0.  0.
         25    2    1    2    0    0  0.85723740896E+02  0.25859320267E+03 -0.44858205946E+03  0.53950934654E+03  0.12500186683E+03 0.  0.
          5    1    4    4  502    0  0.15323186918E+02  0.44201328391E+02 -0.12771624817E+02  0.48721267320E+02  0.47000000000E+01 0. -1.
         -5    1    4    4    0  502  0.70400553978E+02  0.21439187428E+03 -0.43581043465E+03  0.49078807922E+03  0.47000000000E+01 0. -1.
          5    1    3    3  503    0 -0.80052658194E+01 -0.20465294450E+03 -0.12720709771E+03  0.24114445397E+03  0.47000000000E+01 0. -1.
         -5    1    3    3    0  503 -0.77718475077E+02 -0.53940258165E+02 -0.66711590800E+02  0.11585438777E+03  0.47000000000E+01 0. -1.
<mgrwt>
<rscale>  0 0.29974036E+03</rscale>
<asrwt>0</asrwt>
<pdfrwt beam="2">  1        5 0.11838530E+00 0.29974067E+03</pdfrwt>
<pdfrwt beam="1">  1       -5 0.19539034E-01 0.29974067E+03</pdfrwt>
<totfact> 0.10861585E+01</totfact>
</mgrwt>
</event>
<event>
 8    1  0.3759079E-007  0.1254771E+03  0.7546771E-02  0.1234335E+00
          5   -1    0    0  501    0  0.00000000000E+00  0.00000000000E+00  0.72713205650E+02  0.72864945453E+02  0.47000000000E+01 0. -1.
         -5   -1    0    0    0  501 -0.00000000000E+00 -0.00000000000E+00 -0.21975125777E+03  0.21980151340E+03  0.47000000000E+01 0. -1.
         25    2    1    2    0    0  0.24303052216E+01 -0.10574646833E+02 -0.92416549985E+02  0.15583752314E+03  0.12500714127E+03 0.  0.
         25    2    1    2    0    0 -0.24303052216E+01  0.10574646833E+02 -0.54621502136E+02  0.13682893571E+03  0.12498367739E+03 0.  0.
          5    1    4    4  502    0  0.49369095608E+01 -0.52331377570E+02  0.43744379849E+00  0.52775254727E+02  0.47000000000E+01 0.  1.
         -5    1    4    4    0  502 -0.73672147825E+01  0.62906024403E+02 -0.55058945934E+02  0.84053680985E+02  0.47000000000E+01 0.  1.
          5    1    3    3  503    0 -0.45986893873E+02 -0.19639265990E+02 -0.93729284059E+02  0.10633797002E+03  0.47000000000E+01 0. -1.
         -5    1    3    3    0  503  0.48417199094E+02  0.90646191570E+01  0.13127340747E+01  0.49499553123E+02  0.47000000000E+01 0. -1.
<mgrwt>
<rscale>  0 0.12547130E+03</rscale>
<asrwt>0</asrwt>
<pdfrwt beam="1">  1        5 0.11202185E-01 0.12547715E+03</pdfrwt>
<pdfrwt beam="2">  1       -5 0.33823424E-01 0.12547715E+03</pdfrwt>
<totfact> 0.39181882E+02</totfact>
</mgrwt>
</event>
<event>
 8    1  0.3759079E-007  0.1375756E+03  0.7546771E-02  0.1216631E+00
         -5   -1    0    0    0  501 -0.00000000000E+00  0.00000000000E+00  0.52776367286E+02  0.52985233263E+02  0.47000000000E+01 0. -1.
          5   -1    0    0  501    0  0.00000000000E+00 -0.00000000000E+00 -0.42475129801E+03  0.42477730067E+03  0.47000000000E+01 0. -1.
         25    2    1    2    0    0  0.28856297183E+02  0.49698250882E+02 -0.91090663725E+02  0.16499863358E+03  0.12499775214E+03 0.  0.
         25    2    1    2    0    0 -0.28856297183E+02 -0.49698250882E+02 -0.28088426700E+03  0.31276390035E+03  0.12499073519E+03 0.  0.
          5    1    4    4  502    0  0.22475496468E+02  0.21974407251E+02 -0.15969977472E+03  0.16283160185E+03  0.47000000000E+01 0.  1.
         -5    1    4    4    0  502 -0.51331793652E+02 -0.71672658132E+02 -0.12118449228E+03  0.14993229850E+03  0.47000000000E+01 0.  1.
          5    1    3    3  503    0  0.24137613452E+02  0.91627538456E+02 -0.58263964813E+02  0.11133287826E+03  0.47000000000E+01 0.  1.
         -5    1    3    3    0  503  0.47186837315E+01 -0.41929287575E+02 -0.32826698912E+02  0.53665755321E+02  0.47000000000E+01 0.  1.
<mgrwt>
<rscale>  0 0.13757399E+03</rscale>
<asrwt>0</asrwt>
<pdfrwt beam="2">  1        5 0.65364418E-01 0.13757558E+03</pdfrwt>
<pdfrwt beam="1">  1       -5 0.81375082E-02 0.13757558E+03</pdfrwt>
<totfact> 0.17682299E+02</totfact>
</mgrwt>
</event>
<event>
 8    1  0.3759079E-007  0.1320673E+03  0.7546771E-02  0.1224425E+00
         -5   -1    0    0    0  501 -0.00000000000E+00  0.00000000000E+00  0.19335748137E+04  0.19335805259E+04  0.47000000000E+01 0.  1.
          5   -1    0    0  501    0  0.00000000000E+00 -0.00000000000E+00 -0.84030949058E+01  0.96281879913E+01  0.47000000000E+01 0.  1.
         25    2    1    2    0    0  0.39621315237E+02 -0.15628497661E+02  0.97638023042E+03  0.98527160164E+03  0.12501070386E+03 0.  0.
         25    2    1    2    0    0 -0.39621315237E+02  0.15628497661E+02  0.94879148841E+03  0.95793711230E+03  0.12499649627E+03 0.  0.
          5    1    4    4  502    0 -0.24357975543E+02 -0.47179211074E+02  0.65084155394E+03  0.65302067905E+03  0.47000000000E+01 0.  1.
         -5    1    4    4    0  502 -0.15263339693E+02  0.62807708735E+02  0.29794993447E+03  0.30491643325E+03  0.47000000000E+01 0.  1.
          5    1    3    3  503    0  0.20792009665E+02  0.52990423779E+02  0.55136089548E+03  0.55431148260E+03  0.47000000000E+01 0.  1.
         -5    1    3    3    0  503  0.18829305572E+02 -0.68618921439E+02  0.42501933494E+03  0.43096011904E+03  0.47000000000E+01 0.  1.
<mgrwt>
<rscale>  0 0.13206395E+03</rscale>
<asrwt>0</asrwt>
<pdfrwt beam="2">  1        5 0.13874605E-02 0.13206731E+03</pdfrwt>
<pdfrwt beam="1">  1       -5 0.29756787E+00 0.13206731E+03</pdfrwt>
<totfact> 0.42386329E+01</totfact>
</mgrwt>
</event>
<event>
 8    1  0.3759079E-007  0.2161587E+03  0.7546771E-02  0.1136783E+00
         -5   -1    0    0    0  501 -0.00000000000E+00  0.00000000000E+00  0.91980341517E+03  0.91981542310E+03  0.47000000000E+01 0. -1.
          5   -1    0    0  501    0  0.00000000000E+00 -0.00000000000E+00 -0.89046594174E+02  0.89170544094E+02  0.47000000000E+01 0. -1.
         25    2    1    2    0    0  0.81690681810E+02 -0.15626060832E+03  0.74622776242E+03  0.77690441809E+03  0.12503541992E+03 0.  0.
         25    2    1    2    0    0 -0.81690681810E+02  0.15626060832E+03  0.84529058575E+02  0.23208154910E+03  0.12500375386E+03 0.  0.
          5    1    4    4  502    0 -0.50930908783E+02  0.23469097248E+01 -0.47962330375E+01  0.51425278862E+02  0.47000000000E+01 0. -1.
         -5    1    4    4    0  502 -0.30759773028E+02  0.15391369860E+03  0.89325291613E+02  0.18065627023E+03  0.47000000000E+01 0. -1.
          5    1    3    3  503    0 -0.96537459421E+01  0.16775622344E+02  0.54738734113E+02  0.58249766764E+02  0.47000000000E+01 0.  1.
         -5    1    3    3    0  503  0.91344427752E+02 -0.17303623067E+03  0.69148902831E+03  0.71865465133E+03  0.47000000000E+01 0.  1.
<mgrwt>
<rscale>  0 0.21615416E+03</rscale>
<asrwt>0</asrwt>
<pdfrwt beam="2">  1        5 0.13709935E-01 0.21615874E+03</pdfrwt>
<pdfrwt beam="1">  1       -5 0.14151867E+00 0.21615874E+03</pdfrwt>
<totfact> 0.12190030E+01</totfact>
</mgrwt>
</event>
<event>
 8    1  0.3759079E-007  0.1425512E+03  0.7546771E-02  0.1209937E+00
         -5   -1    0    0    0  501 -0.00000000000E+00  0.00000000000E+00  0.65937888725E+02  0.66105182622E+02  0.47000000000E+01 0.  1.
          5   -1    0    0  501    0  0.00000000000E+00 -0.00000000000E+00 -0.32243061431E+03  0.32246486792E+03  0.47000000000E+01 0.  1.
         25    2    1    2    0    0 -0.11168267655E+02  0.67615157486E+02 -0.86596079959E+02  0.16679149961E+03  0.12499593415E+03 0.  0.
         25    2    1    2    0    0  0.11168267655E+02 -0.67615157486E+02 -0.16989664563E+03  0.22177855094E+03  0.12499726291E+03 0.  0.
          5    1    3    3  502    0 -0.48307490637E+02 -0.13713534325E+02 -0.16439259289E+02  0.53047280056E+02  0.47000000000E+01 0. -1.
         -5    1    3    3    0  502  0.37139222982E+02  0.81328691811E+02 -0.70156820671E+02  0.11374421955E+03  0.47000000000E+01 0. -1.
          5    1    4    4  503    0  0.20483928837E+02 -0.55874125999E+02 -0.93004532571E+01  0.60416038661E+02  0.47000000000E+01 0. -1.
         -5    1    4    4    0  503 -0.93156611818E+01 -0.11741031486E+02 -0.16059619237E+03  0.16136251227E+03  0.47000000000E+01 0. -1.
<mgrwt>
<rscale>  0 0.14255095E+03</rscale>
<asrwt>0</asrwt>
<pdfrwt beam="2">  1        5 0.49620213E-01 0.14255124E+03</pdfrwt>
<pdfrwt beam="1">  1       -5 0.10159794E-01 0.14255124E+03</pdfrwt>
<totfact> 0.22146400E+02</totfact>
</mgrwt>
</event>
<event>
 8    1  0.3759079E-007  0.1671957E+03  0.7546771E-02  0.1180805E+00
          5   -1    0    0  501    0  0.00000000000E+00  0.00000000000E+00  0.20999254132E+02  0.21518798156E+02  0.47000000000E+01 0. -1.
         -5   -1    0    0    0  501 -0.00000000000E+00 -0.00000000000E+00 -0.16005703676E+04  0.16005772682E+04  0.47000000000E+01 0. -1.
         25    2    1    2    0    0  0.11099678668E+03  0.30456969225E+01 -0.11326715666E+04  0.11449451051E+04  0.12499941145E+03 0.  0.
         25    2    1    2    0    0 -0.11099678668E+03 -0.30456969225E+01 -0.44689954679E+03  0.47715096128E+03  0.12499708799E+03 0.  0.
          5    1    3    3  502    0  0.98911211583E+02 -0.47190145054E+02 -0.61745900006E+03  0.62712681678E+03  0.47000000000E+01 0.  1.
         -5    1    3    3    0  502  0.12085575101E+02  0.50235841976E+02 -0.51521256658E+03  0.51781828831E+03  0.47000000000E+01 0.  1.
          5    1    4    4  503    0 -0.51129504415E+02 -0.62894447156E+02 -0.24745084243E+03  0.26043031146E+03  0.47000000000E+01 0.  1.
         -5    1    4    4    0  503 -0.59867282269E+02  0.59848750233E+02 -0.19944870436E+03  0.21672064982E+03  0.47000000000E+01 0.  1.
<mgrwt>
<rscale>  0 0.16719531E+03</rscale>
<asrwt>0</asrwt>
<pdfrwt beam="1">  1        5 0.32711515E-02 0.16719574E+03</pdfrwt>
<pdfrwt beam="2">  1       -5 0.24628200E+00 0.16719574E+03</pdfrwt>
<totfact> 0.24170836E+01</totfact>
</mgrwt>
</event>
<event>
 8    1  0.3759079E-007  0.1278178E+03  0.7546771E-02  0.1230732E+00
          5   -1    0    0  501    0  0.00000000000E+00  0.00000000000E+00  0.19172859276E+03  0.19178619158E+03  0.47000000000E+01 0.  1.
         -5   -1    0    0    0  501 -0.00000000000E+00 -0.00000000000E+00 -0.11126185512E+03  0.11136108120E+03  0.47000000000E+01 0.  1.
         25    2    1    2    0    0 -0.18439178497E+02  0.19291122826E+02 -0.33247492187E+02  0.13206745381E+03  0.12499706354E+03 0.  0.
         25    2    1    2    0    0  0.18439178497E+02 -0.19291122826E+02  0.11371422982E+03  0.17107981897E+03  0.12500091068E+03 0.  0.
          5    1    4    4  502    0 -0.36458105256E+02  0.31956408787E+02  0.65823506448E+02  0.81885465759E+02  0.47000000000E+01 0. -1.
         -5    1    4    4    0  502  0.54897283753E+02 -0.51247531613E+02  0.47890723375E+02  0.89194353214E+02  0.47000000000E+01 0. -1.
          5    1    3    3  503    0  0.27719541836E+02 -0.15805141166E+02 -0.59934867462E+02  0.68062132090E+02  0.47000000000E+01 0.  1.
         -5    1    3    3    0  503 -0.46158720333E+02  0.35096263992E+02  0.26687375275E+02  0.64005321716E+02  0.47000000000E+01 0.  1.
<mgrwt>
<rscale>  0 0.12781681E+03</rscale>
<asrwt>0</asrwt>
<pdfrwt beam="1">  1        5 0.29508770E-01 0.12781775E+03</pdfrwt>
<pdfrwt beam="2">  1       -5 0.17129272E-01 0.12781775E+03</pdfrwt>
<totfact> 0.24101966E+02</totfact>
</mgrwt>
</event>
<event>
 8    1  0.3759079E-007  0.1321218E+03  0.7546771E-02  0.1224358E+00
         -5   -1    0    0    0  501 -0.00000000000E+00  0.00000000000E+00  0.11811498065E+04  0.11811591575E+04  0.47000000000E+01 0.  1.
          5   -1    0    0  501    0  0.00000000000E+00 -0.00000000000E+00 -0.15788640818E+02  0.16473347531E+02  0.47000000000E+01 0.  1.
         25    2    1    2    0    0  0.41626802058E+02 -0.99611598215E+01  0.75684122943E+03  0.76827868559E+03  0.12494589553E+03 0.  0.
         25    2    1    2    0    0 -0.41626802058E+02  0.99611598215E+01  0.40851993621E+03  0.42935381942E+03  0.12499659442E+03 0.  0.
          5    1    4    4  502    0 -0.41937420604E+02  0.61813899420E+02  0.29688652058E+03  0.30617544237E+03  0.47000000000E+01 0.  1.
         -5    1    4    4    0  502  0.31061854652E+00 -0.51852739599E+02  0.11163341563E+03  0.12317837705E+03  0.47000000000E+01 0.  1.
          5    1    3    3  503    0 -0.92663491752E+01  0.51027591181E+02  0.26972155011E+03  0.27470253891E+03  0.47000000000E+01 0. -1.
         -5    1    3    3    0  503  0.50893151233E+02 -0.60988751002E+02  0.48711967932E+03  0.49357614668E+03  0.47000000000E+01 0. -1.
<mgrwt>
<rscale>  0 0.13210978E+03</rscale>
<asrwt>0</asrwt>
<pdfrwt beam="2">  1        5 0.24824098E-02 0.13212178E+03</pdfrwt>
<pdfrwt beam="1">  1       -5 0.18176881E+00 0.13212178E+03</pdfrwt>
<totfact> 0.94898342E+01</totfact>
</mgrwt>
</event>
<event>
 8    1  0.3759079E-007  0.1285342E+03  0.7546771E-02  0.1229647E+00
          5   -1    0    0  501    0  0.00000000000E+00  0.00000000000E+00  0.34173716313E+02  0.34495403848E+02  0.47000000000E+01 0.  1.
         -5   -1    0    0    0  501 -0.00000000000E+00 -0.00000000000E+00 -0.54585856630E+03  0.54587880011E+03  0.47000000000E+01 0.  1.
         25    2    1    2    0    0  0.21978090083E+02 -0.20321062460E+02 -0.35595921656E+03  0.37845464079E+03  0.12499987702E+03 0.  0.
         25    2    1    2    0    0 -0.21978090083E+02  0.20321062460E+02 -0.15572563343E+03  0.20191956317E+03  0.12500022024E+03 0.  0.
          5    1    4    4  502    0 -0.78893119863E+01  0.68762033542E+02 -0.52735450716E+02  0.87141128423E+02  0.47000000000E+01 0. -1.
         -5    1    4    4    0  502 -0.14088778097E+02 -0.48440971082E+02 -0.10299018271E+03  0.11477843474E+03  0.47000000000E+01 0. -1.
          5    1    3    3  503    0  0.42225348838E+01 -0.72159185901E+01  0.87890915374E+01  0.13009128026E+02  0.47000000000E+01 0. -1.
         -5    1    3    3    0  503  0.17755555199E+02 -0.13105143870E+02 -0.36474830810E+03  0.36544551276E+03  0.47000000000E+01 0. -1.
<mgrwt>
<rscale>  0 0.12853410E+03</rscale>
<asrwt>0</asrwt>
<pdfrwt beam="1">  1        5 0.52837968E-02 0.12853419E+03</pdfrwt>
<pdfrwt beam="2">  1       -5 0.84004537E-01 0.12853419E+03</pdfrwt>
<totfact> 0.20243181E+02</totfact>
</mgrwt>
</event>
<event>
 8    1  0.3759079E-007  0.1316953E+03  0.7546771E-02  0.1224968E+00
         -5   -1    0    0    0  501 -0.00000000000E+00  0.00000000000E+00  0.27996024270E+03  0.27999969195E+03  0.47000000000E+01 0. -1.
          5   -1    0    0  501    0  0.00000000000E+00 -0.00000000000E+00 -0.71613526314E+02  0.71767591231E+02  0.47000000000E+01 0. -1.
         25    2    1    2    0    0 -0.40188090119E+01 -0.41200759117E+02  0.16916560079E+03  0.21438436223E+03  0.12502000201E+03 0.  0.
         25    2    1    2    0    0  0.40188090119E+01  0.41200759117E+02  0.39181115598E+02  0.13738292095E+03  0.12500101508E+03 0.  0.
          5    1    4    4  502    0  0.30761007372E+02 -0.34439719905E+02  0.32655772135E+02  0.56752298063E+02  0.47000000000E+01 0. -1.
         -5    1    4    4    0  502 -0.26742198360E+02  0.75640479021E+02  0.65253434630E+01  0.80630622886E+02  0.47000000000E+01 0. -1.
          5    1    3    3  503    0  0.41806340907E+02 -0.15230779105E+02  0.15251640899E+03  0.15894367487E+03  0.47000000000E+01 0.  1.
         -5    1    3    3    0  503 -0.45825149919E+02 -0.25969980012E+02  0.16649191798E+02  0.55440687356E+02  0.47000000000E+01 0.  1.
<mgrwt>
<rscale>  0 0.13169080E+03</rscale>
<asrwt>0</asrwt>
<pdfrwt beam="2">  1        5 0.11032351E-01 0.13169531E+03</pdfrwt>
<pdfrwt beam="1">  1       -5 0.43085693E-01 0.13169531E+03</pdfrwt>
<totfact> 0.25073589E+02</totfact>
</mgrwt>
</event>
<event>
 8    1  0.3759079E-007  0.1323265E+03  0.7546771E-02  0.1224046E+00
         -5   -1    0    0    0  501 -0.00000000000E+00  0.00000000000E+00  0.12500223201E+03  0.12509055923E+03  0.47000000000E+01 0. -1.
          5   -1    0    0  501    0  0.00000000000E+00 -0.00000000000E+00 -0.14639854242E+03  0.14647396773E+03  0.47000000000E+01 0. -1.
         25    2    1    2    0    0 -0.41523658414E+02 -0.12663324264E+02  0.17900135079E+02  0.13352642987E+03  0.12499727456E+03 0.  0.
         25    2    1    2    0    0  0.41523658414E+02  0.12663324264E+02 -0.39296445488E+02  0.13803809709E+03  0.12500292649E+03 0.  0.
          5    1    4    4  502    0 -0.19473955440E+02  0.42645132625E+02  0.16556110060E+02  0.49940334975E+02  0.47000000000E+01 0. -1.
         -5    1    4    4    0  502  0.60997613854E+02 -0.29981808361E+02 -0.55852555548E+02  0.88097762115E+02  0.47000000000E+01 0. -1.
          5    1    3    3  503    0 -0.12963869938E+02  0.16581413314E+02  0.66464047245E+02  0.69875351645E+02  0.47000000000E+01 0. -1.
         -5    1    3    3    0  503 -0.28559788476E+02 -0.29244737578E+02 -0.48563912166E+02  0.63651078221E+02  0.47000000000E+01 0. -1.
<mgrwt>
<rscale>  0 0.13232518E+03</rscale>
<asrwt>0</asrwt>
<pdfrwt beam="2">  1        5 0.22535449E-01 0.13232651E+03</pdfrwt>
<pdfrwt beam="1">  1       -5 0.19243709E-01 0.13232651E+03</pdfrwt>
<totfact> 0.33062196E+02</totfact>
</mgrwt>
</event>
<event>
 8    1  0.3759079E-007  0.1338756E+03  0.7546771E-02  0.1221817E+00
         -5   -1    0    0    0  501 -0.00000000000E+00  0.00000000000E+00  0.28526878008E+02  0.28911464316E+02  0.47000000000E+01 0. -1.
          5   -1    0    0  501    0  0.00000000000E+00 -0.00000000000E+00 -0.62575221664E+03  0.62576986715E+03  0.47000000000E+01 0. -1.
         25    2    1    2    0    0 -0.57906034662E+01  0.47580469501E+02 -0.27970366072E+03  0.31009160143E+03  0.12500092517E+03 0.  0.
         25    2    1    2    0    0  0.57906034662E+01 -0.47580469501E+02 -0.31752167792E+03  0.34458973004E+03  0.12499853572E+03 0.  0.
          5    1    4    4  502    0 -0.22453323243E+02 -0.20440662737E+02 -0.29975007053E+03  0.30132070490E+03  0.47000000000E+01 0.  1.
         -5    1    4    4    0  502  0.28243926709E+02 -0.27139806765E+02 -0.17771607385E+02  0.43269025136E+02  0.47000000000E+01 0.  1.
          5    1    3    3  503    0  0.34885977103E+02  0.70967274551E+02 -0.22115394281E+03  0.23491390311E+03  0.47000000000E+01 0. -1.
         -5    1    3    3    0  503 -0.40676580569E+02 -0.23386805050E+02 -0.58549717908E+02  0.75177698317E+02  0.47000000000E+01 0. -1.
<mgrwt>
<rscale>  0 0.13387499E+03</rscale>
<asrwt>0</asrwt>
<pdfrwt beam="2">  1        5 0.96300503E-01 0.13387555E+03</pdfrwt>
<pdfrwt beam="1">  1       -5 0.44196922E-02 0.13387555E+03</pdfrwt>
<totfact> 0.19967107E+02</totfact>
</mgrwt>
</event>
<event>
 8    1  0.3759079E-007  0.1523471E+03  0.7546771E-02  0.1197620E+00
         -5   -1    0    0    0  501 -0.00000000000E+00  0.00000000000E+00  0.59976978148E+02  0.60160850291E+02  0.47000000000E+01 0.  1.
          5   -1    0    0  501    0  0.00000000000E+00 -0.00000000000E+00 -0.39136661212E+03  0.39139483272E+03  0.47000000000E+01 0.  1.
         25    2    1    2    0    0  0.93391165068E+01 -0.86580632783E+02 -0.13968765862E+03  0.20668985731E+03  0.12499852028E+03 0.  0.
         25    2    1    2    0    0 -0.93391165068E+01  0.86580632783E+02 -0.19170197535E+03  0.24486582571E+03  0.12500480061E+03 0.  0.
          5    1    4    4  502    0 -0.51663770961E+02  0.30305510028E+02 -0.27369401718E+02  0.66020779444E+02  0.47000000000E+01 0. -1.
         -5    1    4    4    0  502  0.42324654454E+02  0.56275122756E+02 -0.16433257363E+03  0.17884504626E+03  0.47000000000E+01 0. -1.
          5    1    3    3  503    0 -0.43860487551E+02 -0.31215527680E+02 -0.11301651184E+03  0.12527159888E+03  0.47000000000E+01 0.  1.
         -5    1    3    3    0  503  0.53199604058E+02 -0.55365105103E+02 -0.26671146778E+02  0.81418258428E+02  0.47000000000E+01 0.  1.
<mgrwt>
<rscale>  0 0.15234577E+03</rscale>
<asrwt>0</asrwt>
<pdfrwt beam="2">  1        5 0.60226561E-01 0.15234706E+03</pdfrwt>
<pdfrwt beam="1">  1       -5 0.92435425E-02 0.15234706E+03</pdfrwt>
<totfact> 0.17579837E+02</totfact>
</mgrwt>
</event>
<event>
 8    1  0.3759079E-007  0.1568354E+03  0.7546771E-02  0.1192324E+00
          5   -1    0    0  501    0  0.00000000000E+00  0.00000000000E+00  0.57457897272E+02  0.57649804500E+02  0.47000000000E+01 0.  1.
         -5   -1    0    0    0  501 -0.00000000000E+00 -0.00000000000E+00 -0.45798026966E+03  0.45800438578E+03  0.47000000000E+01 0.  1.
         25    2    1    2    0    0  0.93857348641E+02 -0.12730842676E+02 -0.26717203930E+03  0.30979098492E+03  0.12497311512E+03 0.  0.
         25    2    1    2    0    0 -0.93857348641E+02  0.12730842676E+02 -0.13335033308E+03  0.20586320536E+03  0.12500428688E+03 0.  0.
          5    1    3    3  502    0  0.11110643514E+03 -0.39782810630E+02 -0.23999353556E+03  0.26748139947E+03  0.47000000000E+01 0. -1.
         -5    1    3    3    0  502 -0.17249086500E+02  0.27051967955E+02 -0.27178503745E+02  0.42309585452E+02  0.47000000000E+01 0. -1.
          5    1    4    4  503    0 -0.37337873130E+02 -0.44008443337E+02 -0.10657372965E+03  0.12128853905E+03  0.47000000000E+01 0.  1.
         -5    1    4    4    0  503 -0.56519475512E+02  0.56739286013E+02 -0.26776603434E+02  0.84574666307E+02  0.47000000000E+01 0.  1.
<mgrwt>
<rscale>  0 0.15682921E+03</rscale>
<asrwt>0</asrwt>
<pdfrwt beam="1">  1        5 0.88562940E-02 0.15683542E+03</pdfrwt>
<pdfrwt beam="2">  1       -5 0.70475118E-01 0.15683542E+03</pdfrwt>
<totfact> 0.13467601E+02</totfact>
</mgrwt>
</event>
<event>
 8    1  0.3759079E-007  0.1370059E+03  0.7546771E-02  0.1217417E+00
          5   -1    0    0  501    0  0.00000000000E+00  0.00000000000E+00  0.19366683492E+03  0.19372385746E+03  0.47000000000E+01 0. -1.
         -5   -1    0    0    0  501 -0.00000000000E+00 -0.00000000000E+00 -0.29574296201E+03  0.29578030628E+03  0.47000000000E+01 0. -1.
         25    2    1    2    0    0  0.14828271863E+02  0.54089432455E+02 -0.25173735403E+03  0.28660479457E+03  0.12500027404E+03 0.  0.
         25    2    1    2    0    0 -0.14828271863E+02 -0.54089432455E+02  0.14966122694E+03  0.20289936917E+03  0.12499650719E+03 0.  0.
          5    1    4    4  502    0 -0.69354605235E+02 -0.20872288618E+02  0.87248434323E+02  0.11349049736E+03  0.47000000000E+01 0. -1.
         -5    1    4    4    0  502  0.54526333371E+02 -0.33217143837E+02  0.62412792613E+02  0.89408871805E+02  0.47000000000E+01 0. -1.
          5    1    3    3  503    0  0.40568313806E+02 -0.36565347401E+01 -0.18642177010E+02  0.45041970373E+02  0.47000000000E+01 0. -1.
         -5    1    3    3    0  503 -0.25740041943E+02  0.57745967195E+02 -0.23309517702E+03  0.24156282420E+03  0.47000000000E+01 0. -1.
<mgrwt>
<rscale>  0 0.13700503E+03</rscale>
<asrwt>0</asrwt>
<pdfrwt beam="1">  1        5 0.29802157E-01 0.13700589E+03</pdfrwt>
<pdfrwt beam="2">  1       -5 0.45506176E-01 0.13700589E+03</pdfrwt>
<totfact> 0.36070034E+01</totfact>
</mgrwt>
</event>
<event>
 8    1  0.3759079E-007  0.1421318E+03  0.7546771E-02  0.1210495E+00
         -5   -1    0    0    0  501 -0.00000000000E+00  0.00000000000E+00  0.54294336797E+03  0.54296371041E+03  0.47000000000E+01 0.  1.
          5   -1    0    0  501    0  0.00000000000E+00 -0.00000000000E+00 -0.37443896433E+02  0.37737718268E+02  0.47000000000E+01 0.  1.
         25    2    1    2    0    0  0.67643338661E+02 -0.90110927738E+00  0.28306474805E+03  0.31674453938E+03  0.12500007350E+03 0.  0.
         25    2    1    2    0    0 -0.67643338661E+02  0.90110927738E+00  0.22243472348E+03  0.26395688930E+03  0.12497839786E+03 0.  0.
          5    1    3    3  502    0  0.63596564530E+02 -0.56788163938E+02  0.18360138219E+03  0.20248697767E+03  0.47000000000E+01 0. -1.
         -5    1    3    3    0  502  0.40467741313E+01  0.55887054661E+02  0.99463365858E+02  0.11425756171E+03  0.47000000000E+01 0. -1.
          5    1    4    4  503    0 -0.86818937041E+02  0.24914789959E+02  0.21309758507E+03  0.23149718217E+03  0.47000000000E+01 0.  1.
         -5    1    4    4    0  503  0.19175598380E+02 -0.24013680681E+02  0.93371384086E+01  0.32459707127E+02  0.47000000000E+01 0.  1.
<mgrwt>
<rscale>  0 0.14212704E+03</rscale>
<asrwt>0</asrwt>
<pdfrwt beam="2">  1        5 0.57847664E-02 0.14213181E+03</pdfrwt>
<pdfrwt beam="1">  1       -5 0.83553909E-01 0.14213181E+03</pdfrwt>
<totfact> 0.18227333E+02</totfact>
</mgrwt>
</event>
<event>
 8    1  0.3759079E-007  0.1869770E+03  0.7546771E-02  0.1161218E+00
          5   -1    0    0  501    0  0.00000000000E+00  0.00000000000E+00  0.22044597404E+03  0.22049607132E+03  0.47000000000E+01 0. -1.
         -5   -1    0    0    0  501 -0.00000000000E+00 -0.00000000000E+00 -0.25101836537E+03  0.25106236228E+03  0.47000000000E+01 0. -1.
         25    2    1    2    0    0 -0.19991168994E+02 -0.13761218540E+03 -0.15841130939E+03  0.24506030255E+03  0.12499459401E+03 0.  0.
         25    2    1    2    0    0  0.19991168994E+02  0.13761218540E+03  0.12783891806E+03  0.22649813106E+03  0.12498741535E+03 0.  0.
          5    1    3    3  502    0  0.48604400895E+02 -0.67743540902E+02 -0.10249491174E+03  0.13220768530E+03  0.47000000000E+01 0. -1.
         -5    1    3    3    0  502 -0.68595569889E+02 -0.69868644495E+02 -0.55916397651E+02  0.11285261724E+03  0.47000000000E+01 0. -1.
          5    1    4    4  503    0  0.33964187774E+02  0.15789348665E+03  0.10593857224E+03  0.19320711754E+03  0.47000000000E+01 0. -1.
         -5    1    4    4    0  503 -0.13973018780E+02 -0.20281301254E+02  0.21900345816E+02  0.33291013521E+02  0.47000000000E+01 0. -1.
<mgrwt>
<rscale>  0 0.18697583E+03</rscale>
<asrwt>0</asrwt>
<pdfrwt beam="1">  1        5 0.33922003E-01 0.18697703E+03</pdfrwt>
<pdfrwt beam="2">  1       -5 0.38625448E-01 0.18697703E+03</pdfrwt>
<totfact> 0.42819762E+01</totfact>
</mgrwt>
</event>
<event>
 8    1  0.3759079E-007  0.1617730E+03  0.7546771E-02  0.1186716E+00
         -5   -1    0    0    0  501 -0.00000000000E+00  0.00000000000E+00  0.41667809667E+03  0.41670460309E+03  0.47000000000E+01 0.  1.
          5   -1    0    0  501    0  0.00000000000E+00 -0.00000000000E+00 -0.68169322277E+02  0.68331153215E+02  0.47000000000E+01 0.  1.
         25    2    1    2    0    0 -0.49849069267E+02 -0.89788247819E+02  0.24297120461E+03  0.29189981810E+03  0.12499455341E+03 0.  0.
         25    2    1    2    0    0  0.49849069267E+02  0.89788247819E+02  0.10553756978E+03  0.19313593821E+03  0.12496580669E+03 0.  0.
          5    1    4    4  502    0 -0.16570999503E+02  0.40444794481E+02  0.10098076684E+03  0.11013439379E+03  0.47000000000E+01 0.  1.
         -5    1    4    4    0  502  0.66420068770E+02  0.49343453338E+02  0.45568029378E+01  0.83001544418E+02  0.47000000000E+01 0.  1.
          5    1    3    3  503    0 -0.66716187655E+02 -0.12141147169E+02  0.17316731064E+03  0.18603081633E+03  0.47000000000E+01 0. -1.
         -5    1    3    3    0  503  0.16867118388E+02 -0.77647100650E+02  0.69803893975E+02  0.10586900177E+03  0.47000000000E+01 0. -1.
<mgrwt>
<rscale>  0 0.16176743E+03</rscale>
<asrwt>0</asrwt>
<pdfrwt beam="2">  1        5 0.10502076E-01 0.16177298E+03</pdfrwt>
<pdfrwt beam="1">  1       -5 0.64118810E-01 0.16177298E+03</pdfrwt>
<totfact> 0.12484151E+02</totfact>
</mgrwt>
</event>
<event>
 8    1  0.3759079E-007  0.1502883E+03  0.7546771E-02  0.1200122E+00
          5   -1    0    0  501    0  0.00000000000E+00  0.00000000000E+00  0.41123129868E+03  0.41125815616E+03  0.47000000000E+01 0.  1.
         -5   -1    0    0    0  501 -0.00000000000E+00 -0.00000000000E+00 -0.55927511186E+02  0.56124651513E+02  0.47000000000E+01 0.  1.
         25    2    1    2    0    0  0.18489795837E+01 -0.83422121284E+02  0.14441027033E+03  0.20841824605E+03  0.12498467932E+03 0.  0.
         25    2    1    2    0    0 -0.18489795837E+01  0.83422121284E+02  0.21089351716E+03  0.25896456163E+03  0.12499559814E+03 0.  0.
          5    1    3    3  502    0 -0.54659853314E+02 -0.73469899447E+02  0.10026727342E+03  0.13587178444E+03  0.47000000000E+01 0.  1.
         -5    1    3    3    0  502  0.56508832898E+02 -0.99522218370E+01  0.44142996910E+02  0.72546461604E+02  0.47000000000E+01 0.  1.
          5    1    4    4  503    0  0.14476298788E+02 -0.64298521537E+00  0.15686015097E+03  0.15759813964E+03  0.47000000000E+01 0. -1.
         -5    1    4    4    0  503 -0.16325278372E+02  0.84065106499E+02  0.54033366193E+02  0.10136642199E+03  0.47000000000E+01 0. -1.
<mgrwt>
<rscale>  0 0.15028601E+03</rscale>
<asrwt>0</asrwt>
<pdfrwt beam="1">  1        5 0.63283583E-01 0.15028828E+03</pdfrwt>
<pdfrwt beam="2">  1       -5 0.86214633E-02 0.15028828E+03</pdfrwt>
<totfact> 0.17705495E+02</totfact>
</mgrwt>
</event>
<event>
 8    1  0.3759079E-007  0.1441544E+03  0.7546771E-02  0.1207850E+00
         -5   -1    0    0    0  501 -0.00000000000E+00  0.00000000000E+00  0.28864806459E+03  0.28868632664E+03  0.47000000000E+01 0.  1.
          5   -1    0    0  501    0  0.00000000000E+00 -0.00000000000E+00 -0.11359798764E+03  0.11369517490E+03  0.47000000000E+01 0.  1.
         25    2    1    2    0    0 -0.47274141453E+02 -0.54037332761E+02  0.20937768037E+03  0.25419624350E+03  0.12498735692E+03 0.  0.
         25    2    1    2    0    0  0.47274141453E+02  0.54037332761E+02 -0.34327603430E+02  0.14818525804E+03  0.12500243422E+03 0.  0.
          5    1    4    4  502    0  0.45226521416E+02  0.97175801256E+01 -0.74717193601E+02  0.88003514830E+02  0.47000000000E+01 0. -1.
         -5    1    4    4    0  502  0.20476200364E+01  0.44319752636E+02  0.40389590170E+02  0.60181743209E+02  0.47000000000E+01 0. -1.
          5    1    3    3  503    0 -0.13698082237E+01  0.35098023609E+02  0.98274547932E+02  0.10446877240E+03  0.47000000000E+01 0. -1.
         -5    1    3    3    0  503 -0.45904333229E+02 -0.89135356371E+02  0.11110313244E+03  0.14972747110E+03  0.47000000000E+01 0. -1.
<mgrwt>
<rscale>  0 0.14415112E+03</rscale>
<asrwt>0</asrwt>
<pdfrwt beam="2">  1        5 0.17487033E-01 0.14415438E+03</pdfrwt>
<pdfrwt beam="1">  1       -5 0.44417813E-01 0.14415438E+03</pdfrwt>
<totfact> 0.10598069E+02</totfact>
</mgrwt>
</event>
<event>
 8    1  0.3759079E-007  0.1258171E+03  0.7546771E-02  0.1233799E+00
          5   -1    0    0  501    0  0.00000000000E+00  0.00000000000E+00  0.25913354746E+03  0.25917616676E+03  0.47000000000E+01 0.  1.
         -5   -1    0    0    0  501 -0.00000000000E+00 -0.00000000000E+00 -0.72768289413E+02  0.72919914592E+02  0.47000000000E+01 0.  1.
         25    2    1    2    0    0 -0.26035502984E+01 -0.14071119427E+02  0.26356081591E+02  0.12854541361E+03  0.12499802178E+03 0.  0.
         25    2    1    2    0    0  0.26035502984E+01  0.14071119427E+02  0.16000917645E+03  0.20355066774E+03  0.12500065165E+03 0.  0.
          5    1    4    4  502    0 -0.35328267169E+02 -0.30950437630E+02  0.19384578980E+02  0.51028109438E+02  0.47000000000E+01 0.  1.
         -5    1    4    4    0  502  0.37931817468E+02  0.45021557057E+02  0.14062459747E+03  0.15252255830E+03  0.47000000000E+01 0.  1.
          5    1    3    3  503    0  0.22823010083E+02 -0.18527345842E+01 -0.45529673847E+02  0.51179718789E+02  0.47000000000E+01 0.  1.
         -5    1    3    3    0  503 -0.25426560382E+02 -0.12218384843E+02  0.71885755437E+02  0.77365694825E+02  0.47000000000E+01 0.  1.
<mgrwt>
<rscale>  0 0.12581643E+03</rscale>
<asrwt>0</asrwt>
<pdfrwt beam="1">  1        5 0.39881641E-01 0.12581708E+03</pdfrwt>
<pdfrwt beam="2">  1       -5 0.11210064E-01 0.12581708E+03</pdfrwt>
<totfact> 0.28103504E+02</totfact>
</mgrwt>
</event>
<event>
 8    1  0.3759079E-007  0.1283746E+03  0.7546771E-02  0.1229891E+00
         -5   -1    0    0    0  501 -0.00000000000E+00  0.00000000000E+00  0.97576639944E+02  0.97689767442E+02  0.47000000000E+01 0.  1.
          5   -1    0    0  501    0  0.00000000000E+00 -0.00000000000E+00 -0.17257687840E+03  0.17264086700E+03  0.47000000000E+01 0.  1.
         25    2    1    2    0    0 -0.11648079642E+01 -0.29213840056E+02 -0.17087665981E+02  0.12950683811E+03  0.12500091024E+03 0.  0.
         25    2    1    2    0    0  0.11648079642E+01  0.29213840056E+02 -0.57912572473E+02  0.14082379633E+03  0.12499068098E+03 0.  0.
          5    1    3    3  502    0 -0.32594143878E+02  0.30953722120E+01 -0.59089643511E+02  0.67717320640E+02  0.47000000000E+01 0.  1.
         -5    1    3    3    0  502  0.31429335914E+02 -0.32309212268E+02  0.42001977530E+02  0.61789517475E+02  0.47000000000E+01 0.  1.
          5    1    4    4  503    0 -0.17658124251E+02 -0.46549694905E+02 -0.19295833667E+02  0.53601330624E+02  0.47000000000E+01 0. -1.
         -5    1    4    4    0  503  0.18822932215E+02  0.75763534961E+02 -0.38616738807E+02  0.87222465701E+02  0.47000000000E+01 0. -1.
<mgrwt>
<rscale>  0 0.12837209E+03</rscale>
<asrwt>0</asrwt>
<pdfrwt beam="2">  1        5 0.26563913E-01 0.12837458E+03</pdfrwt>
<pdfrwt beam="1">  1       -5 0.15025415E-01 0.12837458E+03</pdfrwt>
<totfact> 0.37582658E+02</totfact>
</mgrwt>
</event>
<event>
 8    1  0.3759079E-007  0.1302232E+03  0.7546771E-02  0.1227125E+00
          5   -1    0    0  501    0  0.00000000000E+00  0.00000000000E+00  0.86103187203E+02  0.86231368112E+02  0.47000000000E+01 0.  1.
         -5   -1    0    0    0  501 -0.00000000000E+00 -0.00000000000E+00 -0.19667053191E+03  0.19672668381E+03  0.47000000000E+01 0.  1.
         25    2    1    2    0    0  0.34422699033E+02  0.12119277283E+02 -0.56804262086E+02  0.14207316184E+03  0.12500504004E+03 0.  0.
         25    2    1    2    0    0 -0.34422699033E+02 -0.12119277283E+02 -0.53763082624E+02  0.14088489008E+03  0.12500513633E+03 0.  0.
          5    1    4    4  502    0 -0.65820043653E+02  0.19398739790E+02  0.27180393130E+01  0.68833618164E+02  0.47000000000E+01 0. -1.
         -5    1    4    4    0  502  0.31397344620E+02 -0.31518017073E+02 -0.56481121937E+02  0.72051271915E+02  0.47000000000E+01 0. -1.
          5    1    3    3  503    0 -0.41989144976E+01  0.64556966461E+02 -0.26076368376E+02  0.69909225352E+02  0.47000000000E+01 0.  1.
         -5    1    3    3    0  503  0.38621613531E+02 -0.52437689178E+02 -0.30727893710E+02  0.72163936491E+02  0.47000000000E+01 0.  1.
<mgrwt>
<rscale>  0 0.13022318E+03</rscale>
<asrwt>0</asrwt>
<pdfrwt beam="1">  1        5 0.13260824E-01 0.13022321E+03</pdfrwt>
<pdfrwt beam="2">  1       -5 0.30271184E-01 0.13022321E+03</pdfrwt>
<totfact> 0.36680384E+02</totfact>
</mgrwt>
</event>
<event>
 8    1  0.3759079E-007  0.1677792E+03  0.7546771E-02  0.1180185E+00
          5   -1    0    0  501    0  0.00000000000E+00  0.00000000000E+00  0.17778603399E+03  0.17784814837E+03  0.47000000000E+01 0.  1.
         -5   -1    0    0    0  501 -0.00000000000E+00 -0.00000000000E+00 -0.16090447210E+03  0.16097310068E+03  0.47000000000E+01 0.  1.
         25    2    1    2    0    0  0.43597096487E+02 -0.10306877109E+03 -0.13485060730E+02  0.16831616334E+03  0.12499842232E+03 0.  0.
         25    2    1    2    0    0 -0.43597096487E+02  0.10306877109E+03  0.30366622611E+02  0.17050508571E+03  0.12500389630E+03 0.  0.
          5    1    3    3  502    0 -0.31765013046E+02 -0.39284185934E+02  0.31496249735E+02  0.59719067856E+02  0.47000000000E+01 0.  1.
         -5    1    3    3    0  502  0.75362109533E+02 -0.63784585156E+02 -0.44981310465E+02  0.10859709549E+03  0.47000000000E+01 0.  1.
          5    1    4    4  503    0 -0.41615921875E+02  0.12919978604E+03  0.40945997411E+02  0.14185603396E+03  0.47000000000E+01 0.  1.
         -5    1    4    4    0  503 -0.19811746122E+01 -0.26131014953E+02 -0.10579374800E+02  0.28649051755E+02  0.47000000000E+01 0.  1.
<mgrwt>
<rscale>  0 0.16777816E+03</rscale>
<asrwt>0</asrwt>
<pdfrwt beam="1">  1        5 0.27361755E-01 0.16777918E+03</pdfrwt>
<pdfrwt beam="2">  1       -5 0.24764591E-01 0.16777918E+03</pdfrwt>
<totfact> 0.15305483E+02</totfact>
</mgrwt>
</event>
<event>
 8    1  0.3759079E-007  0.1688490E+03  0.7546771E-02  0.1179055E+00
          5   -1    0    0  501    0  0.00000000000E+00  0.00000000000E+00  0.32449154302E+03  0.32452557911E+03  0.47000000000E+01 0.  1.
         -5   -1    0    0    0  501 -0.00000000000E+00 -0.00000000000E+00 -0.93239892660E+02  0.93358275387E+02  0.47000000000E+01 0.  1.
         25    2    1    2    0    0  0.36333597083E+02 -0.10754022697E+03  0.64999512622E+02  0.18092798855E+03  0.12499987882E+03 0.  0.
         25    2    1    2    0    0 -0.36333597083E+02  0.10754022697E+03  0.16625213774E+03  0.23695586595E+03  0.12499311344E+03 0.  0.
          5    1    3    3  502    0 -0.43925186472E+02 -0.26786066337E+02  0.43580471835E+01  0.51845905640E+02  0.47000000000E+01 0.  1.
         -5    1    3    3    0  502  0.80258783555E+02 -0.80754160632E+02  0.60641465438E+02  0.12908208291E+03  0.47000000000E+01 0.  1.
          5    1    4    4  503    0 -0.28249571441E+02 -0.23754364786E+02  0.35608818500E+02  0.51501321225E+02  0.47000000000E+01 0.  1.
         -5    1    4    4    0  503 -0.80840256426E+01  0.13129459176E+03  0.13064331924E+03  0.18545454472E+03  0.47000000000E+01 0.  1.
<mgrwt>
<rscale>  0 0.16884779E+03</rscale>
<asrwt>0</asrwt>
<pdfrwt beam="1">  1        5 0.49933501E-01 0.16884905E+03</pdfrwt>
<pdfrwt beam="2">  1       -5 0.14356323E-01 0.16884905E+03</pdfrwt>
<totfact> 0.12472620E+02</totfact>
</mgrwt>
</event>
<event>
 8    1  0.3759079E-007  0.1550337E+03  0.7546771E-02  0.1194421E+00
          5   -1    0    0  501    0  0.00000000000E+00  0.00000000000E+00  0.49876591002E+02  0.50097548143E+02  0.47000000000E+01 0. -1.
         -5   -1    0    0    0  501 -0.00000000000E+00 -0.00000000000E+00 -0.83693156004E+03  0.83694475695E+03  0.47000000000E+01 0. -1.
         25    2    1    2    0    0  0.41340284968E+02  0.81856513354E+02 -0.68288887371E+03  0.70026613142E+03  0.12500373208E+03 0.  0.
         25    2    1    2    0    0 -0.41340284968E+02 -0.81856513354E+02 -0.10416609533E+03  0.18677617368E+03  0.12500102279E+03 0.  0.
          5    1    4    4  502    0 -0.50179536403E+02  0.11043819696E+02 -0.70702441329E+02  0.87526436218E+02  0.47000000000E+01 0. -1.
         -5    1    4    4    0  502  0.88392514352E+01 -0.92900333050E+02 -0.33463653998E+02  0.99249737459E+02  0.47000000000E+01 0. -1.
          5    1    3    3  503    0  0.60514352752E+02 -0.96061774448E+01 -0.26634687623E+03  0.27334413111E+03  0.47000000000E+01 0.  1.
         -5    1    3    3    0  503 -0.19174067784E+02  0.91462690799E+02 -0.41654199747E+03  0.42692200030E+03  0.47000000000E+01 0.  1.
<mgrwt>
<rscale>  0 0.15503313E+03</rscale>
<asrwt>0</asrwt>
<pdfrwt beam="1">  1        5 0.76913342E-02 0.15503368E+03</pdfrwt>
<pdfrwt beam="2">  1       -5 0.12877670E+00 0.15503368E+03</pdfrwt>
<totfact> 0.39825737E+01</totfact>
</mgrwt>
</event>
<event>
 8    1  0.3759079E-007  0.1504485E+03  0.7546771E-02  0.1199923E+00
          5   -1    0    0  501    0  0.00000000000E+00  0.00000000000E+00  0.68400746747E+03  0.68402361477E+03  0.47000000000E+01 0. -1.
         -5   -1    0    0    0  501 -0.00000000000E+00 -0.00000000000E+00 -0.37214474717E+02  0.37510093688E+02  0.47000000000E+01 0. -1.
         25    2    1    2    0    0  0.28911127207E+02  0.78572341205E+02  0.20120652245E+03  0.25123375718E+03  0.12499947995E+03 0.  0.
         25    2    1    2    0    0 -0.28911127207E+02 -0.78572341205E+02  0.44558647030E+03  0.47029995128E+03  0.12500110230E+03 0.  0.
          5    1    4    4  502    0 -0.15833024497E+02  0.27030517917E+01  0.31767373895E+03  0.31811426496E+03  0.47000000000E+01 0.  1.
         -5    1    4    4    0  502 -0.13078102710E+02 -0.81275392997E+02  0.12791273136E+03  0.15218568632E+03  0.47000000000E+01 0.  1.
          5    1    3    3  503    0 -0.30702133031E+02 -0.17803914591E+02  0.35413172828E+02  0.50356560220E+02  0.47000000000E+01 0. -1.
         -5    1    3    3    0  503  0.59613260238E+02  0.96376255797E+02  0.16579334962E+03  0.20087719696E+03  0.47000000000E+01 0. -1.
<mgrwt>
<rscale>  0 0.15044813E+03</rscale>
<asrwt>0</asrwt>
<pdfrwt beam="1">  1        5 0.10525589E+00 0.15044847E+03</pdfrwt>
<pdfrwt beam="2">  1       -5 0.57492862E-02 0.15044847E+03</pdfrwt>
<totfact> 0.10774160E+02</totfact>
</mgrwt>
</event>
<event>
 8    1  0.3759079E-007  0.1313342E+03  0.7546771E-02  0.1225494E+00
         -5   -1    0    0    0  501 -0.00000000000E+00  0.00000000000E+00  0.38005639719E+03  0.38008545755E+03  0.47000000000E+01 0.  1.
          5   -1    0    0  501    0  0.00000000000E+00 -0.00000000000E+00 -0.48043226617E+02  0.48272576311E+02  0.47000000000E+01 0.  1.
         25    2    1    2    0    0  0.32769560100E+02  0.23394738036E+02  0.21770756383E+03  0.25424763028E+03  0.12499646521E+03 0.  0.
         25    2    1    2    0    0 -0.32769560100E+02 -0.23394738036E+02  0.11430560674E+03  0.17411040358E+03  0.12501001187E+03 0.  0.
          5    1    4    4  502    0  0.40839370046E+02 -0.20300600712E+02  0.81099967929E+02  0.93162564011E+02  0.47000000000E+01 0. -1.
         -5    1    4    4    0  502 -0.73608930146E+02 -0.30941373236E+01  0.33205638809E+02  0.80947839574E+02  0.47000000000E+01 0. -1.
          5    1    3    3  503    0 -0.43299781879E+02  0.32759261516E+02  0.93267414454E+02  0.10802287223E+03  0.47000000000E+01 0.  1.
         -5    1    3    3    0  503  0.76069341979E+02 -0.93645234804E+01  0.12444014938E+03  0.14622475805E+03  0.47000000000E+01 0.  1.
<mgrwt>
<rscale>  0 0.13133093E+03</rscale>
<asrwt>0</asrwt>
<pdfrwt beam="2">  1        5 0.74111436E-02 0.13133416E+03</pdfrwt>
<pdfrwt beam="1">  1       -5 0.58490090E-01 0.13133416E+03</pdfrwt>
<totfact> 0.26078360E+02</totfact>
</mgrwt>
</event>
<event>
 8    1  0.3759079E-007  0.1601529E+03  0.7546771E-02  0.1188527E+00
          5   -1    0    0  501    0  0.00000000000E+00  0.00000000000E+00  0.36025950118E+03  0.36029015833E+03  0.47000000000E+01 0. -1.
         -5   -1    0    0    0  501 -0.00000000000E+00 -0.00000000000E+00 -0.81448141772E+02  0.81583636828E+02  0.47000000000E+01 0. -1.
         25    2    1    2    0    0 -0.75818935635E+02  0.65383460254E+02  0.60661436880E+02  0.17124796638E+03  0.12499019237E+03 0.  0.
         25    2    1    2    0    0  0.75818935635E+02 -0.65383460254E+02  0.21814992253E+03  0.27062582878E+03  0.12500177050E+03 0.  0.
          5    1    3    3  502    0 -0.78132354635E+02  0.65887061242E+02  0.93132688347E+02  0.13835301702E+03  0.47000000000E+01 0. -1.
         -5    1    3    3    0  502  0.23134190003E+01 -0.50360098781E+00 -0.32471251467E+02  0.32894949358E+02  0.47000000000E+01 0. -1.
          5    1    4    4  503    0  0.12681081973E+01 -0.32982836776E+02  0.17563498332E+03  0.17877139868E+03  0.47000000000E+01 0. -1.
         -5    1    4    4    0  503  0.74550827438E+02 -0.32400623478E+02  0.42514939209E+02  0.91854430102E+02  0.47000000000E+01 0. -1.
<mgrwt>
<rscale>  0 0.16015064E+03</rscale>
<asrwt>0</asrwt>
<pdfrwt beam="1">  1        5 0.55437319E-01 0.16015290E+03</pdfrwt>
<pdfrwt beam="2">  1       -5 0.12543264E-01 0.16015290E+03</pdfrwt>
<totfact> 0.12503487E+02</totfact>
</mgrwt>
</event>
<event>
 8    1  0.3759079E-007  0.1407875E+03  0.7546771E-02  0.1212280E+00
         -5   -1    0    0    0  501 -0.00000000000E+00  0.00000000000E+00  0.10201398158E+04  0.10201506427E+04  0.47000000000E+01 0. -1.
          5   -1    0    0  501    0  0.00000000000E+00 -0.00000000000E+00 -0.19704588632E+02  0.20257364418E+02  0.47000000000E+01 0. -1.
         25    2    1    2    0    0 -0.53344437333E+02  0.36747205792E+02  0.58762623275E+03  0.60425161322E+03  0.12497774414E+03 0.  0.
         25    2    1    2    0    0  0.53344437333E+02 -0.36747205792E+02  0.41280899442E+03  0.43615639390E+03  0.12500059173E+03 0.  0.
          5    1    4    4  502    0  0.57730881435E+02  0.20776846509E+02  0.32641521917E+03  0.33216489479E+03  0.47000000000E+01 0. -1.
         -5    1    4    4    0  502 -0.43864441020E+01 -0.57524052302E+02  0.86393775253E+02  0.10399149911E+03  0.47000000000E+01 0. -1.
          5    1    3    3  503    0 -0.74239530087E+02 -0.21985583454E+02  0.29554010757E+03  0.30555019046E+03  0.47000000000E+01 0. -1.
         -5    1    3    3    0  503  0.20895092753E+02  0.58732789246E+02  0.29208612518E+03  0.29870142276E+03  0.47000000000E+01 0. -1.
<mgrwt>
<rscale>  0 0.14078248E+03</rscale>
<asrwt>0</asrwt>
<pdfrwt beam="2">  1        5 0.30748288E-02 0.14078755E+03</pdfrwt>
<pdfrwt beam="1">  1       -5 0.15698796E+00 0.14078755E+03</pdfrwt>
<totfact> 0.10433649E+02</totfact>
</mgrwt>
</event>
<event>
 8    1  0.3759079E-007  0.1527258E+03  0.7546771E-02  0.1197165E+00
          5   -1    0    0  501    0  0.00000000000E+00  0.00000000000E+00  0.54932532263E+03  0.54934542874E+03  0.47000000000E+01 0.  1.
         -5   -1    0    0    0  501 -0.00000000000E+00 -0.00000000000E+00 -0.43940035516E+02  0.44190685910E+02  0.47000000000E+01 0.  1.
         25    2    1    2    0    0 -0.31975979410E+02  0.81715297229E+02  0.19569923309E+03  0.24824054482E+03  0.12500130079E+03 0.  0.
         25    2    1    2    0    0  0.31975979410E+02 -0.81715297229E+02  0.30968605402E+03  0.34529556983E+03  0.12499490162E+03 0.  0.
          5    1    4    4  502    0  0.23923593005E+02 -0.32006546428E+02  0.28710043405E+03  0.28990603054E+03  0.47000000000E+01 0. -1.
         -5    1    4    4    0  502  0.80523864043E+01 -0.49708750801E+02  0.22585619977E+02  0.55389539290E+02  0.47000000000E+01 0. -1.
          5    1    3    3  503    0 -0.39674612490E+02 -0.23455864994E+02  0.72093461509E+02  0.85696030662E+02  0.47000000000E+01 0. -1.
         -5    1    3    3    0  503  0.76986330803E+01  0.10517116222E+03  0.12360577158E+03  0.16254451416E+03  0.47000000000E+01 0. -1.
<mgrwt>
<rscale>  0 0.15272452E+03</rscale>
<asrwt>0</asrwt>
<pdfrwt beam="1">  1        5 0.84532413E-01 0.15272583E+03</pdfrwt>
<pdfrwt beam="2">  1       -5 0.67808331E-02 0.15272583E+03</pdfrwt>
<totfact> 0.13885010E+02</totfact>
</mgrwt>
</event>
<event>
 8    1  0.3759079E-007  0.2097413E+03  0.7546771E-02  0.1141771E+00
          5   -1    0    0  501    0  0.00000000000E+00  0.00000000000E+00  0.26308418162E+03  0.26312616103E+03  0.47000000000E+01 0.  1.
         -5   -1    0    0    0  501 -0.00000000000E+00 -0.00000000000E+00 -0.20137642346E+03  0.20143126353E+03  0.47000000000E+01 0.  1.
         25    2    1    2    0    0 -0.14419715098E+03 -0.87025872458E+02 -0.64918434631E+02  0.21955622625E+03  0.12499684998E+03 0.  0.
         25    2    1    2    0    0  0.14419715098E+03  0.87025872458E+02  0.12662619279E+03  0.24500119830E+03  0.12500029457E+03 0.  0.
          5    1    3    3  502    0 -0.66936465312E+02  0.19270813201E+02 -0.52750734720E+02  0.87501912227E+02  0.47000000000E+01 0. -1.
         -5    1    3    3    0  502 -0.77260685667E+02 -0.10629668566E+03 -0.12167699911E+02  0.13205431403E+03  0.47000000000E+01 0. -1.
          5    1    4    4  503    0  0.11411285124E+03  0.13728414725E+02  0.27974678657E+02  0.11838447886E+03  0.47000000000E+01 0. -1.
         -5    1    4    4    0  503  0.30084299734E+02  0.73297457733E+02  0.98651514134E+02  0.12661671944E+03  0.47000000000E+01 0. -1.
<mgrwt>
<rscale>  0 0.20974074E+03</rscale>
<asrwt>0</asrwt>
<pdfrwt beam="1">  1        5 0.40481937E-01 0.20974126E+03</pdfrwt>
<pdfrwt beam="2">  1       -5 0.30988436E-01 0.20974126E+03</pdfrwt>
<totfact> 0.47997231E+01</totfact>
</mgrwt>
</event>
<event>
 8    1  0.3759079E-007  0.1255780E+03  0.7546771E-02  0.1234170E+00
          5   -1    0    0  501    0  0.00000000000E+00  0.00000000000E+00  0.30091464831E+03  0.30095135083E+03  0.47000000000E+01 0.  1.
         -5   -1    0    0    0  501 -0.00000000000E+00 -0.00000000000E+00 -0.53551359605E+02  0.53757214544E+02  0.47000000000E+01 0.  1.
         25    2    1    2    0    0  0.61360853325E+01 -0.10362634653E+02  0.96203496054E+02  0.15819275257E+03  0.12499919429E+03 0.  0.
         25    2    1    2    0    0 -0.61360853325E+01  0.10362634653E+02  0.15115979265E+03  0.19651581280E+03  0.12499658406E+03 0.  0.
          5    1    4    4  502    0  0.50101527288E+02 -0.27509155764E+02  0.75527406355E+02  0.94833516217E+02  0.47000000000E+01 0.  1.
         -5    1    4    4    0  502 -0.56237612620E+02  0.37871790416E+02  0.75632386295E+02  0.10168229659E+03  0.47000000000E+01 0.  1.
          5    1    3    3  503    0  0.50512705662E+02 -0.15478630729E+02  0.11401671381E+01  0.53051969083E+02  0.47000000000E+01 0.  1.
         -5    1    3    3    0  503 -0.44376620329E+02  0.51159960765E+01  0.95063328916E+02  0.10514078349E+03  0.47000000000E+01 0.  1.
<mgrwt>
<rscale>  0 0.12557735E+03</rscale>
<asrwt>0</asrwt>
<pdfrwt beam="1">  1        5 0.46313219E-01 0.12557800E+03</pdfrwt>
<pdfrwt beam="2">  1       -5 0.82573291E-02 0.12557800E+03</pdfrwt>
<totfact> 0.35075953E+02</totfact>
</mgrwt>
</event>
<event>
 8    1  0.3759079E-007  0.1313358E+03  0.7546771E-02  0.1225491E+00
         -5   -1    0    0    0  501 -0.00000000000E+00  0.00000000000E+00  0.11381693924E+04  0.11381790966E+04  0.47000000000E+01 0. -1.
          5   -1    0    0  501    0  0.00000000000E+00 -0.00000000000E+00 -0.15356628602E+02  0.16059764693E+02  0.47000000000E+01 0. -1.
         25    2    1    2    0    0  0.48396857115E+01  0.40005894197E+02  0.67071004462E+03  0.68344595696E+03  0.12499007160E+03 0.  0.
         25    2    1    2    0    0 -0.48396857115E+01 -0.40005894197E+02  0.45210271922E+03  0.47079290431E+03  0.12500078360E+03 0.  0.
          5    1    4    4  502    0 -0.11707036286E+02 -0.65162717854E+02  0.11599193365E+03  0.13363926507E+03  0.47000000000E+01 0. -1.
         -5    1    4    4    0  502  0.68673505744E+01  0.25156823656E+02  0.33611078557E+03  0.33715363924E+03  0.47000000000E+01 0. -1.
          5    1    3    3  503    0 -0.44059476726E+02 -0.15368881215E+02  0.40199203849E+03  0.40471858001E+03  0.47000000000E+01 0.  1.
         -5    1    3    3    0  503  0.48899162437E+02  0.55374775412E+02  0.26871800614E+03  0.27872737695E+03  0.47000000000E+01 0.  1.
<mgrwt>
<rscale>  0 0.13133324E+03</rscale>
<asrwt>0</asrwt>
<pdfrwt beam="2">  1        5 0.24173919E-02 0.13133579E+03</pdfrwt>
<pdfrwt beam="1">  1       -5 0.17515783E+00 0.13133579E+03</pdfrwt>
<totfact> 0.11015648E+02</totfact>
</mgrwt>
</event>
<event>
 8    1  0.3759079E-007  0.2289248E+03  0.7546771E-02  0.1127400E+00
          5   -1    0    0  501    0  0.00000000000E+00  0.00000000000E+00  0.14570452107E+03  0.14578030546E+03  0.47000000000E+01 0. -1.
         -5   -1    0    0    0  501 -0.00000000000E+00 -0.00000000000E+00 -0.39222287661E+03  0.39225103561E+03  0.47000000000E+01 0. -1.
         25    2    1    2    0    0 -0.11558720332E+03  0.15303992935E+03 -0.20097125814E+03  0.30461950194E+03  0.12498789067E+03 0.  0.
         25    2    1    2    0    0  0.11558720332E+03 -0.15303992935E+03 -0.45547097403E+02  0.23341183914E+03  0.12499970808E+03 0.  0.
          5    1    3    3  502    0 -0.10528472631E+03  0.12490180258E+03 -0.83938498402E+02  0.18372015511E+03  0.47000000000E+01 0.  1.
         -5    1    3    3    0  502 -0.10302477010E+02  0.28138126778E+02 -0.11703275973E+03  0.12089934682E+03  0.47000000000E+01 0.  1.
          5    1    4    4  503    0  0.33941492806E+02 -0.13479432772E+03 -0.22601417062E+01  0.13909972667E+03  0.47000000000E+01 0. -1.
         -5    1    4    4    0  503  0.81645710514E+02 -0.18245601633E+02 -0.43286955696E+02  0.94312112466E+02  0.47000000000E+01 0. -1.
<mgrwt>
<rscale>  0 0.22892315E+03</rscale>
<asrwt>0</asrwt>
<pdfrwt beam="1">  1        5 0.22424076E-01 0.22892477E+03</pdfrwt>
<pdfrwt beam="2">  1       -5 0.60349976E-01 0.22892477E+03</pdfrwt>
<totfact> 0.39249422E+01</totfact>
</mgrwt>
</event>
<event>
 8    1  0.3759079E-007  0.1677121E+03  0.7546771E-02  0.1180256E+00
          5   -1    0    0  501    0  0.00000000000E+00  0.00000000000E+00  0.51964411539E+02  0.52176527927E+02  0.47000000000E+01 0.  1.
         -5   -1    0    0    0  501 -0.00000000000E+00 -0.00000000000E+00 -0.54012755577E+03  0.54014800426E+03  0.47000000000E+01 0.  1.
         25    2    1    2    0    0  0.11162180200E+03  0.64905788081E+01 -0.23854702736E+03  0.29159950586E+03  0.12499613297E+03 0.  0.
         25    2    1    2    0    0 -0.11162180200E+03 -0.64905788081E+01 -0.24961611687E+03  0.30072502633E+03  0.12500312542E+03 0.  0.
          5    1    3    3  502    0  0.29651480422E+02 -0.51032192035E+02 -0.13530959431E+03  0.14769655117E+03  0.47000000000E+01 0. -1.
         -5    1    3    3    0  502  0.81970321575E+02  0.57522770843E+02 -0.10323743305E+03  0.14390295469E+03  0.47000000000E+01 0. -1.
          5    1    4    4  503    0 -0.63715271793E+02 -0.64883712303E+02 -0.15233098675E+03  0.17747211473E+03  0.47000000000E+01 0. -1.
         -5    1    4    4    0  503 -0.47906530204E+02  0.58393133495E+02 -0.97285130121E+02  0.12325291160E+03  0.47000000000E+01 0. -1.
<mgrwt>
<rscale>  0 0.16771076E+03</rscale>
<asrwt>0</asrwt>
<pdfrwt beam="1">  1        5 0.80124148E-02 0.16771206E+03</pdfrwt>
<pdfrwt beam="2">  1       -5 0.83114433E-01 0.16771206E+03</pdfrwt>
<totfact> 0.11176673E+02</totfact>
</mgrwt>
</event>
<event>
 8    1  0.3759079E-007  0.1988049E+03  0.7546771E-02  0.1150752E+00
          5   -1    0    0  501    0  0.00000000000E+00  0.00000000000E+00  0.15783364148E+03  0.15790360471E+03  0.47000000000E+01 0.  1.
         -5   -1    0    0    0  501 -0.00000000000E+00 -0.00000000000E+00 -0.25133048524E+03  0.25137442752E+03  0.47000000000E+01 0.  1.
         25    2    1    2    0    0  0.99976171036E+02 -0.11790879559E+03 -0.60095857113E+02  0.20768945556E+03  0.12500271619E+03 0.  0.
         25    2    1    2    0    0 -0.99976171036E+02  0.11790879559E+03 -0.33400986656E+02  0.20158857668E+03  0.12499843794E+03 0.  0.
          5    1    4    4  502    0  0.27341542406E+02  0.10028825306E+02 -0.16478446674E+02  0.33790035261E+02  0.47000000000E+01 0. -1.
         -5    1    4    4    0  502 -0.12731771344E+03  0.10787997028E+03 -0.16922539983E+02  0.16779854142E+03  0.47000000000E+01 0. -1.
          5    1    3    3  503    0  0.11843102842E+02 -0.27216777085E+02  0.37372575377E+02  0.47956349216E+02  0.47000000000E+01 0.  1.
         -5    1    3    3    0  503  0.88133068194E+02 -0.90692018501E+02 -0.97468432490E+02  0.15973310634E+03  0.47000000000E+01 0.  1.
<mgrwt>
<rscale>  0 0.19880425E+03</rscale>
<asrwt>0</asrwt>
<pdfrwt beam="1">  1        5 0.24290861E-01 0.19880492E+03</pdfrwt>
<pdfrwt beam="2">  1       -5 0.38674990E-01 0.19880492E+03</pdfrwt>
<totfact> 0.83650518E+01</totfact>
</mgrwt>
</event>
<event>
 8    1  0.3759079E-007  0.1253410E+03  0.7546771E-02  0.1234540E+00
          5   -1    0    0  501    0  0.00000000000E+00  0.00000000000E+00  0.78842719632E+03  0.78844120510E+03  0.47000000000E+01 0. -1.
         -5   -1    0    0    0  501 -0.00000000000E+00 -0.00000000000E+00 -0.21539255798E+02  0.22046077663E+02  0.47000000000E+01 0. -1.
         25    2    1    2    0    0  0.34420327958E+01 -0.85177549415E+01  0.26440003437E+03  0.29260267705E+03  0.12499819481E+03 0.  0.
         25    2    1    2    0    0 -0.34420327958E+01  0.85177549415E+01  0.50248790616E+03  0.51788460571E+03  0.12500387697E+03 0.  0.
          5    1    3    3  502    0 -0.11059638519E+02 -0.58747254196E+02  0.74786923652E+02  0.95857860549E+02  0.47000000000E+01 0.  1.
         -5    1    3    3    0  502  0.14501671315E+02  0.50229499254E+02  0.18961311072E+03  0.19674481651E+03  0.47000000000E+01 0.  1.
          5    1    4    4  503    0  0.94081474204E+01 -0.57222591015E+02  0.22987033831E+03  0.23711895874E+03  0.47000000000E+01 0.  1.
         -5    1    4    4    0  503 -0.12850180216E+02  0.65740345956E+02  0.27261756784E+03  0.28076564697E+03  0.47000000000E+01 0.  1.
<mgrwt>
<rscale>  0 0.12533959E+03</rscale>
<asrwt>0</asrwt>
<pdfrwt beam="1">  1        5 0.12133657E+00 0.12534101E+03</pdfrwt>
<pdfrwt beam="2">  1       -5 0.33537951E-02 0.12534101E+03</pdfrwt>
<totfact> 0.17293280E+02</totfact>
</mgrwt>
</event>
<event>
 8    1  0.3759079E-007  0.1841509E+03  0.7546771E-02  0.1163847E+00
         -5   -1    0    0    0  501 -0.00000000000E+00  0.00000000000E+00  0.92214674529E+03  0.92215872270E+03  0.47000000000E+01 0. -1.
          5   -1    0    0  501    0  0.00000000000E+00 -0.00000000000E+00 -0.43092070475E+02  0.43347624362E+02  0.47000000000E+01 0. -1.
         25    2    1    2    0    0 -0.49107488837E+01 -0.13513102519E+03  0.62613661305E+03  0.65265505700E+03  0.12500822297E+03 0.  0.
         25    2    1    2    0    0  0.49107488837E+01  0.13513102519E+03  0.25291806176E+03  0.31285129005E+03  0.12499549711E+03 0.  0.
          5    1    3    3  502    0  0.46192269159E+02 -0.92376437090E+02  0.49273978686E+03  0.50346968073E+03  0.47000000000E+01 0.  1.
         -5    1    3    3    0  502 -0.51103018043E+02 -0.42754588101E+02  0.13339682619E+03  0.14918537627E+03  0.47000000000E+01 0.  1.
          5    1    4    4  503    0  0.10804527978E+02  0.15899039866E+02 -0.11364130508E+02  0.22819963972E+02  0.47000000000E+01 0.  1.
         -5    1    4    4    0  503 -0.58937790945E+01  0.11923198533E+03  0.26428219227E+03  0.29003132608E+03  0.47000000000E+01 0.  1.
<mgrwt>
<rscale>  0 0.18414877E+03</rscale>
<asrwt>0</asrwt>
<pdfrwt beam="2">  1        5 0.66501280E-02 0.18415093E+03</pdfrwt>
<pdfrwt beam="1">  1       -5 0.14188932E+00 0.18415093E+03</pdfrwt>
<totfact> 0.41363147E+01</totfact>
</mgrwt>
</event>
<event>
 8    1  0.3759079E-007  0.1523725E+03  0.7546771E-02  0.1197588E+00
         -5   -1    0    0    0  501 -0.00000000000E+00  0.00000000000E+00  0.37388315025E+03  0.37391269040E+03  0.47000000000E+01 0.  1.
          5   -1    0    0  501    0  0.00000000000E+00 -0.00000000000E+00 -0.62076343885E+02  0.62254015694E+02  0.47000000000E+01 0.  1.
         25    2    1    2    0    0  0.77886812399E+02  0.39053076826E+02  0.16462517909E+03  0.22431859524E+03  0.12500353685E+03 0.  0.
         25    2    1    2    0    0 -0.77886812399E+02 -0.39053076826E+02  0.14718162727E+03  0.21184811085E+03  0.12500276920E+03 0.  0.
          5    1    3    3  502    0  0.50665586185E+02  0.54325966982E+02  0.21104714403E+02  0.77368024933E+02  0.47000000000E+01 0. -1.
         -5    1    3    3    0  502  0.27221226214E+02 -0.15272890156E+02  0.14352046469E+03  0.14695057031E+03  0.47000000000E+01 0. -1.
          5    1    4    4  503    0 -0.56734300879E+02 -0.70118862437E+02  0.41144081168E+02  0.99248985793E+02  0.47000000000E+01 0. -1.
         -5    1    4    4    0  503 -0.21152511520E+02  0.31065785611E+02  0.10603754611E+03  0.11259912506E+03  0.47000000000E+01 0. -1.
<mgrwt>
<rscale>  0 0.15237236E+03</rscale>
<asrwt>0</asrwt>
<pdfrwt beam="2">  1        5 0.95661462E-02 0.15237251E+03</pdfrwt>
<pdfrwt beam="1">  1       -5 0.57536424E-01 0.15237251E+03</pdfrwt>
<totfact> 0.18301552E+02</totfact>
</mgrwt>
</event>
<event>
 8    1  0.3759079E-007  0.1270138E+03  0.7546771E-02  0.1231959E+00
         -5   -1    0    0    0  501 -0.00000000000E+00  0.00000000000E+00  0.16476579726E+03  0.16483281817E+03  0.47000000000E+01 0.  1.
          5   -1    0    0  501    0  0.00000000000E+00 -0.00000000000E+00 -0.10192214305E+03  0.10203045254E+03  0.47000000000E+01 0.  1.
         25    2    1    2    0    0 -0.14100233206E+02  0.17584752924E+02  0.58362622903E+02  0.13978089571E+03  0.12499785175E+03 0.  0.
         25    2    1    2    0    0  0.14100233206E+02 -0.17584752924E+02  0.44810313034E+01  0.12708237500E+03  0.12498724047E+03 0.  0.
          5    1    3    3  502    0 -0.69491097035E+02  0.11404656573E+02  0.38711248430E+02  0.80496767101E+02  0.47000000000E+01 0. -1.
         -5    1    3    3    0  502  0.55390863829E+02  0.61800963511E+01  0.19651374473E+02  0.59284128612E+02  0.47000000000E+01 0. -1.
          5    1    4    4  503    0 -0.30815358290E+02 -0.53126945815E+02  0.24407737594E+02  0.66256217313E+02  0.47000000000E+01 0. -1.
         -5    1    4    4    0  503  0.44915591496E+02  0.35542192891E+02 -0.19926706291E+02  0.60826157684E+02  0.47000000000E+01 0. -1.
<mgrwt>
<rscale>  0 0.12701118E+03</rscale>
<asrwt>0</asrwt>
<pdfrwt beam="2">  1        5 0.15693817E-01 0.12701379E+03</pdfrwt>
<pdfrwt beam="1">  1       -5 0.25362071E-01 0.12701379E+03</pdfrwt>
<totfact> 0.37816151E+02</totfact>
</mgrwt>
</event>
<event>
 8    1  0.3759079E-007  0.1329597E+03  0.7546771E-02  0.1223133E+00
          5   -1    0    0  501    0  0.00000000000E+00  0.00000000000E+00  0.34715484727E+03  0.34718666159E+03  0.47000000000E+01 0.  1.
         -5   -1    0    0    0  501 -0.00000000000E+00 -0.00000000000E+00 -0.90369753111E+02  0.90491890671E+02  0.47000000000E+01 0.  1.
         25    2    1    2    0    0  0.22092603617E+02  0.39548610123E+02 -0.16302651312E+02  0.13394315710E+03  0.12499126848E+03 0.  0.
         25    2    1    2    0    0 -0.22092603617E+02 -0.39548610123E+02  0.27308774548E+03  0.30373539516E+03  0.12500439131E+03 0.  0.
          5    1    4    4  502    0 -0.52742467756E+02  0.19045258919E+02  0.68359459868E+02  0.88541490533E+02  0.47000000000E+01 0.  1.
         -5    1    4    4    0  502  0.30649864139E+02 -0.58593869042E+02  0.20472828561E+03  0.21519390463E+03  0.47000000000E+01 0.  1.
          5    1    3    3  503    0  0.28171080261E+02  0.63997876266E+02  0.33694054948E+02  0.77760640870E+02  0.47000000000E+01 0. -1.
         -5    1    3    3    0  503 -0.60784766442E+01 -0.24449266143E+02 -0.49996706260E+02  0.56182516231E+02  0.47000000000E+01 0. -1.
<mgrwt>
<rscale>  0 0.13295658E+03</rscale>
<asrwt>0</asrwt>
<pdfrwt beam="1">  1        5 0.53420282E-01 0.13295967E+03</pdfrwt>
<pdfrwt beam="2">  1       -5 0.13914881E-01 0.13295967E+03</pdfrwt>
<totfact> 0.10595362E+02</totfact>
</mgrwt>
</event>
<event>
 8    1  0.3759079E-007  0.1571601E+03  0.7546771E-02  0.1191942E+00
          5   -1    0    0  501    0  0.00000000000E+00  0.00000000000E+00  0.46754444523E+02  0.46990084940E+02  0.47000000000E+01 0.  1.
         -5   -1    0    0    0  501 -0.00000000000E+00 -0.00000000000E+00 -0.52675984523E+03  0.52678081262E+03  0.47000000000E+01 0.  1.
         25    2    1    2    0    0  0.63743827774E+02  0.70788910452E+02 -0.23673194809E+03  0.28415013685E+03  0.12499975842E+03 0.  0.
         25    2    1    2    0    0 -0.63743827774E+02 -0.70788910452E+02 -0.24327345261E+03  0.28962076070E+03  0.12499546736E+03 0.  0.
          5    1    4    4  502    0 -0.14081540856E+02 -0.18932484536E+01 -0.18707619156E+03  0.18767382777E+03  0.47000000000E+01 0.  1.
         -5    1    4    4    0  502 -0.49662286918E+02 -0.68895661999E+02 -0.56197261056E+02  0.10194693293E+03  0.47000000000E+01 0.  1.
          5    1    3    3  503    0  0.49844381774E+02  0.96861065499E+02 -0.11369575550E+03  0.15752886473E+03  0.47000000000E+01 0.  1.
         -5    1    3    3    0  503  0.13899446000E+02 -0.26072155047E+02 -0.12303619259E+03  0.12662127212E+03  0.47000000000E+01 0.  1.
<mgrwt>
<rscale>  0 0.15715921E+03</rscale>
<asrwt>0</asrwt>
<pdfrwt beam="1">  1        5 0.72127309E-02 0.15716006E+03</pdfrwt>
<pdfrwt beam="2">  1       -5 0.81059711E-01 0.15716006E+03</pdfrwt>
<totfact> 0.13912746E+02</totfact>
</mgrwt>
</event>
<event>
 8    1  0.3759079E-007  0.1685107E+03  0.7546771E-02  0.1179413E+00
          5   -1    0    0  501    0  0.00000000000E+00  0.00000000000E+00  0.40540049519E+03  0.40542773894E+03  0.47000000000E+01 0.  1.
         -5   -1    0    0    0  501 -0.00000000000E+00 -0.00000000000E+00 -0.72319811318E+02  0.72472374799E+02  0.47000000000E+01 0.  1.
         25    2    1    2    0    0  0.16775083888E+02  0.11173925577E+03  0.20991908078E+03  0.26918740754E+03  0.12501509983E+03 0.  0.
         25    2    1    2    0    0 -0.16775083888E+02 -0.11173925577E+03  0.12316160310E+03  0.20871270620E+03  0.12500059413E+03 0.  0.
          5    1    4    4  502    0  0.42584777267E+02 -0.11132124066E+01  0.30419765316E+02  0.52556204378E+02  0.47000000000E+01 0.  1.
         -5    1    4    4    0  502 -0.59359861155E+02 -0.11062604336E+03  0.92741837780E+02  0.15615650182E+03  0.47000000000E+01 0.  1.
          5    1    3    3  503    0  0.94301500799E+01  0.65402811568E+02  0.14045244813E+02  0.67718641403E+02  0.47000000000E+01 0. -1.
         -5    1    3    3    0  503  0.73449338081E+01  0.46336444199E+02  0.19587383597E+03  0.20146876614E+03  0.47000000000E+01 0. -1.
<mgrwt>
<rscale>  0 0.16850796E+03</rscale>
<asrwt>0</asrwt>
<pdfrwt beam="1">  1        5 0.62383138E-01 0.16851065E+03</pdfrwt>
<pdfrwt beam="2">  1       -5 0.11139956E-01 0.16851065E+03</pdfrwt>
<totfact> 0.12104127E+02</totfact>
</mgrwt>
</event>
<event>
 8    1  0.3759079E-007  0.1264198E+03  0.7546771E-02  0.1232870E+00
          5   -1    0    0  501    0  0.00000000000E+00  0.00000000000E+00  0.39481910316E+03  0.39484707701E+03  0.47000000000E+01 0. -1.
         -5   -1    0    0    0  501 -0.00000000000E+00 -0.00000000000E+00 -0.56316869448E+02  0.56512651543E+02  0.47000000000E+01 0. -1.
         25    2    1    2    0    0 -0.18571787493E+02  0.34534267289E+01  0.49211353615E+02  0.13565229676E+03  0.12499180311E+03 0.  0.
         25    2    1    2    0    0  0.18571787493E+02 -0.34534267289E+01  0.28929088010E+03  0.31570743179E+03  0.12500052694E+03 0.  0.
          5    1    3    3  502    0  0.12404184898E+02 -0.21657366213E+01  0.85977561445E+02  0.87021751822E+02  0.47000000000E+01 0.  1.
         -5    1    3    3    0  502 -0.30975972391E+02  0.56191633502E+01 -0.36766207830E+02  0.48630544934E+02  0.47000000000E+01 0.  1.
          5    1    4    4  503    0 -0.11794529580E+02 -0.59643195188E+02  0.16457720148E+03  0.17551115892E+03  0.47000000000E+01 0.  1.
         -5    1    4    4    0  503  0.30366317073E+02  0.56189768459E+02  0.12471367862E+03  0.14019627287E+03  0.47000000000E+01 0.  1.
<mgrwt>
<rscale>  0 0.12641766E+03</rscale>
<asrwt>0</asrwt>
<pdfrwt beam="1">  1        5 0.60758611E-01 0.12641981E+03</pdfrwt>
<pdfrwt beam="2">  1       -5 0.86813460E-02 0.12641981E+03</pdfrwt>
<totfact> 0.18055363E+02</totfact>
</mgrwt>
</event>
<event>
 8    1  0.3759079E-007  0.1376554E+03  0.7546771E-02  0.1216519E+00
          5   -1    0    0  501    0  0.00000000000E+00  0.00000000000E+00  0.11851707336E+02  0.12749626142E+02  0.47000000000E+01 0.  1.
         -5   -1    0    0    0  501 -0.00000000000E+00 -0.00000000000E+00 -0.15584191198E+04  0.15584262071E+04  0.47000000000E+01 0.  1.
         25    2    1    2    0    0  0.28900287490E+02  0.49888826771E+02 -0.68694199566E+03  0.70059854138E+03  0.12499955651E+03 0.  0.
         25    2    1    2    0    0 -0.28900287490E+02 -0.49888826771E+02 -0.85962541683E+03  0.87057729189E+03  0.12499936892E+03 0.  0.
          5    1    4    4  502    0  0.12725158981E+02  0.35245472555E+02 -0.36380866694E+03  0.36576359735E+03  0.47000000000E+01 0. -1.
         -5    1    4    4    0  502 -0.41625446471E+02 -0.85134299326E+02 -0.49581674989E+03  0.50481369454E+03  0.47000000000E+01 0. -1.
          5    1    3    3  503    0  0.52661515999E+02  0.30159599637E+02 -0.13871196534E+03  0.15147916043E+03  0.47000000000E+01 0. -1.
         -5    1    3    3    0  503 -0.23761228508E+02  0.19729227133E+02 -0.54823003032E+03  0.54911938094E+03  0.47000000000E+01 0. -1.
<mgrwt>
<rscale>  0 0.13765536E+03</rscale>
<asrwt>0</asrwt>
<pdfrwt beam="1">  1        5 0.18929567E-02 0.13765541E+03</pdfrwt>
<pdfrwt beam="2">  1       -5 0.23982625E+00 0.13765541E+03</pdfrwt>
<totfact> 0.60795644E+01</totfact>
</mgrwt>
</event>
<event>
 8    1  0.3759079E-007  0.1489077E+03  0.7546771E-02  0.1201822E+00
         -5   -1    0    0    0  501 -0.00000000000E+00  0.00000000000E+00  0.14778530996E+03  0.14786002786E+03  0.47000000000E+01 0.  1.
          5   -1    0    0  501    0  0.00000000000E+00 -0.00000000000E+00 -0.15003804662E+03  0.15011164323E+03  0.47000000000E+01 0.  1.
         25    2    1    2    0    0 -0.50180342573E+02 -0.63479060261E+02  0.35847008907E+01  0.14895079992E+03  0.12500333133E+03 0.  0.
         25    2    1    2    0    0  0.50180342573E+02  0.63479060261E+02 -0.58374375565E+01  0.14902087118E+03  0.12500194598E+03 0.  0.
          5    1    3    3  502    0 -0.53417704007E+01 -0.20940786090E+02  0.60737371306E+02  0.64638760092E+02  0.47000000000E+01 0. -1.
         -5    1    3    3    0  502 -0.44838572173E+02 -0.42538274171E+02 -0.57152670415E+02  0.84312039825E+02  0.47000000000E+01 0. -1.
          5    1    4    4  503    0 -0.27163663067E+02 -0.15038295426E+02 -0.20844548730E+02  0.37690849450E+02  0.47000000000E+01 0. -1.
         -5    1    4    4    0  503  0.77344005640E+02  0.78517355687E+02  0.15007111173E+02  0.11133002173E+03  0.47000000000E+01 0. -1.
<mgrwt>
<rscale>  0 0.14890737E+03</rscale>
<asrwt>0</asrwt>
<pdfrwt beam="2">  1        5 0.23094185E-01 0.14890766E+03</pdfrwt>
<pdfrwt beam="1">  1       -5 0.22747610E-01 0.14890766E+03</pdfrwt>
<totfact> 0.24003993E+02</totfact>
</mgrwt>
</event>
<event>
 8    1  0.3759079E-007  0.1540821E+03  0.7546771E-02  0.1195545E+00
          5   -1    0    0  501    0  0.00000000000E+00  0.00000000000E+00  0.17261554825E+03  0.17267952252E+03  0.47000000000E+01 0.  1.
         -5   -1    0    0    0  501 -0.00000000000E+00 -0.00000000000E+00 -0.14506295255E+03  0.14513907194E+03  0.47000000000E+01 0.  1.
         25    2    1    2    0    0 -0.78938909014E+01  0.89742887042E+02 -0.22709810401E+02  0.15574667850E+03  0.12500077234E+03 0.  0.
         25    2    1    2    0    0  0.78938909014E+01 -0.89742887042E+02  0.50262406101E+02  0.16207191596E+03  0.12499958876E+03 0.  0.
          5    1    4    4  502    0  0.14217605134E+02 -0.69727658831E+02  0.91231793184E+02  0.11579903622E+03  0.47000000000E+01 0. -1.
         -5    1    4    4    0  502 -0.63237142327E+01 -0.20015228211E+02 -0.40969387083E+02  0.46272879746E+02  0.47000000000E+01 0. -1.
          5    1    3    3  503    0 -0.28162253852E+02 -0.24598967562E+02 -0.23759899205E+01  0.37761846819E+02  0.47000000000E+01 0.  1.
         -5    1    3    3    0  503  0.20268362950E+02  0.11434185460E+03 -0.20333820481E+02  0.11798483168E+03  0.47000000000E+01 0.  1.
<mgrwt>
<rscale>  0 0.15408186E+03</rscale>
<asrwt>0</asrwt>
<pdfrwt beam="1">  1        5 0.26567015E-01 0.15408210E+03</pdfrwt>
<pdfrwt beam="2">  1       -5 0.22328154E-01 0.15408210E+03</pdfrwt>
<totfact> 0.19224716E+02</totfact>
</mgrwt>
</event>
<event>
 8    1  0.3759079E-007  0.1406276E+03  0.7546771E-02  0.1212490E+00
          5   -1    0    0  501    0  0.00000000000E+00  0.00000000000E+00  0.12121818139E+03  0.12130926386E+03  0.47000000000E+01 0. -1.
         -5   -1    0    0    0  501 -0.00000000000E+00 -0.00000000000E+00 -0.21735234875E+03  0.21740315892E+03  0.47000000000E+01 0. -1.
         25    2    1    2    0    0 -0.61472340275E+01  0.64131503575E+02 -0.13276973467E+03  0.19340096167E+03  0.12500196515E+03 0.  0.
         25    2    1    2    0    0  0.61472340275E+01 -0.64131503575E+02  0.36635567307E+02  0.14531146111E+03  0.12499047044E+03 0.  0.
          5    1    4    4  502    0 -0.53431116374E+02 -0.36583779067E+02 -0.85480315181E+01  0.65485997974E+02  0.47000000000E+01 0. -1.
         -5    1    4    4    0  502  0.59578350402E+02 -0.27547724508E+02  0.45183598825E+02  0.79825463137E+02  0.47000000000E+01 0. -1.
          5    1    3    3  503    0 -0.15242536090E+02  0.96822205371E+02 -0.65704696476E+02  0.11809348627E+03  0.47000000000E+01 0.  1.
         -5    1    3    3    0  503  0.90953020629E+01 -0.32690701796E+02 -0.67065038193E+02  0.75307475402E+02  0.47000000000E+01 0.  1.
<mgrwt>
<rscale>  0 0.14062507E+03</rscale>
<asrwt>0</asrwt>
<pdfrwt beam="1">  1        5 0.18659866E-01 0.14062763E+03</pdfrwt>
<pdfrwt beam="2">  1       -5 0.33449738E-01 0.14062763E+03</pdfrwt>
<totfact> 0.16610316E+02</totfact>
</mgrwt>
</event>
<event>
 8    1  0.3759079E-007  0.1250251E+03  0.7546771E-02  0.1235032E+00
          5   -1    0    0  501    0  0.00000000000E+00  0.00000000000E+00  0.31937296521E+03  0.31940754672E+03  0.47000000000E+01 0. -1.
         -5   -1    0    0    0  501 -0.00000000000E+00 -0.00000000000E+00 -0.48904656155E+02  0.49129984669E+02  0.47000000000E+01 0. -1.
         25    2    1    2    0    0 -0.15142251370E+01  0.14130504753E+01  0.14406103208E+03  0.19074533387E+03  0.12500364731E+03 0.  0.
         25    2    1    2    0    0  0.15142251370E+01 -0.14130504753E+01  0.12640727697E+03  0.17779219752E+03  0.12500790471E+03 0.  0.
          5    1    3    3  502    0  0.44281029795E+02 -0.41935133931E+02  0.61355471858E+02  0.86636880048E+02  0.47000000000E+01 0.  1.
         -5    1    3    3    0  502 -0.45795254932E+02  0.43348184406E+02  0.82705560223E+02  0.10410845382E+03  0.47000000000E+01 0.  1.
          5    1    4    4  503    0 -0.19085574898E+02  0.56805450160E+02  0.43009236993E+02  0.73912128936E+02  0.47000000000E+01 0. -1.
         -5    1    4    4    0  503  0.20599800035E+02 -0.58218500635E+02  0.83398039976E+02  0.10388006859E+03  0.47000000000E+01 0. -1.
<mgrwt>
<rscale>  0 0.12502400E+03</rscale>
<asrwt>0</asrwt>
<pdfrwt beam="1">  1        5 0.49154295E-01 0.12502506E+03</pdfrwt>
<pdfrwt beam="2">  1       -5 0.75437864E-02 0.12502506E+03</pdfrwt>
<totfact> 0.36069476E+02</totfact>
</mgrwt>
</event>
<event>
 8    1  0.3759079E-007  0.1501281E+03  0.7546771E-02  0.1200316E+00
          5   -1    0    0  501    0  0.00000000000E+00  0.00000000000E+00  0.32844165571E+03  0.32847528249E+03  0.47000000000E+01 0. -1.
         -5   -1    0    0    0  501 -0.00000000000E+00 -0.00000000000E+00 -0.76631836754E+02  0.76775832162E+02  0.47000000000E+01 0. -1.
         25    2    1    2    0    0  0.41376093474E+02  0.72122540367E+02  0.59997873486E+02  0.16167312045E+03  0.12499924445E+03 0.  0.
         25    2    1    2    0    0 -0.41376093474E+02 -0.72122540367E+02  0.19181194547E+03  0.24357799420E+03  0.12499909957E+03 0.  0.
          5    1    3    3  502    0  0.57554465062E+02  0.87834488277E+02  0.79255707220E+02  0.13164714545E+03  0.47000000000E+01 0. -1.
         -5    1    3    3    0  502 -0.16178371589E+02 -0.15711947909E+02 -0.19257833734E+02  0.30025974997E+02  0.47000000000E+01 0. -1.
          5    1    4    4  503    0  0.22538828198E+02 -0.82082943146E+02  0.11091706324E+03  0.13989386423E+03  0.47000000000E+01 0.  1.
         -5    1    4    4    0  503 -0.63914921671E+02  0.99604027782E+01  0.80894882229E+02  0.10368412997E+03  0.47000000000E+01 0.  1.
<mgrwt>
<rscale>  0 0.15012809E+03</rscale>
<asrwt>0</asrwt>
<pdfrwt beam="1">  1        5 0.50543149E-01 0.15012812E+03</pdfrwt>
<pdfrwt beam="2">  1       -5 0.11803177E-01 0.15012812E+03</pdfrwt>
<totfact> 0.16638035E+02</totfact>
</mgrwt>
</event>
<event>
 8    1  0.3759079E-007  0.1569946E+03  0.7546771E-02  0.1192133E+00
          5   -1    0    0  501    0  0.00000000000E+00  0.00000000000E+00  0.22561734126E+02  0.23046080942E+02  0.47000000000E+01 0.  1.
         -5   -1    0    0    0  501 -0.00000000000E+00 -0.00000000000E+00 -0.10820267043E+04  0.10820369119E+04  0.47000000000E+01 0.  1.
         25    2    1    2    0    0 -0.94298385076E+02 -0.11414677848E+02 -0.50787888714E+03  0.53159030655E+03  0.12499923885E+03 0.  0.
         25    2    1    2    0    0  0.94298385076E+02  0.11414677848E+02 -0.55158608300E+03  0.57349268632E+03  0.12499669593E+03 0.  0.
          5    1    4    4  502    0  0.91684024256E+02  0.58496997697E+02 -0.40896490561E+03  0.42320472949E+03  0.47000000000E+01 0.  1.
         -5    1    4    4    0  502  0.26143608201E+01 -0.47082319849E+02 -0.14262117740E+03  0.15028795683E+03  0.47000000000E+01 0.  1.
          5    1    3    3  503    0  0.28116087562E+02  0.63851600024E+01 -0.15237784491E+03  0.15515277073E+03  0.47000000000E+01 0. -1.
         -5    1    3    3    0  503 -0.12241447264E+03 -0.17799837850E+02 -0.35550104223E+03  0.37643753581E+03  0.47000000000E+01 0. -1.
<mgrwt>
<rscale>  0 0.15699405E+03</rscale>
<asrwt>0</asrwt>
<pdfrwt beam="1">  1        5 0.35090795E-02 0.15699455E+03</pdfrwt>
<pdfrwt beam="2">  1       -5 0.16650365E+00 0.15699455E+03</pdfrwt>
<totfact> 0.73664077E+01</totfact>
</mgrwt>
</event>
<event>
 8    1  0.3759079E-007  0.1267698E+03  0.7546771E-02  0.1232331E+00
          5   -1    0    0  501    0  0.00000000000E+00  0.00000000000E+00  0.49396411107E+03  0.49398647049E+03  0.47000000000E+01 0. -1.
         -5   -1    0    0    0  501 -0.00000000000E+00 -0.00000000000E+00 -0.32384356400E+02  0.32723638848E+02  0.47000000000E+01 0. -1.
         25    2    1    2    0    0 -0.21101725527E+02 -0.39174649457E+00  0.22106267011E+03  0.25482950887E+03  0.12499575268E+03 0.  0.
         25    2    1    2    0    0  0.21101725527E+02  0.39174649457E+00  0.24051708456E+03  0.27188060047E+03  0.12500062664E+03 0.  0.
          5    1    3    3  502    0 -0.23337769219E+02 -0.60151476661E+02  0.91551945388E+02  0.11210129491E+03  0.47000000000E+01 0. -1.
         -5    1    3    3    0  502  0.22360436920E+01  0.59759730167E+02  0.12951072472E+03  0.14272821396E+03  0.47000000000E+01 0. -1.
          5    1    4    4  503    0 -0.50613987955E+01  0.32248284301E+02  0.57521538053E+01  0.33477557729E+02  0.47000000000E+01 0. -1.
         -5    1    4    4    0  503  0.26163124323E+02 -0.31856537806E+02  0.23476493076E+03  0.23840304274E+03  0.47000000000E+01 0. -1.
<mgrwt>
<rscale>  0 0.12676864E+03</rscale>
<asrwt>0</asrwt>
<pdfrwt beam="1">  1        5 0.76022291E-01 0.12676984E+03</pdfrwt>
<pdfrwt beam="2">  1       -5 0.50100277E-02 0.12676984E+03</pdfrwt>
<totfact> 0.27711918E+02</totfact>
</mgrwt>
</event>
<event>
 8    1  0.3759079E-007  0.1731860E+03  0.7546771E-02  0.1174568E+00
         -5   -1    0    0    0  501 -0.00000000000E+00  0.00000000000E+00  0.46692047454E+02  0.46928001187E+02  0.47000000000E+01 0. -1.
          5   -1    0    0  501    0  0.00000000000E+00 -0.00000000000E+00 -0.68999272649E+03  0.69000873371E+03  0.47000000000E+01 0. -1.
         25    2    1    2    0    0  0.32952552000E+02 -0.11524629181E+03 -0.22294540243E+03  0.28230287114E+03  0.12499072017E+03 0.  0.
         25    2    1    2    0    0 -0.32952552000E+02  0.11524629181E+03 -0.42035527660E+03  0.45463386376E+03  0.12500325219E+03 0.  0.
          5    1    4    4  502    0 -0.44514431711E+02  0.13217484273E+03 -0.40561959528E+03  0.42895345873E+03  0.47000000000E+01 0.  1.
         -5    1    4    4    0  502  0.11561879711E+02 -0.16928550924E+02 -0.14735681322E+02  0.25680405037E+02  0.47000000000E+01 0.  1.
          5    1    3    3  503    0  0.54363635438E+02 -0.11372067045E+02 -0.33198726480E+02  0.64876607548E+02  0.47000000000E+01 0.  1.
         -5    1    3    3    0  503 -0.21411083438E+02 -0.10387422476E+03 -0.18974667595E+03  0.21742626359E+03  0.47000000000E+01 0.  1.
<mgrwt>
<rscale>  0 0.17318374E+03</rscale>
<asrwt>0</asrwt>
<pdfrwt beam="2">  1        5 0.10617210E+00 0.17318600E+03</pdfrwt>
<pdfrwt beam="1">  1       -5 0.72027741E-02 0.17318600E+03</pdfrwt>
<totfact> 0.75055236E+01</totfact>
</mgrwt>
</event>
<event>
 8    1  0.3759079E-007  0.1360514E+03  0.7546771E-02  0.1218744E+00
         -5   -1    0    0    0  501 -0.00000000000E+00  0.00000000000E+00  0.17624550686E+02  0.18240471125E+02  0.47000000000E+01 0. -1.
          5   -1    0    0  501    0  0.00000000000E+00 -0.00000000000E+00 -0.10803667417E+04  0.10803769650E+04  0.47000000000E+01 0. -1.
         25    2    1    2    0    0 -0.53562864018E+02 -0.38291229895E+01 -0.41465720373E+03  0.43640643066E+03  0.12500533403E+03 0.  0.
         25    2    1    2    0    0  0.53562864018E+02  0.38291229895E+01 -0.64808498724E+03  0.66221100545E+03  0.12500248984E+03 0.  0.
          5    1    3    3  502    0 -0.42353545277E+02  0.30857619291E+02 -0.38660788568E+03  0.39017145300E+03  0.47000000000E+01 0.  1.
         -5    1    3    3    0  502 -0.11209318741E+02 -0.34686742280E+02 -0.28049318049E+02  0.46234977665E+02  0.47000000000E+01 0.  1.
          5    1    4    4  503    0  0.43407489491E+02  0.39337649948E+02 -0.59190080359E+03  0.59481115670E+03  0.47000000000E+01 0. -1.
         -5    1    4    4    0  503  0.10155374527E+02 -0.35508526958E+02 -0.56184183650E+02  0.67399848746E+02  0.47000000000E+01 0. -1.
<mgrwt>
<rscale>  0 0.13605072E+03</rscale>
<asrwt>0</asrwt>
<pdfrwt beam="2">  1        5 0.16625838E+00 0.13605137E+03</pdfrwt>
<pdfrwt beam="1">  1       -5 0.27596351E-02 0.13605137E+03</pdfrwt>
<totfact> 0.10461394E+02</totfact>
</mgrwt>
</event>
<event>
 8    1  0.3759079E-007  0.1630752E+03  0.7546771E-02  0.1185269E+00
         -5   -1    0    0    0  501 -0.00000000000E+00  0.00000000000E+00  0.15542468565E+03  0.15549573277E+03  0.47000000000E+01 0. -1.
          5   -1    0    0  501    0  0.00000000000E+00 -0.00000000000E+00 -0.24927206864E+03  0.24931637372E+03  0.47000000000E+01 0. -1.
         25    2    1    2    0    0  0.83593042459E+02 -0.63090396247E+02  0.66500238881E+02  0.17611307136E+03  0.12500134913E+03 0.  0.
         25    2    1    2    0    0 -0.83593042459E+02  0.63090396247E+02 -0.16034762186E+03  0.22869903513E+03  0.12499477584E+03 0.  0.
          5    1    3    3  502    0  0.29939904836E+02 -0.89898958400E+02  0.13289964165E+02  0.95796313972E+02  0.47000000000E+01 0.  1.
         -5    1    3    3    0  502  0.53653137622E+02  0.26808562153E+02  0.53210274715E+02  0.80316757384E+02  0.47000000000E+01 0.  1.
          5    1    4    4  503    0 -0.10062723887E+03  0.85380469018E+02 -0.11468314774E+03  0.17489991443E+03  0.47000000000E+01 0.  1.
         -5    1    4    4    0  503  0.17034196411E+02 -0.22290072770E+02 -0.45664474126E+02  0.53799120705E+02  0.47000000000E+01 0.  1.
<mgrwt>
<rscale>  0 0.16307397E+03</rscale>
<asrwt>0</asrwt>
<pdfrwt beam="2">  1        5 0.38358422E-01 0.16307523E+03</pdfrwt>
<pdfrwt beam="1">  1       -5 0.23920363E-01 0.16307523E+03</pdfrwt>
<totfact> 0.82794711E+01</totfact>
</mgrwt>
</event>
<event>
 8    1  0.3759079E-007  0.1389289E+03  0.7546771E-02  0.1214778E+00
          5   -1    0    0  501    0  0.00000000000E+00  0.00000000000E+00  0.36093215294E+03  0.36096275296E+03  0.47000000000E+01 0. -1.
         -5   -1    0    0    0  501 -0.00000000000E+00 -0.00000000000E+00 -0.11925384486E+03  0.11934642648E+03  0.47000000000E+01 0. -1.
         25    2    1    2    0    0  0.33249727722E+02 -0.50694903963E+02 -0.57570886073E+02  0.15038293450E+03  0.12500040954E+03 0.  0.
         25    2    1    2    0    0 -0.33249727722E+02  0.50694903963E+02  0.29924919415E+03  0.32992624494E+03  0.12500291685E+03 0.  0.
          5    1    3    3  502    0 -0.37448641229E+02 -0.56332653763E+02 -0.26286311176E+02  0.72724334065E+02  0.47000000000E+01 0. -1.
         -5    1    3    3    0  502  0.70698368951E+02  0.56377497999E+01 -0.31284574896E+02  0.77658600436E+02  0.47000000000E+01 0. -1.
          5    1    4    4  503    0 -0.10221100137E+02  0.46711840479E+02  0.24111888484E+02  0.53758163056E+02  0.47000000000E+01 0. -1.
         -5    1    4    4    0  503 -0.23028627585E+02  0.39830634842E+01  0.27513730566E+03  0.27616808188E+03  0.47000000000E+01 0. -1.
<mgrwt>
<rscale>  0 0.13892836E+03</rscale>
<asrwt>0</asrwt>
<pdfrwt beam="1">  1        5 0.55537498E-01 0.13892893E+03</pdfrwt>
<pdfrwt beam="2">  1       -5 0.18356221E-01 0.13892893E+03</pdfrwt>
<totfact> 0.59666880E+01</totfact>
</mgrwt>
</event>
<event>
 8    1  0.3759079E-007  0.1263155E+03  0.7546771E-02  0.1233029E+00
          5   -1    0    0  501    0  0.00000000000E+00  0.00000000000E+00  0.12409925145E+04  0.12410014146E+04  0.47000000000E+01 0.  1.
         -5   -1    0    0    0  501 -0.00000000000E+00 -0.00000000000E+00 -0.28863392016E+02  0.29243553113E+02  0.47000000000E+01 0.  1.
         25    2    1    2    0    0  0.14539819467E+02  0.10889776149E+02  0.13179927797E+03  0.18255590555E+03  0.12500246159E+03 0.  0.
         25    2    1    2    0    0 -0.14539819467E+02 -0.10889776149E+02  0.10803298446E+04  0.10876890622E+04  0.12499971770E+03 0.  0.
          5    1    3    3  502    0 -0.45807927312E+02  0.16375369742E+02  0.10561891901E+03  0.11637854180E+03  0.47000000000E+01 0. -1.
         -5    1    3    3    0  502  0.60347746779E+02 -0.54855935929E+01  0.26180358964E+02  0.66177363757E+02  0.47000000000E+01 0. -1.
          5    1    4    4  503    0  0.23777649407E+02  0.41851559783E+02  0.24019522529E+03  0.24501584830E+03  0.47000000000E+01 0. -1.
         -5    1    4    4    0  503 -0.38317468874E+02 -0.52741335932E+02  0.84013461928E+03  0.84267321391E+03  0.47000000000E+01 0. -1.
<mgrwt>
<rscale>  0 0.12631483E+03</rscale>
<asrwt>0</asrwt>
<pdfrwt beam="1">  1        5 0.19095180E+00 0.12631551E+03</pdfrwt>
<pdfrwt beam="2">  1       -5 0.44704508E-02 0.12631551E+03</pdfrwt>
<totfact> 0.31107841E+01</totfact>
</mgrwt>
</event>
<event>
 8    1  0.3759079E-007  0.1532244E+03  0.7546771E-02  0.1196576E+00
         -5   -1    0    0    0  501 -0.00000000000E+00  0.00000000000E+00  0.14903786061E+03  0.14911195088E+03  0.47000000000E+01 0.  1.
          5   -1    0    0  501    0  0.00000000000E+00 -0.00000000000E+00 -0.18989908931E+03  0.18995724287E+03  0.47000000000E+01 0.  1.
         25    2    1    2    0    0 -0.88532017730E+02  0.23211241467E+01  0.49738070996E+02  0.16106375332E+03  0.12499740456E+03 0.  0.
         25    2    1    2    0    0  0.88532017730E+02 -0.23211241467E+01 -0.90599299699E+02  0.17800544043E+03  0.12503758609E+03 0.  0.
          5    1    3    3  502    0 -0.95466495612E+01 -0.24785877579E+02 -0.33536124296E+02  0.43037656511E+02  0.47000000000E+01 0.  1.
         -5    1    3    3    0  502 -0.78985368169E+02  0.27107001726E+02  0.83274195292E+02  0.11802609681E+03  0.47000000000E+01 0.  1.
          5    1    4    4  503    0  0.31975637354E+02  0.43869776094E+02 -0.89549634481E+02  0.10482473789E+03  0.47000000000E+01 0.  1.
         -5    1    4    4    0  503  0.56556380376E+02 -0.46190900241E+02 -0.10496652182E+01  0.73180702534E+02  0.47000000000E+01 0.  1.
<mgrwt>
<rscale>  0 0.15321616E+03</rscale>
<asrwt>0</asrwt>
<pdfrwt beam="2">  1        5 0.29225417E-01 0.15322436E+03</pdfrwt>
<pdfrwt beam="1">  1       -5 0.22939074E-01 0.15322436E+03</pdfrwt>
<totfact> 0.15142191E+02</totfact>
</mgrwt>
</event>
<event>
 8    1  0.3759079E-007  0.1513039E+03  0.7546771E-02  0.1198880E+00
          5   -1    0    0  501    0  0.00000000000E+00  0.00000000000E+00  0.48795565284E+02  0.49021395241E+02  0.47000000000E+01 0.  1.
         -5   -1    0    0    0  501 -0.00000000000E+00 -0.00000000000E+00 -0.46859852178E+03  0.46862209147E+03  0.47000000000E+01 0.  1.
         25    2    1    2    0    0 -0.65859581896E+02  0.54133684719E+02 -0.19943807364E+03  0.25033660318E+03  0.12499971730E+03 0.  0.
         25    2    1    2    0    0  0.65859581896E+02 -0.54133684719E+02 -0.22036488286E+03  0.26730688354E+03  0.12499739213E+03 0.  0.
          5    1    4    4  502    0  0.10075787452E+03 -0.25727532677E+02 -0.17225327392E+03  0.20126434257E+03  0.47000000000E+01 0.  1.
         -5    1    4    4    0  502 -0.34898292626E+02 -0.28406152042E+02 -0.48111608946E+02  0.66042540968E+02  0.47000000000E+01 0.  1.
          5    1    3    3  503    0  0.35061615169E+02  0.14367110493E+02 -0.81678625115E+02  0.90162179005E+02  0.47000000000E+01 0.  1.
         -5    1    3    3    0  503 -0.10092119706E+03  0.39766574226E+02 -0.11775944852E+03  0.16017442417E+03  0.47000000000E+01 0.  1.
<mgrwt>
<rscale>  0 0.15130342E+03</rscale>
<asrwt>0</asrwt>
<pdfrwt beam="1">  1        5 0.75261950E-02 0.15130390E+03</pdfrwt>
<pdfrwt beam="2">  1       -5 0.72111262E-01 0.15130390E+03</pdfrwt>
<totfact> 0.16723133E+02</totfact>
</mgrwt>
</event>
<event>
 8    1  0.3759079E-007  0.1273623E+03  0.7546771E-02  0.1231429E+00
         -5   -1    0    0    0  501 -0.00000000000E+00  0.00000000000E+00  0.55820826509E+03  0.55822805127E+03  0.47000000000E+01 0.  1.
          5   -1    0    0  501    0  0.00000000000E+00 -0.00000000000E+00 -0.31113026031E+02  0.31466019590E+02  0.47000000000E+01 0.  1.
         25    2    1    2    0    0 -0.41260947212E+01 -0.24038951090E+02  0.34267857496E+03  0.36558138845E+03  0.12500499998E+03 0.  0.
         25    2    1    2    0    0  0.41260947212E+01  0.24038951090E+02  0.18441666411E+03  0.22411268241E+03  0.12498836981E+03 0.  0.
          5    1    3    3  502    0 -0.44210633982E+02  0.47721578861E+01  0.28925555511E+03  0.29269133880E+03  0.47000000000E+01 0.  1.
         -5    1    3    3    0  502  0.40084539261E+02 -0.28811108976E+02  0.53423019846E+02  0.72890049648E+02  0.47000000000E+01 0.  1.
          5    1    4    4  503    0 -0.12719686144E+02  0.49315833186E+02  0.18642103726E+03  0.19330994530E+03  0.47000000000E+01 0. -1.
         -5    1    4    4    0  503  0.16845780865E+02 -0.25276882096E+02 -0.20043731532E+01  0.30802737106E+02  0.47000000000E+01 0. -1.
<mgrwt>
<rscale>  0 0.12735818E+03</rscale>
<asrwt>0</asrwt>
<pdfrwt beam="2">  1        5 0.48152947E-02 0.12736226E+03</pdfrwt>
<pdfrwt beam="1">  1       -5 0.85906872E-01 0.12736226E+03</pdfrwt>
<totfact> 0.22338662E+02</totfact>
</mgrwt>
</event>
<event>
 8    1  0.3759079E-007  0.1300745E+03  0.7546771E-02  0.1227352E+00
         -5   -1    0    0    0  501 -0.00000000000E+00  0.00000000000E+00  0.84935000685E+02  0.85064941906E+02  0.47000000000E+01 0.  1.
          5   -1    0    0  501    0  0.00000000000E+00 -0.00000000000E+00 -0.31586634382E+03  0.31590130920E+03  0.47000000000E+01 0.  1.
         25    2    1    2    0    0  0.19152455722E+02 -0.30450112282E+02  0.65231280115E+01  0.13021913864E+03  0.12498178655E+03 0.  0.
         25    2    1    2    0    0 -0.19152455722E+02  0.30450112282E+02 -0.23745447114E+03  0.27074711247E+03  0.12500138859E+03 0.  0.
          5    1    4    4  502    0  0.95778130924E+01 -0.41478084284E+02 -0.40039219098E+02  0.58629301936E+02  0.47000000000E+01 0. -1.
         -5    1    4    4    0  502 -0.28730268814E+02  0.71928196566E+02 -0.19741525205E+03  0.21211781054E+03  0.47000000000E+01 0. -1.
          5    1    3    3  503    0  0.13255150763E+02  0.78809696774E+01 -0.55014901515E+02  0.57328335869E+02  0.47000000000E+01 0. -1.
         -5    1    3    3    0  503  0.58973049586E+01 -0.38331081959E+02  0.61538029526E+02  0.72890802766E+02  0.47000000000E+01 0. -1.
<mgrwt>
<rscale>  0 0.13006978E+03</rscale>
<asrwt>0</asrwt>
<pdfrwt beam="2">  1        5 0.48607507E-01 0.13007449E+03</pdfrwt>
<pdfrwt beam="1">  1       -5 0.13079608E-01 0.13007449E+03</pdfrwt>
<totfact> 0.14357702E+02</totfact>
</mgrwt>
</event>
<event>
 8    1  0.3759079E-007  0.1420549E+03  0.7546771E-02  0.1210600E+00
         -5   -1    0    0    0  501 -0.00000000000E+00  0.00000000000E+00  0.36063861940E+02  0.36368834709E+02  0.47000000000E+01 0. -1.
          5   -1    0    0  501    0  0.00000000000E+00 -0.00000000000E+00 -0.55677240304E+03  0.55679224023E+03  0.47000000000E+01 0. -1.
         25    2    1    2    0    0 -0.34457590868E+02 -0.58010900346E+02 -0.26018794215E+03  0.29644116635E+03  0.12500803870E+03 0.  0.
         25    2    1    2    0    0  0.34457590868E+02  0.58010900346E+02 -0.26052059895E+03  0.29671990859E+03  0.12497652400E+03 0.  0.
          5    1    4    4  502    0  0.63807230186E+02  0.79363925603E+02 -0.21772897040E+03  0.24041212503E+03  0.47000000000E+01 0. -1.
         -5    1    4    4    0  502 -0.29349639318E+02 -0.21353025257E+02 -0.42791628546E+02  0.56307783559E+02  0.47000000000E+01 0. -1.
          5    1    3    3  503    0  0.38821356035E+02 -0.49153692507E+02 -0.80344320700E+02  0.10198275854E+03  0.47000000000E+01 0. -1.
         -5    1    3    3    0  503 -0.73278946903E+02 -0.88572078389E+01 -0.17984362145E+03  0.19445840781E+03  0.47000000000E+01 0. -1.
<mgrwt>
<rscale>  0 0.14204798E+03</rscale>
<asrwt>0</asrwt>
<pdfrwt beam="2">  1        5 0.85682272E-01 0.14205492E+03</pdfrwt>
<pdfrwt beam="1">  1       -5 0.55732723E-02 0.14205492E+03</pdfrwt>
<totfact> 0.18287716E+02</totfact>
</mgrwt>
</event>
<event>
 8    1  0.3759079E-007  0.1390324E+03  0.7546771E-02  0.1214637E+00
         -5   -1    0    0    0  501 -0.00000000000E+00  0.00000000000E+00  0.32086866496E+02  0.32429261501E+02  0.47000000000E+01 0.  1.
          5   -1    0    0  501    0  0.00000000000E+00 -0.00000000000E+00 -0.60227054761E+03  0.60228888626E+03  0.47000000000E+01 0.  1.
         25    2    1    2    0    0 -0.55651848645E+02  0.24628344540E+02 -0.26126168730E+03  0.29595213810E+03  0.12500526062E+03 0.  0.
         25    2    1    2    0    0  0.55651848645E+02 -0.24628344540E+02 -0.30892199381E+03  0.33876600966E+03  0.12500370967E+03 0.  0.
          5    1    4    4  502    0  0.55553351112E+01 -0.28029770611E+02 -0.27822245432E+03  0.27972549736E+03  0.47000000000E+01 0. -1.
         -5    1    4    4    0  502  0.50096513534E+02  0.34014260703E+01 -0.30699539491E+02  0.59040512299E+02  0.47000000000E+01 0. -1.
          5    1    3    3  503    0  0.23106593970E+02 -0.33545936282E+02 -0.77704238122E+02  0.87859451102E+02  0.47000000000E+01 0. -1.
         -5    1    3    3    0  503 -0.78758442615E+02  0.58174280822E+02 -0.18355744918E+03  0.20809268700E+03  0.47000000000E+01 0. -1.
<mgrwt>
<rscale>  0 0.13903202E+03</rscale>
<asrwt>0</asrwt>
<pdfrwt beam="2">  1        5 0.92684748E-01 0.13903237E+03</pdfrwt>
<pdfrwt beam="1">  1       -5 0.49641902E-02 0.13903237E+03</pdfrwt>
<totfact> 0.18284981E+02</totfact>
</mgrwt>
</event>
<event>
 8    1  0.3759079E-007  0.1273303E+03  0.7546771E-02  0.1231482E+00
          5   -1    0    0  501    0  0.00000000000E+00  0.00000000000E+00  0.54322550464E+03  0.54324583651E+03  0.47000000000E+01 0.  1.
         -5   -1    0    0    0  501 -0.00000000000E+00 -0.00000000000E+00 -0.31025397800E+02  0.31379377124E+02  0.47000000000E+01 0.  1.
         25    2    1    2    0    0 -0.14549015949E+02 -0.19308373318E+02  0.19558310096E+03  0.23336382620E+03  0.12498575461E+03 0.  0.
         25    2    1    2    0    0  0.14549015949E+02  0.19308373318E+02  0.31661700588E+03  0.34126138743E+03  0.12501407519E+03 0.  0.
          5    1    3    3  502    0  0.47286585097E+02 -0.86708149474E+01  0.14436905315E+03  0.15223573059E+03  0.47000000000E+01 0. -1.
         -5    1    3    3    0  502 -0.61835601045E+02 -0.10637558371E+02  0.51214047811E+02  0.81128095614E+02  0.47000000000E+01 0. -1.
          5    1    4    4  503    0 -0.20478517884E+02  0.23824811123E+02  0.30046974321E+03  0.30214425016E+03  0.47000000000E+01 0.  1.
         -5    1    4    4    0  503  0.35027533833E+02 -0.45164378051E+01  0.16147262674E+02  0.39117137277E+02  0.47000000000E+01 0.  1.
<mgrwt>
<rscale>  0 0.12732335E+03</rscale>
<asrwt>0</asrwt>
<pdfrwt beam="1">  1        5 0.83601937E-01 0.12733030E+03</pdfrwt>
<pdfrwt beam="2">  1       -5 0.48019319E-02 0.12733030E+03</pdfrwt>
<totfact> 0.23912186E+02</totfact>
</mgrwt>
</event>
<event>
 8    1  0.3759079E-007  0.1802716E+03  0.7546771E-02  0.1167550E+00
          5   -1    0    0  501    0  0.00000000000E+00  0.00000000000E+00  0.19563742522E+02  0.20120388203E+02  0.47000000000E+01 0.  1.
         -5   -1    0    0    0  501 -0.00000000000E+00 -0.00000000000E+00 -0.16757670029E+04  0.16757735939E+04  0.47000000000E+01 0.  1.
         25    2    1    2    0    0  0.73183252405E+02 -0.10731424675E+03 -0.95710507485E+03  0.97392713781E+03  0.12494722673E+03 0.  0.
         25    2    1    2    0    0 -0.73183252405E+02  0.10731424675E+03 -0.69909818549E+03  0.72196684425E+03  0.12500286101E+03 0.  0.
          5    1    3    3  502    0  0.62367856080E+02 -0.11931869835E+03 -0.54236289427E+03  0.55884371727E+03  0.47000000000E+01 0. -1.
         -5    1    3    3    0  502  0.10815396325E+02  0.12004451601E+02 -0.41474218058E+03  0.41508342054E+03  0.47000000000E+01 0. -1.
          5    1    4    4  503    0 -0.39753072498E+02 -0.22057199869E+02 -0.21053289609E+03  0.21543680552E+03  0.47000000000E+01 0. -1.
         -5    1    4    4    0  503 -0.33430179907E+02  0.12937144662E+03 -0.48856528940E+03  0.50653003873E+03  0.47000000000E+01 0. -1.
<mgrwt>
<rscale>  0 0.18026196E+03</rscale>
<asrwt>0</asrwt>
<pdfrwt beam="1">  1        5 0.30531338E-02 0.18027160E+03</pdfrwt>
<pdfrwt beam="2">  1       -5 0.25785352E+00 0.18027160E+03</pdfrwt>
<totfact> 0.23202478E+01</totfact>
</mgrwt>
</event>
<event>
 8    1  0.3759079E-007  0.1302213E+03  0.7546771E-02  0.1227129E+00
         -5   -1    0    0    0  501 -0.00000000000E+00  0.00000000000E+00  0.88530267000E+02  0.88654938808E+02  0.47000000000E+01 0. -1.
          5   -1    0    0  501    0  0.00000000000E+00 -0.00000000000E+00 -0.21099717418E+03  0.21104951436E+03  0.47000000000E+01 0. -1.
         25    2    1    2    0    0 -0.28869159415E+02 -0.22338984239E+02 -0.15409748176E+02  0.13112565627E+03  0.12499607518E+03 0.  0.
         25    2    1    2    0    0  0.28869159415E+02  0.22338984239E+02 -0.10705715900E+03  0.16857879690E+03  0.12500046755E+03 0.  0.
          5    1    3    3  502    0 -0.60917127852E+02  0.18792516237E+02  0.21080812311E+02  0.67309329071E+02  0.47000000000E+01 0. -1.
         -5    1    3    3    0  502  0.32047968437E+02 -0.41131500476E+02 -0.36490560486E+02  0.63816327197E+02  0.47000000000E+01 0. -1.
          5    1    4    4  503    0  0.30336688814E+01 -0.46486451513E+02 -0.12029341335E+02  0.48342407615E+02  0.47000000000E+01 0.  1.
         -5    1    4    4    0  503  0.25835490534E+02  0.68825435751E+02 -0.95027817669E+02  0.12023638929E+03  0.47000000000E+01 0.  1.
<mgrwt>
<rscale>  0 0.13022020E+03</rscale>
<asrwt>0</asrwt>
<pdfrwt beam="2">  1        5 0.32474720E-01 0.13022126E+03</pdfrwt>
<pdfrwt beam="1">  1       -5 0.13633657E-01 0.13022126E+03</pdfrwt>
<totfact> 0.30387911E+02</totfact>
</mgrwt>
</event>
<event>
 8    1  0.3759079E-007  0.1328519E+03  0.7546771E-02  0.1223285E+00
         -5   -1    0    0    0  501 -0.00000000000E+00  0.00000000000E+00  0.54501604141E+02  0.54703883353E+02  0.47000000000E+01 0. -1.
          5   -1    0    0  501    0  0.00000000000E+00 -0.00000000000E+00 -0.37143874802E+03  0.37146848255E+03  0.47000000000E+01 0. -1.
         25    2    1    2    0    0  0.42864153904E+02  0.13641337862E+02 -0.81554117742E+02  0.15588680703E+03  0.12500480269E+03 0.  0.
         25    2    1    2    0    0 -0.42864153904E+02 -0.13641337862E+02 -0.23538302614E+03  0.27028555888E+03  0.12500277020E+03 0.  0.
          5    1    3    3  502    0 -0.34761707276E+02  0.29158020198E+02 -0.53856457595E+01  0.45931052838E+02  0.47000000000E+01 0. -1.
         -5    1    3    3    0  502  0.77625861179E+02 -0.15516682336E+02 -0.76168471983E+02  0.10995575419E+03  0.47000000000E+01 0. -1.
          5    1    4    4  503    0  0.15421304403E+02 -0.19994822586E+02 -0.20000395981E+03  0.20164643190E+03  0.47000000000E+01 0. -1.
         -5    1    4    4    0  503 -0.58285458306E+02  0.63534847235E+01 -0.35379066326E+02  0.68639126978E+02  0.47000000000E+01 0. -1.
<mgrwt>
<rscale>  0 0.13285140E+03</rscale>
<asrwt>0</asrwt>
<pdfrwt beam="2">  1        5 0.57162269E-01 0.13285188E+03</pdfrwt>
<pdfrwt beam="1">  1       -5 0.84027096E-02 0.13285188E+03</pdfrwt>
<totfact> 0.22200730E+02</totfact>
</mgrwt>
</event>
<event>
 8    1  0.3759079E-007  0.1292848E+03  0.7546771E-02  0.1228523E+00
         -5   -1    0    0    0  501 -0.00000000000E+00  0.00000000000E+00  0.43576474162E+03  0.43579008713E+03  0.47000000000E+01 0.  1.
          5   -1    0    0  501    0  0.00000000000E+00 -0.00000000000E+00 -0.41134032429E+02  0.41401674168E+02  0.47000000000E+01 0.  1.
         25    2    1    2    0    0  0.32183112584E+02  0.72415537225E+01  0.26096468510E+03  0.29123164739E+03  0.12500045095E+03 0.  0.
         25    2    1    2    0    0 -0.32183112584E+02 -0.72415537225E+01  0.13366602409E+03  0.18596011390E+03  0.12500546040E+03 0.  0.
          5    1    3    3  502    0  0.46134100502E+01 -0.52663622403E+01 -0.13034815018E+02  0.15524642543E+02  0.47000000000E+01 0.  1.
         -5    1    3    3    0  502  0.27569702534E+02  0.12507915963E+02  0.27399950012E+03  0.27570700485E+03  0.47000000000E+01 0.  1.
          5    1    4    4  503    0  0.14437798000E+02 -0.40703976658E+02  0.34482314386E+01  0.43580316966E+02  0.47000000000E+01 0.  1.
         -5    1    4    4    0  503 -0.46620910583E+02  0.33462422935E+02  0.13021779265E+03  0.14237979694E+03  0.47000000000E+01 0.  1.
<mgrwt>
<rscale>  0 0.12928358E+03</rscale>
<asrwt>0</asrwt>
<pdfrwt beam="2">  1        5 0.63508503E-02 0.12928479E+03</pdfrwt>
<pdfrwt beam="1">  1       -5 0.67063266E-01 0.12928479E+03</pdfrwt>
<totfact> 0.24919936E+02</totfact>
</mgrwt>
</event>
<event>
 8    1  0.3759079E-007  0.1424940E+03  0.7546771E-02  0.1210022E+00
         -5   -1    0    0    0  501 -0.00000000000E+00  0.00000000000E+00  0.47046725298E+03  0.47049072905E+03  0.47000000000E+01 0.  1.
          5   -1    0    0  501    0  0.00000000000E+00 -0.00000000000E+00 -0.43138487864E+02  0.43393768391E+02  0.47000000000E+01 0.  1.
         25    2    1    2    0    0 -0.67230197053E+01 -0.68005382570E+02  0.22832592592E+03  0.26912613301E+03  0.12500486377E+03 0.  0.
         25    2    1    2    0    0  0.67230197053E+01  0.68005382570E+02  0.19900283919E+03  0.24475836444E+03  0.12503837772E+03 0.  0.
          5    1    4    4  502    0 -0.14524569288E+02 -0.75029810843E+01  0.15250470872E+03  0.15345042854E+03  0.47000000000E+01 0.  1.
         -5    1    4    4    0  502  0.21247588993E+02  0.75508363654E+02  0.46498130471E+02  0.91307935893E+02  0.47000000000E+01 0.  1.
          5    1    3    3  503    0 -0.30913840689E+01 -0.30026669381E+02 -0.64512321580E+01  0.31222843015E+02  0.47000000000E+01 0. -1.
         -5    1    3    3    0  503 -0.36316356363E+01 -0.37978713189E+02  0.23477715808E+03  0.23790328999E+03  0.47000000000E+01 0. -1.
<mgrwt>
<rscale>  0 0.14248660E+03</rscale>
<asrwt>0</asrwt>
<pdfrwt beam="2">  1        5 0.66581334E-02 0.14249395E+03</pdfrwt>
<pdfrwt beam="1">  1       -5 0.72401019E-01 0.14249395E+03</pdfrwt>
<totfact> 0.20017758E+02</totfact>
</mgrwt>
</event>
<event>
 8    1  0.3759079E-007  0.1311678E+03  0.7546771E-02  0.1225737E+00
         -5   -1    0    0    0  501 -0.00000000000E+00  0.00000000000E+00  0.67861770322E+02  0.68024332935E+02  0.47000000000E+01 0. -1.
          5   -1    0    0  501    0  0.00000000000E+00 -0.00000000000E+00 -0.25606625221E+03  0.25610938195E+03  0.47000000000E+01 0. -1.
         25    2    1    2    0    0 -0.47027466284E+01  0.39442858646E+02 -0.76445818288E+02  0.15181880016E+03  0.12500851981E+03 0.  0.
         25    2    1    2    0    0  0.47027466284E+01 -0.39442858646E+02 -0.11175866360E+03  0.17231491472E+03  0.12499830408E+03 0.  0.
          5    1    3    3  502    0 -0.38239694553E+02 -0.32977768942E+02 -0.23239325070E+02  0.55784977490E+02  0.47000000000E+01 0.  1.
         -5    1    3    3    0  502  0.33536947924E+02  0.72420627588E+02 -0.53206493219E+02  0.96033822672E+02  0.47000000000E+01 0.  1.
          5    1    4    4  503    0  0.10476233110E+02 -0.78127152595E+02 -0.35703419398E+02  0.86662723183E+02  0.47000000000E+01 0.  1.
         -5    1    4    4    0  503 -0.57734864816E+01  0.38684293949E+02 -0.76055244206E+02  0.85652191540E+02  0.47000000000E+01 0.  1.
<mgrwt>
<rscale>  0 0.13116534E+03</rscale>
<asrwt>0</asrwt>
<pdfrwt beam="2">  1        5 0.39410630E-01 0.13116777E+03</pdfrwt>
<pdfrwt beam="1">  1       -5 0.10456095E-01 0.13116777E+03</pdfrwt>
<totfact> 0.33032296E+02</totfact>
</mgrwt>
</event>
<event>
 8    1  0.3759079E-007  0.1352426E+03  0.7546771E-02  0.1219878E+00
         -5   -1    0    0    0  501 -0.00000000000E+00  0.00000000000E+00  0.58803133621E+03  0.58805011892E+03  0.47000000000E+01 0.  1.
          5   -1    0    0  501    0  0.00000000000E+00 -0.00000000000E+00 -0.37053502118E+02  0.37350395168E+02  0.47000000000E+01 0.  1.
         25    2    1    2    0    0 -0.55990528742E+01 -0.51317174091E+02  0.40225125913E+03  0.42437775464E+03  0.12500240561E+03 0.  0.
         25    2    1    2    0    0  0.55990528742E+01  0.51317174091E+02  0.14872657496E+03  0.20102275945E+03  0.12500301584E+03 0.  0.
          5    1    3    3  502    0 -0.53931709062E+02  0.81173282239E+01  0.12033991436E+03  0.13220554167E+03  0.47000000000E+01 0.  1.
         -5    1    3    3    0  502  0.48332656187E+02 -0.59434502315E+02  0.28191134478E+03  0.29217221297E+03  0.47000000000E+01 0.  1.
          5    1    4    4  503    0 -0.49408579034E+01  0.81563998317E+02  0.14742641748E+03  0.16862306031E+03  0.47000000000E+01 0.  1.
         -5    1    4    4    0  503  0.10539910778E+02 -0.30246824226E+02  0.13001574812E+01  0.32399699141E+02  0.47000000000E+01 0.  1.
<mgrwt>
<rscale>  0 0.13524244E+03</rscale>
<asrwt>0</asrwt>
<pdfrwt beam="2">  1        5 0.57248216E-02 0.13524258E+03</pdfrwt>
<pdfrwt beam="1">  1       -5 0.90490641E-01 0.13524258E+03</pdfrwt>
<totfact> 0.15124994E+02</totfact>
</mgrwt>
</event>
<event>
 8    1  0.3759079E-007  0.1291340E+03  0.7546771E-02  0.1228747E+00
         -5   -1    0    0    0  501 -0.00000000000E+00  0.00000000000E+00  0.32466837731E+03  0.32470239485E+03  0.47000000000E+01 0.  1.
          5   -1    0    0  501    0  0.00000000000E+00 -0.00000000000E+00 -0.57066477393E+02  0.57259696489E+02  0.47000000000E+01 0.  1.
         25    2    1    2    0    0  0.28914363880E+02 -0.14621155795E+02  0.19481828112E+03  0.23372898381E+03  0.12500102631E+03 0.  0.
         25    2    1    2    0    0 -0.28914363880E+02  0.14621155795E+02  0.72783618793E+02  0.14823310753E+03  0.12500312144E+03 0.  0.
          5    1    4    4  502    0 -0.56032211574E+02  0.34751331129E+02  0.88685184557E+02  0.11060929305E+03  0.47000000000E+01 0.  1.
         -5    1    4    4    0  502  0.27117847694E+02 -0.20130175334E+02 -0.15901565764E+02  0.37623814483E+02  0.47000000000E+01 0.  1.
          5    1    3    3  503    0 -0.49487261901E+02 -0.39256561833E+01  0.75307858236E+02  0.90320337572E+02  0.47000000000E+01 0. -1.
         -5    1    3    3    0  503  0.78401625782E+02 -0.10695499612E+02  0.11951042288E+03  0.14340864624E+03  0.47000000000E+01 0. -1.
<mgrwt>
<rscale>  0 0.12913353E+03</rscale>
<asrwt>0</asrwt>
<pdfrwt beam="2">  1        5 0.87969378E-02 0.12913404E+03</pdfrwt>
<pdfrwt beam="1">  1       -5 0.49966461E-01 0.12913404E+03</pdfrwt>
<totfact> 0.27089794E+02</totfact>
</mgrwt>
</event>
<event>
 8    1  0.3759079E-007  0.1298303E+03  0.7546771E-02  0.1227710E+00
          5   -1    0    0  501    0  0.00000000000E+00  0.00000000000E+00  0.88243965452E+02  0.88369041178E+02  0.47000000000E+01 0.  1.
         -5   -1    0    0    0  501 -0.00000000000E+00 -0.00000000000E+00 -0.19731220614E+03  0.19736817548E+03  0.47000000000E+01 0.  1.
         25    2    1    2    0    0  0.24089454010E+02 -0.25493552014E+02 -0.80644122071E+02  0.15283186585E+03  0.12499552715E+03 0.  0.
         25    2    1    2    0    0 -0.24089454010E+02  0.25493552014E+02 -0.28424118615E+02  0.13290535080E+03  0.12500271503E+03 0.  0.
          5    1    4    4  502    0  0.28362201912E+02  0.18318748094E+01  0.36190232696E+02  0.46255736998E+02  0.47000000000E+01 0.  1.
         -5    1    4    4    0  502 -0.52451655922E+02  0.23661677204E+02 -0.64614351312E+02  0.86649613805E+02  0.47000000000E+01 0.  1.
          5    1    3    3  503    0  0.25530422365E+02 -0.38357460496E+02 -0.11057583421E+03  0.11988412052E+03  0.47000000000E+01 0. -1.
         -5    1    3    3    0  503 -0.14409683557E+01  0.12863908482E+02  0.29931712136E+02  0.32947745335E+02  0.47000000000E+01 0. -1.
<mgrwt>
<rscale>  0 0.12982855E+03</rscale>
<asrwt>0</asrwt>
<pdfrwt beam="1">  1        5 0.13589921E-01 0.12983028E+03</pdfrwt>
<pdfrwt beam="2">  1       -5 0.30369651E-01 0.12983028E+03</pdfrwt>
<totfact> 0.34844426E+02</totfact>
</mgrwt>
</event>
<event>
 8    1  0.3759079E-007  0.1365454E+03  0.7546771E-02  0.1218055E+00
          5   -1    0    0  501    0  0.00000000000E+00  0.00000000000E+00  0.65531784246E+03  0.65533469666E+03  0.47000000000E+01 0. -1.
         -5   -1    0    0    0  501 -0.00000000000E+00 -0.00000000000E+00 -0.32707602707E+02  0.33043566316E+02  0.47000000000E+01 0. -1.
         25    2    1    2    0    0 -0.53324663310E+02  0.13249086448E+02  0.18482465990E+03  0.22979294439E+03  0.12500233748E+03 0.  0.
         25    2    1    2    0    0  0.53324663310E+02 -0.13249086448E+02  0.43778557985E+03  0.45858531858E+03  0.12500088995E+03 0.  0.
          5    1    4    4  502    0 -0.11439109095E+02  0.42074085142E+02  0.85163470055E+02  0.95791380036E+02  0.47000000000E+01 0. -1.
         -5    1    4    4    0  502  0.64763772405E+02 -0.55323171590E+02  0.35262210979E+03  0.36279393854E+03  0.47000000000E+01 0. -1.
          5    1    3    3  503    0 -0.39302679893E+02 -0.50265063662E+02  0.54428947708E+02  0.83999271546E+02  0.47000000000E+01 0.  1.
         -5    1    3    3    0  503 -0.14021983417E+02  0.63514150109E+02  0.13039571220E+03  0.14579367285E+03  0.47000000000E+01 0.  1.
<mgrwt>
<rscale>  0 0.13654505E+03</rscale>
<asrwt>0</asrwt>
<pdfrwt beam="1">  1        5 0.10084527E+00 0.13654539E+03</pdfrwt>
<pdfrwt beam="2">  1       -5 0.50590788E-02 0.13654539E+03</pdfrwt>
<totfact> 0.14370988E+02</totfact>
</mgrwt>
</event>
<event>
 8    1  0.3759079E-007  0.1298405E+03  0.7546771E-02  0.1227698E+00
         -5   -1    0    0    0  501 -0.00000000000E+00  0.00000000000E+00  0.65825811073E+02  0.65993389089E+02  0.47000000000E+01 0. -1.
          5   -1    0    0  501    0  0.00000000000E+00 -0.00000000000E+00 -0.25562732999E+03  0.25567053377E+03  0.47000000000E+01 0. -1.
         25    2    1    2    0    0 -0.26004764469E+02  0.23527633480E+02 -0.92358010664E+02  0.15932539528E+03  0.12499912853E+03 0.  0.
         25    2    1    2    0    0  0.26004764469E+02 -0.23527633480E+02 -0.97443508254E+02  0.16233852758E+03  0.12501505079E+03 0.  0.
          5    1    3    3  502    0 -0.57587483794E+02  0.40565571792E+02 -0.12562991266E+02  0.71706364111E+02  0.47000000000E+01 0. -1.
         -5    1    3    3    0  502  0.31582719325E+02 -0.17037938312E+02 -0.79795019398E+02  0.87619031167E+02  0.47000000000E+01 0. -1.
          5    1    4    4  503    0  0.20887633759E+01  0.35741062816E+02 -0.91034184082E+02  0.97934157346E+02  0.47000000000E+01 0.  1.
         -5    1    4    4    0  503  0.23916001093E+02 -0.59268696296E+02 -0.64093241717E+01  0.64404370234E+02  0.47000000000E+01 0.  1.
<mgrwt>
<rscale>  0 0.12983669E+03</rscale>
<asrwt>0</asrwt>
<pdfrwt beam="2">  1        5 0.39343495E-01 0.12984052E+03</pdfrwt>
<pdfrwt beam="1">  1       -5 0.10143262E-01 0.12984052E+03</pdfrwt>
<totfact> 0.34824725E+02</totfact>
</mgrwt>
</event>
<event>
 8    1  0.3759079E-007  0.2133716E+03  0.7546771E-02  0.1138929E+00
         -5   -1    0    0    0  501 -0.00000000000E+00  0.00000000000E+00  0.24421719269E+03  0.24426241464E+03  0.47000000000E+01 0.  1.
          5   -1    0    0  501    0  0.00000000000E+00 -0.00000000000E+00 -0.18677011744E+03  0.18682924495E+03  0.47000000000E+01 0.  1.
         25    2    1    2    0    0  0.14310011129E+03  0.97034719496E+02  0.17994893692E+02  0.21412904378E+03  0.12503620496E+03 0.  0.
         25    2    1    2    0    0 -0.14310011129E+03 -0.97034719496E+02  0.39452181566E+02  0.21696261581E+03  0.12499169329E+03 0.  0.
          5    1    3    3  502    0 -0.17940900942E+02 -0.37849719150E+01  0.14832430135E+02  0.24047721778E+02  0.47000000000E+01 0. -1.
         -5    1    3    3    0  502  0.16104101223E+03  0.10081969141E+03  0.31624635567E+01  0.19008132200E+03  0.47000000000E+01 0. -1.
          5    1    4    4  503    0 -0.15808483354E+03 -0.62914279329E+02  0.50967308581E+02  0.17767604701E+03  0.47000000000E+01 0. -1.
         -5    1    4    4    0  503  0.14984722248E+02 -0.34120440168E+02 -0.11515127016E+02  0.39286568803E+02  0.47000000000E+01 0. -1.
<mgrwt>
<rscale>  0 0.21336506E+03</rscale>
<asrwt>0</asrwt>
<pdfrwt beam="2">  1        5 0.28741891E-01 0.21337158E+03</pdfrwt>
<pdfrwt beam="1">  1       -5 0.37579902E-01 0.21337158E+03</pdfrwt>
<totfact> 0.65171832E+01</totfact>
</mgrwt>
</event>
<event>
 8    1  0.3759079E-007  0.1511415E+03  0.7546771E-02  0.1199078E+00
          5   -1    0    0  501    0  0.00000000000E+00  0.00000000000E+00  0.49780811576E+03  0.49783030253E+03  0.47000000000E+01 0. -1.
         -5   -1    0    0    0  501 -0.00000000000E+00 -0.00000000000E+00 -0.47762255004E+02  0.47992947431E+02  0.47000000000E+01 0. -1.
         25    2    1    2    0    0 -0.66113933871E+02 -0.53358776865E+02  0.16908465710E+03  0.22678929004E+03  0.12500219795E+03 0.  0.
         25    2    1    2    0    0  0.66113933871E+02  0.53358776865E+02  0.28096120366E+03  0.31903395992E+03  0.12500103320E+03 0.  0.
          5    1    4    4  502    0  0.11472662313E+02  0.82546870522E+02  0.11722516978E+03  0.14390774212E+03  0.47000000000E+01 0.  1.
         -5    1    4    4    0  502  0.54641271558E+02 -0.29188093657E+02  0.16373603388E+03  0.17512621780E+03  0.47000000000E+01 0.  1.
          5    1    3    3  503    0 -0.91567922897E+02 -0.23314033415E+02  0.16035492085E+03  0.18618275779E+03  0.47000000000E+01 0.  1.
         -5    1    3    3    0  503  0.25453989026E+02 -0.30044743450E+02  0.87297362447E+01  0.40606532248E+02  0.47000000000E+01 0.  1.
<mgrwt>
<rscale>  0 0.15114128E+03</rscale>
<asrwt>0</asrwt>
<pdfrwt beam="1">  1        5 0.76605320E-01 0.15114153E+03</pdfrwt>
<pdfrwt beam="2">  1       -5 0.73674911E-02 0.15114153E+03</pdfrwt>
<totfact> 0.15101406E+02</totfact>
</mgrwt>
</event>
<event>
 8    1  0.3759079E-007  0.1279117E+03  0.7546771E-02  0.1230588E+00
         -5   -1    0    0    0  501 -0.00000000000E+00  0.00000000000E+00  0.28320881424E+03  0.28324781105E+03  0.47000000000E+01 0. -1.
          5   -1    0    0  501    0  0.00000000000E+00 -0.00000000000E+00 -0.66665159688E+02  0.66830633068E+02  0.47000000000E+01 0. -1.
         25    2    1    2    0    0 -0.20911200591E+02  0.17292740329E+02  0.17259676384E+03  0.21482780488E+03  0.12500010273E+03 0.  0.
         25    2    1    2    0    0  0.20911200591E+02 -0.17292740329E+02  0.43946890716E+02  0.13525063924E+03  0.12500035613E+03 0.  0.
          5    1    3    3  502    0 -0.57184571340E+02  0.17242037989E+02  0.28842356390E+02  0.66493116903E+02  0.47000000000E+01 0. -1.
         -5    1    3    3    0  502  0.36273370749E+02  0.50702339251E-01  0.14375440745E+03  0.14833468798E+03  0.47000000000E+01 0. -1.
          5    1    4    4  503    0  0.71571139617E+02  0.59595320408E+01  0.24818603949E+02  0.76131446526E+02  0.47000000000E+01 0.  1.
         -5    1    4    4    0  503 -0.50659939025E+02 -0.23252272369E+02  0.19128286768E+02  0.59119192713E+02  0.47000000000E+01 0.  1.
<mgrwt>
<rscale>  0 0.12791165E+03</rscale>
<asrwt>0</asrwt>
<pdfrwt beam="2">  1        5 0.10271907E-01 0.12791171E+03</pdfrwt>
<pdfrwt beam="1">  1       -5 0.43586315E-01 0.12791171E+03</pdfrwt>
<totfact> 0.27454769E+02</totfact>
</mgrwt>
</event>
<event>
 8    1  0.3759079E-007  0.1276955E+03  0.7546771E-02  0.1230923E+00
         -5   -1    0    0    0  501 -0.00000000000E+00  0.00000000000E+00  0.17323441368E+03  0.17329815950E+03  0.47000000000E+01 0.  1.
          5   -1    0    0  501    0  0.00000000000E+00 -0.00000000000E+00 -0.97734688968E+02  0.97847633736E+02  0.47000000000E+01 0.  1.
         25    2    1    2    0    0  0.23984034282E+02  0.10263813091E+02  0.64323398009E+02  0.14298126638E+03  0.12500225295E+03 0.  0.
         25    2    1    2    0    0 -0.23984034282E+02 -0.10263813091E+02  0.11176326707E+02  0.12816452685E+03  0.12498262241E+03 0.  0.
          5    1    4    4  502    0 -0.48926703217E+02 -0.50861485999E+02  0.29852128562E+02  0.76772082331E+02  0.47000000000E+01 0.  1.
         -5    1    4    4    0  502  0.24942668935E+02  0.40597672908E+02 -0.18675801855E+02  0.51392444523E+02  0.47000000000E+01 0.  1.
          5    1    3    3  503    0 -0.86455782796E+00 -0.39129035968E+02 -0.18294278256E+02  0.43458020352E+02  0.47000000000E+01 0. -1.
         -5    1    3    3    0  503  0.24848592110E+02  0.49392849058E+02  0.82617676265E+02  0.99523246025E+02  0.47000000000E+01 0. -1.
<mgrwt>
<rscale>  0 0.12769070E+03</rscale>
<asrwt>0</asrwt>
<pdfrwt beam="2">  1        5 0.15049698E-01 0.12769551E+03</pdfrwt>
<pdfrwt beam="1">  1       -5 0.26665040E-01 0.12769551E+03</pdfrwt>
<totfact> 0.37126679E+02</totfact>
</mgrwt>
</event>
<event>
 8    1  0.3759079E-007  0.1500290E+03  0.7546771E-02  0.1200438E+00
          5   -1    0    0  501    0  0.00000000000E+00  0.00000000000E+00  0.26521859497E+02  0.26935089218E+02  0.47000000000E+01 0.  1.
         -5   -1    0    0    0  501 -0.00000000000E+00 -0.00000000000E+00 -0.95907764035E+03  0.95908915655E+03  0.47000000000E+01 0.  1.
         25    2    1    2    0    0 -0.77998477467E+02 -0.28284616720E+02 -0.63871823904E+03  0.65610122925E+03  0.12499620840E+03 0.  0.
         25    2    1    2    0    0  0.77998477467E+02  0.28284616720E+02 -0.29383754181E+03  0.32992301652E+03  0.12499965528E+03 0.  0.
          5    1    4    4  502    0  0.28821745564E+02 -0.80504587807E+01 -0.55414216238E+00  0.30296864153E+02  0.47000000000E+01 0.  1.
         -5    1    4    4    0  502  0.49176731903E+02  0.36335075500E+02 -0.29328339965E+03  0.29962615237E+03  0.47000000000E+01 0.  1.
          5    1    3    3  503    0 -0.24985759247E+02 -0.45446559236E+02 -0.85827720584E+02  0.10039006690E+03  0.47000000000E+01 0.  1.
         -5    1    3    3    0  503 -0.53012718220E+02  0.17161942516E+02 -0.55289051845E+03  0.55571116235E+03  0.47000000000E+01 0.  1.
<mgrwt>
<rscale>  0 0.15002827E+03</rscale>
<asrwt>0</asrwt>
<pdfrwt beam="1">  1        5 0.41129596E-02 0.15002898E+03</pdfrwt>
<pdfrwt beam="2">  1       -5 0.14758305E+00 0.15002898E+03</pdfrwt>
<totfact> 0.78421551E+01</totfact>
</mgrwt>
</event>
<event>
 8    1  0.3759079E-007  0.1261197E+03  0.7546771E-02  0.1233333E+00
         -5   -1    0    0    0  501 -0.00000000000E+00  0.00000000000E+00  0.78351065472E+03  0.78352475140E+03  0.47000000000E+01 0.  1.
          5   -1    0    0  501    0  0.00000000000E+00 -0.00000000000E+00 -0.20047089114E+02  0.20590672207E+02  0.47000000000E+01 0.  1.
         25    2    1    2    0    0 -0.15206702548E+02 -0.70514243928E+01  0.39808288172E+03  0.41758372618E+03  0.12500088503E+03 0.  0.
         25    2    1    2    0    0  0.15206702548E+02  0.70514243928E+01  0.36538068388E+03  0.38653169743E+03  0.12499096998E+03 0.  0.
          5    1    3    3  502    0  0.33529478210E+02  0.21805620873E+01  0.27518095525E+02  0.43684280255E+02  0.47000000000E+01 0. -1.
         -5    1    3    3    0  502 -0.48736180758E+02 -0.92319864801E+01  0.37056478620E+03  0.37389944592E+03  0.47000000000E+01 0. -1.
          5    1    4    4  503    0 -0.63783422311E+01  0.38249650870E+02  0.33614316129E+03  0.33840513283E+03  0.47000000000E+01 0.  1.
         -5    1    4    4    0  503  0.21585044779E+02 -0.31198226477E+02  0.29237522591E+02  0.48126564605E+02  0.47000000000E+01 0.  1.
<mgrwt>
<rscale>  0 0.12611728E+03</rscale>
<asrwt>0</asrwt>
<pdfrwt beam="2">  1        5 0.31270663E-02 0.12611974E+03</pdfrwt>
<pdfrwt beam="1">  1       -5 0.12058299E+00 0.12611974E+03</pdfrwt>
<totfact> 0.19720920E+02</totfact>
</mgrwt>
</event>
<event>
 8    1  0.3759079E-007  0.1250885E+03  0.7546771E-02  0.1234935E+00
         -5   -1    0    0    0  501 -0.00000000000E+00  0.00000000000E+00  0.27955188384E+02  0.28347531773E+02  0.47000000000E+01 0.  1.
          5   -1    0    0  501    0  0.00000000000E+00 -0.00000000000E+00 -0.71298042141E+03  0.71299591255E+03  0.47000000000E+01 0.  1.
         25    2    1    2    0    0  0.10691232311E+01  0.42955860777E+01 -0.16827603695E+03  0.20966979198E+03  0.12500000789E+03 0.  0.
         25    2    1    2    0    0 -0.10691232311E+01 -0.42955860777E+01 -0.51674919608E+03  0.53167365235E+03  0.12501018305E+03 0.  0.
          5    1    3    3  502    0 -0.17426186911E+02  0.50850103522E+02 -0.28307475922E+02  0.60932817197E+02  0.47000000000E+01 0.  1.
         -5    1    3    3    0  502  0.18495310142E+02 -0.46554517444E+02 -0.13996856102E+03  0.14873697478E+03  0.47000000000E+01 0.  1.
          5    1    4    4  503    0  0.56171294782E+02  0.22497047469E+02 -0.21896748830E+03  0.22722275950E+03  0.47000000000E+01 0.  1.
         -5    1    4    4    0  503 -0.57240418013E+02 -0.26792633547E+02 -0.29778170778E+03  0.30445089285E+03  0.47000000000E+01 0.  1.
<mgrwt>
<rscale>  0 0.12508599E+03</rscale>
<asrwt>0</asrwt>
<pdfrwt beam="2">  1        5 0.10972065E+00 0.12508853E+03</pdfrwt>
<pdfrwt beam="1">  1       -5 0.43321707E-02 0.12508853E+03</pdfrwt>
<totfact> 0.14647191E+02</totfact>
</mgrwt>
</event>
<event>
 8    1  0.3759079E-007  0.1270751E+03  0.7546771E-02  0.1231863E+00
          5   -1    0    0  501    0  0.00000000000E+00  0.00000000000E+00  0.23840084704E+03  0.23844717207E+03  0.47000000000E+01 0. -1.
         -5   -1    0    0    0  501 -0.00000000000E+00 -0.00000000000E+00 -0.76056928754E+02  0.76202010548E+02  0.47000000000E+01 0. -1.
         25    2    1    2    0    0  0.12324988514E+02  0.19251676228E+02  0.28777476096E+02  0.13029283759E+03  0.12500219205E+03 0.  0.
         25    2    1    2    0    0 -0.12324988514E+02 -0.19251676228E+02  0.13356644219E+03  0.18435634503E+03  0.12499894037E+03 0.  0.
          5    1    4    4  502    0  0.13048253723E+02 -0.34190851706E+02  0.14706724415E+03  0.15162498332E+03  0.47000000000E+01 0. -1.
         -5    1    4    4    0  502 -0.25373242237E+02  0.14939175478E+02 -0.13500801961E+02  0.32731361707E+02  0.47000000000E+01 0. -1.
          5    1    3    3  503    0 -0.27321813321E+02  0.59377275108E+02 -0.25842349761E+01  0.65581327775E+02  0.47000000000E+01 0. -1.
         -5    1    3    3    0  503  0.39646801835E+02 -0.40125598880E+02  0.31361711072E+02  0.64711509816E+02  0.47000000000E+01 0. -1.
<mgrwt>
<rscale>  0 0.12707430E+03</rscale>
<asrwt>0</asrwt>
<pdfrwt beam="1">  1        5 0.36691777E-01 0.12707510E+03</pdfrwt>
<pdfrwt beam="2">  1       -5 0.11715789E-01 0.12707510E+03</pdfrwt>
<totfact> 0.30901405E+02</totfact>
</mgrwt>
</event>
<event>
 8    1  0.3759079E-007  0.1457872E+03  0.7546771E-02  0.1205748E+00
         -5   -1    0    0    0  501 -0.00000000000E+00  0.00000000000E+00  0.10249907481E+04  0.10250015238E+04  0.47000000000E+01 0.  1.
          5   -1    0    0  501    0  0.00000000000E+00 -0.00000000000E+00 -0.21151590504E+02  0.21667482107E+02  0.47000000000E+01 0.  1.
         25    2    1    2    0    0  0.43061783658E+02  0.61430155154E+02  0.59550751502E+03  0.61309305925E+03  0.12500367066E+03 0.  0.
         25    2    1    2    0    0 -0.43061783658E+02 -0.61430155154E+02  0.40833164262E+03  0.43357594665E+03  0.12500155990E+03 0.  0.
          5    1    4    4  502    0 -0.16782455573E+02  0.32888051368E+02  0.19873200856E+03  0.20218747727E+03  0.47000000000E+01 0. -1.
         -5    1    4    4    0  502 -0.26279328085E+02 -0.94318206522E+02  0.20959963406E+03  0.23138846938E+03  0.47000000000E+01 0. -1.
          5    1    3    3  503    0 -0.41468021768E+02  0.93016526601E+01  0.24733000138E+03  0.25099867959E+03  0.47000000000E+01 0. -1.
         -5    1    3    3    0  503  0.84529805426E+02  0.52128502494E+02  0.34817751364E+03  0.36209437966E+03  0.47000000000E+01 0. -1.
<mgrwt>
<rscale>  0 0.14578672E+03</rscale>
<asrwt>0</asrwt>
<pdfrwt beam="2">  1        5 0.32946043E-02 0.14578717E+03</pdfrwt>
<pdfrwt beam="1">  1       -5 0.15773137E+00 0.14578717E+03</pdfrwt>
<totfact> 0.93047333E+01</totfact>
</mgrwt>
</event>
<event>
 8    1  0.3759079E-007  0.1290013E+03  0.7546771E-02  0.1228947E+00
          5   -1    0    0  501    0  0.00000000000E+00  0.00000000000E+00  0.34104552741E+02  0.34426886552E+02  0.47000000000E+01 0.  1.
         -5   -1    0    0    0  501 -0.00000000000E+00 -0.00000000000E+00 -0.49695791000E+03  0.49698013473E+03  0.47000000000E+01 0.  1.
         25    2    1    2    0    0  0.19493040771E+02 -0.25204627712E+02 -0.27209064685E+03  0.30112080474E+03  0.12500066817E+03 0.  0.
         25    2    1    2    0    0 -0.19493040771E+02  0.25204627712E+02 -0.19076271041E+03  0.23028621654E+03  0.12500431173E+03 0.  0.
          5    1    4    4  502    0 -0.79046627151E+01  0.51447027637E+02 -0.18274218061E+02  0.55365308552E+02  0.47000000000E+01 0.  1.
         -5    1    4    4    0  502 -0.11588378056E+02 -0.26242399925E+02 -0.17248849235E+03  0.17492090799E+03  0.47000000000E+01 0.  1.
          5    1    3    3  503    0  0.59315039461E+01  0.48396491182E+02 -0.15045158077E+03  0.15822506519E+03  0.47000000000E+01 0.  1.
         -5    1    3    3    0  503  0.13561536825E+02 -0.73601118894E+02 -0.12163906608E+03  0.14289573954E+03  0.47000000000E+01 0.  1.
<mgrwt>
<rscale>  0 0.12900040E+03</rscale>
<asrwt>0</asrwt>
<pdfrwt beam="1">  1        5 0.52733591E-02 0.12900128E+03</pdfrwt>
<pdfrwt beam="2">  1       -5 0.76481562E-01 0.12900128E+03</pdfrwt>
<totfact> 0.25260352E+02</totfact>
</mgrwt>
</event>
<event>
 8    1  0.3759079E-007  0.1418339E+03  0.7546771E-02  0.1210883E+00
         -5   -1    0    0    0  501 -0.00000000000E+00  0.00000000000E+00  0.15795565601E+03  0.15802556523E+03  0.47000000000E+01 0. -1.
          5   -1    0    0  501    0  0.00000000000E+00 -0.00000000000E+00 -0.12772758869E+03  0.12781403254E+03  0.47000000000E+01 0. -1.
         25    2    1    2    0    0 -0.62446636647E+02 -0.24335213935E+02  0.24167382472E+02  0.14387811491E+03  0.12500025803E+03 0.  0.
         25    2    1    2    0    0  0.62446636647E+02  0.24335213935E+02  0.60606848454E+01  0.14196148286E+03  0.12499818258E+03 0.  0.
          5    1    4    4  502    0 -0.14217956801E+02  0.20057389243E+02  0.48153646165E+02  0.54270736110E+02  0.47000000000E+01 0.  1.
         -5    1    4    4    0  502  0.76664593448E+02  0.42778246910E+01 -0.42092961320E+02  0.87690746748E+02  0.47000000000E+01 0.  1.
          5    1    3    3  503    0 -0.95695596439E+02 -0.37108846328E+02  0.43283197890E+01  0.10283743485E+03  0.47000000000E+01 0. -1.
         -5    1    3    3    0  503  0.33248959792E+02  0.12773632393E+02  0.19839062683E+02  0.41040680062E+02  0.47000000000E+01 0. -1.
<mgrwt>
<rscale>  0 0.14183342E+03</rscale>
<asrwt>0</asrwt>
<pdfrwt beam="2">  1        5 0.19662425E-01 0.14183388E+03</pdfrwt>
<pdfrwt beam="1">  1       -5 0.24312897E-01 0.14183388E+03</pdfrwt>
<totfact> 0.28159977E+02</totfact>
</mgrwt>
</event>
<event>
 8    1  0.3759079E-007  0.1378938E+03  0.7546771E-02  0.1216195E+00
         -5   -1    0    0    0  501 -0.00000000000E+00  0.00000000000E+00  0.38031811319E+03  0.38034715356E+03  0.47000000000E+01 0.  1.
          5   -1    0    0  501    0  0.00000000000E+00 -0.00000000000E+00 -0.50501392634E+02  0.50719627936E+02  0.47000000000E+01 0.  1.
         25    2    1    2    0    0  0.58147570545E+02 -0.26214218198E+01  0.18929714595E+03  0.23419671168E+03  0.12500671374E+03 0.  0.
         25    2    1    2    0    0 -0.58147570545E+02  0.26214218198E+01  0.14051957461E+03  0.19687006982E+03  0.12499624687E+03 0.  0.
          5    1    4    4  502    0 -0.42551223677E+02  0.44127458860E+02  0.13930125727E+03  0.15226545747E+03  0.47000000000E+01 0.  1.
         -5    1    4    4    0  502 -0.15596346867E+02 -0.41506037040E+02  0.12183173414E+01  0.44604612357E+02  0.47000000000E+01 0.  1.
          5    1    3    3  503    0  0.69259898750E+02 -0.21506274694E+02  0.39465985915E+02  0.82698896428E+02  0.47000000000E+01 0. -1.
         -5    1    3    3    0  503 -0.11112328206E+02  0.18884852874E+02  0.14983116004E+03  0.15149781525E+03  0.47000000000E+01 0. -1.
<mgrwt>
<rscale>  0 0.13789139E+03</rscale>
<asrwt>0</asrwt>
<pdfrwt beam="2">  1        5 0.77884660E-02 0.13789376E+03</pdfrwt>
<pdfrwt beam="1">  1       -5 0.58529502E-01 0.13789376E+03</pdfrwt>
<totfact> 0.24326045E+02</totfact>
</mgrwt>
</event>
<event>
 8    1  0.3759079E-007  0.1356868E+03  0.7546771E-02  0.1219256E+00
          5   -1    0    0  501    0  0.00000000000E+00  0.00000000000E+00  0.63643693918E+03  0.63645429338E+03  0.47000000000E+01 0. -1.
         -5   -1    0    0    0  501 -0.00000000000E+00 -0.00000000000E+00 -0.35030234761E+02  0.35344127481E+02  0.47000000000E+01 0. -1.
         25    2    1    2    0    0 -0.27544605870E+02  0.45008420797E+02  0.15885783706E+03  0.20891798566E+03  0.12500579619E+03 0.  0.
         25    2    1    2    0    0  0.27544605870E+02 -0.45008420797E+02  0.44254886736E+03  0.46288043520E+03  0.12499733609E+03 0.  0.
          5    1    4    4  502    0 -0.39322042852E+02 -0.42420116019E+02  0.11832740617E+03  0.13179208758E+03  0.47000000000E+01 0. -1.
         -5    1    4    4    0  502  0.66866648722E+02 -0.25883047785E+01  0.32422146119E+03  0.33108834762E+03  0.47000000000E+01 0. -1.
          5    1    3    3  503    0 -0.38045412936E+02  0.79994236179E+02  0.70889946664E+02  0.11355177588E+03  0.47000000000E+01 0.  1.
         -5    1    3    3    0  503  0.10500807066E+02 -0.34985815381E+02  0.87967890399E+02  0.95366209782E+02  0.47000000000E+01 0.  1.
<mgrwt>
<rscale>  0 0.13568487E+03</rscale>
<asrwt>0</asrwt>
<pdfrwt beam="1">  1        5 0.97938854E-01 0.13568682E+03</pdfrwt>
<pdfrwt beam="2">  1       -5 0.54147475E-02 0.13568682E+03</pdfrwt>
<totfact> 0.13750177E+02</totfact>
</mgrwt>
</event>
<event>
 8    1  0.3759079E-007  0.1625083E+03  0.7546771E-02  0.1185896E+00
         -5   -1    0    0    0  501 -0.00000000000E+00  0.00000000000E+00  0.17295188396E+03  0.17301573386E+03  0.47000000000E+01 0. -1.
          5   -1    0    0  501    0  0.00000000000E+00 -0.00000000000E+00 -0.16191828047E+03  0.16198647953E+03  0.47000000000E+01 0. -1.
         25    2    1    2    0    0 -0.61687358744E+02 -0.83523548631E+02  0.45773584967E+02  0.16883175929E+03  0.12500971346E+03 0.  0.
         25    2    1    2    0    0  0.61687358744E+02  0.83523548631E+02 -0.34739981477E+02  0.16617045410E+03  0.12499696036E+03 0.  0.
          5    1    4    4  502    0 -0.27698043600E+02 -0.62918317551E+01 -0.26454294370E+02  0.39098445708E+02  0.47000000000E+01 0. -1.
         -5    1    4    4    0  502  0.89385402344E+02  0.89815380386E+02 -0.82856871063E+01  0.12707200839E+03  0.47000000000E+01 0. -1.
          5    1    3    3  503    0 -0.86331108756E+02 -0.86758591373E+02  0.71886196014E+01  0.12269425320E+03  0.47000000000E+01 0.  1.
         -5    1    3    3    0  503  0.24643750012E+02  0.32350427418E+01  0.38584965365E+02  0.46137506092E+02  0.47000000000E+01 0.  1.
<mgrwt>
<rscale>  0 0.16250583E+03</rscale>
<asrwt>0</asrwt>
<pdfrwt beam="2">  1        5 0.24920662E-01 0.16250828E+03</pdfrwt>
<pdfrwt beam="1">  1       -5 0.26618140E-01 0.16250828E+03</pdfrwt>
<totfact> 0.15799057E+02</totfact>
</mgrwt>
</event>
<event>
 8    1  0.3759079E-007  0.1578489E+03  0.7546771E-02  0.1191153E+00
         -5   -1    0    0    0  501 -0.00000000000E+00  0.00000000000E+00  0.12309732120E+04  0.12309821845E+04  0.47000000000E+01 0.  1.
          5   -1    0    0  501    0  0.00000000000E+00 -0.00000000000E+00 -0.21849283100E+02  0.22349075416E+02  0.47000000000E+01 0.  1.
         25    2    1    2    0    0 -0.72476840016E+02  0.63544518059E+02  0.78685686478E+03  0.80253349678E+03  0.12500195872E+03 0.  0.
         25    2    1    2    0    0  0.72476840016E+02 -0.63544518059E+02  0.42226706412E+03  0.45079776318E+03  0.12497340411E+03 0.  0.
          5    1    4    4  502    0  0.52643784118E+02 -0.74540791469E+02  0.13752151176E+03  0.16511194322E+03  0.47000000000E+01 0.  1.
         -5    1    4    4    0  502  0.19833055899E+02  0.10996273410E+02  0.28474555236E+03  0.28568581996E+03  0.47000000000E+01 0.  1.
          5    1    3    3  503    0 -0.81528340887E+02  0.42771200866E+02  0.27278398494E+03  0.28793999102E+03  0.47000000000E+01 0. -1.
         -5    1    3    3    0  503  0.90515008704E+01  0.20773317193E+02  0.51407287985E+03  0.51459350576E+03  0.47000000000E+01 0. -1.
<mgrwt>
<rscale>  0 0.15784329E+03</rscale>
<asrwt>0</asrwt>
<pdfrwt beam="2">  1        5 0.34005642E-02 0.15784894E+03</pdfrwt>
<pdfrwt beam="1">  1       -5 0.18941961E+00 0.15784894E+03</pdfrwt>
<totfact> 0.53147456E+01</totfact>
</mgrwt>
</event>
<event>
 8    1  0.3759079E-007  0.1251896E+03  0.7546771E-02  0.1234797E+00
         -5   -1    0    0    0  501 -0.00000000000E+00  0.00000000000E+00  0.44522499077E+03  0.44524979776E+03  0.47000000000E+01 0.  1.
          5   -1    0    0  501    0  0.00000000000E+00 -0.00000000000E+00 -0.80686801515E+02  0.80823572915E+02  0.47000000000E+01 0.  1.
         25    2    1    2    0    0  0.55719779627E+01  0.11497644880E+01  0.37987058987E+03  0.39994833377E+03  0.12499854297E+03 0.  0.
         25    2    1    2    0    0 -0.55719779627E+01 -0.11497644880E+01 -0.15332400620E+02  0.12612503690E+03  0.12506027957E+03 0.  0.
          5    1    3    3  502    0 -0.20535572038E+02 -0.56470658545E+02  0.21524709152E+03  0.22352638637E+03  0.47000000000E+01 0. -1.
         -5    1    3    3    0  502  0.26107550001E+02  0.57620423033E+02  0.16462349835E+03  0.17642194741E+03  0.47000000000E+01 0. -1.
          5    1    4    4  503    0 -0.26629810670E+02  0.23910896243E+02 -0.60317221812E+02  0.70293207514E+02  0.47000000000E+01 0.  1.
         -5    1    4    4    0  503  0.21057832707E+02 -0.25060660731E+02  0.44984821192E+02  0.55831829383E+02  0.47000000000E+01 0.  1.
<mgrwt>
<rscale>  0 0.12517420E+03</rscale>
<asrwt>0</asrwt>
<pdfrwt beam="2">  1        5 0.12425783E-01 0.12518963E+03</pdfrwt>
<pdfrwt beam="1">  1       -5 0.68508583E-01 0.12518963E+03</pdfrwt>
<totfact> 0.73698189E+01</totfact>
</mgrwt>
</event>
<event>
 8    1  0.3759079E-007  0.1293613E+03  0.7546771E-02  0.1228408E+00
          5   -1    0    0  501    0  0.00000000000E+00  0.00000000000E+00  0.14197378708E+03  0.14205156182E+03  0.47000000000E+01 0. -1.
         -5   -1    0    0    0  501 -0.00000000000E+00 -0.00000000000E+00 -0.12953164930E+03  0.12961688999E+03  0.47000000000E+01 0. -1.
         25    2    1    2    0    0  0.15461116631E+02 -0.29509764587E+02 -0.34790193211E+02  0.13395409346E+03  0.12499387696E+03 0.  0.
         25    2    1    2    0    0 -0.15461116631E+02  0.29509764587E+02  0.47232330988E+02  0.13771435835E+03  0.12499791627E+03 0.  0.
          5    1    3    3  502    0  0.97078590281E+01  0.23171162943E+02  0.36772238255E+02  0.44782059191E+02  0.47000000000E+01 0.  1.
         -5    1    3    3    0  502  0.57532576032E+01 -0.52680927531E+02 -0.71562431466E+02  0.89172034270E+02  0.47000000000E+01 0.  1.
          5    1    4    4  503    0 -0.11035901522E+02 -0.48734356062E+02  0.11681239347E+02  0.51530281736E+02  0.47000000000E+01 0.  1.
         -5    1    4    4    0  503 -0.44252151094E+01  0.78244120649E+02  0.35551091640E+02  0.86184076614E+02  0.47000000000E+01 0.  1.
<mgrwt>
<rscale>  0 0.12936035E+03</rscale>
<asrwt>0</asrwt>
<pdfrwt beam="1">  1        5 0.21854661E-01 0.12936132E+03</pdfrwt>
<pdfrwt beam="2">  1       -5 0.19940486E-01 0.12936132E+03</pdfrwt>
<totfact> 0.32518937E+02</totfact>
</mgrwt>
</event>
<event>
 8    1  0.3759079E-007  0.1432149E+03  0.7546771E-02  0.1209069E+00
          5   -1    0    0  501    0  0.00000000000E+00  0.00000000000E+00  0.23984158224E+02  0.24440332357E+02  0.47000000000E+01 0.  1.
         -5   -1    0    0    0  501 -0.00000000000E+00 -0.00000000000E+00 -0.84711082285E+03  0.84712386119E+03  0.47000000000E+01 0.  1.
         25    2    1    2    0    0 -0.69065283090E+02 -0.10670513047E+02 -0.40102204735E+03  0.42582568059E+03  0.12499981844E+03 0.  0.
         25    2    1    2    0    0  0.69065283090E+02  0.10670513047E+02 -0.42210461728E+03  0.44573851296E+03  0.12500656314E+03 0.  0.
          5    1    4    4  502    0  0.70631493649E+01 -0.53238282270E+02 -0.14965682155E+03  0.15907060387E+03  0.47000000000E+01 0.  1.
         -5    1    4    4    0  502  0.62002133725E+02  0.63908795317E+02 -0.27244779573E+03  0.28666790909E+03  0.47000000000E+01 0.  1.
          5    1    3    3  503    0  0.24276746011E+02 -0.22225438352E+02 -0.36662219225E+02  0.49492815896E+02  0.47000000000E+01 0. -1.
         -5    1    3    3    0  503 -0.93342029101E+02  0.11554925305E+02 -0.36435982813E+03  0.37633286469E+03  0.47000000000E+01 0. -1.
<mgrwt>
<rscale>  0 0.14321345E+03</rscale>
<asrwt>0</asrwt>
<pdfrwt beam="1">  1        5 0.37259644E-02 0.14321492E+03</pdfrwt>
<pdfrwt beam="2">  1       -5 0.13036081E+00 0.14321492E+03</pdfrwt>
<totfact> 0.12650570E+02</totfact>
</mgrwt>
</event>
<event>
 8    1  0.3759079E-007  0.1252523E+03  0.7546771E-02  0.1234676E+00
         -5   -1    0    0    0  501 -0.00000000000E+00  0.00000000000E+00  0.10751594661E+03  0.10761862652E+03  0.47000000000E+01 0. -1.
          5   -1    0    0  501    0  0.00000000000E+00 -0.00000000000E+00 -0.16510413411E+03  0.16517101774E+03  0.47000000000E+01 0. -1.
         25    2    1    2    0    0 -0.64605923124E+01 -0.44527923698E+01  0.17935450261E+02  0.12652972668E+03  0.12500609883E+03 0.  0.
         25    2    1    2    0    0  0.64605923124E+01  0.44527923698E+01 -0.75523637767E+02  0.14625991758E+03  0.12500630790E+03 0.  0.
          5    1    4    4  502    0  0.50384186406E+02  0.43167366555E+02 -0.40253980480E+02  0.77746129933E+02  0.47000000000E+01 0. -1.
         -5    1    4    4    0  502 -0.43923594094E+02 -0.38714574185E+02 -0.35269657287E+02  0.68513787646E+02  0.47000000000E+01 0. -1.
          5    1    3    3  503    0 -0.57926467889E+02  0.14091603799E+02  0.34676965414E+02  0.69127642156E+02  0.47000000000E+01 0. -1.
         -5    1    3    3    0  503  0.51465875577E+02 -0.18544396169E+02 -0.16741515153E+02  0.57402084524E+02  0.47000000000E+01 0. -1.
<mgrwt>
<rscale>  0 0.12525227E+03</rscale>
<asrwt>0</asrwt>
<pdfrwt beam="2">  1        5 0.25413679E-01 0.12525232E+03</pdfrwt>
<pdfrwt beam="1">  1       -5 0.16553958E-01 0.12525232E+03</pdfrwt>
<totfact> 0.34006204E+02</totfact>
</mgrwt>
</event>
<event>
 8    1  0.3759079E-007  0.1386291E+03  0.7546771E-02  0.1215187E+00
          5   -1    0    0  501    0  0.00000000000E+00  0.00000000000E+00  0.31955960498E+03  0.31959416630E+03  0.47000000000E+01 0. -1.
         -5   -1    0    0    0  501 -0.00000000000E+00 -0.00000000000E+00 -0.60090219373E+02  0.60273746062E+02  0.47000000000E+01 0. -1.
         25    2    1    2    0    0 -0.58762566751E+02  0.11906489005E+02  0.12271770936E+03  0.18514228667E+03  0.12499290537E+03 0.  0.
         25    2    1    2    0    0  0.58762566751E+02 -0.11906489005E+02  0.13675167625E+03  0.19472562569E+03  0.12498897796E+03 0.  0.
          5    1    4    4  502    0  0.35012638864E+02  0.11125792374E+02 -0.14538872841E+02  0.39788653654E+02  0.47000000000E+01 0.  1.
         -5    1    4    4    0  502  0.23749927887E+02 -0.23032281380E+02  0.15129054909E+03  0.15493697204E+03  0.47000000000E+01 0.  1.
          5    1    3    3  503    0 -0.88455151288E+01 -0.11810200229E+02  0.12845226085E+03  0.12938236853E+03  0.47000000000E+01 0. -1.
         -5    1    3    3    0  503 -0.49917051622E+02  0.23716689235E+02 -0.57345514950E+01  0.55759918147E+02  0.47000000000E+01 0. -1.
<mgrwt>
<rscale>  0 0.13862822E+03</rscale>
<asrwt>0</asrwt>
<pdfrwt beam="1">  1        5 0.49179792E-01 0.13862911E+03</pdfrwt>
<pdfrwt beam="2">  1       -5 0.92614252E-02 0.13862911E+03</pdfrwt>
<totfact> 0.26269112E+02</totfact>
</mgrwt>
</event>
<event>
 8    1  0.3759079E-007  0.1293598E+03  0.7546771E-02  0.1228409E+00
         -5   -1    0    0    0  501 -0.00000000000E+00  0.00000000000E+00  0.84693745311E+03  0.84695049412E+03  0.47000000000E+01 0.  1.
          5   -1    0    0  501    0  0.00000000000E+00 -0.00000000000E+00 -0.20104118018E+02  0.20646199681E+02  0.47000000000E+01 0.  1.
         25    2    1    2    0    0 -0.11131381559E+02  0.31388388793E+02  0.48969729703E+03  0.50649520496E+03  0.12499924531E+03 0.  0.
         25    2    1    2    0    0  0.11131381559E+02 -0.31388388793E+02  0.33713603807E+03  0.36110148884E+03  0.12499775386E+03 0.  0.
          5    1    4    4  502    0  0.23487006354E+02 -0.74656593119E+02  0.26115559393E+03  0.27267119504E+03  0.47000000000E+01 0. -1.
         -5    1    4    4    0  502 -0.12355624795E+02  0.43268204326E+02  0.75980444142E+02  0.88430293801E+02  0.47000000000E+01 0. -1.
          5    1    3    3  503    0  0.66208957564E+01  0.65251209194E+02  0.13988898055E+03  0.15457222726E+03  0.47000000000E+01 0. -1.
         -5    1    3    3    0  503 -0.17752277315E+02 -0.33862820402E+02  0.34980831648E+03  0.35192297770E+03  0.47000000000E+01 0. -1.
<mgrwt>
<rscale>  0 0.12935941E+03</rscale>
<asrwt>0</asrwt>
<pdfrwt beam="2">  1        5 0.31356425E-02 0.12935977E+03</pdfrwt>
<pdfrwt beam="1">  1       -5 0.13034079E+00 0.12935977E+03</pdfrwt>
<totfact> 0.16210153E+02</totfact>
</mgrwt>
</event>
<event>
 8    1  0.3759079E-007  0.1506914E+03  0.7546771E-02  0.1199627E+00
          5   -1    0    0  501    0  0.00000000000E+00  0.00000000000E+00  0.20383743692E+03  0.20389161505E+03  0.47000000000E+01 0.  1.
         -5   -1    0    0    0  501 -0.00000000000E+00 -0.00000000000E+00 -0.12632224927E+03  0.12640965414E+03  0.47000000000E+01 0.  1.
         25    2    1    2    0    0  0.23207298699E+02  0.80893345787E+02 -0.18195090318E+02  0.15178418763E+03  0.12500026479E+03 0.  0.
         25    2    1    2    0    0 -0.23207298699E+02 -0.80893345787E+02  0.95710277967E+02  0.17851708156E+03  0.12500231596E+03 0.  0.
          5    1    4    4  502    0 -0.54095683074E+02 -0.10015373273E+03  0.70177441288E+02  0.13380611486E+03  0.47000000000E+01 0.  1.
         -5    1    4    4    0  502  0.30888384376E+02  0.19260386947E+02  0.25532836679E+02  0.44710966704E+02  0.47000000000E+01 0.  1.
          5    1    3    3  503    0 -0.28826855844E+02  0.28930743640E+02  0.40400896926E+02  0.57639379055E+02  0.47000000000E+01 0.  1.
         -5    1    3    3    0  503  0.52034154542E+02  0.51962602147E+02 -0.58595987244E+02  0.94144808576E+02  0.47000000000E+01 0.  1.
<mgrwt>
<rscale>  0 0.15069095E+03</rscale>
<asrwt>0</asrwt>
<pdfrwt beam="1">  1        5 0.31370497E-01 0.15069138E+03</pdfrwt>
<pdfrwt beam="2">  1       -5 0.19445083E-01 0.15069138E+03</pdfrwt>
<totfact> 0.17877631E+02</totfact>
</mgrwt>
</event>
<event>
 8    1  0.3759079E-007  0.3132136E+03  0.7546771E-02  0.1078817E+00
         -5   -1    0    0    0  501 -0.00000000000E+00  0.00000000000E+00  0.53035320202E+03  0.53037402736E+03  0.47000000000E+01 0.  1.
          5   -1    0    0  501    0  0.00000000000E+00 -0.00000000000E+00 -0.23312500984E+03  0.23317238304E+03  0.47000000000E+01 0.  1.
         25    2    1    2    0    0 -0.18090874516E+03  0.22302784730E+03  0.32219805543E+03  0.44933904602E+03  0.12499838644E+03 0.  0.
         25    2    1    2    0    0  0.18090874516E+03 -0.22302784730E+03 -0.24969863244E+02  0.31420736438E+03  0.12503351156E+03 0.  0.
          5    1    4    4  502    0  0.65650412130E+02 -0.94434116949E+02 -0.71236425759E+02  0.13536800734E+03  0.47000000000E+01 0. -1.
         -5    1    4    4    0  502  0.11525833303E+03 -0.12859373035E+03  0.46266562515E+02  0.17883935704E+03  0.47000000000E+01 0. -1.
          5    1    3    3  503    0 -0.14935559484E+03  0.11276343537E+03  0.25497186105E+03  0.31631539007E+03  0.47000000000E+01 0.  1.
         -5    1    3    3    0  503 -0.31553150321E+02  0.11026441193E+03  0.67226194378E+02  0.13302365596E+03  0.47000000000E+01 0.  1.
<mgrwt>
<rscale>  0 0.31321012E+03</rscale>
<asrwt>0</asrwt>
<pdfrwt beam="2">  1        5 0.35870633E-01 0.31321362E+03</pdfrwt>
<pdfrwt beam="1">  1       -5 0.81598045E-01 0.31321362E+03</pdfrwt>
<totfact> 0.83401337E+00</totfact>
</mgrwt>
</event>
<event>
 8    1  0.3759079E-007  0.1349542E+03  0.7546771E-02  0.1220287E+00
          5   -1    0    0  501    0  0.00000000000E+00  0.00000000000E+00  0.18381093672E+02  0.18972469649E+02  0.47000000000E+01 0. -1.
         -5   -1    0    0    0  501 -0.00000000000E+00 -0.00000000000E+00 -0.12406550723E+04  0.12406639748E+04  0.47000000000E+01 0. -1.
         25    2    1    2    0    0  0.49864345169E+02 -0.10064827983E+02 -0.90279026589E+03  0.91282139280E+03  0.12499950915E+03 0.  0.
         25    2    1    2    0    0 -0.49864345169E+02  0.10064827983E+02 -0.31948371275E+03  0.34681505169E+03  0.12499233448E+03 0.  0.
          5    1    3    3  502    0  0.13436843733E+01  0.20061274982E+02 -0.73913017979E+03  0.73941853704E+03  0.47000000000E+01 0. -1.
         -5    1    3    3    0  502  0.48520660795E+02 -0.30126102965E+02 -0.16366008610E+03  0.17340285576E+03  0.47000000000E+01 0. -1.
          5    1    4    4  503    0 -0.75992838361E+02 -0.20831625293E+01 -0.10157845942E+03  0.12696268927E+03  0.47000000000E+01 0. -1.
         -5    1    4    4    0  503  0.26128493193E+02  0.12147990512E+02 -0.21790525333E+03  0.21985236241E+03  0.47000000000E+01 0. -1.
<mgrwt>
<rscale>  0 0.13495252E+03</rscale>
<asrwt>0</asrwt>
<pdfrwt beam="1">  1        5 0.28740368E-02 0.13495418E+03</pdfrwt>
<pdfrwt beam="2">  1       -5 0.19091612E+00 0.13495418E+03</pdfrwt>
<totfact> 0.65185978E+01</totfact>
</mgrwt>
</event>
<event>
 8    1  0.3759079E-007  0.1315786E+03  0.7546771E-02  0.1225132E+00
         -5   -1    0    0    0  501 -0.00000000000E+00  0.00000000000E+00  0.65038102827E+01  0.80243098266E+01  0.47000000000E+01 0.  1.
          5   -1    0    0  501    0  0.00000000000E+00 -0.00000000000E+00 -0.23820363331E+04  0.23820409699E+04  0.47000000000E+01 0.  1.
         25    2    1    2    0    0  0.41012500707E+02 -0.25276148034E+01 -0.11989374892E+04  0.12061359880E+04  0.12499801761E+03 0.  0.
         25    2    1    2    0    0 -0.41012500707E+02  0.25276148034E+01 -0.11765950337E+04  0.11839292918E+04  0.12499712265E+03 0.  0.
          5    1    3    3  502    0  0.62936429799E+02  0.96557571654E+01 -0.29462129835E+03  0.30145982698E+03  0.47000000000E+01 0. -1.
         -5    1    3    3    0  502 -0.21923929092E+02 -0.12183371969E+02 -0.90431619084E+03  0.90467616098E+03  0.47000000000E+01 0. -1.
          5    1    4    4  503    0  0.17566022690E+02  0.50191302586E+02 -0.37677401136E+03  0.38053709102E+03  0.47000000000E+01 0. -1.
         -5    1    4    4    0  503 -0.58578523397E+02 -0.47663687783E+02 -0.79982102231E+03  0.80339220077E+03  0.47000000000E+01 0. -1.
<mgrwt>
<rscale>  0 0.13157835E+03</rscale>
<asrwt>0</asrwt>
<pdfrwt beam="2">  1        5 0.36658382E+00 0.13157856E+03</pdfrwt>
<pdfrwt beam="1">  1       -5 0.11179063E-02 0.13157856E+03</pdfrwt>
<totfact> 0.21182198E+01</totfact>
</mgrwt>
</event>
<event>
 8    1  0.3759079E-007  0.1279108E+03  0.7546771E-02  0.1230592E+00
         -5   -1    0    0    0  501 -0.00000000000E+00  0.00000000000E+00  0.56744332731E+03  0.56746279147E+03  0.47000000000E+01 0.  1.
          5   -1    0    0  501    0  0.00000000000E+00 -0.00000000000E+00 -0.28891865924E+02  0.29271657223E+02  0.47000000000E+01 0.  1.
         25    2    1    2    0    0 -0.24680435562E+02 -0.11258964662E+02  0.29804187437E+03  0.32433030074E+03  0.12500118765E+03 0.  0.
         25    2    1    2    0    0  0.24680435562E+02  0.11258964662E+02  0.24050958702E+03  0.27240414796E+03  0.12499308059E+03 0.  0.
          5    1    4    4  502    0  0.34081383819E+02  0.61981797750E+02  0.17552785435E+03  0.18930240788E+03  0.47000000000E+01 0. -1.
         -5    1    4    4    0  502 -0.94009482568E+01 -0.50722833088E+02  0.64981732663E+02  0.83101740081E+02  0.47000000000E+01 0. -1.
          5    1    3    3  503    0 -0.54878824756E+02 -0.51676993504E+02  0.20353017397E+03  0.21709172896E+03  0.47000000000E+01 0. -1.
         -5    1    3    3    0  503  0.30198389193E+02  0.40418028842E+02  0.94511700398E+02  0.10723857178E+03  0.47000000000E+01 0. -1.
<mgrwt>
<rscale>  0 0.12790887E+03</rscale>
<asrwt>0</asrwt>
<pdfrwt beam="2">  1        5 0.44756143E-02 0.12791085E+03</pdfrwt>
<pdfrwt beam="1">  1       -5 0.87329687E-01 0.12791085E+03</pdfrwt>
<totfact> 0.24290881E+02</totfact>
</mgrwt>
</event>
<event>
 8    1  0.3759079E-007  0.1611023E+03  0.7546771E-02  0.1187459E+00
          5   -1    0    0  501    0  0.00000000000E+00  0.00000000000E+00  0.13136178152E+04  0.13136262232E+04  0.47000000000E+01 0. -1.
         -5   -1    0    0    0  501 -0.00000000000E+00 -0.00000000000E+00 -0.20546456092E+02  0.21077164371E+02  0.47000000000E+01 0. -1.
         25    2    1    2    0    0 -0.70359259782E+02  0.73325874745E+02  0.49571629199E+03  0.52123609307E+03  0.12500125289E+03 0.  0.
         25    2    1    2    0    0  0.70359259782E+02 -0.73325874745E+02  0.79735506710E+03  0.81346729454E+03  0.12500730743E+03 0.  0.
          5    1    4    4  502    0  0.42279750897E+02 -0.36730320290E+02  0.10111459881E+03  0.11568468290E+03  0.47000000000E+01 0. -1.
         -5    1    4    4    0  502  0.28079508884E+02 -0.36595554455E+02  0.69624046829E+03  0.69778261164E+03  0.47000000000E+01 0. -1.
          5    1    3    3  503    0 -0.62368385168E+02  0.27190782446E+02  0.90621957191E+02  0.11341773778E+03  0.47000000000E+01 0. -1.
         -5    1    3    3    0  503 -0.79908746134E+01  0.46135092299E+02  0.40509433480E+03  0.40781835528E+03  0.47000000000E+01 0. -1.
<mgrwt>
<rscale>  0 0.16110108E+03</rscale>
<asrwt>0</asrwt>
<pdfrwt beam="1">  1        5 0.20213649E+00 0.16110225E+03</pdfrwt>
<pdfrwt beam="2">  1       -5 0.32024641E-02 0.16110225E+03</pdfrwt>
<totfact> 0.48202138E+01</totfact>
</mgrwt>
</event>
<event>
 8    1  0.3759079E-007  0.1704154E+03  0.7546771E-02  0.1177416E+00
         -5   -1    0    0    0  501 -0.00000000000E+00  0.00000000000E+00  0.84490125550E+02  0.84620749911E+02  0.47000000000E+01 0. -1.
          5   -1    0    0  501    0  0.00000000000E+00 -0.00000000000E+00 -0.49238295114E+03  0.49240538235E+03  0.47000000000E+01 0. -1.
         25    2    1    2    0    0 -0.29091666127E+02  0.11211452476E+03 -0.45220974505E+02  0.17631322534E+03  0.12500170077E+03 0.  0.
         25    2    1    2    0    0  0.29091666127E+02 -0.11211452476E+03 -0.36267185108E+03  0.40071290692E+03  0.12499588195E+03 0.  0.
          5    1    3    3  502    0  0.34225999851E+02  0.11936563394E+02 -0.44656941175E+02  0.57708171055E+02  0.47000000000E+01 0. -1.
         -5    1    3    3    0  502 -0.63317665978E+02  0.10017796137E+03 -0.56403332962E+00  0.11860505429E+03  0.47000000000E+01 0. -1.
          5    1    4    4  503    0 -0.54580470773E+01 -0.36533278580E+02 -0.28317499979E+03  0.28561274696E+03  0.47000000000E+01 0.  1.
         -5    1    4    4    0  503  0.34549713205E+02 -0.75581246183E+02 -0.79496851295E+02  0.11510015996E+03  0.47000000000E+01 0.  1.
<mgrwt>
<rscale>  0 0.17041436E+03</rscale>
<asrwt>0</asrwt>
<pdfrwt beam="2">  1        5 0.75762995E-01 0.17041542E+03</pdfrwt>
<pdfrwt beam="1">  1       -5 0.13010255E-01 0.17041542E+03</pdfrwt>
<totfact> 0.59446753E+01</totfact>
</mgrwt>
</event>
<event>
 8    1  0.3759079E-007  0.1394090E+03  0.7546771E-02  0.1214136E+00
          5   -1    0    0  501    0  0.00000000000E+00  0.00000000000E+00  0.13745527615E+03  0.13753560609E+03  0.47000000000E+01 0. -1.
         -5   -1    0    0    0  501 -0.00000000000E+00 -0.00000000000E+00 -0.14773400743E+03  0.14780875127E+03  0.47000000000E+01 0. -1.
         25    2    1    2    0    0  0.60544574315E+02  0.11904538590E+02 -0.35124745696E+02  0.14376585965E+03  0.12501004408E+03 0.  0.
         25    2    1    2    0    0 -0.60544574315E+02 -0.11904538590E+02  0.24846014416E+02  0.14157849770E+03  0.12497913050E+03 0.  0.
          5    1    3    3  502    0  0.69126842513E+02 -0.44301423268E+02 -0.17814093810E+02  0.84146113384E+02  0.47000000000E+01 0.  1.
         -5    1    3    3    0  502 -0.85822681982E+01  0.56205961858E+02 -0.17310651885E+02  0.59619746263E+02  0.47000000000E+01 0.  1.
          5    1    4    4  503    0 -0.55370601668E+02 -0.33620039333E+01  0.73208933887E+02  0.91971977256E+02  0.47000000000E+01 0.  1.
         -5    1    4    4    0  503 -0.51739726475E+01 -0.85425346562E+01 -0.48362919470E+02  0.49606520448E+02  0.47000000000E+01 0.  1.
<mgrwt>
<rscale>  0 0.13940209E+03</rscale>
<asrwt>0</asrwt>
<pdfrwt beam="1">  1        5 0.21158894E-01 0.13940902E+03</pdfrwt>
<pdfrwt beam="2">  1       -5 0.22740238E-01 0.13940902E+03</pdfrwt>
<totfact> 0.27715806E+02</totfact>
</mgrwt>
</event>
<event>
 8    1  0.3759079E-007  0.1727490E+03  0.7546771E-02  0.1175012E+00
          5   -1    0    0  501    0  0.00000000000E+00  0.00000000000E+00  0.28147537209E+03  0.28151460903E+03  0.47000000000E+01 0. -1.
         -5   -1    0    0    0  501 -0.00000000000E+00 -0.00000000000E+00 -0.10718161890E+03  0.10728461880E+03  0.47000000000E+01 0. -1.
         25    2    1    2    0    0 -0.90666697430E+02  0.77441016943E+02  0.66069707511E+02  0.18494966562E+03  0.12499444562E+03 0.  0.
         25    2    1    2    0    0  0.90666697430E+02 -0.77441016943E+02  0.10822404568E+03  0.20384956220E+03  0.12499855527E+03 0.  0.
          5    1    4    4  502    0  0.71010617724E+01 -0.37482853776E+02 -0.21759504399E+02  0.44169621202E+02  0.47000000000E+01 0. -1.
         -5    1    4    4    0  502  0.83565635657E+02 -0.39958163167E+02  0.12998355008E+03  0.15967994100E+03  0.47000000000E+01 0. -1.
          5    1    3    3  503    0 -0.21183478442E+02  0.52874252092E+02 -0.29383823693E+02  0.64264495548E+02  0.47000000000E+01 0. -1.
         -5    1    3    3    0  503 -0.69483218988E+02  0.24566764850E+02  0.95453531205E+02  0.12068517007E+03  0.47000000000E+01 0. -1.
<mgrwt>
<rscale>  0 0.17274821E+03</rscale>
<asrwt>0</asrwt>
<pdfrwt beam="1">  1        5 0.43314845E-01 0.17274895E+03</pdfrwt>
<pdfrwt beam="2">  1       -5 0.16500421E-01 0.17274895E+03</pdfrwt>
<totfact> 0.13141488E+02</totfact>
</mgrwt>
</event>
<event>
 8    1  0.3759079E-007  0.1425599E+03  0.7546771E-02  0.1209944E+00
         -5   -1    0    0    0  501 -0.00000000000E+00  0.00000000000E+00  0.52461513523E+02  0.52671628047E+02  0.47000000000E+01 0. -1.
          5   -1    0    0  501    0  0.00000000000E+00 -0.00000000000E+00 -0.40908710383E+03  0.40911410208E+03  0.47000000000E+01 0. -1.
         25    2    1    2    0    0  0.68019583538E+02 -0.85028419434E+01 -0.12380224034E+03  0.18881294515E+03  0.12499748588E+03 0.  0.
         25    2    1    2    0    0 -0.68019583538E+02  0.85028419434E+01 -0.23282334997E+03  0.27297278498E+03  0.12493385043E+03 0.  0.
          5    1    3    3  502    0 -0.10797568911E+02 -0.68748564844E+01  0.20320140560E+02  0.24471396741E+02  0.47000000000E+01 0.  1.
         -5    1    3    3    0  502  0.78817152449E+02 -0.16279854590E+01 -0.14412238090E+03  0.16434154840E+03  0.47000000000E+01 0.  1.
          5    1    4    4  503    0  0.19586350116E+02 -0.19218927528E+02 -0.13825898883E+03  0.14103414578E+03  0.47000000000E+01 0.  1.
         -5    1    4    4    0  503 -0.87605933654E+02  0.27721769471E+02 -0.94564361144E+02  0.13193863919E+03  0.47000000000E+01 0.  1.
<mgrwt>
<rscale>  0 0.14254598E+03</rscale>
<asrwt>0</asrwt>
<pdfrwt beam="2">  1        5 0.62954715E-01 0.14255993E+03</pdfrwt>
<pdfrwt beam="1">  1       -5 0.80892418E-02 0.14255993E+03</pdfrwt>
<totfact> 0.19644558E+02</totfact>
</mgrwt>
</event>
<event>
 8    1  0.3759079E-007  0.1374674E+03  0.7546771E-02  0.1216779E+00
          5   -1    0    0  501    0  0.00000000000E+00  0.00000000000E+00  0.12660688523E+03  0.12669409374E+03  0.47000000000E+01 0. -1.
         -5   -1    0    0    0  501 -0.00000000000E+00 -0.00000000000E+00 -0.15805172385E+03  0.15812159060E+03  0.47000000000E+01 0. -1.
         25    2    1    2    0    0 -0.77510729987E+01  0.56661184308E+02 -0.49633736291E+02  0.14615017685E+03  0.12500318986E+03 0.  0.
         25    2    1    2    0    0  0.77510729987E+01 -0.56661184308E+02  0.18188897668E+02  0.13866550748E+03  0.12500687192E+03 0.  0.
          5    1    3    3  502    0 -0.27458282931E+02  0.92209927708E+02 -0.31011340100E+02  0.10119496669E+03  0.47000000000E+01 0.  1.
         -5    1    3    3    0  502  0.19707209932E+02 -0.35548743399E+02 -0.18622396191E+02  0.44955210159E+02  0.47000000000E+01 0.  1.
          5    1    4    4  503    0  0.65318552690E+02 -0.37007773525E+02  0.19250585887E+02  0.77645113714E+02  0.47000000000E+01 0. -1.
         -5    1    4    4    0  503 -0.57567479691E+02 -0.19653410783E+02 -0.10616882184E+01  0.61020393765E+02  0.47000000000E+01 0. -1.
<mgrwt>
<rscale>  0 0.13746657E+03</rscale>
<asrwt>0</asrwt>
<pdfrwt beam="1">  1        5 0.19490065E-01 0.13746740E+03</pdfrwt>
<pdfrwt beam="2">  1       -5 0.24327733E-01 0.13746740E+03</pdfrwt>
<totfact> 0.28289403E+02</totfact>
</mgrwt>
</event>
<event>
 8    1  0.3759079E-007  0.1366065E+03  0.7546771E-02  0.1217970E+00
          5   -1    0    0  501    0  0.00000000000E+00  0.00000000000E+00  0.46931720795E+03  0.46934074155E+03  0.47000000000E+01 0.  1.
         -5   -1    0    0    0  501 -0.00000000000E+00 -0.00000000000E+00 -0.41280605718E+02  0.41547303263E+02  0.47000000000E+01 0.  1.
         25    2    1    2    0    0 -0.14955572283E+02  0.53022949972E+02  0.16263713696E+03  0.21239480897E+03  0.12500245675E+03 0.  0.
         25    2    1    2    0    0  0.14955572283E+02 -0.53022949972E+02  0.26539946528E+03  0.29849323585E+03  0.12500493314E+03 0.  0.
          5    1    4    4  502    0 -0.51374462564E+02 -0.44936160450E+02  0.11429972127E+03  0.13321077360E+03  0.47000000000E+01 0.  1.
         -5    1    4    4    0  502  0.66330034847E+02 -0.80867895223E+01  0.15109974401E+03  0.16528246225E+03  0.47000000000E+01 0.  1.
          5    1    3    3  503    0 -0.50150245020E+02  0.78093960923E+02  0.10524417196E+03  0.14039992714E+03  0.47000000000E+01 0. -1.
         -5    1    3    3    0  503  0.35194672737E+02 -0.25071010951E+02  0.57392964991E+02  0.71994881829E+02  0.47000000000E+01 0. -1.
<mgrwt>
<rscale>  0 0.13660593E+03</rscale>
<asrwt>0</asrwt>
<pdfrwt beam="1">  1        5 0.72224971E-01 0.13660650E+03</pdfrwt>
<pdfrwt beam="2">  1       -5 0.63731880E-02 0.13660650E+03</pdfrwt>
<totfact> 0.21371504E+02</totfact>
</mgrwt>
</event>
<event>
 8    1  0.3759079E-007  0.1689648E+03  0.7546771E-02  0.1178933E+00
         -5   -1    0    0    0  501 -0.00000000000E+00  0.00000000000E+00  0.21591572251E+03  0.21596687067E+03  0.47000000000E+01 0. -1.
          5   -1    0    0  501    0  0.00000000000E+00 -0.00000000000E+00 -0.15198206640E+03  0.15205472208E+03  0.47000000000E+01 0. -1.
         25    2    1    2    0    0  0.11253642766E+03  0.16037582873E+02  0.98474248282E+02  0.19556246124E+03  0.12500338818E+03 0.  0.
         25    2    1    2    0    0 -0.11253642766E+03 -0.16037582873E+02 -0.34540592169E+02  0.17245913151E+03  0.12500979129E+03 0.  0.
          5    1    4    4  502    0 -0.12939535404E+03  0.15803833331E+02 -0.15274533839E+02  0.13133286024E+03  0.47000000000E+01 0. -1.
         -5    1    4    4    0  502  0.16858926379E+02 -0.31841416204E+02 -0.19266058330E+02  0.41126271264E+02  0.47000000000E+01 0. -1.
          5    1    3    3  503    0 -0.10992824826E+02 -0.24386521882E+02  0.49739258470E+02  0.56671231505E+02  0.47000000000E+01 0.  1.
         -5    1    3    3    0  503  0.12352925249E+03  0.40424104754E+02  0.48734989812E+02  0.13889122974E+03  0.47000000000E+01 0.  1.
<mgrwt>
<rscale>  0 0.16896360E+03</rscale>
<asrwt>0</asrwt>
<pdfrwt beam="2">  1        5 0.23391380E-01 0.16896479E+03</pdfrwt>
<pdfrwt beam="1">  1       -5 0.33227327E-01 0.16896479E+03</pdfrwt>
<totfact> 0.11665753E+02</totfact>
</mgrwt>
</event>
<event>
 8    1  0.3759079E-007  0.1269849E+03  0.7546771E-02  0.1232008E+00
          5   -1    0    0  501    0  0.00000000000E+00  0.00000000000E+00  0.73277464860E+02  0.73428038625E+02  0.47000000000E+01 0. -1.
         -5   -1    0    0    0  501 -0.00000000000E+00 -0.00000000000E+00 -0.25576987110E+03  0.25581305081E+03  0.47000000000E+01 0. -1.
         25    2    1    2    0    0  0.16858092706E+02 -0.14657850825E+02 -0.15310794009E+03  0.19890070372E+03  0.12498160161E+03 0.  0.
         25    2    1    2    0    0 -0.16858092706E+02  0.14657850825E+02 -0.29384466156E+02  0.13034038572E+03  0.12500448559E+03 0.  0.
          5    1    3    3  502    0 -0.44976851203E+02 -0.35885311416E+02 -0.48232231445E+02  0.75227062083E+02  0.47000000000E+01 0. -1.
         -5    1    3    3    0  502  0.61834943908E+02  0.21227460591E+02 -0.10487570864E+03  0.12367364163E+03  0.47000000000E+01 0. -1.
          5    1    4    4  503    0 -0.53279835308E+02  0.34104998613E+02 -0.52895859099E+02  0.82595119049E+02  0.47000000000E+01 0.  1.
         -5    1    4    4    0  503  0.36421742602E+02 -0.19447147788E+02  0.23511392943E+02  0.47745266670E+02  0.47000000000E+01 0.  1.
<mgrwt>
<rscale>  0 0.12697929E+03</rscale>
<asrwt>0</asrwt>
<pdfrwt beam="1">  1        5 0.11288360E-01 0.12698492E+03</pdfrwt>
<pdfrwt beam="2">  1       -5 0.39364115E-01 0.12698492E+03</pdfrwt>
<totfact> 0.28606904E+02</totfact>
</mgrwt>
</event>
<event>
 8    1  0.3759079E-007  0.1368468E+03  0.7546771E-02  0.1217636E+00
          5   -1    0    0  501    0  0.00000000000E+00  0.00000000000E+00  0.13229943674E+03  0.13238289528E+03  0.47000000000E+01 0. -1.
         -5   -1    0    0    0  501 -0.00000000000E+00 -0.00000000000E+00 -0.15598674415E+03  0.15605753538E+03  0.47000000000E+01 0. -1.
         25    2    1    2    0    0 -0.53426155197E+02  0.15755736282E+02 -0.55949977463E+02  0.14784266666E+03  0.12499782727E+03 0.  0.
         25    2    1    2    0    0  0.53426155197E+02 -0.15755736282E+02  0.32262670062E+02  0.14059776400E+03  0.12499701627E+03 0.  0.
          5    1    3    3  502    0 -0.80042739461E+02  0.22520054704E+02 -0.76607343546E+02  0.11315815520E+03  0.47000000000E+01 0.  1.
         -5    1    3    3    0  502  0.26616584264E+02 -0.67643184215E+01  0.20657366082E+02  0.34684511457E+02  0.47000000000E+01 0.  1.
          5    1    4    4  503    0  0.85007639295E+01 -0.63938721945E+02 -0.48241893985E+01  0.64852031230E+02  0.47000000000E+01 0. -1.
         -5    1    4    4    0  503  0.44925391267E+02  0.48182985663E+02  0.37086859461E+02  0.75745732768E+02  0.47000000000E+01 0. -1.
<mgrwt>
<rscale>  0 0.13684664E+03</rscale>
<asrwt>0</asrwt>
<pdfrwt beam="1">  1        5 0.20365625E-01 0.13684683E+03</pdfrwt>
<pdfrwt beam="2">  1       -5 0.24009826E-01 0.13684683E+03</pdfrwt>
<totfact> 0.26683997E+02</totfact>
</mgrwt>
</event>
<event>
 8    1  0.3759079E-007  0.1946941E+03  0.7546771E-02  0.1154295E+00
          5   -1    0    0  501    0  0.00000000000E+00  0.00000000000E+00  0.33261333641E+03  0.33264654148E+03  0.47000000000E+01 0. -1.
         -5   -1    0    0    0  501 -0.00000000000E+00 -0.00000000000E+00 -0.12501395249E+03  0.12510227143E+03  0.47000000000E+01 0. -1.
         25    2    1    2    0    0  0.13011863076E+03  0.73140904766E+02  0.35517545191E+02  0.19790731546E+03  0.12500143789E+03 0.  0.
         25    2    1    2    0    0 -0.13011863076E+03 -0.73140904766E+02  0.17208183873E+03  0.25984149745E+03  0.12499997823E+03 0.  0.
          5    1    4    4  502    0 -0.13124078102E+03 -0.18175208519E+02  0.87483820940E+02  0.15883950936E+03  0.47000000000E+01 0.  1.
         -5    1    4    4    0  502  0.11221502557E+01 -0.54965696247E+02  0.84598017790E+02  0.10100198809E+03  0.47000000000E+01 0.  1.
          5    1    3    3  503    0  0.10361553846E+03 -0.12742358127E+02  0.14723261215E+02  0.10553393730E+03  0.47000000000E+01 0.  1.
         -5    1    3    3    0  503  0.26503092301E+02  0.85883262893E+02  0.20794283976E+02  0.92373378160E+02  0.47000000000E+01 0.  1.
<mgrwt>
<rscale>  0 0.19469391E+03</rscale>
<asrwt>0</asrwt>
<pdfrwt beam="1">  1        5 0.51180630E-01 0.19469414E+03</pdfrwt>
<pdfrwt beam="2">  1       -5 0.19242264E-01 0.19469414E+03</pdfrwt>
<totfact> 0.71952458E+01</totfact>
</mgrwt>
</event>
<event>
 8    1  0.3759079E-007  0.1263586E+03  0.7546771E-02  0.1232962E+00
         -5   -1    0    0    0  501 -0.00000000000E+00  0.00000000000E+00  0.11104952381E+03  0.11114893944E+03  0.47000000000E+01 0. -1.
          5   -1    0    0  501    0  0.00000000000E+00 -0.00000000000E+00 -0.14463850605E+03  0.14471484869E+03  0.47000000000E+01 0. -1.
         25    2    1    2    0    0  0.17445145799E+02 -0.60969468693E+01 -0.58276589240E+01  0.12649292949E+03  0.12499997492E+03 0.  0.
         25    2    1    2    0    0 -0.17445145799E+02  0.60969468693E+01 -0.27761323314E+02  0.12937085865E+03  0.12499848848E+03 0.  0.
          5    1    3    3  502    0  0.58815554313E+02 -0.98179622839E+01 -0.40455621514E+02  0.72210865697E+02  0.47000000000E+01 0. -1.
         -5    1    3    3    0  502 -0.41370408514E+02  0.37210154146E+01  0.34627962590E+02  0.54282063791E+02  0.47000000000E+01 0. -1.
          5    1    4    4  503    0 -0.65766988562E+02 -0.19424024921E+02 -0.19798902477E+01  0.68764812907E+02  0.47000000000E+01 0. -1.
         -5    1    4    4    0  503  0.48321842763E+02  0.25520971790E+02 -0.25781433066E+02  0.60606045739E+02  0.47000000000E+01 0. -1.
<mgrwt>
<rscale>  0 0.12635825E+03</rscale>
<asrwt>0</asrwt>
<pdfrwt beam="2">  1        5 0.22265598E-01 0.12635862E+03</pdfrwt>
<pdfrwt beam="1">  1       -5 0.17098062E-01 0.12635862E+03</pdfrwt>
<totfact> 0.41351885E+02</totfact>
</mgrwt>
</event>
<event>
 8    1  0.3759079E-007  0.1397151E+03  0.7546771E-02  0.1213719E+00
          5   -1    0    0  501    0  0.00000000000E+00  0.00000000000E+00  0.47369198120E+03  0.47371529747E+03  0.47000000000E+01 0. -1.
         -5   -1    0    0    0  501 -0.00000000000E+00 -0.00000000000E+00 -0.49305668537E+02  0.49529172716E+02  0.47000000000E+01 0. -1.
         25    2    1    2    0    0 -0.29725009546E+02  0.54844185894E+02  0.10540889608E+03  0.17501814504E+03  0.12501541825E+03 0.  0.
         25    2    1    2    0    0  0.29725009546E+02 -0.54844185894E+02  0.31897741659E+03  0.34822632515E+03  0.12499408112E+03 0.  0.
          5    1    4    4  502    0 -0.37771195058E+02 -0.60573859958E+02  0.17413398051E+03  0.18825670999E+03  0.47000000000E+01 0.  1.
         -5    1    4    4    0  502  0.67496204604E+02  0.57296740644E+01  0.14484343607E+03  0.15996961516E+03  0.47000000000E+01 0.  1.
          5    1    3    3  503    0  0.35061481642E+02  0.15691523199E+02  0.89521456377E+02  0.97528009039E+02  0.47000000000E+01 0. -1.
         -5    1    3    3    0  503 -0.64786491189E+02  0.39152662695E+02  0.15887439703E+02  0.77490135998E+02  0.47000000000E+01 0. -1.
<mgrwt>
<rscale>  0 0.13971035E+03</rscale>
<asrwt>0</asrwt>
<pdfrwt beam="1">  1        5 0.72894674E-01 0.13971512E+03</pdfrwt>
<pdfrwt beam="2">  1       -5 0.76044738E-02 0.13971512E+03</pdfrwt>
<totfact> 0.15621704E+02</totfact>
</mgrwt>
</event>
<event>
 8    1  0.3759079E-007  0.1540152E+03  0.7546771E-02  0.1195625E+00
          5   -1    0    0  501    0  0.00000000000E+00  0.00000000000E+00  0.12563204810E+04  0.12563292725E+04  0.47000000000E+01 0.  1.
         -5   -1    0    0    0  501 -0.00000000000E+00 -0.00000000000E+00 -0.20732959358E+02  0.21259012294E+02  0.47000000000E+01 0.  1.
         25    2    1    2    0    0  0.59249627192E+02  0.67714771049E+02  0.41466153505E+03  0.44234023059E+03  0.12499952964E+03 0.  0.
         25    2    1    2    0    0 -0.59249627192E+02 -0.67714771049E+02  0.82092598655E+03  0.83524805418E+03  0.12499611221E+03 0.  0.
          5    1    3    3  502    0  0.80821924238E+02  0.58350358110E+02  0.40391460712E+03  0.41606014898E+03  0.47000000000E+01 0.  1.
         -5    1    3    3    0  502 -0.21572297046E+02  0.93644129396E+01  0.10746927934E+02  0.26280081612E+02  0.47000000000E+01 0.  1.
          5    1    4    4  503    0 -0.17434073201E+01 -0.91464421577E+02  0.48237678906E+03  0.49099718585E+03  0.47000000000E+01 0.  1.
         -5    1    4    4    0  503 -0.57506219872E+02  0.23749650527E+02  0.33854919749E+03  0.34425086833E+03  0.47000000000E+01 0.  1.
<mgrwt>
<rscale>  0 0.15401454E+03</rscale>
<asrwt>0</asrwt>
<pdfrwt beam="1">  1        5 0.19332114E+00 0.15401523E+03</pdfrwt>
<pdfrwt beam="2">  1       -5 0.32308293E-02 0.15401523E+03</pdfrwt>
<totfact> 0.53912887E+01</totfact>
</mgrwt>
</event>
<event>
 8    1  0.3759079E-007  0.1299345E+03  0.7546771E-02  0.1227554E+00
         -5   -1    0    0    0  501 -0.00000000000E+00  0.00000000000E+00  0.64070291621E+02  0.64242449116E+02  0.47000000000E+01 0.  1.
          5   -1    0    0  501    0  0.00000000000E+00 -0.00000000000E+00 -0.27781025566E+03  0.27785001017E+03  0.47000000000E+01 0.  1.
         25    2    1    2    0    0 -0.30228365884E+02 -0.18549585034E+02 -0.67333642973E+02  0.14634317632E+03  0.12499865828E+03 0.  0.
         25    2    1    2    0    0  0.30228365884E+02  0.18549585034E+02 -0.14640632107E+03  0.19574928297E+03  0.12500051889E+03 0.  0.
          5    1    3    3  502    0  0.23760631119E+02 -0.56821936572E+02 -0.44690038383E+02  0.76240341012E+02  0.47000000000E+01 0. -1.
         -5    1    3    3    0  502 -0.53988997003E+02  0.38272351538E+02 -0.22643604591E+02  0.70102835310E+02  0.47000000000E+01 0. -1.
          5    1    4    4  503    0 -0.11289581949E+02 -0.31339399858E+02 -0.12149960647E+03  0.12607084127E+03  0.47000000000E+01 0. -1.
         -5    1    4    4    0  503  0.41517947833E+02  0.49888984891E+02 -0.24906714594E+02  0.69678441699E+02  0.47000000000E+01 0. -1.
<mgrwt>
<rscale>  0 0.12993404E+03</rscale>
<asrwt>0</asrwt>
<pdfrwt beam="2">  1        5 0.42756340E-01 0.12993449E+03</pdfrwt>
<pdfrwt beam="1">  1       -5 0.98732690E-02 0.12993449E+03</pdfrwt>
<totfact> 0.30784716E+02</totfact>
</mgrwt>
</event>
<event>
 8    1  0.3759079E-007  0.2124593E+03  0.7546771E-02  0.1139633E+00
          5   -1    0    0  501    0  0.00000000000E+00  0.00000000000E+00  0.53424648000E+03  0.53426715358E+03  0.47000000000E+01 0.  1.
         -5   -1    0    0    0  501 -0.00000000000E+00 -0.00000000000E+00 -0.90226540729E+02  0.90348871890E+02  0.47000000000E+01 0.  1.
         25    2    1    2    0    0 -0.45962882251E+02  0.16553294303E+03  0.14272926328E+03  0.25594944872E+03  0.12499894372E+03 0.  0.
         25    2    1    2    0    0  0.45962882251E+02 -0.16553294303E+03  0.30129067599E+03  0.36866657675E+03  0.12500092639E+03 0.  0.
          5    1    3    3  502    0 -0.46102606260E+02  0.16967117936E+03  0.15987921702E+03  0.23769142485E+03  0.47000000000E+01 0. -1.
         -5    1    3    3    0  502  0.13972400954E+00 -0.41382363301E+01 -0.17149953737E+02  0.18258023877E+02  0.47000000000E+01 0. -1.
          5    1    4    4  503    0  0.49225242347E+02 -0.13001469270E+03  0.30220231725E+03  0.33267893734E+03  0.47000000000E+01 0. -1.
         -5    1    4    4    0  503 -0.32623600960E+01 -0.35518250335E+02 -0.91164125731E+00  0.35987639407E+02  0.47000000000E+01 0. -1.
<mgrwt>
<rscale>  0 0.21245905E+03</rscale>
<asrwt>0</asrwt>
<pdfrwt beam="1">  1        5 0.82202768E-01 0.21245935E+03</pdfrwt>
<pdfrwt beam="2">  1       -5 0.13892006E-01 0.21245935E+03</pdfrwt>
<totfact> 0.46365439E+01</totfact>
</mgrwt>
</event>
<event>
 8    1  0.3759079E-007  0.1267483E+03  0.7546771E-02  0.1232362E+00
          5   -1    0    0  501    0  0.00000000000E+00  0.00000000000E+00  0.48983575672E+03  0.48985830457E+03  0.47000000000E+01 0. -1.
         -5   -1    0    0    0  501 -0.00000000000E+00 -0.00000000000E+00 -0.32804615608E+02  0.33139595730E+02  0.47000000000E+01 0. -1.
         25    2    1    2    0    0  0.26918011773E+01  0.20801873036E+02  0.20822321653E+03  0.24376638499E+03  0.12500071535E+03 0.  0.
         25    2    1    2    0    0 -0.26918011773E+01 -0.20801873036E+02  0.24880792458E+03  0.27923151531E+03  0.12499956836E+03 0.  0.
          5    1    3    3  502    0 -0.58856616017E+02  0.19489119698E+02  0.78852064563E+02  0.10041745427E+03  0.47000000000E+01 0. -1.
         -5    1    3    3    0  502  0.61548417194E+02  0.13127533385E+01  0.12937115196E+03  0.14334893073E+03  0.47000000000E+01 0. -1.
          5    1    4    4  503    0 -0.31941596140E+01 -0.50072498808E+01 -0.13994416778E+02  0.15912539331E+02  0.47000000000E+01 0. -1.
         -5    1    4    4    0  503  0.50235843669E+00 -0.15794623155E+02  0.26280234136E+03  0.26331897598E+03  0.47000000000E+01 0. -1.
<mgrwt>
<rscale>  0 0.12674806E+03</rscale>
<asrwt>0</asrwt>
<pdfrwt beam="1">  1        5 0.75386847E-01 0.12674834E+03</pdfrwt>
<pdfrwt beam="2">  1       -5 0.50743663E-02 0.12674834E+03</pdfrwt>
<totfact> 0.27654661E+02</totfact>
</mgrwt>
</event>
<event>
 8    1  0.3759079E-007  0.2262034E+03  0.7546771E-02  0.1129341E+00
          5   -1    0    0  501    0  0.00000000000E+00  0.00000000000E+00  0.51289766466E+02  0.51504661383E+02  0.47000000000E+01 0. -1.
         -5   -1    0    0    0  501 -0.00000000000E+00 -0.00000000000E+00 -0.16482069940E+04  0.16482136952E+04  0.47000000000E+01 0. -1.
         25    2    1    2    0    0 -0.27210869679E+02  0.18655965333E+03 -0.13333078586E+04  0.13523599457E+04  0.12499056557E+03 0.  0.
         25    2    1    2    0    0  0.27210869679E+02 -0.18655965333E+03 -0.26360936901E+03  0.34735841088E+03  0.12499212175E+03 0.  0.
          5    1    3    3  502    0  0.47561034134E+02  0.94628371417E+02 -0.54975726834E+03  0.55988545680E+03  0.47000000000E+01 0.  1.
         -5    1    3    3    0  502 -0.74771903813E+02  0.91931281914E+02 -0.78355059022E+03  0.79247448894E+03  0.47000000000E+01 0.  1.
          5    1    4    4  503    0  0.49712413000E+02 -0.16182742697E+03 -0.14157016968E+03  0.22073432690E+03  0.47000000000E+01 0.  1.
         -5    1    4    4    0  503 -0.22501543321E+02 -0.24732226359E+02 -0.12203919933E+03  0.12662408398E+03  0.47000000000E+01 0.  1.
<mgrwt>
<rscale>  0 0.22620316E+03</rscale>
<asrwt>0</asrwt>
<pdfrwt beam="1">  1        5 0.79077804E-02 0.22620337E+03</pdfrwt>
<pdfrwt beam="2">  1       -5 0.25358731E+00 0.22620337E+03</pdfrwt>
<totfact> 0.52617988E+00</totfact>
</mgrwt>
</event>
<event>
 8    1  0.3759079E-007  0.1595587E+03  0.7546771E-02  0.1189199E+00
          5   -1    0    0  501    0  0.00000000000E+00  0.00000000000E+00  0.13816754941E+03  0.13824746547E+03  0.47000000000E+01 0. -1.
         -5   -1    0    0    0  501 -0.00000000000E+00 -0.00000000000E+00 -0.18408763556E+03  0.18414762438E+03  0.47000000000E+01 0. -1.
         25    2    1    2    0    0  0.56827572786E+02  0.81249767818E+02 -0.22784252108E+02  0.16116780619E+03  0.12500016724E+03 0.  0.
         25    2    1    2    0    0 -0.56827572786E+02 -0.81249767818E+02 -0.23135834042E+02  0.16122728366E+03  0.12501228892E+03 0.  0.
          5    1    3    3  502    0 -0.73088412142E+01 -0.88142263763E+01  0.34429309917E+02  0.36586570321E+02  0.47000000000E+01 0.  1.
         -5    1    3    3    0  502  0.64136414000E+02  0.90063994194E+02 -0.57213562025E+02  0.12458123587E+03  0.47000000000E+01 0.  1.
          5    1    4    4  503    0 -0.13356608373E+01 -0.50321394158E+02 -0.66962081610E+02  0.83904928779E+02  0.47000000000E+01 0.  1.
         -5    1    4    4    0  503 -0.55491911948E+02 -0.30928373660E+02  0.43826247569E+02  0.77322354885E+02  0.47000000000E+01 0.  1.
<mgrwt>
<rscale>  0 0.15955630E+03</rscale>
<asrwt>0</asrwt>
<pdfrwt beam="1">  1        5 0.21267308E-01 0.15955867E+03</pdfrwt>
<pdfrwt beam="2">  1       -5 0.28331936E-01 0.15955867E+03</pdfrwt>
<totfact> 0.18812692E+02</totfact>
</mgrwt>
</event>
<event>
 8    1  0.3759079E-007  0.1544365E+03  0.7546771E-02  0.1195126E+00
          5   -1    0    0  501    0  0.00000000000E+00  0.00000000000E+00  0.42311761741E+02  0.42571999972E+02  0.47000000000E+01 0. -1.
         -5   -1    0    0    0  501 -0.00000000000E+00 -0.00000000000E+00 -0.60433396972E+03  0.60435224576E+03  0.47000000000E+01 0. -1.
         25    2    1    2    0    0 -0.96842927197E+01 -0.90174757669E+02 -0.36692301859E+03  0.39809940235E+03  0.12500144052E+03 0.  0.
         25    2    1    2    0    0  0.96842927197E+01  0.90174757669E+02 -0.19509918939E+03  0.24882484339E+03  0.12499934615E+03 0.  0.
          5    1    3    3  502    0 -0.47349540149E+02 -0.87688395086E+02 -0.33125987289E+03  0.34595726177E+03  0.47000000000E+01 0.  1.
         -5    1    3    3    0  502  0.37665247429E+02 -0.24863625834E+01 -0.35663145698E+02  0.52142140576E+02  0.47000000000E+01 0.  1.
          5    1    4    4  503    0 -0.33118341343E+02  0.59632069485E+02 -0.28524634861E+02  0.74084769274E+02  0.47000000000E+01 0.  1.
         -5    1    4    4    0  503  0.42802634062E+02  0.30542688184E+02 -0.16657455453E+03  0.17474007411E+03  0.47000000000E+01 0.  1.
<mgrwt>
<rscale>  0 0.15443608E+03</rscale>
<asrwt>0</asrwt>
<pdfrwt beam="1">  1        5 0.65309264E-02 0.15443650E+03</pdfrwt>
<pdfrwt beam="2">  1       -5 0.92995875E-01 0.15443650E+03</pdfrwt>
<totfact> 0.11844435E+02</totfact>
</mgrwt>
</event>
<event>
 8    1  0.3759079E-007  0.1362584E+03  0.7546771E-02  0.1218455E+00
          5   -1    0    0  501    0  0.00000000000E+00  0.00000000000E+00  0.14310901484E+03  0.14318617297E+03  0.47000000000E+01 0. -1.
         -5   -1    0    0    0  501 -0.00000000000E+00 -0.00000000000E+00 -0.13703884799E+03  0.13711942189E+03  0.47000000000E+01 0. -1.
         25    2    1    2    0    0  0.43798906547E+01  0.54046683965E+02 -0.29645774444E+02  0.13944608695E+03  0.12500444685E+03 0.  0.
         25    2    1    2    0    0 -0.43798906547E+01 -0.54046683965E+02  0.35715941299E+02  0.14085950791E+03  0.12500218004E+03 0.  0.
          5    1    4    4  502    0 -0.59181436392E+02 -0.31675862326E+02 -0.70876003790E+01  0.67661855921E+02  0.47000000000E+01 0. -1.
         -5    1    4    4    0  502  0.54801545737E+02 -0.22370821639E+02  0.42803541678E+02  0.73197651986E+02  0.47000000000E+01 0. -1.
          5    1    3    3  503    0  0.66749349266E+01  0.93848147031E+02 -0.99367239583E+01  0.94725170575E+02  0.47000000000E+01 0. -1.
         -5    1    3    3    0  503 -0.22950442720E+01 -0.39801463066E+02 -0.19709050486E+02  0.44720916375E+02  0.47000000000E+01 0. -1.
<mgrwt>
<rscale>  0 0.13625783E+03</rscale>
<asrwt>0</asrwt>
<pdfrwt beam="1">  1        5 0.22028905E-01 0.13625835E+03</pdfrwt>
<pdfrwt beam="2">  1       -5 0.21095033E-01 0.13625835E+03</pdfrwt>
<totfact> 0.29369583E+02</totfact>
</mgrwt>
</event>
<event>
 8    1  0.3759079E-007  0.1330298E+03  0.7546771E-02  0.1223029E+00
         -5   -1    0    0    0  501 -0.00000000000E+00  0.00000000000E+00  0.15869161672E+03  0.15876120187E+03  0.47000000000E+01 0. -1.
          5   -1    0    0  501    0  0.00000000000E+00 -0.00000000000E+00 -0.11985771143E+03  0.11994982697E+03  0.47000000000E+01 0. -1.
         25    2    1    2    0    0  0.32161696502E+02  0.32239046498E+02  0.56469993008E+02  0.14451918616E+03  0.12499281666E+03 0.  0.
         25    2    1    2    0    0 -0.32161696502E+02 -0.32239046498E+02 -0.17636087720E+02  0.13419184268E+03  0.12499075250E+03 0.  0.
          5    1    4    4  502    0 -0.35695116571E+02 -0.74376863633E+02  0.10332495671E+02  0.83276104963E+02  0.47000000000E+01 0.  1.
         -5    1    4    4    0  502  0.35334200693E+01  0.42137817135E+02 -0.27968583391E+02  0.50915737716E+02  0.47000000000E+01 0.  1.
          5    1    3    3  503    0  0.65470210587E+02  0.21360253675E+02 -0.94957216480E+01  0.69676880247E+02  0.47000000000E+01 0.  1.
         -5    1    3    3    0  503 -0.33308514085E+02  0.10878792824E+02  0.65965714656E+02  0.74842305910E+02  0.47000000000E+01 0.  1.
<mgrwt>
<rscale>  0 0.13302934E+03</rscale>
<asrwt>0</asrwt>
<pdfrwt beam="2">  1        5 0.18452086E-01 0.13302983E+03</pdfrwt>
<pdfrwt beam="1">  1       -5 0.24426533E-01 0.13302983E+03</pdfrwt>
<totfact> 0.30722016E+02</totfact>
</mgrwt>
</event>
<event>
 8    1  0.3759079E-007  0.1885842E+03  0.7546771E-02  0.1159746E+00
         -5   -1    0    0    0  501 -0.00000000000E+00  0.00000000000E+00  0.72388809384E+03  0.72390335156E+03  0.47000000000E+01 0. -1.
          5   -1    0    0  501    0  0.00000000000E+00 -0.00000000000E+00 -0.49514770720E+02  0.49737335267E+02  0.47000000000E+01 0. -1.
         25    2    1    2    0    0  0.12022123790E+03 -0.74048400415E+02  0.37656586267E+03  0.42114826531E+03  0.12501080274E+03 0.  0.
         25    2    1    2    0    0 -0.12022123790E+03  0.74048400415E+02  0.29780746044E+03  0.35249242151E+03  0.12500124832E+03 0.  0.
          5    1    3    3  502    0 -0.24678878453E+02 -0.65240152813E+01  0.81415965801E+02  0.85453258009E+02  0.47000000000E+01 0.  1.
         -5    1    3    3    0  502  0.14490011635E+03 -0.67524385134E+02  0.29514989687E+03  0.33569500730E+03  0.47000000000E+01 0.  1.
          5    1    4    4  503    0 -0.60820030529E+02 -0.17972920100E+02  0.18306679176E+03  0.19379794172E+03  0.47000000000E+01 0. -1.
         -5    1    4    4    0  503 -0.59401207369E+02  0.92021320515E+02  0.11474066869E+03  0.15869447980E+03  0.47000000000E+01 0. -1.
<mgrwt>
<rscale>  0 0.18858265E+03</rscale>
<asrwt>0</asrwt>
<pdfrwt beam="2">  1        5 0.76359515E-02 0.18858423E+03</pdfrwt>
<pdfrwt beam="1">  1       -5 0.11138569E+00 0.18858423E+03</pdfrwt>
<totfact> 0.61684436E+01</totfact>
</mgrwt>
</event>
<event>
 8    1  0.3759079E-007  0.1322585E+03  0.7546771E-02  0.1224144E+00
         -5   -1    0    0    0  501 -0.00000000000E+00  0.00000000000E+00  0.37759629884E+03  0.37762554852E+03  0.47000000000E+01 0.  1.
          5   -1    0    0  501    0  0.00000000000E+00 -0.00000000000E+00 -0.47017185232E+02  0.47251515395E+02  0.47000000000E+01 0.  1.
         25    2    1    2    0    0 -0.33756642139E+02  0.26965278236E+02  0.19366874926E+03  0.23452054881E+03  0.12500266499E+03 0.  0.
         25    2    1    2    0    0  0.33756642139E+02 -0.26965278236E+02  0.13691036434E+03  0.19035651511E+03  0.12499807143E+03 0.  0.
          5    1    3    3  502    0  0.42586592109E+01 -0.40110643867E+02  0.12407225494E+03  0.13054889650E+03  0.47000000000E+01 0.  1.
         -5    1    3    3    0  502 -0.38015301350E+02  0.67075922104E+02  0.69596494317E+02  0.10397165231E+03  0.47000000000E+01 0.  1.
          5    1    4    4  503    0  0.54395996219E+01 -0.13183129449E+02 -0.22911467912E+02  0.27393603414E+02  0.47000000000E+01 0. -1.
         -5    1    4    4    0  503  0.28317042518E+02 -0.13782148787E+02  0.15982183226E+03  0.16296291169E+03  0.47000000000E+01 0. -1.
<mgrwt>
<rscale>  0 0.13225739E+03</rscale>
<asrwt>0</asrwt>
<pdfrwt beam="2">  1        5 0.72536887E-02 0.13225847E+03</pdfrwt>
<pdfrwt beam="1">  1       -5 0.58112012E-01 0.13225847E+03</pdfrwt>
<totfact> 0.27502929E+02</totfact>
</mgrwt>
</event>
<event>
 8    1  0.3759079E-007  0.1280918E+03  0.7546771E-02  0.1230315E+00
          5   -1    0    0  501    0  0.00000000000E+00  0.00000000000E+00  0.11811439792E+02  0.12712203190E+02  0.47000000000E+01 0.  1.
         -5   -1    0    0    0  501 -0.00000000000E+00 -0.00000000000E+00 -0.14030374442E+04  0.14030453164E+04  0.47000000000E+01 0.  1.
         25    2    1    2    0    0  0.27837148577E+02 -0.23654302325E+01 -0.84893626707E+03  0.85854545746E+03  0.12500805928E+03 0.  0.
         25    2    1    2    0    0 -0.27837148577E+02  0.23654302325E+01 -0.54228973731E+03  0.55721206208E+03  0.12500648318E+03 0.  0.
          5    1    4    4  502    0 -0.14364029734E+02 -0.52931286304E+01 -0.54070270405E+03  0.54093978105E+03  0.47000000000E+01 0.  1.
         -5    1    4    4    0  502 -0.13473118843E+02  0.76585588629E+01 -0.15870332581E+01  0.16272281026E+02  0.47000000000E+01 0.  1.
          5    1    3    3  503    0  0.27711680442E+02  0.15610816211E+02 -0.50329450364E+02  0.59722511581E+02  0.47000000000E+01 0. -1.
         -5    1    3    3    0  503  0.12546813564E+00 -0.17976246444E+02 -0.79860681671E+03  0.79882294588E+03  0.47000000000E+01 0. -1.
<mgrwt>
<rscale>  0 0.12809145E+03</rscale>
<asrwt>0</asrwt>
<pdfrwt beam="1">  1        5 0.18870407E-02 0.12809183E+03</pdfrwt>
<pdfrwt beam="2">  1       -5 0.21592168E+00 0.12809183E+03</pdfrwt>
<totfact> 0.85319488E+01</totfact>
</mgrwt>
</event>
<event>
 8    1  0.3759079E-007  0.1524655E+03  0.7546771E-02  0.1197479E+00
          5   -1    0    0  501    0  0.00000000000E+00  0.00000000000E+00  0.74246984048E+02  0.74395595570E+02  0.47000000000E+01 0. -1.
         -5   -1    0    0    0  501 -0.00000000000E+00 -0.00000000000E+00 -0.31362061564E+03  0.31365583137E+03  0.47000000000E+01 0. -1.
         25    2    1    2    0    0 -0.61923184966E+02 -0.61522373555E+02 -0.13081113109E+03  0.20088428860E+03  0.12499384827E+03 0.  0.
         25    2    1    2    0    0  0.61923184966E+02  0.61522373555E+02 -0.10856250051E+03  0.18716713835E+03  0.12500495141E+03 0.  0.
          5    1    3    3  502    0 -0.35306458667E+02 -0.43868664314E+02 -0.15207058061E+03  0.16222995167E+03  0.47000000000E+01 0.  1.
         -5    1    3    3    0  502 -0.26616726298E+02 -0.17653709241E+02  0.21259449526E+02  0.38654336923E+02  0.47000000000E+01 0.  1.
          5    1    4    4  503    0  0.93839047586E+02  0.67447463515E+02 -0.65114715919E+02  0.13272883415E+03  0.47000000000E+01 0. -1.
         -5    1    4    4    0  503 -0.31915862620E+02 -0.59250899597E+01 -0.43447784588E+02  0.54438304194E+02  0.47000000000E+01 0. -1.
<mgrwt>
<rscale>  0 0.15246320E+03</rscale>
<asrwt>0</asrwt>
<pdfrwt beam="1">  1        5 0.11436754E-01 0.15246548E+03</pdfrwt>
<pdfrwt beam="2">  1       -5 0.48263465E-01 0.15246548E+03</pdfrwt>
<totfact> 0.19499017E+02</totfact>
</mgrwt>
</event>
<event>
 8    1  0.3759079E-007  0.1452322E+03  0.7546771E-02  0.1206459E+00
         -5   -1    0    0    0  501 -0.00000000000E+00  0.00000000000E+00  0.10132024346E+03  0.10142919567E+03  0.47000000000E+01 0.  1.
          5   -1    0    0  501    0  0.00000000000E+00 -0.00000000000E+00 -0.20854979800E+03  0.20860275225E+03  0.47000000000E+01 0.  1.
         25    2    1    2    0    0  0.51104385931E+02  0.53426507885E+02 -0.62130961970E+02  0.15795867355E+03  0.12499854442E+03 0.  0.
         25    2    1    2    0    0 -0.51104385931E+02 -0.53426507885E+02 -0.45098592574E+02  0.15207327437E+03  0.12500539076E+03 0.  0.
          5    1    3    3  502    0  0.30186781021E+02 -0.29814195058E+02 -0.57850299827E+02  0.71894889703E+02  0.47000000000E+01 0. -1.
         -5    1    3    3    0  502  0.20917604910E+02  0.83240702943E+02 -0.42806621425E+01  0.86063783846E+02  0.47000000000E+01 0. -1.
          5    1    4    4  503    0 -0.77060991057E+02 -0.53271663896E+02  0.66022211694E+01  0.94031621497E+02  0.47000000000E+01 0. -1.
         -5    1    4    4    0  503  0.25956605126E+02 -0.15484398860E+00 -0.51700813743E+02  0.58041652872E+02  0.47000000000E+01 0. -1.
<mgrwt>
<rscale>  0 0.14523075E+03</rscale>
<asrwt>0</asrwt>
<pdfrwt beam="2">  1        5 0.32097039E-01 0.14523222E+03</pdfrwt>
<pdfrwt beam="1">  1       -5 0.15600184E-01 0.14523222E+03</pdfrwt>
<totfact> 0.25317472E+02</totfact>
</mgrwt>
</event>
<event>
 8    1  0.3759079E-007  0.1650553E+03  0.7546771E-02  0.1183105E+00
         -5   -1    0    0    0  501 -0.00000000000E+00  0.00000000000E+00  0.84643093806E+02  0.84773482464E+02  0.47000000000E+01 0. -1.
          5   -1    0    0  501    0  0.00000000000E+00 -0.00000000000E+00 -0.33239429012E+03  0.33242751707E+03  0.47000000000E+01 0. -1.
         25    2    1    2    0    0 -0.32952220723E+02 -0.10262540573E+03 -0.86056281594E+02  0.18614224694E+03  0.12500171896E+03 0.  0.
         25    2    1    2    0    0  0.32952220723E+02  0.10262540573E+03 -0.16169491472E+03  0.23105875260E+03  0.12500031581E+03 0.  0.
          5    1    4    4  502    0  0.65499967040E+02  0.39704215955E+02 -0.31878112814E+02  0.83096176347E+02  0.47000000000E+01 0.  1.
         -5    1    4    4    0  502 -0.32547746317E+02  0.62921189771E+02 -0.12981680191E+03  0.14796257625E+03  0.47000000000E+01 0.  1.
          5    1    3    3  503    0  0.23917010843E+02 -0.34756003372E+02  0.20811779573E+02  0.47278148727E+02  0.47000000000E+01 0.  1.
         -5    1    3    3    0  503 -0.56869231566E+02 -0.67869402354E+02 -0.10686806117E+03  0.13886409821E+03  0.47000000000E+01 0.  1.
<mgrwt>
<rscale>  0 0.16505504E+03</rscale>
<asrwt>0</asrwt>
<pdfrwt beam="2">  1        5 0.51150168E-01 0.16505530E+03</pdfrwt>
<pdfrwt beam="1">  1       -5 0.13034600E-01 0.16505530E+03</pdfrwt>
<totfact> 0.14003986E+02</totfact>
</mgrwt>
</event>
<event>
 8    1  0.3759079E-007  0.1342362E+03  0.7546771E-02  0.1221305E+00
          5   -1    0    0  501    0  0.00000000000E+00  0.00000000000E+00  0.13234171439E+02  0.14043977132E+02  0.47000000000E+01 0.  1.
         -5   -1    0    0    0  501 -0.00000000000E+00 -0.00000000000E+00 -0.13961380599E+04  0.13961459710E+04  0.47000000000E+01 0.  1.
         25    2    1    2    0    0 -0.48794585174E+02 -0.34279852562E+01 -0.85578923701E+03  0.86625317779E+03  0.12500674869E+03 0.  0.
         25    2    1    2    0    0  0.48794585174E+02  0.34279852562E+01 -0.52711465142E+03  0.54393677030E+03  0.12499876687E+03 0.  0.
          5    1    4    4  502    0 -0.37389442891E+02 -0.20821678787E+02 -0.13480331392E+03  0.14151161150E+03  0.47000000000E+01 0. -1.
         -5    1    4    4    0  502  0.86184028065E+02  0.24249664043E+02 -0.39231133750E+03  0.40242515880E+03  0.47000000000E+01 0. -1.
          5    1    3    3  503    0 -0.70421721076E+02  0.34882560255E+02 -0.69644031916E+03  0.70087603752E+03  0.47000000000E+01 0.  1.
         -5    1    3    3    0  503  0.21627135902E+02 -0.38310545511E+02 -0.15934891785E+03  0.16537714027E+03  0.47000000000E+01 0.  1.
<mgrwt>
<rscale>  0 0.13423431E+03</rscale>
<asrwt>0</asrwt>
<pdfrwt beam="1">  1        5 0.20989288E-02 0.13423617E+03</pdfrwt>
<pdfrwt beam="2">  1       -5 0.21485326E+00 0.13423617E+03</pdfrwt>
<totfact> 0.74299797E+01</totfact>
</mgrwt>
</event>
<event>
 8    1  0.3759079E-007  0.1345821E+03  0.7546771E-02  0.1220814E+00
          5   -1    0    0  501    0  0.00000000000E+00  0.00000000000E+00  0.37408052956E+03  0.37411005413E+03  0.47000000000E+01 0.  1.
         -5   -1    0    0    0  501 -0.00000000000E+00 -0.00000000000E+00 -0.49085630308E+02  0.49310131847E+02  0.47000000000E+01 0.  1.
         25    2    1    2    0    0  0.47875799958E+02  0.14230411307E+02  0.13526837928E+03  0.19081371978E+03  0.12497097421E+03 0.  0.
         25    2    1    2    0    0 -0.47875799958E+02 -0.14230411307E+02  0.18972651998E+03  0.23260646619E+03  0.12496006925E+03 0.  0.
          5    1    3    3  502    0  0.56170000727E+02  0.14976138928E+02  0.15677785607E+03  0.16727444477E+03  0.47000000000E+01 0.  1.
         -5    1    3    3    0  502 -0.82942007688E+01 -0.74572762135E+00 -0.21509476791E+02  0.23539275008E+02  0.47000000000E+01 0.  1.
          5    1    4    4  503    0 -0.43486774063E+02  0.42713679721E+02  0.15242782864E+03  0.16423121170E+03  0.47000000000E+01 0.  1.
         -5    1    4    4    0  503 -0.43890258951E+01 -0.56944091028E+02  0.37298691335E+02  0.68375254490E+02  0.47000000000E+01 0.  1.
<mgrwt>
<rscale>  0 0.13457957E+03</rscale>
<asrwt>0</asrwt>
<pdfrwt beam="1">  1        5 0.57570393E-01 0.13458210E+03</pdfrwt>
<pdfrwt beam="2">  1       -5 0.75711756E-02 0.13458210E+03</pdfrwt>
<totfact> 0.26248684E+02</totfact>
</mgrwt>
</event>
<event>
 8    1  0.3759079E-007  0.2020307E+03  0.7546771E-02  0.1148037E+00
         -5   -1    0    0    0  501 -0.00000000000E+00  0.00000000000E+00  0.47271374946E+02  0.47504451257E+02  0.47000000000E+01 0. -1.
          5   -1    0    0  501    0  0.00000000000E+00 -0.00000000000E+00 -0.89976599720E+03  0.89977827253E+03  0.47000000000E+01 0. -1.
         25    2    1    2    0    0  0.89218514052E+02  0.13126348493E+03 -0.32805079893E+03  0.38527050045E+03  0.12500394438E+03 0.  0.
         25    2    1    2    0    0 -0.89218514052E+02 -0.13126348493E+03 -0.52444382332E+03  0.56201222333E+03  0.12500547842E+03 0.  0.
          5    1    3    3  502    0  0.23178483455E+02 -0.14114626840E+02 -0.11915102760E+03  0.12229277233E+03  0.47000000000E+01 0. -1.
         -5    1    3    3    0  502  0.66040030597E+02  0.14537811177E+03 -0.20889977133E+03  0.26297772812E+03  0.47000000000E+01 0. -1.
          5    1    4    4  503    0 -0.74218665846E+02 -0.11736699362E+03 -0.52282077521E+03  0.54096864469E+03  0.47000000000E+01 0. -1.
         -5    1    4    4    0  503 -0.14999848206E+02 -0.13896491312E+02 -0.16230481115E+01  0.21043578644E+02  0.47000000000E+01 0. -1.
<mgrwt>
<rscale>  0 0.20203049E+03</rscale>
<asrwt>0</asrwt>
<pdfrwt beam="2">  1        5 0.13844440E+00 0.20203073E+03</pdfrwt>
<pdfrwt beam="1">  1       -5 0.72913931E-02 0.20203073E+03</pdfrwt>
<totfact> 0.38664134E+01</totfact>
</mgrwt>
</event>
<event>
 8    1  0.3759079E-007  0.1283185E+03  0.7546771E-02  0.1229979E+00
         -5   -1    0    0    0  501 -0.00000000000E+00  0.00000000000E+00  0.50860599597E+03  0.50862771173E+03  0.47000000000E+01 0. -1.
          5   -1    0    0  501    0  0.00000000000E+00 -0.00000000000E+00 -0.44221945517E+02  0.44471007019E+02  0.47000000000E+01 0. -1.
         25    2    1    2    0    0 -0.22285902368E+02 -0.18554241673E+02  0.37599881980E+03  0.39728605776E+03  0.12498071000E+03 0.  0.
         25    2    1    2    0    0  0.22285902368E+02  0.18554241673E+02  0.88385230654E+02  0.15581266099E+03  0.12499885998E+03 0.  0.
          5    1    4    4  502    0  0.64415098206E+02  0.39183665875E+01  0.90108260328E+02  0.11093352538E+03  0.47000000000E+01 0. -1.
         -5    1    4    4    0  502 -0.42129195839E+02  0.14635875085E+02 -0.17230296743E+01  0.44879135606E+02  0.47000000000E+01 0. -1.
          5    1    3    3  503    0 -0.50585676283E+02  0.36329806854E+02  0.14005382703E+03  0.15334904622E+03  0.47000000000E+01 0. -1.
         -5    1    3    3    0  503  0.28299773915E+02 -0.54884048527E+02  0.23594499277E+03  0.24393701154E+03  0.47000000000E+01 0. -1.
<mgrwt>
<rscale>  0 0.12831408E+03</rscale>
<asrwt>0</asrwt>
<pdfrwt beam="2">  1        5 0.68242051E-02 0.12831850E+03</pdfrwt>
<pdfrwt beam="1">  1       -5 0.78267907E-01 0.12831850E+03</pdfrwt>
<totfact> 0.15512537E+02</totfact>
</mgrwt>
</event>
<event>
 8    1  0.3759079E-007  0.1255173E+03  0.7546771E-02  0.1234264E+00
         -5   -1    0    0    0  501 -0.00000000000E+00  0.00000000000E+00  0.21458170052E+03  0.21463316659E+03  0.47000000000E+01 0.  1.
          5   -1    0    0  501    0  0.00000000000E+00 -0.00000000000E+00 -0.76993790237E+02  0.77137109973E+02  0.47000000000E+01 0.  1.
         25    2    1    2    0    0 -0.96469107455E+01  0.60295119823E+01  0.10078099445E+03  0.16097018032E+03  0.12500068883E+03 0.  0.
         25    2    1    2    0    0  0.96469107455E+01 -0.60295119823E+01  0.36806915836E+02  0.13080009624E+03  0.12499799287E+03 0.  0.
          5    1    3    3  502    0  0.43015810373E+02  0.32479494121E+02  0.83285262827E+02  0.99316677776E+02  0.47000000000E+01 0. -1.
         -5    1    3    3    0  502 -0.52662721118E+02 -0.26449982138E+02  0.17495731622E+02  0.61653502542E+02  0.47000000000E+01 0. -1.
          5    1    4    4  503    0  0.40721040219E+02  0.44896428205E+02  0.48394683995E+00  0.60796517882E+02  0.47000000000E+01 0.  1.
         -5    1    4    4    0  503 -0.31074129473E+02 -0.50925940187E+02  0.36322968996E+02  0.70003578360E+02  0.47000000000E+01 0.  1.
<mgrwt>
<rscale>  0 0.12551662E+03</rscale>
<asrwt>0</asrwt>
<pdfrwt beam="2">  1        5 0.11860182E-01 0.12551729E+03</pdfrwt>
<pdfrwt beam="1">  1       -5 0.33027552E-01 0.12551729E+03</pdfrwt>
<totfact> 0.37152713E+02</totfact>
</mgrwt>
</event>
<event>
 8    1  0.3759079E-007  0.1257562E+03  0.7546771E-02  0.1233901E+00
         -5   -1    0    0    0  501 -0.00000000000E+00  0.00000000000E+00  0.22016186915E+02  0.22512274125E+02  0.47000000000E+01 0. -1.
          5   -1    0    0  501    0  0.00000000000E+00 -0.00000000000E+00 -0.76217495951E+03  0.76218945079E+03  0.47000000000E+01 0. -1.
         25    2    1    2    0    0  0.13578028814E+02  0.11273594692E+01 -0.26717672425E+03  0.29529313192E+03  0.12501599086E+03 0.  0.
         25    2    1    2    0    0 -0.13578028814E+02 -0.11273594692E+01 -0.47298204834E+03  0.48940859300E+03  0.12499247594E+03 0.  0.
          5    1    3    3  502    0  0.35126984251E+02  0.77266583528E+01 -0.26970483591E+03  0.27213304611E+03  0.47000000000E+01 0. -1.
         -5    1    3    3    0  502 -0.21548955437E+02 -0.65992988835E+01  0.25281116572E+01  0.23160085810E+02  0.47000000000E+01 0. -1.
          5    1    4    4  503    0 -0.51830315922E+02  0.29552440170E+02 -0.37494589747E+03  0.37969230227E+03  0.47000000000E+01 0.  1.
         -5    1    4    4    0  503  0.38252287108E+02 -0.30679799639E+02 -0.98036150868E+02  0.10971629073E+03  0.47000000000E+01 0.  1.
<mgrwt>
<rscale>  0 0.12575039E+03</rscale>
<asrwt>0</asrwt>
<pdfrwt beam="2">  1        5 0.11729694E+00 0.12575624E+03</pdfrwt>
<pdfrwt beam="1">  1       -5 0.34263815E-02 0.12575624E+03</pdfrwt>
<totfact> 0.18222462E+02</totfact>
</mgrwt>
</event>
<event>
 8    1  0.3759079E-007  0.1468377E+03  0.7546771E-02  0.1204424E+00
         -5   -1    0    0    0  501 -0.00000000000E+00  0.00000000000E+00  0.43019733050E+03  0.43022300400E+03  0.47000000000E+01 0.  1.
          5   -1    0    0  501    0  0.00000000000E+00 -0.00000000000E+00 -0.69699755080E+02  0.69858040756E+02  0.47000000000E+01 0.  1.
         25    2    1    2    0    0 -0.75596635069E+02  0.14576484257E+02  0.31305749037E+03  0.34577004572E+03  0.12499842845E+03 0.  0.
         25    2    1    2    0    0  0.75596635069E+02 -0.14576484257E+02  0.47440085056E+02  0.15431099904E+03  0.12503598533E+03 0.  0.
          5    1    3    3  502    0 -0.17089003993E+02  0.66214683883E+02  0.14048194488E+03  0.15631278021E+03  0.47000000000E+01 0. -1.
         -5    1    3    3    0  502 -0.58507631077E+02 -0.51638199626E+02  0.17257554549E+03  0.18945726551E+03  0.47000000000E+01 0. -1.
          5    1    4    4  503    0  0.55246159047E+01  0.21122953167E+02 -0.34207014325E+02  0.40852299329E+02  0.47000000000E+01 0.  1.
         -5    1    4    4    0  503  0.70072019165E+02 -0.35699437424E+02  0.81647099381E+02  0.11345869971E+03  0.47000000000E+01 0.  1.
<mgrwt>
<rscale>  0 0.14682975E+03</rscale>
<asrwt>0</asrwt>
<pdfrwt beam="2">  1        5 0.10737190E-01 0.14683774E+03</pdfrwt>
<pdfrwt beam="1">  1       -5 0.66198356E-01 0.14683774E+03</pdfrwt>
<totfact> 0.10848052E+02</totfact>
</mgrwt>
</event>
<event>
 8    1  0.3759079E-007  0.1300574E+03  0.7546771E-02  0.1227374E+00
          5   -1    0    0  501    0  0.00000000000E+00  0.00000000000E+00  0.20638907448E+03  0.20644258298E+03  0.47000000000E+01 0. -1.
         -5   -1    0    0    0  501 -0.00000000000E+00 -0.00000000000E+00 -0.83151411899E+02  0.83284135950E+02  0.47000000000E+01 0. -1.
         25    2    1    2    0    0  0.44623608607E+01  0.35624791683E+02  0.43300761443E+02  0.13706746644E+03  0.12499398373E+03 0.  0.
         25    2    1    2    0    0 -0.44623608607E+01 -0.35624791683E+02  0.79936901142E+02  0.15265925248E+03  0.12500360298E+03 0.  0.
          5    1    3    3  502    0  0.44589364733E+02 -0.10706829089E+02  0.57777391999E+02  0.73913223868E+02  0.47000000000E+01 0. -1.
         -5    1    3    3    0  502 -0.40127003872E+02  0.46331620771E+02 -0.14476630556E+02  0.63154242576E+02  0.47000000000E+01 0. -1.
          5    1    4    4  503    0  0.25797327387E+01  0.20183844497E+02 -0.25562114176E+02  0.33008397126E+02  0.47000000000E+01 0. -1.
         -5    1    4    4    0  503 -0.70420935993E+01 -0.55808636180E+02  0.10549901532E+03  0.11965085536E+03  0.47000000000E+01 0. -1.
<mgrwt>
<rscale>  0 0.13005513E+03</rscale>
<asrwt>0</asrwt>
<pdfrwt beam="1">  1        5 0.31766491E-01 0.13005745E+03</pdfrwt>
<pdfrwt beam="2">  1       -5 0.12806851E-01 0.13005745E+03</pdfrwt>
<totfact> 0.35480600E+02</totfact>
</mgrwt>
</event>
<event>
 8    1  0.3759079E-007  0.1863721E+03  0.7546771E-02  0.1161775E+00
          5   -1    0    0  501    0  0.00000000000E+00  0.00000000000E+00  0.31247300138E+03  0.31250834643E+03  0.47000000000E+01 0. -1.
         -5   -1    0    0    0  501 -0.00000000000E+00 -0.00000000000E+00 -0.13294994968E+03  0.13303300012E+03  0.47000000000E+01 0. -1.
         25    2    1    2    0    0 -0.80686748527E+02 -0.11224291772E+03 -0.57249457052E+00  0.18637157100E+03  0.12500084303E+03 0.  0.
         25    2    1    2    0    0  0.80686748527E+02  0.11224291772E+03  0.18009554627E+03  0.25916977555E+03  0.12500297119E+03 0.  0.
          5    1    3    3  502    0  0.76263549572E+01 -0.94051352986E+02 -0.12488960046E+02  0.95298910862E+02  0.47000000000E+01 0.  1.
         -5    1    3    3    0  502 -0.88313103485E+02 -0.18191564736E+02  0.11916465476E+02  0.91072660135E+02  0.47000000000E+01 0.  1.
          5    1    4    4  503    0  0.54748879030E+02 -0.12997936769E+02  0.38713854406E+02  0.68463410945E+02  0.47000000000E+01 0. -1.
         -5    1    4    4    0  503  0.25937869498E+02  0.12524085449E+03  0.14138169187E+03  0.19070636461E+03  0.47000000000E+01 0. -1.
<mgrwt>
<rscale>  0 0.18637176E+03</rscale>
<asrwt>0</asrwt>
<pdfrwt beam="1">  1        5 0.48081876E-01 0.18637212E+03</pdfrwt>
<pdfrwt beam="2">  1       -5 0.20462946E-01 0.18637212E+03</pdfrwt>
<totfact> 0.72346316E+01</totfact>
</mgrwt>
</event>
<event>
 8    1  0.3759079E-007  0.1281025E+03  0.7546771E-02  0.1230300E+00
          5   -1    0    0  501    0  0.00000000000E+00  0.00000000000E+00  0.24266721479E+03  0.24271272553E+03  0.47000000000E+01 0.  1.
         -5   -1    0    0    0  501 -0.00000000000E+00 -0.00000000000E+00 -0.70476815810E+02  0.70633360154E+02  0.47000000000E+01 0.  1.
         25    2    1    2    0    0 -0.23424342728E+02 -0.15402458097E+02  0.53886499497E+02  0.13897486289E+03  0.12499728853E+03 0.  0.
         25    2    1    2    0    0  0.23424342728E+02  0.15402458097E+02  0.11830389948E+03  0.17437122279E+03  0.12499430050E+03 0.  0.
          5    1    4    4  502    0  0.30932052137E+01  0.41774009639E+02  0.13161782294E+03  0.13820266682E+03  0.47000000000E+01 0. -1.
         -5    1    4    4    0  502  0.20331137515E+02 -0.26371551542E+02 -0.13313923460E+02  0.36168555974E+02  0.47000000000E+01 0. -1.
          5    1    3    3  503    0 -0.75627265256E+01  0.38087133193E+02  0.70455969075E+02  0.80585098658E+02  0.47000000000E+01 0.  1.
         -5    1    3    3    0  503 -0.15861616203E+02 -0.53489591290E+02 -0.16569469578E+02  0.58389764232E+02  0.47000000000E+01 0.  1.
<mgrwt>
<rscale>  0 0.12810180E+03</rscale>
<asrwt>0</asrwt>
<pdfrwt beam="1">  1        5 0.37348960E-01 0.12810253E+03</pdfrwt>
<pdfrwt beam="2">  1       -5 0.10858130E-01 0.12810253E+03</pdfrwt>
<totfact> 0.34184053E+02</totfact>
</mgrwt>
</event>
<event>
 8    1  0.3759079E-007  0.1351969E+03  0.7546771E-02  0.1219947E+00
         -5   -1    0    0    0  501 -0.00000000000E+00  0.00000000000E+00  0.61121739562E+03  0.61123546585E+03  0.47000000000E+01 0.  1.
          5   -1    0    0  501    0  0.00000000000E+00 -0.00000000000E+00 -0.31093686478E+02  0.31446897125E+02  0.47000000000E+01 0.  1.
         25    2    1    2    0    0 -0.49785955334E+02 -0.13255004662E+02  0.35773993119E+03  0.38243439487E+03  0.12499548597E+03 0.  0.
         25    2    1    2    0    0  0.49785955334E+02  0.13255004662E+02  0.22238377796E+03  0.26024796811E+03  0.12498049332E+03 0.  0.
          5    1    4    4  502    0 -0.47207948098E+01  0.61475174103E+02  0.11233176200E+03  0.12822635333E+03  0.47000000000E+01 0.  1.
         -5    1    4    4    0  502  0.54506750144E+02 -0.48220169442E+02  0.11005201596E+03  0.13202161478E+03  0.47000000000E+01 0.  1.
          5    1    3    3  503    0 -0.84302054406E+01 -0.42830898735E+01 -0.86061275767E+01  0.13622358625E+02  0.47000000000E+01 0.  1.
         -5    1    3    3    0  503 -0.41355749893E+02 -0.89719147883E+01  0.36634605876E+03  0.36881203624E+03  0.47000000000E+01 0.  1.
<mgrwt>
<rscale>  0 0.13519346E+03</rscale>
<asrwt>0</asrwt>
<pdfrwt beam="2">  1        5 0.48122043E-02 0.13519692E+03</pdfrwt>
<pdfrwt beam="1">  1       -5 0.94062003E-01 0.13519692E+03</pdfrwt>
<totfact> 0.18415470E+02</totfact>
</mgrwt>
</event>
<event>
 8    1  0.3759079E-007  0.2997162E+03  0.7546771E-02  0.1085383E+00
          5   -1    0    0  501    0  0.00000000000E+00  0.00000000000E+00  0.49567689729E+03  0.49569917945E+03  0.47000000000E+01 0. -1.
         -5   -1    0    0    0  501 -0.00000000000E+00 -0.00000000000E+00 -0.21182444031E+03  0.21187657613E+03  0.47000000000E+01 0. -1.
         25    2    1    2    0    0 -0.26230078357E+03 -0.73506453271E+02  0.27648881064E+03  0.40776939872E+03  0.12499968156E+03 0.  0.
         25    2    1    2    0    0  0.26230078357E+03  0.73506453271E+02  0.73636463416E+01  0.29980635687E+03  0.12499891439E+03 0.  0.
          5    1    4    4  502    0  0.17506740661E+03 -0.80346604827E+00  0.41813071260E+02  0.18005461766E+03  0.47000000000E+01 0. -1.
         -5    1    4    4    0  502  0.87233376962E+02  0.74309919319E+02 -0.34449424919E+02  0.11975173920E+03  0.47000000000E+01 0. -1.
          5    1    3    3  503    0 -0.23272583365E+02  0.30732279386E+02  0.32917686719E+02  0.50909235229E+02  0.47000000000E+01 0. -1.
         -5    1    3    3    0  503 -0.23902820020E+03 -0.10423873266E+03  0.24357112392E+03  0.35686016349E+03  0.47000000000E+01 0. -1.
<mgrwt>
<rscale>  0 0.29971615E+03</rscale>
<asrwt>0</asrwt>
<pdfrwt beam="1">  1        5 0.76263707E-01 0.29971623E+03</pdfrwt>
<pdfrwt beam="2">  1       -5 0.32594100E-01 0.29971623E+03</pdfrwt>
<totfact> 0.11767654E+01</totfact>
</mgrwt>
</event>
<event>
 8    1  0.3759079E-007  0.1270758E+03  0.7546771E-02  0.1231862E+00
          5   -1    0    0  501    0  0.00000000000E+00  0.00000000000E+00  0.22666922430E+03  0.22671794646E+03  0.47000000000E+01 0.  1.
         -5   -1    0    0    0  501 -0.00000000000E+00 -0.00000000000E+00 -0.72480431574E+02  0.72632657676E+02  0.47000000000E+01 0.  1.
         25    2    1    2    0    0 -0.10177575044E+02 -0.20491147324E+02  0.56511301184E+02  0.13907472997E+03  0.12499913281E+03 0.  0.
         25    2    1    2    0    0  0.10177575044E+02  0.20491147324E+02  0.97677491544E+02  0.16027587416E+03  0.12499597326E+03 0.  0.
          5    1    4    4  502    0  0.12681320983E+02 -0.31496633317E+02  0.10222478194E+03  0.10781859698E+03  0.47000000000E+01 0.  1.
         -5    1    4    4    0  502 -0.25037459388E+01  0.51987780641E+02 -0.45472903947E+01  0.52457277184E+02  0.47000000000E+01 0.  1.
          5    1    3    3  503    0  0.36660107070E+02  0.20848064555E+02  0.63142371739E+02  0.76076634750E+02  0.47000000000E+01 0.  1.
         -5    1    3    3    0  503 -0.46837682114E+02 -0.41339211878E+02 -0.66310705549E+01  0.62998095219E+02  0.47000000000E+01 0.  1.
<mgrwt>
<rscale>  0 0.12707500E+03</rscale>
<asrwt>0</asrwt>
<pdfrwt beam="1">  1        5 0.34887646E-01 0.12707578E+03</pdfrwt>
<pdfrwt beam="2">  1       -5 0.11166293E-01 0.12707578E+03</pdfrwt>
<totfact> 0.37214964E+02</totfact>
</mgrwt>
</event>
<event>
 8    1  0.3759079E-007  0.1383171E+03  0.7546771E-02  0.1215613E+00
         -5   -1    0    0    0  501 -0.00000000000E+00  0.00000000000E+00  0.12070077701E+02  0.12952867471E+02  0.47000000000E+01 0.  1.
          5   -1    0    0  501    0  0.00000000000E+00 -0.00000000000E+00 -0.21953832134E+04  0.21953882444E+04  0.47000000000E+01 0.  1.
         25    2    1    2    0    0  0.38473514260E+01 -0.59084861609E+02 -0.48306968391E+03  0.50248079980E+03  0.12499924666E+03 0.  0.
         25    2    1    2    0    0 -0.38473514260E+01  0.59084861609E+02 -0.17002434518E+04  0.17058603121E+04  0.12500314396E+03 0.  0.
          5    1    4    4  502    0 -0.39797473247E+02  0.70931234385E+02 -0.67362903543E+03  0.67853757910E+03  0.47000000000E+01 0.  1.
         -5    1    4    4    0  502  0.35950121821E+02 -0.11846372776E+02 -0.10266144164E+04  0.10273227330E+04  0.47000000000E+01 0.  1.
          5    1    3    3  503    0 -0.24812074899E+02  0.71305510820E+01 -0.35045320928E+03  0.35143424095E+03  0.47000000000E+01 0. -1.
         -5    1    3    3    0  503  0.28659426325E+02 -0.66215412691E+02 -0.13261647463E+03  0.15104655884E+03  0.47000000000E+01 0. -1.
<mgrwt>
<rscale>  0 0.13831618E+03</rscale>
<asrwt>0</asrwt>
<pdfrwt beam="2">  1        5 0.33781925E+00 0.13831706E+03</pdfrwt>
<pdfrwt beam="1">  1       -5 0.19252307E-02 0.13831706E+03</pdfrwt>
<totfact> 0.14161063E+01</totfact>
</mgrwt>
</event>
<event>
 8    1  0.3759079E-007  0.1516679E+03  0.7546771E-02  0.1198447E+00
         -5   -1    0    0    0  501 -0.00000000000E+00  0.00000000000E+00  0.11964585192E+03  0.11973813044E+03  0.47000000000E+01 0.  1.
          5   -1    0    0  501    0  0.00000000000E+00 -0.00000000000E+00 -0.26188829743E+03  0.26193046851E+03  0.47000000000E+01 0.  1.
         25    2    1    2    0    0  0.44161254679E+02 -0.73616254526E+02  0.27419373783E+02  0.15409822051E+03  0.12499948063E+03 0.  0.
         25    2    1    2    0    0 -0.44161254679E+02  0.73616254526E+02 -0.16966181930E+03  0.22757037844E+03  0.12503429478E+03 0.  0.
          5    1    3    3  502    0  0.15418533239E+02  0.33202435184E+02  0.22594670390E+02  0.43275189190E+02  0.47000000000E+01 0. -1.
         -5    1    3    3    0  502  0.28742721440E+02 -0.10681868971E+03  0.48247033924E+01  0.11082303132E+03  0.47000000000E+01 0. -1.
          5    1    4    4  503    0  0.36552801896E+02  0.32198654032E+02 -0.10567060695E+03  0.11645268491E+03  0.47000000000E+01 0. -1.
         -5    1    4    4    0  503 -0.80714056576E+02  0.41417600494E+02 -0.63991212345E+02  0.11111769354E+03  0.47000000000E+01 0. -1.
<mgrwt>
<rscale>  0 0.15166070E+03</rscale>
<asrwt>0</asrwt>
<pdfrwt beam="2">  1        5 0.40300850E-01 0.15166787E+03</pdfrwt>
<pdfrwt beam="1">  1       -5 0.18417396E-01 0.15166787E+03</pdfrwt>
<totfact> 0.11967340E+02</totfact>
</mgrwt>
</event>
<event>
 8    1  0.3759079E-007  0.1461552E+03  0.7546771E-02  0.1205280E+00
          5   -1    0    0  501    0  0.00000000000E+00  0.00000000000E+00  0.17496815058E+03  0.17503126497E+03  0.47000000000E+01 0. -1.
         -5   -1    0    0    0  501 -0.00000000000E+00 -0.00000000000E+00 -0.13798157225E+03  0.13806159597E+03  0.47000000000E+01 0. -1.
         25    2    1    2    0    0  0.75733208033E+02  0.67679023115E+00 -0.34832285971E+02  0.15024852734E+03  0.12500141990E+03 0.  0.
         25    2    1    2    0    0 -0.75733208033E+02 -0.67679023115E+00  0.71818864296E+02  0.16284433360E+03  0.12499740347E+03 0.  0.
          5    1    4    4  502    0 -0.10622667520E+03  0.41575752636E+01  0.76783880935E+02  0.13122212591E+03  0.47000000000E+01 0.  1.
         -5    1    4    4    0  502  0.30493467165E+02 -0.48343654947E+01 -0.49650166392E+01  0.31622207698E+02  0.47000000000E+01 0.  1.
          5    1    3    3  503    0  0.27991347155E+02 -0.57302385073E+02  0.66983645213E+01  0.64296476870E+02  0.47000000000E+01 0.  1.
         -5    1    3    3    0  503  0.47741860878E+02  0.57979175305E+02 -0.41530650492E+02  0.85952050467E+02  0.47000000000E+01 0.  1.
<mgrwt>
<rscale>  0 0.14615430E+03</rscale>
<asrwt>0</asrwt>
<pdfrwt beam="1">  1        5 0.26929188E-01 0.14615516E+03</pdfrwt>
<pdfrwt beam="2">  1       -5 0.21238945E-01 0.14615516E+03</pdfrwt>
<totfact> 0.20226482E+02</totfact>
</mgrwt>
</event>
<event>
 8    1  0.3759079E-007  0.1418516E+03  0.7546771E-02  0.1210861E+00
         -5   -1    0    0    0  501 -0.00000000000E+00  0.00000000000E+00  0.21409170339E+03  0.21414328722E+03  0.47000000000E+01 0. -1.
          5   -1    0    0  501    0  0.00000000000E+00 -0.00000000000E+00 -0.97810018897E+02  0.97922876778E+02  0.47000000000E+01 0. -1.
         25    2    1    2    0    0  0.57777229097E+02 -0.34011054905E+02  0.89463217392E+02  0.16770673857E+03  0.12500769111E+03 0.  0.
         25    2    1    2    0    0 -0.57777229097E+02  0.34011054905E+02  0.26818467101E+02  0.14435942543E+03  0.12500181388E+03 0.  0.
          5    1    4    4  502    0 -0.45375475318E+02 -0.24422694673E+02  0.57238033032E+02  0.77160120534E+02  0.47000000000E+01 0.  1.
         -5    1    4    4    0  502 -0.12401753779E+02  0.58433749578E+02 -0.30419565931E+02  0.67199304892E+02  0.47000000000E+01 0.  1.
          5    1    3    3  503    0  0.63727345186E+02 -0.64652776062E+02  0.99318516928E+02  0.13463808444E+03  0.47000000000E+01 0.  1.
         -5    1    3    3    0  503 -0.59501160895E+01  0.30641721158E+02 -0.98552995363E+01  0.33068654129E+02  0.47000000000E+01 0.  1.
<mgrwt>
<rscale>  0 0.14185033E+03</rscale>
<asrwt>0</asrwt>
<pdfrwt beam="2">  1        5 0.15060345E-01 0.14185162E+03</pdfrwt>
<pdfrwt beam="1">  1       -5 0.32949834E-01 0.14185162E+03</pdfrwt>
<totfact> 0.25417493E+02</totfact>
</mgrwt>
</event>
<event>
 8    1  0.3759079E-007  0.1685953E+03  0.7546771E-02  0.1179332E+00
         -5   -1    0    0    0  501 -0.00000000000E+00  0.00000000000E+00  0.58865364900E+03  0.58867241186E+03  0.47000000000E+01 0. -1.
          5   -1    0    0  501    0  0.00000000000E+00 -0.00000000000E+00 -0.61545587010E+02  0.61724786597E+02  0.47000000000E+01 0. -1.
         25    2    1    2    0    0 -0.91980290896E+02  0.65862651460E+02  0.41502248076E+03  0.44794336241E+03  0.12494532252E+03 0.  0.
         25    2    1    2    0    0  0.91980290896E+02 -0.65862651460E+02  0.11208558123E+03  0.20245383604E+03  0.12500446168E+03 0.  0.
          5    1    3    3  502    0 -0.10873962443E+03  0.12154304736E+02  0.30885672928E+03  0.32769895067E+03  0.47000000000E+01 0.  1.
         -5    1    3    3    0  502  0.16759333538E+02  0.53708346724E+02  0.10616575148E+03  0.12024441174E+03  0.47000000000E+01 0.  1.
          5    1    4    4  503    0  0.23214905220E+02 -0.91828165257E+02  0.59498618431E+02  0.11195320162E+03  0.47000000000E+01 0.  1.
         -5    1    4    4    0  503  0.68765385676E+02  0.25965513797E+02  0.52586962798E+02  0.90500634419E+02  0.47000000000E+01 0.  1.
<mgrwt>
<rscale>  0 0.16858435E+03</rscale>
<asrwt>0</asrwt>
<pdfrwt beam="2">  1        5 0.94837798E-02 0.16859531E+03</pdfrwt>
<pdfrwt beam="1">  1       -5 0.90577327E-01 0.16859531E+03</pdfrwt>
<totfact> 0.68217351E+01</totfact>
</mgrwt>
</event>
<event>
 8    1  0.3759079E-007  0.1353570E+03  0.7546771E-02  0.1219717E+00
          5   -1    0    0  501    0  0.00000000000E+00  0.00000000000E+00  0.45475137674E+03  0.45477566408E+03  0.47000000000E+01 0. -1.
         -5   -1    0    0    0  501 -0.00000000000E+00 -0.00000000000E+00 -0.45400962893E+02  0.45643591353E+02  0.47000000000E+01 0. -1.
         25    2    1    2    0    0  0.14796960195E+01  0.51911463885E+02  0.11965594056E+03  0.18066248534E+03  0.12499759965E+03 0.  0.
         25    2    1    2    0    0 -0.14796960195E+01 -0.51911463885E+02  0.28969447329E+03  0.31975677009E+03  0.12499805832E+03 0.  0.
          5    1    3    3  502    0  0.52881674379E+02  0.28151062412E+02  0.15570086967E+02  0.62076335331E+02  0.47000000000E+01 0.  1.
         -5    1    3    3    0  502 -0.51401978359E+02  0.23760401473E+02  0.10408585359E+03  0.11858615001E+03  0.47000000000E+01 0.  1.
          5    1    4    4  503    0 -0.55860942907E+01 -0.51393961439E+02  0.30174421956E+03  0.30617675901E+03  0.47000000000E+01 0.  1.
         -5    1    4    4    0  503  0.41063982712E+01 -0.51750244581E+00 -0.12049746276E+02  0.13580011077E+02  0.47000000000E+01 0.  1.
<mgrwt>
<rscale>  0 0.13535685E+03</rscale>
<asrwt>0</asrwt>
<pdfrwt beam="1">  1        5 0.69982282E-01 0.13535695E+03</pdfrwt>
<pdfrwt beam="2">  1       -5 0.70052955E-02 0.13535695E+03</pdfrwt>
<totfact> 0.19495695E+02</totfact>
</mgrwt>
</event>
<event>
 8    1  0.3759079E-007  0.1328267E+03  0.7546771E-02  0.1223328E+00
         -5   -1    0    0    0  501 -0.00000000000E+00  0.00000000000E+00  0.40299554523E+03  0.40302295154E+03  0.47000000000E+01 0. -1.
          5   -1    0    0  501    0  0.00000000000E+00 -0.00000000000E+00 -0.49119645319E+02  0.49343992099E+02  0.47000000000E+01 0. -1.
         25    2    1    2    0    0 -0.41935795167E+01 -0.44710296855E+02  0.25241958025E+03  0.28522534551E+03  0.12498502501E+03 0.  0.
         25    2    1    2    0    0  0.41935795167E+01  0.44710296855E+02  0.10145631966E+03  0.16714159813E+03  0.12500532898E+03 0.  0.
          5    1    4    4  502    0 -0.39993207539E+02  0.22719033294E+02  0.10766653719E+03  0.11717416248E+03  0.47000000000E+01 0. -1.
         -5    1    4    4    0  502  0.44186787056E+02  0.21991263561E+02 -0.62102175327E+01  0.49967435647E+02  0.47000000000E+01 0. -1.
          5    1    3    3  503    0  0.42717391553E+02 -0.57083339847E+02  0.85973621323E+02  0.11178925169E+03  0.47000000000E+01 0. -1.
         -5    1    3    3    0  503 -0.46910971070E+02  0.12373042992E+02  0.16644595892E+03  0.17343609383E+03  0.47000000000E+01 0. -1.
<mgrwt>
<rscale>  0 0.13282191E+03</rscale>
<asrwt>0</asrwt>
<pdfrwt beam="2">  1        5 0.75762341E-02 0.13282669E+03</pdfrwt>
<pdfrwt beam="1">  1       -5 0.62018681E-01 0.13282669E+03</pdfrwt>
<totfact> 0.22183784E+02</totfact>
</mgrwt>
</event>
<event>
 8    1  0.3759079E-007  0.1300676E+03  0.7546771E-02  0.1227357E+00
         -5   -1    0    0    0  501 -0.00000000000E+00  0.00000000000E+00  0.13563193565E+04  0.13563274998E+04  0.47000000000E+01 0. -1.
          5   -1    0    0  501    0  0.00000000000E+00 -0.00000000000E+00 -0.12426071202E+02  0.13285226589E+02  0.47000000000E+01 0. -1.
         25    2    1    2    0    0  0.21746344045E+02  0.28612889779E+02  0.55255429585E+03  0.56765643085E+03  0.12500389066E+03 0.  0.
         25    2    1    2    0    0 -0.21746344045E+02 -0.28612889779E+02  0.79133898942E+03  0.80195629555E+03  0.12499961143E+03 0.  0.
          5    1    3    3  502    0  0.44634592724E+02  0.65167088658E+02  0.25612483227E+03  0.26806905084E+03  0.47000000000E+01 0. -1.
         -5    1    3    3    0  502 -0.22888248679E+02 -0.36554198878E+02  0.29642946359E+03  0.29958738002E+03  0.47000000000E+01 0. -1.
          5    1    4    4  503    0  0.78184831147E+01 -0.73232735548E+02  0.53333396585E+03  0.53841561211E+03  0.47000000000E+01 0. -1.
         -5    1    4    4    0  503 -0.29564827160E+02  0.44619845768E+02  0.25800502357E+03  0.26354068344E+03  0.47000000000E+01 0. -1.
<mgrwt>
<rscale>  0 0.13006655E+03</rscale>
<asrwt>0</asrwt>
<pdfrwt beam="2">  1        5 0.19784187E-02 0.13006757E+03</pdfrwt>
<pdfrwt beam="1">  1       -5 0.20873122E+00 0.13006757E+03</pdfrwt>
<totfact> 0.88708820E+01</totfact>
</mgrwt>
</event>
<event>
 8    1  0.3759079E-007  0.1435847E+03  0.7546771E-02  0.1208586E+00
          5   -1    0    0  501    0  0.00000000000E+00  0.00000000000E+00  0.11963892871E+02  0.12853977308E+02  0.47000000000E+01 0. -1.
         -5   -1    0    0    0  501 -0.00000000000E+00 -0.00000000000E+00 -0.21421869170E+04  0.21421920730E+04  0.47000000000E+01 0. -1.
         25    2    1    2    0    0 -0.45379203612E+02  0.54159303018E+02 -0.15759619417E+04  0.15824893668E+04  0.12499620833E+03 0.  0.
         25    2    1    2    0    0  0.45379203612E+02 -0.54159303018E+02 -0.55426108251E+03  0.57255668353E+03  0.12499322403E+03 0.  0.
          5    1    3    3  502    0  0.14781877077E+02 -0.22747509851E+02 -0.11457884563E+03  0.11784037916E+03  0.47000000000E+01 0. -1.
         -5    1    3    3    0  502 -0.60161080688E+02  0.76906812869E+02 -0.14613830960E+04  0.14646489876E+04  0.47000000000E+01 0. -1.
          5    1    4    4  503    0  0.49391586281E+02  0.16484633014E+02 -0.10047717685E+03  0.11326528589E+03  0.47000000000E+01 0.  1.
         -5    1    4    4    0  503 -0.40123826694E+01 -0.70643936031E+02 -0.45378390566E+03  0.45929139764E+03  0.47000000000E+01 0.  1.
<mgrwt>
<rscale>  0 0.14358401E+03</rscale>
<asrwt>0</asrwt>
<pdfrwt beam="1">  1        5 0.19094653E-02 0.14358466E+03</pdfrwt>
<pdfrwt beam="2">  1       -5 0.32963579E+00 0.14358466E+03</pdfrwt>
<totfact> 0.16343183E+01</totfact>
</mgrwt>
</event>
<event>
 8    1  0.3759079E-007  0.1419069E+03  0.7546771E-02  0.1210793E+00
         -5   -1    0    0    0  501 -0.00000000000E+00  0.00000000000E+00  0.10224296472E+02  0.11252832459E+02  0.47000000000E+01 0. -1.
          5   -1    0    0  501    0  0.00000000000E+00 -0.00000000000E+00 -0.19809066906E+04  0.19809122663E+04  0.47000000000E+01 0. -1.
         25    2    1    2    0    0  0.65589120266E+02 -0.14239978739E+02 -0.75401772820E+03  0.76725504557E+03  0.12503143936E+03 0.  0.
         25    2    1    2    0    0 -0.65589120266E+02  0.14239978739E+02 -0.12166646659E+04  0.12249100532E+04  0.12500807748E+03 0.  0.
          5    1    4    4  502    0 -0.46269989140E+02  0.13791677499E+02 -0.14192493608E+03  0.14998633186E+03  0.47000000000E+01 0. -1.
         -5    1    4    4    0  502 -0.19319131125E+02  0.44830124024E+00 -0.10747397298E+04  0.10749237213E+04  0.47000000000E+01 0. -1.
          5    1    3    3  503    0  0.85843182115E+02 -0.43343911518E+02 -0.65368459325E+03  0.66073700066E+03  0.47000000000E+01 0. -1.
         -5    1    3    3    0  503 -0.20254061849E+02  0.29103932779E+02 -0.10033313494E+03  0.10651804491E+03  0.47000000000E+01 0. -1.
<mgrwt>
<rscale>  0 0.14190176E+03</rscale>
<asrwt>0</asrwt>
<pdfrwt beam="2">  1        5 0.30483413E+00 0.14190691E+03</pdfrwt>
<pdfrwt beam="1">  1       -5 0.16525173E-02 0.14190691E+03</pdfrwt>
<totfact> 0.29507851E+01</totfact>
</mgrwt>
</event>
<event>
 8    1  0.3759079E-007  0.1283894E+03  0.7546771E-02  0.1229866E+00
         -5   -1    0    0    0  501 -0.00000000000E+00  0.00000000000E+00  0.31663523252E+02  0.32010446806E+02  0.47000000000E+01 0.  1.
          5   -1    0    0  501    0  0.00000000000E+00 -0.00000000000E+00 -0.51869357956E+03  0.51871487301E+03  0.47000000000E+01 0.  1.
         25    2    1    2    0    0  0.15195585630E+02  0.25057757882E+02 -0.22973490544E+03  0.26317666803E+03  0.12500013906E+03 0.  0.
         25    2    1    2    0    0 -0.15195585630E+02 -0.25057757882E+02 -0.25729515087E+03  0.28754865178E+03  0.12499854171E+03 0.  0.
          5    1    3    3  502    0 -0.22692975004E+02  0.67154427223E+02 -0.13926180970E+03  0.15633499241E+03  0.47000000000E+01 0. -1.
         -5    1    3    3    0  502  0.37888560634E+02 -0.42096669341E+02 -0.90473095736E+02  0.10684167562E+03  0.47000000000E+01 0. -1.
          5    1    4    4  503    0  0.24025044369E+02 -0.64458531978E+02 -0.17529466088E+03  0.18836776060E+03  0.47000000000E+01 0.  1.
         -5    1    4    4    0  503 -0.39220629999E+02  0.39400774097E+02 -0.82000489992E+02  0.99180891183E+02  0.47000000000E+01 0.  1.
<mgrwt>
<rscale>  0 0.12838899E+03</rscale>
<asrwt>0</asrwt>
<pdfrwt beam="2">  1        5 0.79827331E-01 0.12838938E+03</pdfrwt>
<pdfrwt beam="1">  1       -5 0.48996360E-02 0.12838938E+03</pdfrwt>
<totfact> 0.25820630E+02</totfact>
</mgrwt>
</event>
<event>
 8    1  0.3759079E-007  0.1577311E+03  0.7546771E-02  0.1191290E+00
          5   -1    0    0  501    0  0.00000000000E+00  0.00000000000E+00  0.67083880512E+03  0.67085526938E+03  0.47000000000E+01 0.  1.
         -5   -1    0    0    0  501 -0.00000000000E+00 -0.00000000000E+00 -0.39095957718E+02  0.39377454335E+02  0.47000000000E+01 0.  1.
         25    2    1    2    0    0  0.90925301224E+02  0.31419156085E+02  0.23233615749E+03  0.28081879515E+03  0.12499812744E+03 0.  0.
         25    2    1    2    0    0 -0.90925301224E+02 -0.31419156085E+02  0.39940668992E+03  0.42941392856E+03  0.12496417216E+03 0.  0.
          5    1    4    4  502    0  0.18558903782E+02 -0.33517333074E+02  0.49672210001E+02  0.62906780019E+02  0.47000000000E+01 0.  1.
         -5    1    4    4    0  502 -0.10948420501E+03  0.20981769886E+01  0.34973447992E+03  0.36650714854E+03  0.47000000000E+01 0.  1.
          5    1    3    3  503    0  0.11132311732E+03  0.49017184601E+02  0.14510714704E+03  0.18940352414E+03  0.47000000000E+01 0.  1.
         -5    1    3    3    0  503 -0.20397816101E+02 -0.17598028515E+02  0.87229010451E+02  0.91415271009E+02  0.47000000000E+01 0.  1.
<mgrwt>
<rscale>  0 0.15772439E+03</rscale>
<asrwt>0</asrwt>
<pdfrwt beam="1">  1        5 0.10322888E+00 0.15773112E+03</pdfrwt>
<pdfrwt beam="2">  1       -5 0.60376831E-02 0.15773112E+03</pdfrwt>
<totfact> 0.10564974E+02</totfact>
</mgrwt>
</event>
<event>
 8    1  0.3759079E-007  0.1765272E+03  0.7546771E-02  0.1171210E+00
          5   -1    0    0  501    0  0.00000000000E+00  0.00000000000E+00  0.12494883865E+03  0.12503720359E+03  0.47000000000E+01 0.  1.
         -5   -1    0    0    0  501 -0.00000000000E+00 -0.00000000000E+00 -0.27858984907E+03  0.27862949235E+03  0.47000000000E+01 0.  1.
         25    2    1    2    0    0 -0.67367933017E+01 -0.12444210154E+03 -0.14238060906E+03  0.22678069898E+03  0.12500410623E+03 0.  0.
         25    2    1    2    0    0  0.67367933017E+01  0.12444210154E+03 -0.11260401360E+02  0.17688599696E+03  0.12502255101E+03 0.  0.
          5    1    4    4  502    0  0.21427549639E+02  0.89768396076E+02 -0.63640100658E+02  0.11220364178E+03  0.47000000000E+01 0. -1.
         -5    1    4    4    0  502 -0.14690756338E+02  0.34673705461E+02  0.52379699298E+02  0.64682355173E+02  0.47000000000E+01 0. -1.
          5    1    3    3  503    0  0.39085606660E+02 -0.10815711454E+03 -0.57070329295E+02  0.12847084712E+03  0.47000000000E+01 0.  1.
         -5    1    3    3    0  503 -0.45822399961E+02 -0.16284987000E+02 -0.85310279763E+02  0.98309851861E+02  0.47000000000E+01 0.  1.
<mgrwt>
<rscale>  0 0.17652395E+03</rscale>
<asrwt>0</asrwt>
<pdfrwt beam="1">  1        5 0.19232745E-01 0.17652722E+03</pdfrwt>
<pdfrwt beam="2">  1       -5 0.42869824E-01 0.17652722E+03</pdfrwt>
<totfact> 0.10176586E+02</totfact>
</mgrwt>
</event>
<event>
 8    1  0.3759079E-007  0.1363419E+03  0.7546771E-02  0.1218341E+00
         -5   -1    0    0    0  501 -0.00000000000E+00  0.00000000000E+00  0.15818058152E+03  0.15825039138E+03  0.47000000000E+01 0.  1.
          5   -1    0    0  501    0  0.00000000000E+00 -0.00000000000E+00 -0.11784327232E+03  0.11793696126E+03  0.47000000000E+01 0.  1.
         25    2    1    2    0    0 -0.52603573535E+02 -0.13975959466E+02  0.28935043436E+02  0.13937844160E+03  0.12500659924E+03 0.  0.
         25    2    1    2    0    0  0.52603573535E+02  0.13975959466E+02  0.11402265765E+02  0.13680891104E+03  0.12499681229E+03 0.  0.
          5    1    4    4  502    0 -0.27503581837E+02  0.34889449081E+01  0.41785527424E+02  0.50366060522E+02  0.47000000000E+01 0.  1.
         -5    1    4    4    0  502  0.80107155372E+02  0.10487014557E+02 -0.30383261659E+02  0.86442850515E+02  0.47000000000E+01 0.  1.
          5    1    3    3  503    0  0.23642416859E+02 -0.42063486112E+02  0.31727477877E+02  0.57939827332E+02  0.47000000000E+01 0. -1.
         -5    1    3    3    0  503 -0.76245990394E+02  0.28087526646E+02 -0.27924344407E+01  0.81438614271E+02  0.47000000000E+01 0. -1.
<mgrwt>
<rscale>  0 0.13633965E+03</rscale>
<asrwt>0</asrwt>
<pdfrwt beam="2">  1        5 0.18142311E-01 0.13634190E+03</pdfrwt>
<pdfrwt beam="1">  1       -5 0.24348051E-01 0.13634190E+03</pdfrwt>
<totfact> 0.32164767E+02</totfact>
</mgrwt>
</event>
<event>
 8    1  0.3759079E-007  0.1326493E+03  0.7546771E-02  0.1223577E+00
         -5   -1    0    0    0  501 -0.00000000000E+00  0.00000000000E+00  0.66884820113E+02  0.67049751390E+02  0.47000000000E+01 0. -1.
          5   -1    0    0  501    0  0.00000000000E+00 -0.00000000000E+00 -0.32505055429E+03  0.32508453185E+03  0.47000000000E+01 0. -1.
         25    2    1    2    0    0  0.21291909516E+02 -0.38905602487E+02 -0.43145627875E+02  0.13948928710E+03  0.12501489790E+03 0.  0.
         25    2    1    2    0    0 -0.21291909516E+02  0.38905602487E+02 -0.21502010630E+03  0.25264499613E+03  0.12501542561E+03 0.  0.
          5    1    4    4  502    0  0.15862547273E+02  0.54937111672E+01 -0.19928721723E+03  0.20004820974E+03  0.47000000000E+01 0. -1.
         -5    1    4    4    0  502 -0.37154456789E+02  0.33411891320E+02 -0.15732889078E+02  0.52596786400E+02  0.47000000000E+01 0. -1.
          5    1    3    3  503    0  0.22017764721E+02  0.32900649252E+02  0.19224109289E+02  0.44259361298E+02  0.47000000000E+01 0. -1.
         -5    1    3    3    0  503 -0.72585520480E+00 -0.71806251739E+02 -0.62369737165E+02  0.95229925804E+02  0.47000000000E+01 0. -1.
<mgrwt>
<rscale>  0 0.13264922E+03</rscale>
<asrwt>0</asrwt>
<pdfrwt beam="2">  1        5 0.50023077E-01 0.13264934E+03</pdfrwt>
<pdfrwt beam="1">  1       -5 0.10305273E-01 0.13264934E+03</pdfrwt>
<totfact> 0.20729109E+02</totfact>
</mgrwt>
</event>
<event>
 8    1  0.3759079E-007  0.1467854E+03  0.7546771E-02  0.1204480E+00
         -5   -1    0    0    0  501 -0.00000000000E+00  0.00000000000E+00  0.90160777416E+02  0.90283197685E+02  0.47000000000E+01 0.  1.
          5   -1    0    0  501    0  0.00000000000E+00 -0.00000000000E+00 -0.28614459102E+03  0.28618318779E+03  0.47000000000E+01 0.  1.
         25    2    1    2    0    0 -0.26104183292E+02  0.72382500265E+02 -0.21336226304E+02  0.14832667733E+03  0.12499965570E+03 0.  0.
         25    2    1    2    0    0  0.26104183292E+02 -0.72382500265E+02 -0.17464758730E+03  0.22813970814E+03  0.12500116780E+03 0.  0.
          5    1    3    3  502    0 -0.92012801389E+01  0.31823700094E+02  0.52512426531E+02  0.62266013073E+02  0.47000000000E+01 0.  1.
         -5    1    3    3    0  502 -0.16902903153E+02  0.40558800171E+02 -0.73848652834E+02  0.86060664253E+02  0.47000000000E+01 0.  1.
          5    1    4    4  503    0  0.71126915925E+02 -0.62825451639E+02 -0.14442487774E+03  0.17287773383E+03  0.47000000000E+01 0.  1.
         -5    1    4    4    0  503 -0.45022732633E+02 -0.95570486261E+01 -0.30222709562E+02  0.55261974317E+02  0.47000000000E+01 0.  1.
<mgrwt>
<rscale>  0 0.14678505E+03</rscale>
<asrwt>0</asrwt>
<pdfrwt beam="2">  1        5 0.44034630E-01 0.14678538E+03</pdfrwt>
<pdfrwt beam="1">  1       -5 0.13883275E-01 0.14678538E+03</pdfrwt>
<totfact> 0.16516465E+02</totfact>
</mgrwt>
</event>
<event>
 8    1  0.3759079E-007  0.1526545E+03  0.7546771E-02  0.1197249E+00
          5   -1    0    0  501    0  0.00000000000E+00  0.00000000000E+00  0.61887306719E+02  0.62065519678E+02  0.47000000000E+01 0. -1.
         -5   -1    0    0    0  501 -0.00000000000E+00 -0.00000000000E+00 -0.43143220661E+03  0.43145780663E+03  0.47000000000E+01 0. -1.
         25    2    1    2    0    0  0.34501075314E+02 -0.80545506808E+02 -0.27335520559E+03  0.31309177751E+03  0.12500195940E+03 0.  0.
         25    2    1    2    0    0 -0.34501075314E+02  0.80545506808E+02 -0.96189694296E+02  0.18043154880E+03  0.12500073459E+03 0.  0.
          5    1    3    3  502    0 -0.40493151074E+02 -0.47128781354E+02 -0.69886580391E+02  0.93632480660E+02  0.47000000000E+01 0. -1.
         -5    1    3    3    0  502  0.74994226388E+02 -0.33416725454E+02 -0.20346862520E+03  0.21945929685E+03  0.47000000000E+01 0. -1.
          5    1    4    4  503    0 -0.13839105853E+02 -0.18559705209E+02 -0.72641859485E+02  0.76386603915E+02  0.47000000000E+01 0.  1.
         -5    1    4    4    0  503 -0.20661969461E+02  0.99105212016E+02 -0.23547834810E+02  0.10404494488E+03  0.47000000000E+01 0.  1.
<mgrwt>
<rscale>  0 0.15265424E+03</rscale>
<asrwt>0</asrwt>
<pdfrwt beam="1">  1        5 0.95368023E-02 0.15265449E+03</pdfrwt>
<pdfrwt beam="2">  1       -5 0.66389862E-01 0.15265449E+03</pdfrwt>
<totfact> 0.13427894E+02</totfact>
</mgrwt>
</event>
<event>
 8    1  0.3759079E-007  0.1630228E+03  0.7546771E-02  0.1185326E+00
          5   -1    0    0  501    0  0.00000000000E+00  0.00000000000E+00  0.23229705075E+03  0.23234459277E+03  0.47000000000E+01 0. -1.
         -5   -1    0    0    0  501 -0.00000000000E+00 -0.00000000000E+00 -0.11496552568E+03  0.11506155785E+03  0.47000000000E+01 0. -1.
         25    2    1    2    0    0 -0.90382889777E+02  0.52747013729E+02  0.45448369311E+02  0.16923873472E+03  0.12499952334E+03 0.  0.
         25    2    1    2    0    0  0.90382889777E+02 -0.52747013729E+02  0.71883155763E+02  0.17816741589E+03  0.12500050313E+03 0.  0.
          5    1    4    4  502    0  0.82214596036E+02 -0.67349744788E+02  0.99417939403E+02  0.14560647170E+03  0.47000000000E+01 0. -1.
         -5    1    4    4    0  502  0.81682937411E+01  0.14602731059E+02 -0.27534783640E+02  0.32560944199E+02  0.47000000000E+01 0. -1.
          5    1    3    3  503    0  0.74957816425E+01 -0.27028468843E+02 -0.11453330258E+02  0.30659315785E+02  0.47000000000E+01 0. -1.
         -5    1    3    3    0  503 -0.97878671420E+02  0.79775482572E+02  0.56901699570E+02  0.13857941893E+03  0.47000000000E+01 0. -1.
<mgrwt>
<rscale>  0 0.16302263E+03</rscale>
<asrwt>0</asrwt>
<pdfrwt beam="1">  1        5 0.35749052E-01 0.16302282E+03</pdfrwt>
<pdfrwt beam="2">  1       -5 0.17698048E-01 0.16302282E+03</pdfrwt>
<totfact> 0.16817934E+02</totfact>
</mgrwt>
</event>
<event>
 8    1  0.3759079E-007  0.2769605E+03  0.7546771E-02  0.1097361E+00
         -5   -1    0    0    0  501 -0.00000000000E+00  0.00000000000E+00  0.16142545165E+04  0.16142613587E+04  0.47000000000E+01 0. -1.
          5   -1    0    0  501    0  0.00000000000E+00 -0.00000000000E+00 -0.16173281074E+03  0.16180108798E+03  0.47000000000E+01 0.  1.
         25    2    1    2    0    0  0.10666135452E+03 -0.22294677782E+03  0.14725590795E+04  0.14983781113E+04  0.12499924607E+03 0.  0.
         25    2    1    2    0    0 -0.10666135452E+03  0.22294677782E+03 -0.20037373690E+02  0.27768433538E+03  0.12500073392E+03 0.  0.
          5    1    4    4  502    0 -0.12352417710E+03  0.19693817569E+03  0.12040583249E+02  0.23283026654E+03  0.47000000000E+01 0.  1.
         -5    1    4    4    0  502  0.16862822575E+02  0.26008602131E+02 -0.32077956940E+02  0.44854068839E+02  0.47000000000E+01 0.  1.
          5    1    3    3  503    0  0.66087017580E+02 -0.21606328683E+03  0.13554204075E+04  0.13741315108E+04  0.47000000000E+01 0. -1.
         -5    1    3    3    0  503  0.40574336943E+02 -0.68834909907E+01  0.11713867196E+03  0.12424660050E+03  0.47000000000E+01 0. -1.
<mgrwt>
<rscale>  0 0.27696029E+03</rscale>
<asrwt>0</asrwt>
<pdfrwt beam="2">  1        5 0.24887750E-01 0.27696046E+03</pdfrwt>
<pdfrwt beam="1">  1       -5 0.24835262E+00 0.27696046E+03</pdfrwt>
<totfact> 0.72537885E-01</totfact>
</mgrwt>
</event>
<event>
 8    1  0.3759079E-007  0.2276703E+03  0.7546771E-02  0.1128291E+00
          5   -1    0    0  501    0  0.00000000000E+00  0.00000000000E+00  0.30850417676E+03  0.30853997647E+03  0.47000000000E+01 0. -1.
         -5   -1    0    0    0  501 -0.00000000000E+00 -0.00000000000E+00 -0.29102230711E+03  0.29106025706E+03  0.47000000000E+01 0. -1.
         25    2    1    2    0    0 -0.83581248062E+02  0.17094645908E+03 -0.18620140594E+03  0.29411598603E+03  0.12499893106E+03 0.  0.
         25    2    1    2    0    0  0.83581248062E+02 -0.17094645908E+03  0.20368327558E+03  0.30548424749E+03  0.12500092725E+03 0.  0.
          5    1    4    4  502    0 -0.20066210504E+02 -0.63826581979E+02  0.22333038617E+02  0.70691866470E+02  0.47000000000E+01 0. -1.
         -5    1    4    4    0  502  0.10364745857E+03 -0.10711987710E+03  0.18135023697E+03  0.23479238102E+03  0.47000000000E+01 0. -1.
          5    1    3    3  503    0  0.21426156412E+02  0.98834712974E+01 -0.58497377618E+02  0.63251848761E+02  0.47000000000E+01 0.  1.
         -5    1    3    3    0  503 -0.10500740447E+03  0.16106298778E+03 -0.12770402832E+03  0.23086413727E+03  0.47000000000E+01 0.  1.
<mgrwt>
<rscale>  0 0.22766999E+03</rscale>
<asrwt>0</asrwt>
<pdfrwt beam="1">  1        5 0.47467854E-01 0.22767026E+03</pdfrwt>
<pdfrwt beam="2">  1       -5 0.44778336E-01 0.22767026E+03</pdfrwt>
<totfact> 0.16555416E+01</totfact>
</mgrwt>
</event>
<event>
 8    1  0.3759079E-007  0.1292414E+03  0.7546771E-02  0.1228586E+00
         -5   -1    0    0    0  501 -0.00000000000E+00  0.00000000000E+00  0.69608152305E+02  0.69766645809E+02  0.47000000000E+01 0. -1.
          5   -1    0    0  501    0  0.00000000000E+00 -0.00000000000E+00 -0.24568931923E+03  0.24573427027E+03  0.47000000000E+01 0. -1.
         25    2    1    2    0    0  0.25887586673E+02  0.20230446449E+02 -0.63023920401E+02  0.14378924021E+03  0.12499557172E+03 0.  0.
         25    2    1    2    0    0 -0.25887586673E+02 -0.20230446449E+02 -0.11305724652E+03  0.17171167587E+03  0.12499408198E+03 0.  0.
          5    1    3    3  502    0  0.75086930668E+02 -0.12710590093E+01 -0.39485959979E+02  0.84975842353E+02  0.47000000000E+01 0.  1.
         -5    1    3    3    0  502 -0.49199343995E+02  0.21501505458E+02 -0.23537960423E+02  0.58813397856E+02  0.47000000000E+01 0.  1.
          5    1    4    4  503    0 -0.54379990207E+02 -0.14540834580E+02 -0.12711036607E+03  0.13909620544E+03  0.47000000000E+01 0. -1.
         -5    1    4    4    0  503  0.28492403534E+02 -0.56896118690E+01  0.14053119545E+02  0.32615470429E+02  0.47000000000E+01 0. -1.
<mgrwt>
<rscale>  0 0.12924101E+03</rscale>
<asrwt>0</asrwt>
<pdfrwt beam="2">  1        5 0.37814006E-01 0.12924137E+03</pdfrwt>
<pdfrwt beam="1">  1       -5 0.10724596E-01 0.12924137E+03</pdfrwt>
<totfact> 0.34181304E+02</totfact>
</mgrwt>
</event>
<event>
 8    1  0.3759079E-007  0.1430792E+03  0.7546771E-02  0.1209248E+00
         -5   -1    0    0    0  501 -0.00000000000E+00  0.00000000000E+00  0.56667953397E+02  0.56862526696E+02  0.47000000000E+01 0.  1.
          5   -1    0    0  501    0  0.00000000000E+00 -0.00000000000E+00 -0.37934969660E+03  0.37937881110E+03  0.47000000000E+01 0.  1.
         25    2    1    2    0    0 -0.69425231943E+02  0.49371585992E+01 -0.11261125839E+03  0.18207953798E+03  0.12500969670E+03 0.  0.
         25    2    1    2    0    0  0.69425231943E+02 -0.49371585992E+01 -0.21007048481E+03  0.25416179981E+03  0.12499749409E+03 0.  0.
          5    1    4    4  502    0  0.47901546448E+02  0.27920593356E+02 -0.20715110442E+03  0.21449426041E+03  0.47000000000E+01 0.  1.
         -5    1    4    4    0  502  0.21523685495E+02 -0.32857751956E+02 -0.29193803964E+01  0.39667539409E+02  0.47000000000E+01 0.  1.
          5    1    3    3  503    0 -0.21676725282E+02 -0.52990839514E+02 -0.83657442085E+02  0.10148185605E+03  0.47000000000E+01 0. -1.
         -5    1    3    3    0  503 -0.47748506660E+02  0.57927998113E+02 -0.28953816304E+02  0.80597681929E+02  0.47000000000E+01 0. -1.
<mgrwt>
<rscale>  0 0.14307655E+03</rscale>
<asrwt>0</asrwt>
<pdfrwt beam="2">  1        5 0.58378697E-01 0.14307922E+03</pdfrwt>
<pdfrwt beam="1">  1       -5 0.87353537E-02 0.14307922E+03</pdfrwt>
<totfact> 0.20333339E+02</totfact>
</mgrwt>
</event>
<event>
 8    1  0.3759079E-007  0.1510808E+03  0.7546771E-02  0.1199153E+00
          5   -1    0    0  501    0  0.00000000000E+00  0.00000000000E+00  0.76539678405E+02  0.76683846867E+02  0.47000000000E+01 0. -1.
         -5   -1    0    0    0  501 -0.00000000000E+00 -0.00000000000E+00 -0.50881064401E+03  0.50883235103E+03  0.47000000000E+01 0. -1.
         25    2    1    2    0    0  0.76392455470E+02 -0.36929671011E+02 -0.40465283112E+03  0.43193669457E+03  0.12500314607E+03 0.  0.
         25    2    1    2    0    0 -0.76392455470E+02  0.36929671011E+02 -0.27618134485E+02  0.15357950333E+03  0.12499717852E+03 0.  0.
          5    1    3    3  502    0  0.86729809301E+02 -0.27195821684E+01 -0.37594037305E+03  0.38585322344E+03  0.47000000000E+01 0. -1.
         -5    1    3    3    0  502 -0.10337353831E+02 -0.34210088843E+02 -0.28712458069E+02  0.46083471128E+02  0.47000000000E+01 0. -1.
          5    1    4    4  503    0 -0.40339536784E+02  0.28414235301E+02  0.48154209288E+02  0.69105461924E+02  0.47000000000E+01 0. -1.
         -5    1    4    4    0  503 -0.36052918686E+02  0.85154357107E+01 -0.75772343772E+02  0.84474041409E+02  0.47000000000E+01 0. -1.
<mgrwt>
<rscale>  0 0.15107952E+03</rscale>
<asrwt>0</asrwt>
<pdfrwt beam="1">  1        5 0.11788095E-01 0.15108075E+03</pdfrwt>
<pdfrwt beam="2">  1       -5 0.78291318E-01 0.15108075E+03</pdfrwt>
<totfact> 0.63430902E+01</totfact>
</mgrwt>
</event>
<event>
 8    1  0.3759079E-007  0.1754821E+03  0.7546771E-02  0.1172250E+00
          5   -1    0    0  501    0  0.00000000000E+00  0.00000000000E+00  0.26134589717E+04  0.26134631979E+04  0.47000000000E+01 0. -1.
         -5   -1    0    0    0  501 -0.00000000000E+00 -0.00000000000E+00 -0.12757730088E+02  0.13595943402E+02  0.47000000000E+01 0. -1.
         25    2    1    2    0    0  0.66896124563E+02 -0.10340853905E+03  0.87247782496E+03  0.88994942917E+03  0.12499605597E+03 0.  0.
         25    2    1    2    0    0 -0.66896124563E+02  0.10340853905E+03  0.17282234166E+04  0.17371097121E+04  0.12500222665E+03 0.  0.
          5    1    4    4  502    0 -0.23529489759E+02  0.12064098885E+03  0.14226877824E+04  0.14279952736E+04  0.47000000000E+01 0. -1.
         -5    1    4    4    0  502 -0.43366634804E+02 -0.17232449804E+02  0.30553563423E+03  0.30911443856E+03  0.47000000000E+01 0. -1.
          5    1    3    3  503    0  0.99790772473E+02 -0.49409310923E+02  0.59125572909E+03  0.60166843482E+03  0.47000000000E+01 0. -1.
         -5    1    3    3    0  503 -0.32894647910E+02 -0.53999228126E+02  0.28122209587E+03  0.28828099436E+03  0.47000000000E+01 0. -1.
<mgrwt>
<rscale>  0 0.17548102E+03</rscale>
<asrwt>0</asrwt>
<pdfrwt beam="1">  1        5 0.40213492E+00 0.17548212E+03</pdfrwt>
<pdfrwt beam="2">  1       -5 0.20275332E-02 0.17548212E+03</pdfrwt>
<totfact> 0.50052827E+00</totfact>
</mgrwt>
</event>
<event>
 8    1  0.3759079E-007  0.1616410E+03  0.7546771E-02  0.1186857E+00
          5   -1    0    0  501    0  0.00000000000E+00  0.00000000000E+00  0.65166984787E+02  0.65336252618E+02  0.47000000000E+01 0.  1.
         -5   -1    0    0    0  501 -0.00000000000E+00 -0.00000000000E+00 -0.47473032361E+03  0.47475358888E+03  0.47000000000E+01 0.  1.
         25    2    1    2    0    0 -0.60076871942E+02  0.83030588475E+02 -0.31173593458E+03  0.35115112749E+03  0.12499804904E+03 0.  0.
         25    2    1    2    0    0  0.60076871942E+02 -0.83030588475E+02 -0.97827404247E+02  0.18893871401E+03  0.12499730984E+03 0.  0.
          5    1    4    4  502    0  0.20879742890E+02 -0.76132289891E+02 -0.11956064166E+03  0.14334896673E+03  0.47000000000E+01 0. -1.
         -5    1    4    4    0  502  0.39197129052E+02 -0.68982985837E+01  0.21733237412E+02  0.45589747287E+02  0.47000000000E+01 0. -1.
          5    1    3    3  503    0 -0.87230782914E+02  0.82497952198E+02 -0.17902953665E+03  0.21561258451E+03  0.47000000000E+01 0.  1.
         -5    1    3    3    0  503  0.27153910971E+02  0.53263627741E+00 -0.13270639793E+03  0.13553854298E+03  0.47000000000E+01 0.  1.
<mgrwt>
<rscale>  0 0.16164088E+03</rscale>
<asrwt>0</asrwt>
<pdfrwt beam="1">  1        5 0.10040500E-01 0.16164103E+03</pdfrwt>
<pdfrwt beam="2">  1       -5 0.73050243E-01 0.16164103E+03</pdfrwt>
<totfact> 0.10070186E+02</totfact>
</mgrwt>
</event>
<event>
 8    1  0.3759079E-007  0.1344475E+03  0.7546771E-02  0.1221002E+00
         -5   -1    0    0    0  501 -0.00000000000E+00  0.00000000000E+00  0.13872306135E+02  0.14646872618E+02  0.47000000000E+01 0. -1.
          5   -1    0    0  501    0  0.00000000000E+00 -0.00000000000E+00 -0.14330002656E+04  0.14330079732E+04  0.47000000000E+01 0. -1.
         25    2    1    2    0    0  0.26927669497E+02  0.41548199144E+02 -0.46316860004E+03  0.48228733460E+03  0.12499827525E+03 0.  0.
         25    2    1    2    0    0 -0.26927669497E+02 -0.41548199144E+02 -0.95595935941E+03  0.96536751118E+03  0.12499913030E+03 0.  0.
          5    1    3    3  502    0 -0.28457146500E+01  0.26203841013E+02 -0.44107715427E+03  0.44188899669E+03  0.47000000000E+01 0.  1.
         -5    1    3    3    0  502  0.29773384147E+02  0.15344358131E+02 -0.22091445777E+02  0.40398337918E+02  0.47000000000E+01 0.  1.
          5    1    4    4  503    0  0.12866660620E+02 -0.75450168850E+02 -0.69232245736E+03  0.69655635372E+03  0.47000000000E+01 0.  1.
         -5    1    4    4    0  503 -0.39794330117E+02  0.33901969705E+02 -0.26363690204E+03  0.26881115747E+03  0.47000000000E+01 0.  1.
<mgrwt>
<rscale>  0 0.13444732E+03</rscale>
<asrwt>0</asrwt>
<pdfrwt beam="2">  1        5 0.22052164E+00 0.13444752E+03</pdfrwt>
<pdfrwt beam="1">  1       -5 0.21943770E-02 0.13444752E+03</pdfrwt>
<totfact> 0.63597798E+01</totfact>
</mgrwt>
</event>
<event>
 8    1  0.3759079E-007  0.1272239E+03  0.7546771E-02  0.1231666E+00
         -5   -1    0    0    0  501 -0.00000000000E+00  0.00000000000E+00  0.35981981427E+02  0.36287642352E+02  0.47000000000E+01 0.  1.
          5   -1    0    0  501    0  0.00000000000E+00 -0.00000000000E+00 -0.59791231646E+03  0.59793078878E+03  0.47000000000E+01 0.  1.
         25    2    1    2    0    0 -0.58239899849E+01 -0.22931047650E+02 -0.12193326305E+03  0.17622039933E+03  0.12500462669E+03 0.  0.
         25    2    1    2    0    0  0.58239899849E+01  0.22931047650E+02 -0.43999707198E+03  0.45799803181E+03  0.12492006237E+03 0.  0.
          5    1    4    4  502    0 -0.42702320034E+02  0.53024258334E+02 -0.20257705247E+03  0.21376298158E+03  0.47000000000E+01 0. -1.
         -5    1    4    4    0  502  0.48526310019E+02 -0.30093210684E+02 -0.23742001951E+03  0.24423505022E+03  0.47000000000E+01 0. -1.
          5    1    3    3  503    0  0.37992134035E+02  0.11753150683E+02  0.20980125835E+01  0.40100255065E+02  0.47000000000E+01 0.  1.
         -5    1    3    3    0  503 -0.43816124020E+02 -0.34684198333E+02 -0.12403127564E+03  0.13612014426E+03  0.47000000000E+01 0.  1.
<mgrwt>
<rscale>  0 0.12720307E+03</rscale>
<asrwt>0</asrwt>
<pdfrwt beam="2">  1        5 0.92011436E-01 0.12722385E+03</pdfrwt>
<pdfrwt beam="1">  1       -5 0.55606232E-02 0.12722385E+03</pdfrwt>
<totfact> 0.14948414E+02</totfact>
</mgrwt>
</event>
<event>
 8    1  0.3759079E-007  0.1307492E+03  0.7546771E-02  0.1226356E+00
         -5   -1    0    0    0  501 -0.00000000000E+00  0.00000000000E+00  0.11346379584E+03  0.11356109794E+03  0.47000000000E+01 0.  1.
          5   -1    0    0  501    0  0.00000000000E+00 -0.00000000000E+00 -0.17503829431E+03  0.17510138341E+03  0.47000000000E+01 0.  1.
         25    2    1    2    0    0 -0.25555855553E+01 -0.38261351459E+02  0.23288750108E+02  0.13278714754E+03  0.12497839268E+03 0.  0.
         25    2    1    2    0    0  0.25555855553E+01  0.38261351459E+02 -0.84863248577E+02  0.15587533381E+03  0.12499954680E+03 0.  0.
          5    1    4    4  502    0  0.42087364791E+02 -0.25613184582E+02 -0.57317189417E+02  0.75728011344E+02  0.47000000000E+01 0. -1.
         -5    1    4    4    0  502 -0.39531779236E+02  0.63874536041E+02 -0.27546059160E+02  0.80147322471E+02  0.47000000000E+01 0. -1.
          5    1    3    3  503    0  0.11697597068E+01 -0.34353394818E+02 -0.49058742906E+02  0.60086390545E+02  0.47000000000E+01 0.  1.
         -5    1    3    3    0  503 -0.37253452621E+01 -0.39079566413E+01  0.72347493014E+02  0.72700756996E+02  0.47000000000E+01 0.  1.
<mgrwt>
<rscale>  0 0.13074413E+03</rscale>
<asrwt>0</asrwt>
<pdfrwt beam="2">  1        5 0.26941306E-01 0.13074918E+03</pdfrwt>
<pdfrwt beam="1">  1       -5 0.17468306E-01 0.13074918E+03</pdfrwt>
<totfact> 0.27980310E+02</totfact>
</mgrwt>
</event>
<event>
 8    1  0.3759079E-007  0.1257299E+03  0.7546771E-02  0.1233945E+00
         -5   -1    0    0    0  501 -0.00000000000E+00  0.00000000000E+00  0.14815860389E+03  0.14823313363E+03  0.47000000000E+01 0.  1.
          5   -1    0    0  501    0  0.00000000000E+00 -0.00000000000E+00 -0.12883936069E+03  0.12892505910E+03  0.47000000000E+01 0.  1.
         25    2    1    2    0    0  0.46880381552E+01 -0.12417395787E+02  0.67302005305E+02  0.14258350075E+03  0.12499730136E+03 0.  0.
         25    2    1    2    0    0 -0.46880381552E+01  0.12417395787E+02 -0.47982762111E+02  0.13457469198E+03  0.12502732838E+03 0.  0.
          5    1    3    3  502    0  0.10514120393E+02 -0.57348338525E+02 -0.32738241605E+01  0.58584866509E+02  0.47000000000E+01 0.  1.
         -5    1    3    3    0  502 -0.58260822373E+01  0.44930942738E+02  0.70575829465E+02  0.83998634240E+02  0.47000000000E+01 0.  1.
          5    1    4    4  503    0 -0.42966189770E+02  0.97902806031E+01 -0.75208171258E+02  0.87294341636E+02  0.47000000000E+01 0.  1.
         -5    1    4    4    0  503  0.38278151615E+02  0.26271151841E+01  0.27225409148E+02  0.47280350342E+02  0.47000000000E+01 0.  1.
<mgrwt>
<rscale>  0 0.12572241E+03</rscale>
<asrwt>0</asrwt>
<pdfrwt beam="2">  1        5 0.19833765E-01 0.12572988E+03</pdfrwt>
<pdfrwt beam="1">  1       -5 0.22805957E-01 0.12572988E+03</pdfrwt>
<totfact> 0.29992990E+02</totfact>
</mgrwt>
</event>
<event>
 8    1  0.3759079E-007  0.1421881E+03  0.7546771E-02  0.1210415E+00
         -5   -1    0    0    0  501 -0.00000000000E+00  0.00000000000E+00  0.13169916462E+03  0.13178300331E+03  0.47000000000E+01 0. -1.
          5   -1    0    0  501    0  0.00000000000E+00 -0.00000000000E+00 -0.16340416978E+03  0.16347174894E+03  0.47000000000E+01 0. -1.
         25    2    1    2    0    0 -0.28793470708E+02 -0.61347594965E+02  0.20761318547E+02  0.14369580826E+03  0.12499944640E+03 0.  0.
         25    2    1    2    0    0  0.28793470708E+02  0.61347594965E+02 -0.52466323709E+02  0.15155894399E+03  0.12499922806E+03 0.  0.
          5    1    3    3  502    0 -0.47755028518E+02 -0.66133020477E+02 -0.31599000498E+02  0.87605399255E+02  0.47000000000E+01 0.  1.
         -5    1    3    3    0  502  0.18961557810E+02  0.47854255113E+01  0.52360319045E+02  0.56090409006E+02  0.47000000000E+01 0.  1.
          5    1    4    4  503    0  0.20132129891E+01  0.37659834431E+02 -0.91100534292E+02  0.98710250249E+02  0.47000000000E+01 0.  1.
         -5    1    4    4    0  503  0.26780257719E+02  0.23687760535E+02  0.38634210583E+02  0.52848693740E+02  0.47000000000E+01 0.  1.
<mgrwt>
<rscale>  0 0.14218804E+03</rscale>
<asrwt>0</asrwt>
<pdfrwt beam="2">  1        5 0.25150751E-01 0.14218809E+03</pdfrwt>
<pdfrwt beam="1">  1       -5 0.20273057E-01 0.14218809E+03</pdfrwt>
<totfact> 0.24947584E+02</totfact>
</mgrwt>
</event>
<event>
 8    1  0.3759079E-007  0.1253452E+03  0.7546771E-02  0.1234532E+00
         -5   -1    0    0    0  501 -0.00000000000E+00  0.00000000000E+00  0.68089840892E+03  0.68091462995E+03  0.47000000000E+01 0.  1.
          5   -1    0    0  501    0  0.00000000000E+00 -0.00000000000E+00 -0.22952070876E+02  0.23428349440E+02  0.47000000000E+01 0.  1.
         25    2    1    2    0    0 -0.16539371638E+01 -0.91208694932E+01  0.30233698488E+03  0.32729051395E+03  0.12500200929E+03 0.  0.
         25    2    1    2    0    0  0.16539371638E+01  0.91208694932E+01  0.35560935317E+03  0.37705246544E+03  0.12499849544E+03 0.  0.
          5    1    4    4  502    0  0.32852085832E+02  0.57204722180E+02  0.15902843312E+03  0.17223174018E+03  0.47000000000E+01 0.  1.
         -5    1    4    4    0  502 -0.31198148668E+02 -0.48083852687E+02  0.19658092005E+03  0.20482072526E+03  0.47000000000E+01 0.  1.
          5    1    3    3  503    0 -0.42044156758E+02  0.42215111492E+02  0.13806084639E+03  0.15044172978E+03  0.47000000000E+01 0.  1.
         -5    1    3    3    0  503  0.40390219594E+02 -0.51335980985E+02  0.16427613849E+03  0.17684878416E+03  0.47000000000E+01 0.  1.
<mgrwt>
<rscale>  0 0.12534436E+03</rscale>
<asrwt>0</asrwt>
<pdfrwt beam="2">  1        5 0.35689721E-02 0.12534524E+03</pdfrwt>
<pdfrwt beam="1">  1       -5 0.10479149E+00 0.12534524E+03</pdfrwt>
<totfact> 0.22542593E+02</totfact>
</mgrwt>
</event>
<event>
 8    1  0.3759079E-007  0.2094031E+03  0.7546771E-02  0.1142040E+00
         -5   -1    0    0    0  501 -0.00000000000E+00  0.00000000000E+00  0.26565777965E+03  0.26569935244E+03  0.47000000000E+01 0.  1.
          5   -1    0    0  501    0  0.00000000000E+00 -0.00000000000E+00 -0.22109179083E+03  0.22114174182E+03  0.47000000000E+01 0.  1.
         25    2    1    2    0    0 -0.12832645884E+03  0.10842570712E+03  0.14489514297E+03  0.25464533407E+03  0.12500331879E+03 0.  0.
         25    2    1    2    0    0  0.12832645884E+03 -0.10842570712E+03 -0.10032915415E+03  0.23219576019E+03  0.12500047150E+03 0.  0.
          5    1    3    3  502    0 -0.60814757669E+02 -0.19485237868E+02  0.35303859898E+02  0.73120187149E+02  0.47000000000E+01 0. -1.
         -5    1    3    3    0  502 -0.67511701167E+02  0.12791094498E+03  0.10959128307E+03  0.18152514692E+03  0.47000000000E+01 0. -1.
          5    1    4    4  503    0 -0.50915028682E+01 -0.69906111406E+02 -0.28860751951E+02  0.75946170519E+02  0.47000000000E+01 0. -1.
         -5    1    4    4    0  503  0.13341796170E+03 -0.38519595711E+02 -0.71468402194E+02  0.15624958967E+03  0.47000000000E+01 0. -1.
<mgrwt>
<rscale>  0 0.20940264E+03</rscale>
<asrwt>0</asrwt>
<pdfrwt beam="2">  1        5 0.34021162E-01 0.20940307E+03</pdfrwt>
<pdfrwt beam="1">  1       -5 0.40877468E-01 0.20940307E+03</pdfrwt>
<totfact> 0.39017705E+01</totfact>
</mgrwt>
</event>
<event>
 8    1  0.3759079E-007  0.1706285E+03  0.7546771E-02  0.1177195E+00
         -5   -1    0    0    0  501 -0.00000000000E+00  0.00000000000E+00  0.13162447433E+04  0.13162531345E+04  0.47000000000E+01 0.  1.
          5   -1    0    0  501    0  0.00000000000E+00 -0.00000000000E+00 -0.50695810402E+02  0.50913212356E+02  0.47000000000E+01 0.  1.
         25    2    1    2    0    0  0.66858360212E+02  0.94966565146E+02  0.11464682186E+04  0.11590959683E+04  0.12500159450E+03 0.  0.
         25    2    1    2    0    0 -0.66858360212E+02 -0.94966565146E+02  0.11908071426E+03  0.20807037860E+03  0.12499750843E+03 0.  0.
          5    1    4    4  502    0  0.22214545900E+02 -0.74275887857E+01  0.69719323159E+02  0.73698908720E+02  0.47000000000E+01 0.  1.
         -5    1    4    4    0  502 -0.89072906111E+02 -0.87538976360E+02  0.49361391103E+02  0.13437146988E+03  0.47000000000E+01 0.  1.
          5    1    3    3  503    0 -0.14379083655E+02  0.70540203400E+02  0.30810211117E+03  0.31643590070E+03  0.47000000000E+01 0.  1.
         -5    1    3    3    0  503  0.81237443866E+02  0.24426361746E+02  0.83836610743E+03  0.84266006760E+03  0.47000000000E+01 0.  1.
<mgrwt>
<rscale>  0 0.17062776E+03</rscale>
<asrwt>0</asrwt>
<pdfrwt beam="2">  1        5 0.78167236E-02 0.17062851E+03</pdfrwt>
<pdfrwt beam="1">  1       -5 0.20251658E+00 0.17062851E+03</pdfrwt>
<totfact> 0.10966756E+01</totfact>
</mgrwt>
</event>
<event>
 8    1  0.3759079E-007  0.1503380E+03  0.7546771E-02  0.1200059E+00
          5   -1    0    0  501    0  0.00000000000E+00  0.00000000000E+00  0.12008331731E+03  0.12017525991E+03  0.47000000000E+01 0.  1.
         -5   -1    0    0    0  501 -0.00000000000E+00 -0.00000000000E+00 -0.22081167975E+03  0.22086169409E+03  0.47000000000E+01 0.  1.
         25    2    1    2    0    0  0.15363798861E+02 -0.82101545876E+02 -0.11605298152E+03  0.18991989594E+03  0.12499824879E+03 0.  0.
         25    2    1    2    0    0 -0.15363798861E+02  0.82101545876E+02  0.15324619073E+02  0.15111705807E+03  0.12499924455E+03 0.  0.
          5    1    4    4  502    0 -0.34790970942E+02  0.10818755445E+03 -0.24248207630E+01  0.11376699149E+03  0.47000000000E+01 0.  1.
         -5    1    4    4    0  502  0.19427172080E+02 -0.26086008578E+02  0.17749439836E+02  0.37350066574E+02  0.47000000000E+01 0.  1.
          5    1    3    3  503    0 -0.42624280704E+02 -0.21533280947E+02 -0.89991594797E+02  0.10198572757E+03  0.47000000000E+01 0.  1.
         -5    1    3    3    0  503  0.57988079565E+02 -0.60568264928E+02 -0.26061386726E+02  0.87934168365E+02  0.47000000000E+01 0.  1.
<mgrwt>
<rscale>  0 0.15033782E+03</rscale>
<asrwt>0</asrwt>
<pdfrwt beam="1">  1        5 0.18485276E-01 0.15033802E+03</pdfrwt>
<pdfrwt beam="2">  1       -5 0.33981947E-01 0.15033802E+03</pdfrwt>
<totfact> 0.16740654E+02</totfact>
</mgrwt>
</event>
<event>
 8    1  0.3759079E-007  0.1299048E+03  0.7546771E-02  0.1227598E+00
         -5   -1    0    0    0  501 -0.00000000000E+00  0.00000000000E+00  0.38747319587E+03  0.38750170002E+03  0.47000000000E+01 0.  1.
          5   -1    0    0  501    0  0.00000000000E+00 -0.00000000000E+00 -0.45541763549E+02  0.45783645848E+02  0.47000000000E+01 0.  1.
         25    2    1    2    0    0 -0.33386298560E+02  0.11617563104E+02  0.12406364616E+03  0.17963031488E+03  0.12500259606E+03 0.  0.
         25    2    1    2    0    0  0.33386298560E+02 -0.11617563104E+02  0.21786778617E+03  0.25365503099E+03  0.12499955917E+03 0.  0.
          5    1    3    3  502    0 -0.33561834173E+02  0.17003613968E+02  0.14896915928E+03  0.15371863913E+03  0.47000000000E+01 0.  1.
         -5    1    3    3    0  502  0.17553561362E+00 -0.53860508643E+01 -0.24905513116E+02  0.25911675751E+02  0.47000000000E+01 0.  1.
          5    1    4    4  503    0  0.56430426457E+02 -0.54181758046E+02  0.10737504211E+03  0.13293436577E+03  0.47000000000E+01 0.  1.
         -5    1    4    4    0  503 -0.23044127898E+02  0.42564194942E+02  0.11049274406E+03  0.12072066522E+03  0.47000000000E+01 0.  1.
<mgrwt>
<rscale>  0 0.12990409E+03</rscale>
<asrwt>0</asrwt>
<pdfrwt beam="2">  1        5 0.70272243E-02 0.12990482E+03</pdfrwt>
<pdfrwt beam="1">  1       -5 0.59632058E-01 0.12990482E+03</pdfrwt>
<totfact> 0.27261124E+02</totfact>
</mgrwt>
</event>
<event>
 8    1  0.3759079E-007  0.1843953E+03  0.7546771E-02  0.1163616E+00
         -5   -1    0    0    0  501 -0.00000000000E+00  0.00000000000E+00  0.56083113241E+03  0.56085082605E+03  0.47000000000E+01 0. -1.
          5   -1    0    0  501    0  0.00000000000E+00 -0.00000000000E+00 -0.63846923377E+02  0.64019681542E+02  0.47000000000E+01 0. -1.
         25    2    1    2    0    0 -0.12489697900E+03 -0.52702173837E+02  0.31975511341E+03  0.36911374303E+03  0.12499939300E+03 0.  0.
         25    2    1    2    0    0  0.12489697900E+03  0.52702173837E+02  0.17722909563E+03  0.25575676457E+03  0.12499838317E+03 0.  0.
          5    1    3    3  502    0 -0.40148370777E+02 -0.53984863933E+02  0.25091490659E+03  0.25982039481E+03  0.47000000000E+01 0. -1.
         -5    1    3    3    0  502 -0.84748608223E+02  0.12826900963E+01  0.68840206811E+02  0.10929334821E+03  0.47000000000E+01 0. -1.
          5    1    4    4  503    0  0.58680413424E+02  0.13115985894E+02  0.16729023034E+03  0.17783006262E+03  0.47000000000E+01 0. -1.
         -5    1    4    4    0  503  0.66216565576E+02  0.39586187943E+02  0.99388652889E+01  0.77926701944E+02  0.47000000000E+01 0. -1.
<mgrwt>
<rscale>  0 0.18439512E+03</rscale>
<asrwt>0</asrwt>
<pdfrwt beam="2">  1        5 0.98374076E-02 0.18439529E+03</pdfrwt>
<pdfrwt beam="1">  1       -5 0.86296517E-01 0.18439529E+03</pdfrwt>
<totfact> 0.73626335E+01</totfact>
</mgrwt>
</event>
<event>
 8    1  0.3759079E-007  0.1574754E+03  0.7546771E-02  0.1191583E+00
         -5   -1    0    0    0  501 -0.00000000000E+00  0.00000000000E+00  0.23915102427E+03  0.23919720401E+03  0.47000000000E+01 0. -1.
          5   -1    0    0  501    0  0.00000000000E+00 -0.00000000000E+00 -0.13195139609E+03  0.13203507463E+03  0.47000000000E+01 0. -1.
         25    2    1    2    0    0 -0.62417461954E+02 -0.72624837401E+02  0.13964110925E+03  0.21047126889E+03  0.12501283561E+03 0.  0.
         25    2    1    2    0    0  0.62417461954E+02  0.72624837401E+02 -0.32441481081E+02  0.16076100975E+03  0.12498538314E+03 0.  0.
          5    1    4    4  502    0  0.17244044490E+02 -0.35704246388E+02 -0.62861437406E+01  0.40419746210E+02  0.47000000000E+01 0. -1.
         -5    1    4    4    0  502  0.45173417464E+02  0.10832908379E+03 -0.26155337341E+02  0.12034126354E+03  0.47000000000E+01 0. -1.
          5    1    3    3  503    0 -0.91221496566E+02 -0.48616426937E+02  0.53680220435E+02  0.11657004105E+03  0.47000000000E+01 0. -1.
         -5    1    3    3    0  503  0.28804034612E+02 -0.24008410464E+02  0.85960888820E+02  0.93901227839E+02  0.47000000000E+01 0. -1.
<mgrwt>
<rscale>  0 0.15747000E+03</rscale>
<asrwt>0</asrwt>
<pdfrwt beam="2">  1        5 0.20310204E-01 0.15747544E+03</pdfrwt>
<pdfrwt beam="1">  1       -5 0.36802454E-01 0.15747544E+03</pdfrwt>
<totfact> 0.12144855E+02</totfact>
</mgrwt>
</event>
<event>
 8    1  0.3759079E-007  0.1314222E+03  0.7546771E-02  0.1225361E+00
          5   -1    0    0  501    0  0.00000000000E+00  0.00000000000E+00  0.22335425491E+04  0.22335474942E+04  0.47000000000E+01 0. -1.
         -5   -1    0    0    0  501 -0.00000000000E+00 -0.00000000000E+00 -0.91487918118E+01  0.10285445621E+02  0.47000000000E+01 0. -1.
         25    2    1    2    0    0  0.38436485942E+02 -0.13020102615E+02  0.60470756556E+03  0.61882365981E+03  0.12499838229E+03 0.  0.
         25    2    1    2    0    0 -0.38436485942E+02  0.13020102615E+02  0.16196861918E+04  0.16250092800E+04  0.12499965505E+03 0.  0.
          5    1    4    4  502    0 -0.49282933880E+02 -0.44502058048E+02  0.61111465439E+03  0.61472957595E+03  0.47000000000E+01 0. -1.
         -5    1    4    4    0  502  0.10846447938E+02  0.57522160664E+02  0.10085715374E+04  0.10102797040E+04  0.47000000000E+01 0. -1.
          5    1    3    3  503    0  0.34925755660E+02 -0.65389131724E+02  0.42902761335E+03  0.43541053038E+03  0.47000000000E+01 0.  1.
         -5    1    3    3    0  503  0.35107302826E+01  0.52369029109E+02  0.17567995221E+03  0.18341312942E+03  0.47000000000E+01 0.  1.
<mgrwt>
<rscale>  0 0.13142192E+03</rscale>
<asrwt>0</asrwt>
<pdfrwt beam="1">  1        5 0.34370947E+00 0.13142222E+03</pdfrwt>
<pdfrwt beam="2">  1       -5 0.14953229E-02 0.13142222E+03</pdfrwt>
<totfact> 0.19074796E+01</totfact>
</mgrwt>
</event>
<event>
 8    1  0.3759079E-007  0.1310698E+03  0.7546771E-02  0.1225890E+00
          5   -1    0    0  501    0  0.00000000000E+00  0.00000000000E+00  0.10536169955E+03  0.10546647681E+03  0.47000000000E+01 0. -1.
         -5   -1    0    0    0  501 -0.00000000000E+00 -0.00000000000E+00 -0.44764649748E+03  0.44767117029E+03  0.47000000000E+01 0. -1.
         25    2    1    2    0    0 -0.39389131697E+02  0.40883272851E+00 -0.39173670680E+03  0.41308223868E+03  0.12501047001E+03 0.  0.
         25    2    1    2    0    0  0.39389131697E+02 -0.40883272851E+00  0.49451908872E+02  0.14005540842E+03  0.12497341836E+03 0.  0.
          5    1    4    4  502    0  0.29039252167E+02  0.19867102518E+02  0.88084875565E+02  0.94968495998E+02  0.47000000000E+01 0. -1.
         -5    1    4    4    0  502  0.10349879530E+02 -0.20275935247E+02 -0.38632966693E+02  0.45086912424E+02  0.47000000000E+01 0. -1.
          5    1    3    3  503    0 -0.70112132162E+02  0.22089849611E+02 -0.34567256031E+03  0.35343356021E+03  0.47000000000E+01 0. -1.
         -5    1    3    3    0  503  0.30723000464E+02 -0.21681016882E+02 -0.46064146497E+02  0.59648678469E+02  0.47000000000E+01 0. -1.
<mgrwt>
<rscale>  0 0.13106095E+03</rscale>
<asrwt>0</asrwt>
<pdfrwt beam="1">  1        5 0.16219450E-01 0.13106978E+03</pdfrwt>
<pdfrwt beam="2">  1       -5 0.68878648E-01 0.13106978E+03</pdfrwt>
<totfact> 0.45787615E+01</totfact>
</mgrwt>
</event>
<event>
 8    1  0.3759079E-007  0.2408039E+03  0.7546771E-02  0.1119259E+00
         -5   -1    0    0    0  501 -0.00000000000E+00  0.00000000000E+00  0.10158820157E+03  0.10169686670E+03  0.47000000000E+01 0.  1.
          5   -1    0    0  501    0  0.00000000000E+00 -0.00000000000E+00 -0.86789929313E+03  0.86791201917E+03  0.47000000000E+01 0.  1.
         25    2    1    2    0    0  0.14529687661E+03 -0.14577569449E+03 -0.99321023123E+02  0.26048262091E+03  0.12499917883E+03 0.  0.
         25    2    1    2    0    0 -0.14529687661E+03  0.14577569449E+03 -0.66699006844E+03  0.70912626496E+03  0.12499029082E+03 0.  0.
          5    1    3    3  502    0  0.87095248508E+02 -0.59682553314E+02  0.14050898499E+02  0.10661663675E+03  0.47000000000E+01 0.  1.
         -5    1    3    3    0  502  0.58201628106E+02 -0.86093141171E+02 -0.11337192162E+03  0.15386598417E+03  0.47000000000E+01 0.  1.
          5    1    4    4  503    0 -0.11557180208E+03  0.11114486906E+03 -0.63026411010E+03  0.65035756460E+03  0.47000000000E+01 0. -1.
         -5    1    4    4    0  503 -0.29725074530E+02  0.34630825425E+02 -0.36725958341E+02  0.58768700356E+02  0.47000000000E+01 0. -1.
<mgrwt>
<rscale>  0 0.24080277E+03</rscale>
<asrwt>0</asrwt>
<pdfrwt beam="2">  1        5 0.13353230E+00 0.24080392E+03</pdfrwt>
<pdfrwt beam="1">  1       -5 0.15638292E-01 0.24080392E+03</pdfrwt>
<totfact> 0.11474016E+01</totfact>
</mgrwt>
</event>
<event>
 8    1  0.3759079E-007  0.1789239E+03  0.7546771E-02  0.1168849E+00
          5   -1    0    0  501    0  0.00000000000E+00  0.00000000000E+00  0.33167965990E+02  0.33499312947E+02  0.47000000000E+01 0. -1.
         -5   -1    0    0    0  501 -0.00000000000E+00 -0.00000000000E+00 -0.96096835317E+03  0.96097984672E+03  0.47000000000E+01 0. -1.
         25    2    1    2    0    0  0.11062049688E+03  0.64437490180E+02 -0.44861701945E+03  0.48298136557E+03  0.12499873948E+03 0.  0.
         25    2    1    2    0    0 -0.11062049688E+03 -0.64437490180E+02 -0.47918336773E+03  0.51149779409E+03  0.12499683590E+03 0.  0.
          5    1    3    3  502    0  0.42906558160E+02 -0.36468762004E+02 -0.16437821632E+03  0.17381953669E+03  0.47000000000E+01 0. -1.
         -5    1    3    3    0  502  0.67713938724E+02  0.10090625218E+03 -0.28423880314E+03  0.30916182888E+03  0.47000000000E+01 0. -1.
          5    1    4    4  503    0 -0.22526418596E+02  0.37399569842E+02 -0.10592701359E+03  0.11466817156E+03  0.47000000000E+01 0.  1.
         -5    1    4    4    0  503 -0.88094078288E+02 -0.10183706002E+03 -0.37325635413E+03  0.39682962254E+03  0.47000000000E+01 0.  1.
<mgrwt>
<rscale>  0 0.17892359E+03</rscale>
<asrwt>0</asrwt>
<pdfrwt beam="1">  1        5 0.51291371E-02 0.17892392E+03</pdfrwt>
<pdfrwt beam="2">  1       -5 0.14786764E+00 0.17892392E+03</pdfrwt>
<totfact> 0.56840802E+01</totfact>
</mgrwt>
</event>
<event>
 8    1  0.3759079E-007  0.1265854E+03  0.7546771E-02  0.1232614E+00
          5   -1    0    0  501    0  0.00000000000E+00  0.00000000000E+00  0.38576121264E+03  0.38578984328E+03  0.47000000000E+01 0.  1.
         -5   -1    0    0    0  501 -0.00000000000E+00 -0.00000000000E+00 -0.42906192006E+02  0.43162846436E+02  0.47000000000E+01 0.  1.
         25    2    1    2    0    0  0.13774132153E+01  0.19913719760E+02  0.13103159352E+03  0.18218986191E+03  0.12500165511E+03 0.  0.
         25    2    1    2    0    0 -0.13774132153E+01 -0.19913719760E+02  0.21182342712E+03  0.24676282781E+03  0.12499710161E+03 0.  0.
          5    1    4    4  502    0 -0.19922611522E+02  0.20886658588E+02 -0.95956259716E+00  0.29260446292E+02  0.47000000000E+01 0. -1.
         -5    1    4    4    0  502  0.18545198307E+02 -0.40800378348E+02  0.21278298972E+03  0.21750238152E+03  0.47000000000E+01 0. -1.
          5    1    3    3  503    0 -0.46571788574E+02 -0.31078213244E+02  0.63950888271E+02  0.85126922534E+02  0.47000000000E+01 0. -1.
         -5    1    3    3    0  503  0.47949201789E+02  0.50991933004E+02  0.67080705247E+02  0.97062939375E+02  0.47000000000E+01 0. -1.
<mgrwt>
<rscale>  0 0.12658429E+03</rscale>
<asrwt>0</asrwt>
<pdfrwt beam="1">  1        5 0.59369824E-01 0.12658541E+03</pdfrwt>
<pdfrwt beam="2">  1       -5 0.66228976E-02 0.12658541E+03</pdfrwt>
<totfact> 0.30145229E+02</totfact>
</mgrwt>
</event>
<event>
 8    1  0.3759079E-007  0.1306747E+03  0.7546771E-02  0.1226459E+00
          5   -1    0    0  501    0  0.00000000000E+00  0.00000000000E+00  0.44247810681E+02  0.44496727408E+02  0.47000000000E+01 0. -1.
         -5   -1    0    0    0  501 -0.00000000000E+00 -0.00000000000E+00 -0.39105603799E+03  0.39108428101E+03  0.47000000000E+01 0. -1.
         25    2    1    2    0    0  0.26916111175E+02  0.26940306828E+02 -0.20146506980E+03  0.24013341728E+03  0.12500250626E+03 0.  0.
         25    2    1    2    0    0 -0.26916111175E+02 -0.26940306828E+02 -0.14534315752E+03  0.19544759114E+03  0.12499948109E+03 0.  0.
          5    1    3    3  502    0  0.42898038574E+02 -0.28374590836E+02 -0.16235166387E+03  0.17036875265E+03  0.47000000000E+01 0.  1.
         -5    1    3    3    0  502 -0.15981927399E+02  0.55314897664E+02 -0.39113405925E+02  0.69764664624E+02  0.47000000000E+01 0.  1.
          5    1    4    4  503    0 -0.67986075669E+02  0.16004261025E+02 -0.66012114830E+02  0.96218148808E+02  0.47000000000E+01 0. -1.
         -5    1    4    4    0  503  0.41069964494E+02 -0.42944567853E+02 -0.79331042686E+02  0.99229442331E+02  0.47000000000E+01 0. -1.
<mgrwt>
<rscale>  0 0.13067400E+03</rscale>
<asrwt>0</asrwt>
<pdfrwt beam="1">  1        5 0.68286757E-02 0.13067472E+03</pdfrwt>
<pdfrwt beam="2">  1       -5 0.60183785E-01 0.13067472E+03</pdfrwt>
<totfact> 0.28108083E+02</totfact>
</mgrwt>
</event>
<event>
 8    1  0.3759079E-007  0.1263826E+03  0.7546771E-02  0.1232941E+00
         -5   -1    0    0    0  501 -0.00000000000E+00  0.00000000000E+00  0.54536242521E+01  0.71994456372E+01  0.47000000000E+01 0.  1.
          5   -1    0    0  501    0  0.00000000000E+00 -0.00000000000E+00 -0.25237646786E+04  0.25237690550E+04  0.47000000000E+01 0.  1.
         25    2    1    2    0    0  0.13015584275E+02  0.12856339601E+02 -0.12267734098E+04  0.12332662203E+04  0.12505151034E+03 0.  0.
         25    2    1    2    0    0 -0.13015584275E+02 -0.12856339601E+02 -0.12915376445E+04  0.12977022803E+04  0.12500812051E+03 0.  0.
          5    1    3    3  502    0  0.23845149637E+02  0.68616629580E+01 -0.12158204862E+04  0.12160827349E+04  0.47000000000E+01 0. -1.
         -5    1    3    3    0  502 -0.10829565362E+02  0.59946766431E+01 -0.10952923649E+02  0.17183485398E+02  0.47000000000E+01 0. -1.
          5    1    4    4  503    0 -0.52097135792E+02 -0.49832416633E+02 -0.76281497091E+03  0.76622852410E+03  0.47000000000E+01 0.  1.
         -5    1    4    4    0  503  0.39081551517E+02  0.36976077032E+02 -0.52872267363E+03  0.53147375622E+03  0.47000000000E+01 0.  1.
<mgrwt>
<rscale>  0 0.12637190E+03</rscale>
<asrwt>0</asrwt>
<pdfrwt beam="2">  1        5 0.38840532E+00 0.12638264E+03</pdfrwt>
<pdfrwt beam="1">  1       -5 0.97365173E-03 0.12638264E+03</pdfrwt>
<totfact> 0.18470692E+01</totfact>
</mgrwt>
</event>
<event>
 8    1  0.3759079E-007  0.1360883E+03  0.7546771E-02  0.1218692E+00
         -5   -1    0    0    0  501 -0.00000000000E+00  0.00000000000E+00  0.75363413619E+02  0.75509827918E+02  0.47000000000E+01 0. -1.
          5   -1    0    0  501    0  0.00000000000E+00 -0.00000000000E+00 -0.31786787615E+03  0.31790262140E+03  0.47000000000E+01 0. -1.
         25    2    1    2    0    0  0.53733901641E+02 -0.27548011166E+01 -0.27314138477E+02  0.13880236237E+03  0.12500045010E+03 0.  0.
         25    2    1    2    0    0 -0.53733901641E+02  0.27548011166E+01 -0.21519032406E+03  0.25461008694E+03  0.12499799874E+03 0.  0.
          5    1    3    3  502    0  0.56133282872E+02 -0.90561024806E+01 -0.72849257986E+02  0.92531415353E+02  0.47000000000E+01 0. -1.
         -5    1    3    3    0  502 -0.23993812303E+01  0.63013013640E+01  0.45535119510E+02  0.46270947018E+02  0.47000000000E+01 0. -1.
          5    1    4    4  503    0  0.36316929176E+02  0.14086572932E+02 -0.10304807034E+03  0.11026488872E+03  0.47000000000E+01 0. -1.
         -5    1    4    4    0  503 -0.90050830817E+02 -0.11331771816E+02 -0.11214225371E+03  0.14434519823E+03  0.47000000000E+01 0. -1.
<mgrwt>
<rscale>  0 0.13608777E+03</rscale>
<asrwt>0</asrwt>
<pdfrwt beam="2">  1        5 0.48916685E-01 0.13608833E+03</pdfrwt>
<pdfrwt beam="1">  1       -5 0.11608307E-01 0.13608833E+03</pdfrwt>
<totfact> 0.17781456E+02</totfact>
</mgrwt>
</event>
<event>
 8    1  0.3759079E-007  0.1780132E+03  0.7546771E-02  0.1169740E+00
          5   -1    0    0  501    0  0.00000000000E+00  0.00000000000E+00  0.84125231154E+02  0.84256421220E+02  0.47000000000E+01 0. -1.
         -5   -1    0    0    0  501 -0.00000000000E+00 -0.00000000000E+00 -0.37770583980E+03  0.37773508100E+03  0.47000000000E+01 0. -1.
         25    2    1    2    0    0 -0.45742065927E+02  0.11819248461E+03 -0.16117229527E+03  0.24013422229E+03  0.12500454368E+03 0.  0.
         25    2    1    2    0    0  0.45742065927E+02 -0.11819248461E+03 -0.13240831338E+03  0.22185727993E+03  0.12500756455E+03 0.  0.
          5    1    3    3  502    0  0.17469833173E+02  0.44064562331E+02  0.45400971316E+01  0.47849589408E+02  0.47000000000E+01 0.  1.
         -5    1    3    3    0  502 -0.63211899099E+02  0.74127922275E+02 -0.16571239240E+03  0.19228463289E+03  0.47000000000E+01 0.  1.
          5    1    4    4  503    0  0.85061877492E+02 -0.49165262515E+02 -0.76343725281E+02  0.12451184855E+03  0.47000000000E+01 0.  1.
         -5    1    4    4    0  503 -0.39319811565E+02 -0.69027222091E+02 -0.56064588098E+02  0.97345431376E+02  0.47000000000E+01 0.  1.
<mgrwt>
<rscale>  0 0.17801265E+03</rscale>
<asrwt>0</asrwt>
<pdfrwt beam="1">  1        5 0.12954684E-01 0.17801318E+03</pdfrwt>
<pdfrwt beam="2">  1       -5 0.58120931E-01 0.17801318E+03</pdfrwt>
<totfact> 0.10987412E+02</totfact>
</mgrwt>
</event>
<event>
 8    1  0.3759079E-007  0.1481955E+03  0.7546771E-02  0.1202708E+00
          5   -1    0    0  501    0  0.00000000000E+00  0.00000000000E+00  0.94045986439E+03  0.94047160857E+03  0.47000000000E+01 0.  1.
         -5   -1    0    0    0  501 -0.00000000000E+00 -0.00000000000E+00 -0.23106621862E+02  0.23579778920E+02  0.47000000000E+01 0.  1.
         25    2    1    2    0    0 -0.53817442227E+02  0.58654930103E+02  0.46403023198E+03  0.48711987979E+03  0.12500001273E+03 0.  0.
         25    2    1    2    0    0  0.53817442227E+02 -0.58654930103E+02  0.45332301055E+03  0.47693150770E+03  0.12500077293E+03 0.  0.
          5    1    4    4  502    0  0.44787192171E+02  0.10510378773E+02  0.34448302948E+03  0.34757302578E+03  0.47000000000E+01 0. -1.
         -5    1    4    4    0  502  0.90302500564E+01 -0.69165308876E+02  0.10883998107E+03  0.12935848193E+03  0.47000000000E+01 0. -1.
          5    1    3    3  503    0 -0.84829704474E+02  0.62845389974E+02  0.41874215957E+03  0.43187117061E+03  0.47000000000E+01 0.  1.
         -5    1    3    3    0  503  0.31012262246E+02 -0.41904598712E+01  0.45288072410E+02  0.55248709181E+02  0.47000000000E+01 0.  1.
<mgrwt>
<rscale>  0 0.14819536E+03</rscale>
<asrwt>0</asrwt>
<pdfrwt beam="1">  1        5 0.14472343E+00 0.14819552E+03</pdfrwt>
<pdfrwt beam="2">  1       -5 0.35921651E-02 0.14819552E+03</pdfrwt>
<totfact> 0.10284605E+02</totfact>
</mgrwt>
</event>
<event>
 8    1  0.3759079E-007  0.1257302E+03  0.7546771E-02  0.1233933E+00
          5   -1    0    0  501    0  0.00000000000E+00  0.00000000000E+00  0.43611936248E+02  0.43864461507E+02  0.47000000000E+01 0. -1.
         -5   -1    0    0    0  501 -0.00000000000E+00 -0.00000000000E+00 -0.37570411693E+03  0.37573351392E+03  0.47000000000E+01 0. -1.
         25    2    1    2    0    0 -0.75533862310E+01 -0.11220730242E+02 -0.20732287677E+03  0.24246826966E+03  0.12500051251E+03 0.  0.
         25    2    1    2    0    0  0.75533862310E+01  0.11220730242E+02 -0.12476930391E+03  0.17712970576E+03  0.12499838013E+03 0.  0.
          5    1    4    4  502    0  0.29011462306E+02 -0.48899808544E+02 -0.35189277538E+02  0.67031570729E+02  0.47000000000E+01 0. -1.
         -5    1    4    4    0  502 -0.21458076075E+02  0.60120538786E+02 -0.89580026376E+02  0.11009813504E+03  0.47000000000E+01 0. -1.
          5    1    3    3  503    0  0.16757250321E+02  0.14339148388E+01 -0.21331022803E+03  0.21402384197E+03  0.47000000000E+01 0. -1.
         -5    1    3    3    0  503 -0.24310636552E+02 -0.12654645081E+02  0.59873512551E+01  0.28444427692E+02  0.47000000000E+01 0. -1.
<mgrwt>
<rscale>  0 0.12572968E+03</rscale>
<asrwt>0</asrwt>
<pdfrwt beam="1">  1        5 0.67312152E-02 0.12573021E+03</pdfrwt>
<pdfrwt beam="2">  1       -5 0.57822317E-01 0.12573021E+03</pdfrwt>
<totfact> 0.30987560E+02</totfact>
</mgrwt>
</event>
<event>
 8    1  0.3759079E-007  0.1521616E+03  0.7546771E-02  0.1197844E+00
         -5   -1    0    0    0  501 -0.00000000000E+00  0.00000000000E+00  0.19931416770E+02  0.20478070575E+02  0.47000000000E+01 0.  1.
          5   -1    0    0  501    0  0.00000000000E+00 -0.00000000000E+00 -0.12078553275E+04  0.12078644718E+04  0.47000000000E+01 0.  1.
         25    2    1    2    0    0  0.82016809535E+02  0.28260492093E+02 -0.45423131352E+03  0.47903753710E+03  0.12500185320E+03 0.  0.
         25    2    1    2    0    0 -0.82016809535E+02 -0.28260492093E+02 -0.73369259721E+03  0.74930500526E+03  0.12501100447E+03 0.  0.
          5    1    3    3  502    0 -0.12301811005E+02  0.33622559803E+00  0.10617441940E+01  0.13216084987E+02  0.47000000000E+01 0.  1.
         -5    1    3    3    0  502  0.94318620541E+02  0.27924266495E+02 -0.45529305772E+03  0.46582145211E+03  0.47000000000E+01 0.  1.
          5    1    4    4  503    0 -0.46317331782E+02 -0.51893309484E+02 -0.66206403545E+03  0.66572448342E+03  0.47000000000E+01 0.  1.
         -5    1    4    4    0  503 -0.35699477754E+02  0.23632817391E+02 -0.71628561761E+02  0.83580521831E+02  0.47000000000E+01 0.  1.
<mgrwt>
<rscale>  0 0.15215976E+03</rscale>
<asrwt>0</asrwt>
<pdfrwt beam="2">  1        5 0.18586659E+00 0.15216164E+03</pdfrwt>
<pdfrwt beam="1">  1       -5 0.31091264E-02 0.15216164E+03</pdfrwt>
<totfact> 0.64420970E+01</totfact>
</mgrwt>
</event>
<event>
 8    1  0.3759079E-007  0.1286137E+03  0.7546771E-02  0.1229528E+00
          5   -1    0    0  501    0  0.00000000000E+00  0.00000000000E+00  0.62736846475E+02  0.62912652985E+02  0.47000000000E+01 0.  1.
         -5   -1    0    0    0  501 -0.00000000000E+00 -0.00000000000E+00 -0.28206725599E+03  0.28210641060E+03  0.47000000000E+01 0.  1.
         25    2    1    2    0    0 -0.11054243056E+02 -0.28186387506E+02 -0.15438790027E+03  0.20094055962E+03  0.12499926409E+03 0.  0.
         25    2    1    2    0    0  0.11054243056E+02  0.28186387506E+02 -0.64942509251E+02  0.14407850396E+03  0.12499766824E+03 0.  0.
          5    1    3    3  502    0  0.23403393652E+02  0.25998230502E+02 -0.12550642625E+03  0.13037476694E+03  0.47000000000E+01 0. -1.
         -5    1    3    3    0  502 -0.34457636708E+02 -0.54184618008E+02 -0.28881474014E+02  0.70565792686E+02  0.47000000000E+01 0. -1.
          5    1    4    4  503    0 -0.18266916509E+02  0.54658994991E+02 -0.82376232130E+02  0.10064402413E+03  0.47000000000E+01 0. -1.
         -5    1    4    4    0  503  0.29321159565E+02 -0.26472607484E+02  0.17433722879E+02  0.43434479837E+02  0.47000000000E+01 0. -1.
<mgrwt>
<rscale>  0 0.12861332E+03</rscale>
<asrwt>0</asrwt>
<pdfrwt beam="1">  1        5 0.96683582E-02 0.12861370E+03</pdfrwt>
<pdfrwt beam="2">  1       -5 0.43411497E-01 0.12861370E+03</pdfrwt>
<totfact> 0.30826069E+02</totfact>
</mgrwt>
</event>
<event>
 8    1  0.3759079E-007  0.1585320E+03  0.7546771E-02  0.1190365E+00
          5   -1    0    0  501    0  0.00000000000E+00  0.00000000000E+00  0.28525755277E+03  0.28529626953E+03  0.47000000000E+01 0.  1.
         -5   -1    0    0    0  501 -0.00000000000E+00 -0.00000000000E+00 -0.88374100168E+02  0.88498991974E+02  0.47000000000E+01 0.  1.
         25    2    1    2    0    0  0.95685409656E+02 -0.18752182764E+02  0.11067242271E+03  0.19334112943E+03  0.12500026081E+03 0.  0.
         25    2    1    2    0    0 -0.95685409656E+02  0.18752182764E+02  0.86211029887E+02  0.18045413208E+03  0.12499604046E+03 0.  0.
          5    1    3    3  502    0  0.91169992497E+02  0.27313116237E+02  0.29447603551E+02  0.99735776958E+02  0.47000000000E+01 0.  1.
         -5    1    3    3    0  502  0.45154171590E+01 -0.46065299001E+02  0.81224819160E+02  0.93605352474E+02  0.47000000000E+01 0.  1.
          5    1    4    4  503    0 -0.46337642649E+02 -0.35558838316E+02  0.89354634083E+02  0.10685480214E+03  0.47000000000E+01 0. -1.
         -5    1    4    4    0  503 -0.49347767007E+02  0.54311021080E+02 -0.31436041964E+01  0.73599329934E+02  0.47000000000E+01 0. -1.
<mgrwt>
<rscale>  0 0.15853121E+03</rscale>
<asrwt>0</asrwt>
<pdfrwt beam="1">  1        5 0.43898363E-01 0.15853204E+03</pdfrwt>
<pdfrwt beam="2">  1       -5 0.13608601E-01 0.15853204E+03</pdfrwt>
<totfact> 0.17668588E+02</totfact>
</mgrwt>
</event>
<event>
 8    1  0.3759079E-007  0.1343799E+03  0.7546771E-02  0.1221099E+00
         -5   -1    0    0    0  501 -0.00000000000E+00  0.00000000000E+00  0.11234312951E+03  0.11244140140E+03  0.47000000000E+01 0.  1.
          5   -1    0    0  501    0  0.00000000000E+00 -0.00000000000E+00 -0.16218362019E+03  0.16225170772E+03  0.47000000000E+01 0.  1.
         25    2    1    2    0    0  0.43236632787E+02 -0.23784872240E+02 -0.38766498063E+02  0.13985767802E+03  0.12498880817E+03 0.  0.
         25    2    1    2    0    0 -0.43236632787E+02  0.23784872240E+02 -0.11073992615E+02  0.13483543110E+03  0.12499133412E+03 0.  0.
          5    1    3    3  502    0  0.40044396113E+02  0.46346475717E+02 -0.31743694654E+02  0.69146956707E+02  0.47000000000E+01 0.  1.
         -5    1    3    3    0  502  0.31922366739E+01 -0.70131347958E+02 -0.70228034090E+01  0.70710721316E+02  0.47000000000E+01 0.  1.
          5    1    4    4  503    0 -0.38145793792E+02 -0.12468617695E+02  0.49502769343E+02  0.63899782346E+02  0.47000000000E+01 0. -1.
         -5    1    4    4    0  503 -0.50908389948E+01  0.36253489935E+02 -0.60576761958E+02  0.70935648749E+02  0.47000000000E+01 0. -1.
<mgrwt>
<rscale>  0 0.13437932E+03</rscale>
<asrwt>0</asrwt>
<pdfrwt beam="2">  1        5 0.24964123E-01 0.13437991E+03</pdfrwt>
<pdfrwt beam="1">  1       -5 0.17296355E-01 0.13437991E+03</pdfrwt>
<totfact> 0.33313995E+02</totfact>
</mgrwt>
</event>
<event>
 8    1  0.3759079E-007  0.1729765E+03  0.7546771E-02  0.1174780E+00
          5   -1    0    0  501    0  0.00000000000E+00  0.00000000000E+00  0.13230466365E+03  0.13238811889E+03  0.47000000000E+01 0. -1.
         -5   -1    0    0    0  501 -0.00000000000E+00 -0.00000000000E+00 -0.22695922829E+03  0.22700788821E+03  0.47000000000E+01 0. -1.
         25    2    1    2    0    0 -0.11886304795E+03  0.12878063344E+02 -0.35435010874E+02  0.17656875772E+03  0.12500646993E+03 0.  0.
         25    2    1    2    0    0  0.11886304795E+03 -0.12878063344E+02 -0.59219553770E+02  0.18282724938E+03  0.12499831552E+03 0.  0.
          5    1    4    4  502    0  0.94632818495E+02 -0.64968777251E+02 -0.33206423612E+02  0.11958707674E+03  0.47000000000E+01 0. -1.
         -5    1    4    4    0  502  0.24230229453E+02  0.52090713906E+02 -0.26013130158E+02  0.63240172638E+02  0.47000000000E+01 0. -1.
          5    1    3    3  503    0 -0.37389078639E+01  0.47944724682E+02 -0.28125816429E+02  0.55909101287E+02  0.47000000000E+01 0. -1.
         -5    1    3    3    0  503 -0.11512414008E+03 -0.35066661338E+02 -0.73091944450E+01  0.12065965643E+03  0.47000000000E+01 0. -1.
<mgrwt>
<rscale>  0 0.17297507E+03</rscale>
<asrwt>0</asrwt>
<pdfrwt beam="1">  1        5 0.20364726E-01 0.17297655E+03</pdfrwt>
<pdfrwt beam="2">  1       -5 0.34926967E-01 0.17297655E+03</pdfrwt>
<totfact> 0.13816471E+02</totfact>
</mgrwt>
</event>
<event>
 8    1  0.3759079E-007  0.1306558E+03  0.7546771E-02  0.1226490E+00
          5   -1    0    0  501    0  0.00000000000E+00  0.00000000000E+00  0.16452254378E+03  0.16458966375E+03  0.47000000000E+01 0. -1.
         -5   -1    0    0    0  501 -0.00000000000E+00 -0.00000000000E+00 -0.10374794650E+03  0.10385435188E+03  0.47000000000E+01 0. -1.
         25    2    1    2    0    0 -0.16771254061E+02 -0.34120472954E+02  0.35269718178E+02  0.13532209372E+03  0.12499053721E+03 0.  0.
         25    2    1    2    0    0  0.16771254061E+02  0.34120472954E+02  0.25504879100E+02  0.13312192190E+03  0.12500186237E+03 0.  0.
          5    1    4    4  502    0  0.16972900101E+02  0.95015481696E+01 -0.49845397232E+02  0.53712311258E+02  0.47000000000E+01 0.  1.
         -5    1    4    4    0  502 -0.20164604052E+00  0.24618924785E+02  0.75350276333E+02  0.79409610641E+02  0.47000000000E+01 0.  1.
          5    1    3    3  503    0  0.14838654995E+02 -0.10793997777E+01 -0.42338634175E+02  0.45122064777E+02  0.47000000000E+01 0. -1.
         -5    1    3    3    0  503 -0.31609909055E+02 -0.33041073177E+02  0.77608352352E+02  0.90200028947E+02  0.47000000000E+01 0. -1.
<mgrwt>
<rscale>  0 0.13065313E+03</rscale>
<asrwt>0</asrwt>
<pdfrwt beam="1">  1        5 0.25324509E-01 0.13065584E+03</pdfrwt>
<pdfrwt beam="2">  1       -5 0.15974571E-01 0.13065584E+03</pdfrwt>
<totfact> 0.37105976E+02</totfact>
</mgrwt>
</event>
<event>
 8    1  0.3759079E-007  0.1516326E+03  0.7546771E-02  0.1198487E+00
          5   -1    0    0  501    0  0.00000000000E+00  0.00000000000E+00  0.33989420033E+03  0.33992669418E+03  0.47000000000E+01 0.  1.
         -5   -1    0    0    0  501 -0.00000000000E+00 -0.00000000000E+00 -0.67535175563E+02  0.67698522423E+02  0.47000000000E+01 0.  1.
         25    2    1    2    0    0  0.83849268327E+02 -0.18342728052E+02  0.13311514300E+03  0.20175799822E+03  0.12497797036E+03 0.  0.
         25    2    1    2    0    0 -0.83849268327E+02  0.18342728052E+02  0.13924388176E+03  0.20586721839E+03  0.12500119011E+03 0.  0.
          5    1    4    4  502    0 -0.25060975254E+02 -0.17993369383E+02  0.13266322105E+03  0.13628438664E+03  0.47000000000E+01 0. -1.
         -5    1    4    4    0  502 -0.58788293073E+02  0.36336097435E+02  0.65806607148E+01  0.69582831752E+02  0.47000000000E+01 0. -1.
          5    1    3    3  503    0  0.10504261171E+02 -0.18693700657E+02  0.12602268999E+03  0.12792029683E+03  0.47000000000E+01 0.  1.
         -5    1    3    3    0  503  0.73345007157E+02  0.35097260541E+00  0.70924530098E+01  0.73837701388E+02  0.47000000000E+01 0.  1.
<mgrwt>
<rscale>  0 0.15162784E+03</rscale>
<asrwt>0</asrwt>
<pdfrwt beam="1">  1        5 0.52306479E-01 0.15163263E+03</pdfrwt>
<pdfrwt beam="2">  1       -5 0.10405092E-01 0.15163263E+03</pdfrwt>
<totfact> 0.19376686E+02</totfact>
</mgrwt>
</event>
<event>
 8    1  0.3759079E-007  0.1421279E+03  0.7546771E-02  0.1210499E+00
          5   -1    0    0  501    0  0.00000000000E+00  0.00000000000E+00  0.85195171514E+02  0.85324716520E+02  0.47000000000E+01 0. -1.
         -5   -1    0    0    0  501 -0.00000000000E+00 -0.00000000000E+00 -0.24020867402E+03  0.24025465048E+03  0.47000000000E+01 0. -1.
         25    2    1    2    0    0 -0.37331239591E+02  0.56391550964E+02 -0.97041358335E+02  0.17209697040E+03  0.12500685391E+03 0.  0.
         25    2    1    2    0    0  0.37331239591E+02 -0.56391550964E+02 -0.57972144172E+02  0.15348239659E+03  0.12498979196E+03 0.  0.
          5    1    4    4  502    0 -0.34647363727E+02 -0.40833207541E+02 -0.58822618593E+02  0.79686768723E+02  0.47000000000E+01 0. -1.
         -5    1    4    4    0  502  0.71978603319E+02 -0.15558343423E+02  0.85047442020E+00  0.73795627869E+02  0.47000000000E+01 0. -1.
          5    1    3    3  503    0 -0.38631802053E+02 -0.33598688182E+02 -0.42909129091E+02  0.66966942119E+02  0.47000000000E+01 0. -1.
         -5    1    3    3    0  503  0.13005624622E+01  0.89990239146E+02 -0.54132229244E+02  0.10513002829E+03  0.47000000000E+01 0. -1.
<mgrwt>
<rscale>  0 0.14212416E+03</rscale>
<asrwt>0</asrwt>
<pdfrwt beam="1">  1        5 0.13120451E-01 0.14212791E+03</pdfrwt>
<pdfrwt beam="2">  1       -5 0.36968682E-01 0.14212791E+03</pdfrwt>
<totfact> 0.25881938E+02</totfact>
</mgrwt>
</event>
<event>
 8    1  0.3759079E-007  0.1425255E+03  0.7546771E-02  0.1209974E+00
          5   -1    0    0  501    0  0.00000000000E+00  0.00000000000E+00  0.59689560517E+03  0.59691410895E+03  0.47000000000E+01 0.  1.
         -5   -1    0    0    0  501 -0.00000000000E+00 -0.00000000000E+00 -0.46842078255E+02  0.47077280032E+02  0.47000000000E+01 0.  1.
         25    2    1    2    0    0  0.41932583348E+02  0.54101417918E+02  0.10597981120E+03  0.17760982487E+03  0.12501289750E+03 0.  0.
         25    2    1    2    0    0 -0.41932583348E+02 -0.54101417918E+02  0.44407371571E+03  0.46638156411E+03  0.12499997358E+03 0.  0.
          5    1    4    4  502    0 -0.55086410060E+02  0.59874784377E+01  0.81924875602E+02  0.99015845771E+02  0.47000000000E+01 0.  1.
         -5    1    4    4    0  502  0.13153826712E+02 -0.60088896355E+02  0.36214884011E+03  0.36736571834E+03  0.47000000000E+01 0.  1.
          5    1    3    3  503    0  0.51918939109E+02  0.27379542819E+02 -0.85373113848E+01  0.59499506627E+02  0.47000000000E+01 0. -1.
         -5    1    3    3    0  503 -0.99863557610E+01  0.26721875099E+02  0.11451712259E+03  0.11811031824E+03  0.47000000000E+01 0. -1.
<mgrwt>
<rscale>  0 0.14252271E+03</rscale>
<asrwt>0</asrwt>
<pdfrwt beam="1">  1        5 0.91849610E-01 0.14252554E+03</pdfrwt>
<pdfrwt beam="2">  1       -5 0.72259893E-02 0.14252554E+03</pdfrwt>
<totfact> 0.10018951E+02</totfact>
</mgrwt>
</event>
<event>
 8    1  0.3759079E-007  0.1548709E+03  0.7546771E-02  0.1194627E+00
          5   -1    0    0  501    0  0.00000000000E+00  0.00000000000E+00  0.61224986508E+03  0.61226790483E+03  0.47000000000E+01 0.  1.
         -5   -1    0    0    0  501 -0.00000000000E+00 -0.00000000000E+00 -0.45128112600E+02  0.45372200155E+02  0.47000000000E+01 0.  1.
         25    2    1    2    0    0 -0.42462933523E+02  0.80976351980E+02  0.16275656772E+03  0.22463180678E+03  0.12493789648E+03 0.  0.
         25    2    1    2    0    0  0.42462933523E+02 -0.80976351980E+02  0.40436518475E+03  0.43300829821E+03  0.12499885349E+03 0.  0.
          5    1    4    4  502    0 -0.71608272672E+01 -0.79139867463E+02  0.35119735216E+03  0.36010563205E+03  0.47000000000E+01 0. -1.
         -5    1    4    4    0  502  0.49623760790E+02 -0.18364845169E+01  0.53167832593E+02  0.72902666158E+02  0.47000000000E+01 0. -1.
          5    1    3    3  503    0  0.26556289905E+02  0.22048095485E+01 -0.43060140525E+01  0.27399442981E+02  0.47000000000E+01 0. -1.
         -5    1    3    3    0  503 -0.69019223428E+02  0.78771542431E+02  0.16706258178E+03  0.19723236380E+03  0.47000000000E+01 0. -1.
<mgrwt>
<rscale>  0 0.15485856E+03</rscale>
<asrwt>0</asrwt>
<pdfrwt beam="1">  1        5 0.94212451E-01 0.15487086E+03</pdfrwt>
<pdfrwt beam="2">  1       -5 0.69629501E-02 0.15487086E+03</pdfrwt>
<totfact> 0.10307057E+02</totfact>
</mgrwt>
</event>
<event>
 8    1  0.3759079E-007  0.1512836E+03  0.7546771E-02  0.1198908E+00
         -5   -1    0    0    0  501 -0.00000000000E+00  0.00000000000E+00  0.89322596819E+02  0.89446164269E+02  0.47000000000E+01 0.  1.
          5   -1    0    0  501    0  0.00000000000E+00 -0.00000000000E+00 -0.26091539799E+03  0.26095772629E+03  0.47000000000E+01 0.  1.
         25    2    1    2    0    0  0.54778554779E+02 -0.65253607104E+02 -0.61477170206E+02  0.16328847122E+03  0.12499983629E+03 0.  0.
         25    2    1    2    0    0 -0.54778554779E+02  0.65253607104E+02 -0.11011563097E+03  0.18711541934E+03  0.12501201809E+03 0.  0.
          5    1    3    3  502    0  0.96476052670E+01 -0.66315837994E+02  0.19939546062E+02  0.70075260638E+02  0.47000000000E+01 0.  1.
         -5    1    3    3    0  502  0.45130949513E+02  0.10622308898E+01 -0.81416716268E+02  0.93213210578E+02  0.47000000000E+01 0.  1.
          5    1    4    4  503    0 -0.21067915889E+02  0.86657917816E+02 -0.11609001905E+03  0.14646649556E+03  0.47000000000E+01 0.  1.
         -5    1    4    4    0  503 -0.33710638891E+02 -0.21404310711E+02  0.59743880796E+01  0.40648923779E+02  0.47000000000E+01 0.  1.
<mgrwt>
<rscale>  0 0.15128108E+03</rscale>
<asrwt>0</asrwt>
<pdfrwt beam="2">  1        5 0.40153591E-01 0.15128360E+03</pdfrwt>
<pdfrwt beam="1">  1       -5 0.13754699E-01 0.15128360E+03</pdfrwt>
<totfact> 0.20521229E+02</totfact>
</mgrwt>
</event>
<event>
 8    1  0.3759079E-007  0.1384850E+03  0.7546771E-02  0.1215383E+00
         -5   -1    0    0    0  501 -0.00000000000E+00  0.00000000000E+00  0.13134842296E+03  0.13143248538E+03  0.47000000000E+01 0. -1.
          5   -1    0    0  501    0  0.00000000000E+00 -0.00000000000E+00 -0.14783421371E+03  0.14790890691E+03  0.47000000000E+01 0. -1.
         25    2    1    2    0    0  0.58893240477E+02  0.91930361617E+01  0.79746587741E+01  0.13871280526E+03  0.12499888589E+03 0.  0.
         25    2    1    2    0    0 -0.58893240477E+02 -0.91930361617E+01 -0.24460449524E+02  0.14062858702E+03  0.12500064084E+03 0.  0.
          5    1    4    4  502    0 -0.12694783737E+02  0.31756857120E+02 -0.60012817357E+02  0.69233545016E+02  0.47000000000E+01 0. -1.
         -5    1    4    4    0  502 -0.46198456739E+02 -0.40949893282E+02  0.35552367833E+02  0.71395042009E+02  0.47000000000E+01 0. -1.
          5    1    3    3  503    0  0.18533090785E+02 -0.52721867545E+02 -0.20009767741E+02  0.59544534397E+02  0.47000000000E+01 0.  1.
         -5    1    3    3    0  503  0.40360149691E+02  0.61914903707E+02  0.27984426515E+02  0.79168270864E+02  0.47000000000E+01 0.  1.
<mgrwt>
<rscale>  0 0.13848457E+03</rscale>
<asrwt>0</asrwt>
<pdfrwt beam="2">  1        5 0.22755937E-01 0.13848497E+03</pdfrwt>
<pdfrwt beam="1">  1       -5 0.20219662E-01 0.13848497E+03</pdfrwt>
<totfact> 0.30069383E+02</totfact>
</mgrwt>
</event>
<event>
 8    1  0.3759079E-007  0.1367220E+03  0.7546771E-02  0.1217811E+00
          5   -1    0    0  501    0  0.00000000000E+00  0.00000000000E+00  0.27003808944E+02  0.27409773759E+02  0.47000000000E+01 0.  1.
         -5   -1    0    0    0  501 -0.00000000000E+00 -0.00000000000E+00 -0.99667494747E+03  0.99668602926E+03  0.47000000000E+01 0.  1.
         25    2    1    2    0    0 -0.55368196306E+02 -0.97895794485E+00 -0.77036433333E+03  0.78240154707E+03  0.12499751707E+03 0.  0.
         25    2    1    2    0    0  0.55368196306E+02  0.97895794485E+00 -0.19930680520E+03  0.24169425595E+03  0.12500526084E+03 0.  0.
          5    1    4    4  502    0  0.66595786146E+02  0.38143668315E+02 -0.61540282581E+02  0.98484691933E+02  0.47000000000E+01 0. -1.
         -5    1    4    4    0  502 -0.11227589840E+02 -0.37164710370E+02 -0.13776652262E+03  0.14320956401E+03  0.47000000000E+01 0. -1.
          5    1    3    3  503    0 -0.42358543816E+02 -0.36357734293E+02 -0.70167830971E+03  0.70391098258E+03  0.47000000000E+01 0. -1.
         -5    1    3    3    0  503 -0.13009652490E+02  0.35378776348E+02 -0.68686023617E+02  0.78490564491E+02  0.47000000000E+01 0. -1.
<mgrwt>
<rscale>  0 0.13672025E+03</rscale>
<asrwt>0</asrwt>
<pdfrwt beam="1">  1        5 0.41865134E-02 0.13672202E+03</pdfrwt>
<pdfrwt beam="2">  1       -5 0.15336666E+00 0.13672202E+03</pdfrwt>
<totfact> 0.66696764E+01</totfact>
</mgrwt>
</event>
<event>
 8    1  0.3759079E-007  0.1478817E+03  0.7546771E-02  0.1203101E+00
         -5   -1    0    0    0  501 -0.00000000000E+00  0.00000000000E+00  0.20170698586E+03  0.20176173608E+03  0.47000000000E+01 0. -1.
          5   -1    0    0  501    0  0.00000000000E+00 -0.00000000000E+00 -0.11138910140E+03  0.11148821423E+03  0.47000000000E+01 0. -1.
         25    2    1    2    0    0 -0.73629651782E+02  0.28681649950E+02  0.19089029239E+02  0.14910812298E+03  0.12499951454E+03 0.  0.
         25    2    1    2    0    0  0.73629651782E+02 -0.28681649950E+02  0.71228855220E+02  0.16414182733E+03  0.12500010799E+03 0.  0.
          5    1    3    3  502    0 -0.72580834533E+02  0.68953292526E+02 -0.76726251167E+01  0.10051613437E+03  0.47000000000E+01 0.  1.
         -5    1    3    3    0  502 -0.10488172481E+01 -0.40271642577E+02  0.26761654355E+02  0.48591988612E+02  0.47000000000E+01 0.  1.
          5    1    4    4  503    0  0.50975105040E+02  0.11160765334E+02 -0.24547988796E+02  0.57859465696E+02  0.47000000000E+01 0. -1.
         -5    1    4    4    0  503  0.22654546742E+02 -0.39842415283E+02  0.95776844017E+02  0.10628236163E+03  0.47000000000E+01 0. -1.
<mgrwt>
<rscale>  0 0.14788155E+03</rscale>
<asrwt>0</asrwt>
<pdfrwt beam="2">  1        5 0.17148620E-01 0.14788167E+03</pdfrwt>
<pdfrwt beam="1">  1       -5 0.31043680E-01 0.14788167E+03</pdfrwt>
<totfact> 0.22886513E+02</totfact>
</mgrwt>
</event>
<event>
 8    1  0.3759079E-007  0.2376405E+03  0.7546771E-02  0.1121375E+00
         -5   -1    0    0    0  501 -0.00000000000E+00  0.00000000000E+00  0.64102145292E+02  0.64274217467E+02  0.47000000000E+01 0.  1.
          5   -1    0    0  501    0  0.00000000000E+00 -0.00000000000E+00 -0.11251470188E+04  0.11251568353E+04  0.47000000000E+01 0.  1.
         25    2    1    2    0    0  0.20061595171E+03  0.24533832434E+02 -0.25273298234E+03  0.34691061055E+03  0.12499736933E+03 0.  0.
         25    2    1    2    0    0 -0.20061595171E+03 -0.24533832434E+02 -0.80831189118E+03  0.84252044218E+03  0.12499565210E+03 0.  0.
          5    1    3    3  502    0  0.56737308197E+02  0.60089074980E+02 -0.53525625348E+02  0.98574345761E+02  0.47000000000E+01 0.  1.
         -5    1    3    3    0  502  0.14387864351E+03 -0.35555242547E+02 -0.19920735699E+03  0.24833626479E+03  0.47000000000E+01 0.  1.
          5    1    4    4  503    0 -0.73104131243E+02 -0.70458418033E+02 -0.37029986566E+03  0.38399568121E+03  0.47000000000E+01 0. -1.
         -5    1    4    4    0  503 -0.12751182047E+03  0.45924585600E+02 -0.43801202552E+03  0.45852476097E+03  0.47000000000E+01 0. -1.
<mgrwt>
<rscale>  0 0.23764028E+03</rscale>
<asrwt>0</asrwt>
<pdfrwt beam="2">  1        5 0.17311352E+00 0.23764051E+03</pdfrwt>
<pdfrwt beam="1">  1       -5 0.98758608E-02 0.23764051E+03</pdfrwt>
<totfact> 0.12652439E+01</totfact>
</mgrwt>
</event>
<event>
 8    1  0.3759079E-007  0.2204755E+03  0.7546771E-02  0.1133530E+00
          5   -1    0    0  501    0  0.00000000000E+00  0.00000000000E+00  0.37795474849E+03  0.37798397044E+03  0.47000000000E+01 0. -1.
         -5   -1    0    0    0  501 -0.00000000000E+00 -0.00000000000E+00 -0.12901503060E+03  0.12910061239E+03  0.47000000000E+01 0. -1.
         25    2    1    2    0    0  0.17913856755E+03 -0.29889900166E+02  0.10898000785E+03  0.24593681657E+03  0.12499697244E+03 0.  0.
         25    2    1    2    0    0 -0.17913856755E+03  0.29889900166E+02  0.13995971004E+03  0.26114776626E+03  0.12500161147E+03 0.  0.
          5    1    4    4  502    0  0.13569729184E+02 -0.13296009334E+02  0.27757154403E+02  0.33962788974E+02  0.47000000000E+01 0. -1.
         -5    1    4    4    0  502 -0.19270829674E+03  0.43185909500E+02  0.11220255563E+03  0.22718497728E+03  0.47000000000E+01 0. -1.
          5    1    3    3  503    0  0.25690756245E+02 -0.51334066736E+02  0.60477900817E+02  0.83515674286E+02  0.47000000000E+01 0. -1.
         -5    1    3    3    0  503  0.15344781131E+03  0.21444166571E+02  0.48502107035E+02  0.16242114229E+03  0.47000000000E+01 0. -1.
<mgrwt>
<rscale>  0 0.22047482E+03</rscale>
<asrwt>0</asrwt>
<pdfrwt beam="1">  1        5 0.58155715E-01 0.22047548E+03</pdfrwt>
<pdfrwt beam="2">  1       -5 0.19857297E-01 0.22047548E+03</pdfrwt>
<totfact> 0.53109216E+01</totfact>
</mgrwt>
</event>
<event>
 8    1  0.3759079E-007  0.1299998E+03  0.7546771E-02  0.1227460E+00
          5   -1    0    0  501    0  0.00000000000E+00  0.00000000000E+00  0.61966791003E+03  0.61968573384E+03  0.47000000000E+01 0.  1.
         -5   -1    0    0    0  501 -0.00000000000E+00 -0.00000000000E+00 -0.34482404198E+02  0.34801238473E+02  0.47000000000E+01 0.  1.
         25    2    1    2    0    0 -0.42410821177E+01 -0.35454918060E+02  0.14147888069E+03  0.19212831761E+03  0.12498791444E+03 0.  0.
         25    2    1    2    0    0  0.42410821177E+01  0.35454918060E+02  0.44370662515E+03  0.46235865470E+03  0.12499967354E+03 0.  0.
          5    1    4    4  502    0 -0.32839970050E+02  0.64450410705E+02  0.17336128806E+03  0.18790568185E+03  0.47000000000E+01 0. -1.
         -5    1    4    4    0  502  0.37081052167E+02 -0.28995492645E+02  0.27034533709E+03  0.27445297286E+03  0.47000000000E+01 0. -1.
          5    1    3    3  503    0  0.37627133974E+02 -0.59670256105E+02  0.44177346821E+02  0.83367071718E+02  0.47000000000E+01 0.  1.
         -5    1    3    3    0  503 -0.41868216092E+02  0.24215338044E+02  0.97301533865E+02  0.10876124589E+03  0.47000000000E+01 0.  1.
<mgrwt>
<rscale>  0 0.12999701E+03</rscale>
<asrwt>0</asrwt>
<pdfrwt beam="1">  1        5 0.95359429E-01 0.12999983E+03</pdfrwt>
<pdfrwt beam="2">  1       -5 0.53308816E-02 0.12999983E+03</pdfrwt>
<totfact> 0.14836093E+02</totfact>
</mgrwt>
</event>
<event>
 8    1  0.3759079E-007  0.1256984E+03  0.7546771E-02  0.1233982E+00
         -5   -1    0    0    0  501 -0.00000000000E+00  0.00000000000E+00  0.16745372622E+02  0.17392455383E+02  0.47000000000E+01 0.  1.
          5   -1    0    0  501    0  0.00000000000E+00 -0.00000000000E+00 -0.94772712895E+03  0.94773878308E+03  0.47000000000E+01 0.  1.
         25    2    1    2    0    0  0.12923250467E+02 -0.18004585621E+01 -0.54018996724E+03  0.55462143028E+03  0.12501791139E+03 0.  0.
         25    2    1    2    0    0 -0.12923250467E+02  0.18004585621E+01 -0.39079178909E+03  0.41050980818E+03  0.12501931106E+03 0.  0.
          5    1    4    4  502    0  0.21514542584E+02 -0.20884679432E+02 -0.17736572034E+02  0.35152828693E+02  0.47000000000E+01 0. -1.
         -5    1    4    4    0  502 -0.34437793051E+02  0.22685137994E+02 -0.37305521706E+03  0.37535697949E+03  0.47000000000E+01 0. -1.
          5    1    3    3  503    0 -0.58859551224E+01 -0.11805949362E+01 -0.53429306449E+03  0.53434745909E+03  0.47000000000E+01 0. -1.
         -5    1    3    3    0  503  0.18809205589E+02 -0.61986362592E+00 -0.58969027455E+01  0.20273971190E+02  0.47000000000E+01 0. -1.
<mgrwt>
<rscale>  0 0.12569802E+03</rscale>
<asrwt>0</asrwt>
<pdfrwt beam="2">  1        5 0.14585480E+00 0.12569837E+03</pdfrwt>
<pdfrwt beam="1">  1       -5 0.26268840E-02 0.12569837E+03</pdfrwt>
<totfact> 0.15848914E+02</totfact>
</mgrwt>
</event>
<event>
 8    1  0.3759079E-007  0.1530026E+03  0.7546771E-02  0.1196832E+00
         -5   -1    0    0    0  501 -0.00000000000E+00  0.00000000000E+00  0.52092202398E+02  0.52303800538E+02  0.47000000000E+01 0.  1.
          5   -1    0    0  501    0  0.00000000000E+00 -0.00000000000E+00 -0.44930279758E+03  0.44932737944E+03  0.47000000000E+01 0.  1.
         25    2    1    2    0    0  0.81323637346E+01  0.87851158138E+02 -0.18649085779E+03  0.24122318272E+03  0.12500329002E+03 0.  0.
         25    2    1    2    0    0 -0.81323637346E+01 -0.87851158138E+02 -0.21071973739E+03  0.26040799726E+03  0.12500222391E+03 0.  0.
          5    1    4    4  502    0 -0.15798383431E+01  0.10815760080E+02 -0.13564206534E+03  0.13616290407E+03  0.47000000000E+01 0.  1.
         -5    1    4    4    0  502 -0.65525253915E+01 -0.98666918218E+02 -0.75077672046E+02  0.12424509318E+03  0.47000000000E+01 0.  1.
          5    1    3    3  503    0  0.50458801832E+02 -0.28802155571E+01 -0.81955035295E+02  0.96400747581E+02  0.47000000000E+01 0.  1.
         -5    1    3    3    0  503 -0.42326438097E+02  0.90731373695E+02 -0.10453582249E+03  0.14482243514E+03  0.47000000000E+01 0.  1.
<mgrwt>
<rscale>  0 0.15300234E+03</rscale>
<asrwt>0</asrwt>
<pdfrwt beam="2">  1        5 0.69141672E-01 0.15300256E+03</pdfrwt>
<pdfrwt beam="1">  1       -5 0.80323530E-02 0.15300256E+03</pdfrwt>
<totfact> 0.16509253E+02</totfact>
</mgrwt>
</event>
<event>
 8    1  0.3759079E-007  0.1425376E+03  0.7546771E-02  0.1209976E+00
         -5   -1    0    0    0  501 -0.00000000000E+00  0.00000000000E+00  0.42189683080E+02  0.42450669705E+02  0.47000000000E+01 0.  1.
          5   -1    0    0  501    0  0.00000000000E+00 -0.00000000000E+00 -0.48286071406E+03  0.48288358761E+03  0.47000000000E+01 0.  1.
         25    2    1    2    0    0  0.78944827549E+00  0.68509820529E+02 -0.19877084686E+03  0.24459522333E+03  0.12499101959E+03 0.  0.
         25    2    1    2    0    0 -0.78944827549E+00 -0.68509820529E+02 -0.24190018412E+03  0.28073903398E+03  0.12491792259E+03 0.  0.
          5    1    4    4  502    0  0.23186643230E+02 -0.87950534385E+02 -0.22991044855E+03  0.24729298671E+03  0.47000000000E+01 0. -1.
         -5    1    4    4    0  502 -0.23976091505E+02  0.19440713856E+02 -0.11989735572E+02  0.33446047273E+02  0.47000000000E+01 0. -1.
          5    1    3    3  503    0  0.15162877756E+02 -0.34633092612E+02 -0.47675222856E+02  0.61027705512E+02  0.47000000000E+01 0. -1.
         -5    1    3    3    0  503 -0.14373429481E+02  0.10314291314E+03 -0.15109562400E+03  0.18356751782E+03  0.47000000000E+01 0. -1.
<mgrwt>
<rscale>  0 0.14252160E+03</rscale>
<asrwt>0</asrwt>
<pdfrwt beam="2">  1        5 0.74308095E-01 0.14253762E+03</pdfrwt>
<pdfrwt beam="1">  1       -5 0.65125562E-02 0.14253762E+03</pdfrwt>
<totfact> 0.19589261E+02</totfact>
</mgrwt>
</event>
<event>
 8    1  0.3759079E-007  0.1562276E+03  0.7546771E-02  0.1193027E+00
          5   -1    0    0  501    0  0.00000000000E+00  0.00000000000E+00  0.11925821723E+02  0.12818549987E+02  0.47000000000E+01 0.  1.
         -5   -1    0    0    0  501 -0.00000000000E+00 -0.00000000000E+00 -0.19984369664E+04  0.19984424932E+04  0.47000000000E+01 0.  1.
         25    2    1    2    0    0  0.16389483596E+02 -0.92267124105E+02 -0.11096086705E+04  0.11205506485E+04  0.12498206664E+03 0.  0.
         25    2    1    2    0    0 -0.16389483596E+02  0.92267124105E+02 -0.87690247415E+03  0.89071039461E+03  0.12500088212E+03 0.  0.
          5    1    3    3  502    0 -0.24273906580E+02 -0.97280357228E+02 -0.52629224621E+03  0.53577822731E+03  0.47000000000E+01 0. -1.
         -5    1    3    3    0  502  0.40663390175E+02  0.50132331225E+01 -0.58331642426E+03  0.58477242122E+03  0.47000000000E+01 0. -1.
          5    1    4    4  503    0 -0.33845634200E+02  0.10387916747E+03 -0.84619891325E+03  0.85323566450E+03  0.47000000000E+01 0.  1.
         -5    1    4    4    0  503  0.17456150604E+02 -0.11612043363E+02 -0.30703560907E+02  0.37474730117E+02  0.47000000000E+01 0.  1.
<mgrwt>
<rscale>  0 0.15622382E+03</rscale>
<asrwt>0</asrwt>
<pdfrwt beam="1">  1        5 0.19038399E-02 0.15622758E+03</pdfrwt>
<pdfrwt beam="2">  1       -5 0.30752068E+00 0.15622758E+03</pdfrwt>
<totfact> 0.23198562E+01</totfact>
</mgrwt>
</event>
<event>
 8    1  0.3759079E-007  0.2193664E+03  0.7546771E-02  0.1134357E+00
         -5   -1    0    0    0  501 -0.00000000000E+00  0.00000000000E+00  0.92997746449E+03  0.92998934104E+03  0.47000000000E+01 0.  1.
          5   -1    0    0  501    0  0.00000000000E+00 -0.00000000000E+00 -0.65236779582E+02  0.65405866787E+02  0.47000000000E+01 0.  1.
         25    2    1    2    0    0  0.19323770270E+02  0.17923016051E+03  0.65935513681E+03  0.69488756624E+03  0.12499069864E+03 0.  0.
         25    2    1    2    0    0 -0.19323770270E+02 -0.17923016051E+03  0.20538554809E+03  0.30050764159E+03  0.12499904301E+03 0.  0.
          5    1    4    4  502    0 -0.13390885079E+02 -0.19303972030E+03  0.15577732176E+03  0.24845988286E+03  0.47000000000E+01 0.  1.
         -5    1    4    4    0  502 -0.59328851914E+01  0.13809559795E+02  0.49608226332E+02  0.52047758724E+02  0.47000000000E+01 0.  1.
          5    1    3    3  503    0  0.62323378966E+02  0.57934489285E+02  0.34065101790E+03  0.35114927682E+03  0.47000000000E+01 0.  1.
         -5    1    3    3    0  503 -0.42999608696E+02  0.12129567122E+03  0.31870411891E+03  0.34373828942E+03  0.47000000000E+01 0.  1.
<mgrwt>
<rscale>  0 0.21936522E+03</rscale>
<asrwt>0</asrwt>
<pdfrwt beam="2">  1        5 0.10050348E-01 0.21936640E+03</pdfrwt>
<pdfrwt beam="1">  1       -5 0.14308737E+00 0.21936640E+03</pdfrwt>
<totfact> 0.20650553E+01</totfact>
</mgrwt>
</event>
<event>
 8    1  0.3759079E-007  0.1885477E+03  0.7546771E-02  0.1159778E+00
         -5   -1    0    0    0  501 -0.00000000000E+00  0.00000000000E+00  0.33751442498E+03  0.33754714792E+03  0.47000000000E+01 0. -1.
          5   -1    0    0  501    0  0.00000000000E+00 -0.00000000000E+00 -0.10669839944E+03  0.10680186536E+03  0.47000000000E+01 0. -1.
         25    2    1    2    0    0 -0.14067650828E+03 -0.11592754917E+02  0.14138343134E+03  0.23566641701E+03  0.12500045400E+03 0.  0.
         25    2    1    2    0    0  0.14067650828E+03  0.11592754917E+02  0.89432594190E+02  0.20868259626E+03  0.12500386046E+03 0.  0.
          5    1    4    4  502    0  0.68183368802E+02 -0.56312484796E+02  0.50100026825E+02  0.10174561619E+03  0.47000000000E+01 0.  1.
         -5    1    4    4    0  502  0.72493139482E+02  0.67905239714E+02  0.39332567365E+02  0.10693698008E+03  0.47000000000E+01 0.  1.
          5    1    3    3  503    0 -0.95224034232E+02  0.27716108392E+02  0.21654608198E+02  0.10162092017E+03  0.47000000000E+01 0.  1.
         -5    1    3    3    0  503 -0.45452474052E+02 -0.39308863309E+02  0.11972882314E+03  0.13404549684E+03  0.47000000000E+01 0.  1.
<mgrwt>
<rscale>  0 0.18854714E+03</rscale>
<asrwt>0</asrwt>
<pdfrwt beam="2">  1        5 0.16425615E-01 0.18854771E+03</pdfrwt>
<pdfrwt beam="1">  1       -5 0.51935772E-01 0.18854771E+03</pdfrwt>
<totfact> 0.92654872E+01</totfact>
</mgrwt>
</event>
<event>
 8    1  0.3759079E-007  0.1506618E+03  0.7546771E-02  0.1199669E+00
          5   -1    0    0  501    0  0.00000000000E+00  0.00000000000E+00  0.76476011774E+03  0.76477456004E+03  0.47000000000E+01 0.  1.
         -5   -1    0    0    0  501 -0.00000000000E+00 -0.00000000000E+00 -0.30663073011E+02  0.31021187058E+02  0.47000000000E+01 0.  1.
         25    2    1    2    0    0 -0.82672945276E+02 -0.15215244151E+02  0.28920248907E+03  0.32608290786E+03  0.12500265428E+03 0.  0.
         25    2    1    2    0    0  0.82672945276E+02  0.15215244151E+02  0.44489455566E+03  0.46971283924E+03  0.12503066087E+03 0.  0.
          5    1    3    3  502    0  0.28454151663E+02 -0.26021238843E+01  0.11823708516E+03  0.12173129467E+03  0.47000000000E+01 0. -1.
         -5    1    3    3    0  502 -0.11112709694E+03 -0.12613120266E+02  0.17096540391E+03  0.20435161318E+03  0.47000000000E+01 0. -1.
          5    1    4    4  503    0 -0.38149868803E+01  0.53141831881E+02  0.20483037987E+03  0.21169833003E+03  0.47000000000E+01 0. -1.
         -5    1    4    4    0  503  0.86487932156E+02 -0.37926587730E+02  0.24006417578E+03  0.25801450920E+03  0.47000000000E+01 0. -1.
<mgrwt>
<rscale>  0 0.15065601E+03</rscale>
<asrwt>0</asrwt>
<pdfrwt beam="1">  1        5 0.11768405E+00 0.15066183E+03</pdfrwt>
<pdfrwt beam="2">  1       -5 0.47460543E-02 0.15066183E+03</pdfrwt>
<totfact> 0.11231052E+02</totfact>
</mgrwt>
</event>
<event>
 8    1  0.3759079E-007  0.1345543E+03  0.7546771E-02  0.1220856E+00
          5   -1    0    0  501    0  0.00000000000E+00  0.00000000000E+00  0.12931446110E+04  0.12931531522E+04  0.47000000000E+01 0.  1.
         -5   -1    0    0    0  501 -0.00000000000E+00 -0.00000000000E+00 -0.22070433389E+02  0.22565328050E+02  0.47000000000E+01 0.  1.
         25    2    1    2    0    0  0.28440982950E+02  0.40856953523E+02  0.23378657898E+03  0.26974250539E+03  0.12500669799E+03 0.  0.
         25    2    1    2    0    0 -0.28440982950E+02 -0.40856953523E+02  0.10372875986E+04  0.10459759748E+04  0.12498798930E+03 0.  0.
          5    1    4    4  502    0 -0.76749018886E+02 -0.12370698140E+02  0.56306176941E+03  0.56842245930E+03  0.47000000000E+01 0.  1.
         -5    1    4    4    0  502  0.48308035936E+02 -0.28486255382E+02  0.47422582923E+03  0.47755351553E+03  0.47000000000E+01 0.  1.
          5    1    3    3  503    0  0.73352351596E+02  0.48642356883E+02  0.16548126620E+03  0.18749076199E+03  0.47000000000E+01 0. -1.
         -5    1    3    3    0  503 -0.44911368647E+02 -0.77854033607E+01  0.68305312776E+02  0.82251743402E+02  0.47000000000E+01 0. -1.
<mgrwt>
<rscale>  0 0.13454994E+03</rscale>
<asrwt>0</asrwt>
<pdfrwt beam="1">  1        5 0.19898403E+00 0.13455428E+03</pdfrwt>
<pdfrwt beam="2">  1       -5 0.34341774E-02 0.13455428E+03</pdfrwt>
<totfact> 0.43006786E+01</totfact>
</mgrwt>
</event>
<event>
 8    1  0.3759079E-007  0.1349129E+03  0.7546771E-02  0.1220344E+00
         -5   -1    0    0    0  501 -0.00000000000E+00  0.00000000000E+00  0.81585327979E+02  0.81720595577E+02  0.47000000000E+01 0.  1.
          5   -1    0    0  501    0  0.00000000000E+00 -0.00000000000E+00 -0.22588915168E+03  0.22593804206E+03  0.47000000000E+01 0.  1.
         25    2    1    2    0    0 -0.13842155508E+02 -0.48835400576E+02 -0.54016038801E+02  0.14532453518E+03  0.12499994584E+03 0.  0.
         25    2    1    2    0    0  0.13842155508E+02  0.48835400576E+02 -0.90287784903E+02  0.16233410245E+03  0.12499590032E+03 0.  0.
          5    1    4    4  502    0  0.65614798232E+02  0.19050016001E+02 -0.72732053428E+02  0.99901183439E+02  0.47000000000E+01 0. -1.
         -5    1    4    4    0  502 -0.51772642724E+02  0.29785384575E+02 -0.17555731475E+02  0.62432919013E+02  0.47000000000E+01 0. -1.
          5    1    3    3  503    0 -0.38637752191E+02 -0.34208392441E+02 -0.87018511378E+02  0.10127882962E+03  0.47000000000E+01 0.  1.
         -5    1    3    3    0  503  0.24795596683E+02 -0.14627008135E+02  0.33002472577E+02  0.44045705557E+02  0.47000000000E+01 0.  1.
<mgrwt>
<rscale>  0 0.13491195E+03</rscale>
<asrwt>0</asrwt>
<pdfrwt beam="2">  1        5 0.34766343E-01 0.13491289E+03</pdfrwt>
<pdfrwt beam="1">  1       -5 0.12565755E-01 0.13491289E+03</pdfrwt>
<totfact> 0.31075202E+02</totfact>
</mgrwt>
</event>
<event>
 8    1  0.3759079E-007  0.1426472E+03  0.7546771E-02  0.1209812E+00
          5   -1    0    0  501    0  0.00000000000E+00  0.00000000000E+00  0.19367565317E+04  0.19367622345E+04  0.47000000000E+01 0. -1.
         -5   -1    0    0    0  501 -0.00000000000E+00 -0.00000000000E+00 -0.11271274064E+02  0.12211945751E+02  0.47000000000E+01 0. -1.
         25    2    1    2    0    0 -0.13269756092E+02 -0.67437751815E+02  0.64597467188E+03  0.66153658833E+03  0.12499377662E+03 0.  0.
         25    2    1    2    0    0  0.13269756092E+02  0.67437751815E+02  0.12795105858E+04  0.12874375920E+04  0.12499710915E+03 0.  0.
          5    1    3    3  502    0 -0.29662791891E+02  0.25813711543E+00  0.33085394700E+02  0.44684238832E+02  0.47000000000E+01 0.  1.
         -5    1    3    3    0  502  0.16393035799E+02 -0.67695888930E+02  0.61288927718E+03  0.61685234950E+03  0.47000000000E+01 0.  1.
          5    1    4    4  503    0  0.31808532427E+02  0.34716023545E+02  0.11800803666E+04  0.11810286815E+04  0.47000000000E+01 0. -1.
         -5    1    4    4    0  503 -0.18538776335E+02  0.32721728270E+02  0.99430219190E+02  0.10640891042E+03  0.47000000000E+01 0. -1.
<mgrwt>
<rscale>  0 0.14264644E+03</rscale>
<asrwt>0</asrwt>
<pdfrwt beam="1">  1        5 0.29803533E+00 0.14264717E+03</pdfrwt>
<pdfrwt beam="2">  1       -5 0.18068403E-02 0.14264717E+03</pdfrwt>
<totfact> 0.28341968E+01</totfact>
</mgrwt>
</event>
<event>
 8    1  0.3759079E-007  0.1281844E+03  0.7546771E-02  0.1230179E+00
          5   -1    0    0  501    0  0.00000000000E+00  0.00000000000E+00  0.40489180562E+03  0.40491908360E+03  0.47000000000E+01 0. -1.
         -5   -1    0    0    0  501 -0.00000000000E+00 -0.00000000000E+00 -0.41810039740E+02  0.42073381407E+02  0.47000000000E+01 0. -1.
         25    2    1    2    0    0 -0.75174365498E+01  0.27327561664E+02  0.14084409081E+03  0.19044235906E+03  0.12501170636E+03 0.  0.
         25    2    1    2    0    0  0.75174365498E+01 -0.27327561664E+02  0.22223767507E+03  0.25655010595E+03  0.12500026065E+03 0.  0.
          5    1    3    3  502    0 -0.61028882665E+02  0.38180754961E+02  0.92946894893E+02  0.11765844568E+03  0.47000000000E+01 0.  1.
         -5    1    3    3    0  502  0.53511446115E+02 -0.10853193297E+02  0.47897195919E+02  0.72783913381E+02  0.47000000000E+01 0.  1.
          5    1    4    4  503    0 -0.59246127813E+01  0.19352979768E+00 -0.15263858525E+02  0.17035664574E+02  0.47000000000E+01 0. -1.
         -5    1    4    4    0  503  0.13442049331E+02 -0.27521091461E+02  0.23750153360E+03  0.23951444137E+03  0.47000000000E+01 0. -1.
<mgrwt>
<rscale>  0 0.12818159E+03</rscale>
<asrwt>0</asrwt>
<pdfrwt beam="1">  1        5 0.62313403E-01 0.12818438E+03</pdfrwt>
<pdfrwt beam="2">  1       -5 0.64546691E-02 0.12818438E+03</pdfrwt>
<totfact> 0.28446335E+02</totfact>
</mgrwt>
</event>
<event>
 8    1  0.3759079E-007  0.1333272E+03  0.7546771E-02  0.1222631E+00
          5   -1    0    0  501    0  0.00000000000E+00  0.00000000000E+00  0.87191832444E+02  0.87318415268E+02  0.47000000000E+01 0. -1.
         -5   -1    0    0    0  501 -0.00000000000E+00 -0.00000000000E+00 -0.20592972657E+03  0.20598335439E+03  0.47000000000E+01 0. -1.
         25    2    1    2    0    0 -0.37014743613E+02 -0.27533416451E+02 -0.75494938719E+02  0.15321762143E+03  0.12509186016E+03 0.  0.
         25    2    1    2    0    0  0.37014743613E+02  0.27533416451E+02 -0.43242955409E+02  0.14008414823E+03  0.12500174049E+03 0.  0.
          5    1    4    4  502    0  0.47620317373E+02  0.23874957470E+00 -0.79776846110E+02  0.93027881860E+02  0.47000000000E+01 0.  1.
         -5    1    4    4    0  502 -0.10605573761E+02  0.27294666877E+02  0.36533890701E+02  0.47056266367E+02  0.47000000000E+01 0.  1.
          5    1    3    3  503    0 -0.11326921575E+02 -0.23212718290E+02  0.32641380806E+02  0.41888890934E+02  0.47000000000E+01 0.  1.
         -5    1    3    3    0  503 -0.25687822038E+02 -0.43206981615E+01 -0.10813631952E+03  0.11132873050E+03  0.47000000000E+01 0.  1.
<mgrwt>
<rscale>  0 0.13330610E+03</rscale>
<asrwt>0</asrwt>
<pdfrwt beam="1">  1        5 0.13427990E-01 0.13332724E+03</pdfrwt>
<pdfrwt beam="2">  1       -5 0.31695359E-01 0.13332724E+03</pdfrwt>
<totfact> 0.33043253E+02</totfact>
</mgrwt>
</event>
<event>
 8    1  0.3759079E-007  0.1518190E+03  0.7546771E-02  0.1198256E+00
          5   -1    0    0  501    0  0.00000000000E+00  0.00000000000E+00  0.14608083909E+02  0.15345556865E+02  0.47000000000E+01 0. -1.
         -5   -1    0    0    0  501 -0.00000000000E+00 -0.00000000000E+00 -0.21007374238E+04  0.21007426815E+04  0.47000000000E+01 0. -1.
         25    2    1    2    0    0  0.72291724091E+02 -0.46880541578E+02 -0.15904792626E+04  0.15977087642E+04  0.12500052674E+03 0.  0.
         25    2    1    2    0    0 -0.72291724091E+02  0.46880541578E+02 -0.49565007729E+03  0.51837947420E+03  0.12499760639E+03 0.  0.
          5    1    3    3  502    0 -0.96256949348E+01  0.34574541646E+02 -0.37356225542E+03  0.37531173924E+03  0.47000000000E+01 0. -1.
         -5    1    3    3    0  502  0.81917419026E+02 -0.81455083224E+02 -0.12169170072E+04  0.12223970249E+04  0.47000000000E+01 0. -1.
          5    1    4    4  503    0  0.16104911801E+02 -0.10628780173E+02 -0.25279516570E+03  0.25357410151E+03  0.47000000000E+01 0. -1.
         -5    1    4    4    0  503 -0.88396635892E+02  0.57509321751E+02 -0.24285491159E+03  0.26480537270E+03  0.47000000000E+01 0. -1.
<mgrwt>
<rscale>  0 0.15181840E+03</rscale>
<asrwt>0</asrwt>
<pdfrwt beam="1">  1        5 0.23045323E-02 0.15181900E+03</pdfrwt>
<pdfrwt beam="2">  1       -5 0.32324727E+00 0.15181900E+03</pdfrwt>
<totfact> 0.13488041E+01</totfact>
</mgrwt>
</event>
<event>
 8    1  0.3759079E-007  0.1433523E+03  0.7546771E-02  0.1208888E+00
          5   -1    0    0  501    0  0.00000000000E+00  0.00000000000E+00  0.59432665754E+03  0.59434524131E+03  0.47000000000E+01 0.  1.
         -5   -1    0    0    0  501 -0.00000000000E+00 -0.00000000000E+00 -0.39325787055E+02  0.39605650197E+02  0.47000000000E+01 0.  1.
         25    2    1    2    0    0 -0.61779296212E+02  0.33289910133E+02  0.16574341000E+03  0.21913640129E+03  0.12499993942E+03 0.  0.
         25    2    1    2    0    0  0.61779296212E+02 -0.33289910133E+02  0.38925746049E+03  0.41481449021E+03  0.12499916475E+03 0.  0.
          5    1    4    4  502    0 -0.36636230670E+02 -0.24402700566E+02  0.12939499589E+03  0.13675840067E+03  0.47000000000E+01 0.  1.
         -5    1    4    4    0  502  0.98415526882E+02 -0.88872095668E+01  0.25986246460E+03  0.27805608954E+03  0.47000000000E+01 0.  1.
          5    1    3    3  503    0 -0.13586062279E+02  0.71431723878E+02  0.12674205337E+03  0.14619408455E+03  0.47000000000E+01 0. -1.
         -5    1    3    3    0  503 -0.48193233934E+02 -0.38141813745E+02  0.39001356628E+02  0.72942316741E+02  0.47000000000E+01 0. -1.
<mgrwt>
<rscale>  0 0.14335214E+03</rscale>
<asrwt>0</asrwt>
<pdfrwt beam="1">  1        5 0.91457834E-01 0.14335231E+03</pdfrwt>
<pdfrwt beam="2">  1       -5 0.60730781E-02 0.14335231E+03</pdfrwt>
<totfact> 0.13609721E+02</totfact>
</mgrwt>
</event>
<event>
 8    1  0.3759079E-007  0.1383632E+03  0.7546771E-02  0.1215551E+00
          5   -1    0    0  501    0  0.00000000000E+00  0.00000000000E+00  0.71206041572E+03  0.71207592688E+03  0.47000000000E+01 0. -1.
         -5   -1    0    0    0  501 -0.00000000000E+00 -0.00000000000E+00 -0.31737856751E+02  0.32083976548E+02  0.47000000000E+01 0. -1.
         25    2    1    2    0    0  0.56298194066E+02 -0.18695139437E+02  0.19230080912E+03  0.23690500646E+03  0.12500154399E+03 0.  0.
         25    2    1    2    0    0 -0.56298194066E+02  0.18695139437E+02  0.48802174985E+03  0.50725489697E+03  0.12499322895E+03 0.  0.
          5    1    4    4  502    0 -0.45639304648E+02  0.15755529437E+02  0.52174920035E+02  0.71242509201E+02  0.47000000000E+01 0. -1.
         -5    1    4    4    0  502 -0.10658889418E+02  0.29396099997E+01  0.43584682981E+03  0.43601238777E+03  0.47000000000E+01 0. -1.
          5    1    3    3  503    0 -0.15781376362E+02  0.23650703226E+02  0.12835249066E+03  0.13154793599E+03  0.47000000000E+01 0.  1.
         -5    1    3    3    0  503  0.72079570428E+02 -0.42345842663E+02  0.63948318461E+02  0.10535707047E+03  0.47000000000E+01 0.  1.
<mgrwt>
<rscale>  0 0.13836134E+03</rscale>
<asrwt>0</asrwt>
<pdfrwt beam="1">  1        5 0.10957558E+00 0.13836322E+03</pdfrwt>
<pdfrwt beam="2">  1       -5 0.49105646E-02 0.13836322E+03</pdfrwt>
<totfact> 0.12356294E+02</totfact>
</mgrwt>
</event>
<event>
 8    1  0.3759079E-007  0.1416185E+03  0.7546771E-02  0.1211168E+00
         -5   -1    0    0    0  501 -0.00000000000E+00  0.00000000000E+00  0.27997563161E+03  0.28001507869E+03  0.47000000000E+01 0.  1.
          5   -1    0    0  501    0  0.00000000000E+00 -0.00000000000E+00 -0.72301807459E+02  0.72454408850E+02  0.47000000000E+01 0.  1.
         25    2    1    2    0    0  0.17008433127E+02  0.64357180778E+02  0.85445324381E+02  0.16539833153E+03  0.12499828439E+03 0.  0.
         25    2    1    2    0    0 -0.17008433127E+02 -0.64357180778E+02  0.12222849977E+03  0.18707115601E+03  0.12499871095E+03 0.  0.
          5    1    4    4  502    0 -0.78551842790E+01 -0.38904283817E+02 -0.18249129874E+02  0.43935952938E+02  0.47000000000E+01 0.  1.
         -5    1    4    4    0  502 -0.91532488475E+01 -0.25452896960E+02  0.14047762964E+03  0.14313520307E+03  0.47000000000E+01 0.  1.
          5    1    3    3  503    0  0.32793153487E+02 -0.13490539463E+02  0.77593117403E+02  0.85441017310E+02  0.47000000000E+01 0. -1.
         -5    1    3    3    0  503 -0.15784720361E+02  0.77847720240E+02  0.78522069784E+01  0.79957314224E+02  0.47000000000E+01 0. -1.
<mgrwt>
<rscale>  0 0.14161845E+03</rscale>
<asrwt>0</asrwt>
<pdfrwt beam="2">  1        5 0.11138128E-01 0.14161854E+03</pdfrwt>
<pdfrwt beam="1">  1       -5 0.43087947E-01 0.14161854E+03</pdfrwt>
<totfact> 0.25271414E+02</totfact>
</mgrwt>
</event>
<event>
 8    1  0.3759079E-007  0.1276044E+03  0.7546771E-02  0.1231055E+00
          5   -1    0    0  501    0  0.00000000000E+00  0.00000000000E+00  0.96290053788E+02  0.96404691061E+02  0.47000000000E+01 0.  1.
         -5   -1    0    0    0  501 -0.00000000000E+00 -0.00000000000E+00 -0.17345037466E+03  0.17351404113E+03  0.47000000000E+01 0.  1.
         25    2    1    2    0    0 -0.25575616387E+02 -0.19132430104E+01 -0.60545215369E+02  0.14123712373E+03  0.12499771743E+03 0.  0.
         25    2    1    2    0    0  0.25575616387E+02  0.19132430104E+01 -0.16615105506E+02  0.12868160846E+03  0.12500048789E+03 0.  0.
          5    1    3    3  502    0  0.49413468784E+02 -0.57902082550E+01 -0.37732884427E+02  0.62618511449E+02  0.47000000000E+01 0. -1.
         -5    1    3    3    0  502 -0.74989085171E+02  0.38769652446E+01 -0.22812330942E+02  0.78618612283E+02  0.47000000000E+01 0. -1.
          5    1    4    4  503    0 -0.48517718083E+02  0.57267549678E+01 -0.22734872695E+02  0.54090009493E+02  0.47000000000E+01 0.  1.
         -5    1    4    4    0  503  0.74093334470E+02 -0.38135119574E+01  0.61197671887E+01  0.74591598969E+02  0.47000000000E+01 0.  1.
<mgrwt>
<rscale>  0 0.12760377E+03</rscale>
<asrwt>0</asrwt>
<pdfrwt beam="1">  1        5 0.14827570E-01 0.12760445E+03</pdfrwt>
<pdfrwt beam="2">  1       -5 0.26698389E-01 0.12760445E+03</pdfrwt>
<totfact> 0.38035945E+02</totfact>
</mgrwt>
</event>
<event>
 8    1  0.3759079E-007  0.1365052E+03  0.7546771E-02  0.1218111E+00
          5   -1    0    0  501    0  0.00000000000E+00  0.00000000000E+00  0.19564203702E+03  0.19569848403E+03  0.47000000000E+01 0.  1.
         -5   -1    0    0    0  501 -0.00000000000E+00 -0.00000000000E+00 -0.99667865672E+02  0.99778622197E+02  0.47000000000E+01 0.  1.
         25    2    1    2    0    0  0.41108816039E+02 -0.36301103847E+02  0.16434331211E+02  0.13748898412E+03  0.12500171445E+03 0.  0.
         25    2    1    2    0    0 -0.41108816039E+02  0.36301103847E+02  0.79539840138E+02  0.15798812210E+03  0.12500382258E+03 0.  0.
          5    1    4    4  502    0 -0.43179175563E+02 -0.36823777261E+02  0.58693022153E+02  0.81776479647E+02  0.47000000000E+01 0.  1.
         -5    1    4    4    0  502  0.20703595239E+01  0.73124881108E+02  0.20846817985E+02  0.76211642455E+02  0.47000000000E+01 0.  1.
          5    1    3    3  503    0  0.61682640532E+02 -0.17077369864E+01  0.54074887797E+02  0.82181798464E+02  0.47000000000E+01 0. -1.
         -5    1    3    3    0  503 -0.20573824493E+02 -0.34593366861E+02 -0.37640556586E+02  0.55307185655E+02  0.47000000000E+01 0. -1.
<mgrwt>
<rscale>  0 0.13650468E+03</rscale>
<asrwt>0</asrwt>
<pdfrwt beam="1">  1        5 0.30111637E-01 0.13650517E+03</pdfrwt>
<pdfrwt beam="2">  1       -5 0.15346380E-01 0.13650517E+03</pdfrwt>
<totfact> 0.28969414E+02</totfact>
</mgrwt>
</event>
<event>
 8    1  0.3759079E-007  0.1578514E+03  0.7546771E-02  0.1191145E+00
         -5   -1    0    0    0  501 -0.00000000000E+00  0.00000000000E+00  0.87026364698E+03  0.87027633844E+03  0.47000000000E+01 0.  1.
          5   -1    0    0  501    0  0.00000000000E+00 -0.00000000000E+00 -0.28917580133E+02  0.29297038088E+02  0.47000000000E+01 0.  1.
         25    2    1    2    0    0  0.72135877664E+02  0.63941151273E+02  0.36239064784E+03  0.39527647252E+03  0.12499780965E+03 0.  0.
         25    2    1    2    0    0 -0.72135877664E+02 -0.63941151273E+02  0.47895541901E+03  0.50429690401E+03  0.12500007329E+03 0.  0.
          5    1    3    3  502    0  0.61270943397E+02  0.86054003719E+02  0.35299405382E+03  0.36849194305E+03  0.47000000000E+01 0.  1.
         -5    1    3    3    0  502  0.10864934266E+02 -0.22112852446E+02  0.93965940168E+01  0.26784529472E+02  0.47000000000E+01 0.  1.
          5    1    4    4  503    0  0.99768007007E+01 -0.52996930090E+02  0.78620204992E+02  0.95453851594E+02  0.47000000000E+01 0.  1.
         -5    1    4    4    0  503 -0.82112678365E+02 -0.10944221183E+02  0.40033521402E+03  0.40884305242E+03  0.47000000000E+01 0.  1.
<mgrwt>
<rscale>  0 0.15785098E+03</rscale>
<asrwt>0</asrwt>
<pdfrwt beam="2">  1        5 0.44790232E-02 0.15785143E+03</pdfrwt>
<pdfrwt beam="1">  1       -5 0.13391690E+00 0.15785143E+03</pdfrwt>
<totfact> 0.89752621E+01</totfact>
</mgrwt>
</event>
<event>
 8    1  0.3759079E-007  0.1328526E+03  0.7546771E-02  0.1223287E+00
          5   -1    0    0  501    0  0.00000000000E+00  0.00000000000E+00  0.29211130430E+03  0.29214911278E+03  0.47000000000E+01 0. -1.
         -5   -1    0    0    0  501 -0.00000000000E+00 -0.00000000000E+00 -0.61142477699E+02  0.61322855276E+02  0.47000000000E+01 0. -1.
         25    2    1    2    0    0 -0.39928769438E+02 -0.20744687276E+02  0.94588046239E+02  0.16308495466E+03  0.12500062107E+03 0.  0.
         25    2    1    2    0    0  0.39928769438E+02  0.20744687276E+02  0.13638078036E+03  0.19038701340E+03  0.12499139546E+03 0.  0.
          5    1    4    4  502    0  0.44483410169E+02  0.70055034767E+01  0.15776900420E+03  0.16413713640E+03  0.47000000000E+01 0. -1.
         -5    1    4    4    0  502 -0.45546407302E+01  0.13739183799E+02 -0.21388223835E+02  0.26249876999E+02  0.47000000000E+01 0. -1.
          5    1    3    3  503    0  0.68390422219E+01  0.36766779525E+02 -0.58743542463E+01  0.38146646157E+02  0.47000000000E+01 0.  1.
         -5    1    3    3    0  503 -0.46767811660E+02 -0.57511466801E+02  0.10046240048E+03  0.12493830851E+03  0.47000000000E+01 0.  1.
<mgrwt>
<rscale>  0 0.13285039E+03</rscale>
<asrwt>0</asrwt>
<pdfrwt beam="1">  1        5 0.44956983E-01 0.13285256E+03</pdfrwt>
<pdfrwt beam="2">  1       -5 0.94233188E-02 0.13285256E+03</pdfrwt>
<totfact> 0.30329052E+02</totfact>
</mgrwt>
</event>
<event>
 8    1  0.3759079E-007  0.1273035E+03  0.7546771E-02  0.1231514E+00
          5   -1    0    0  501    0  0.00000000000E+00  0.00000000000E+00  0.14308418047E+04  0.14308495239E+04  0.47000000000E+01 0.  1.
         -5   -1    0    0    0  501 -0.00000000000E+00 -0.00000000000E+00 -0.12255874303E+02  0.13126174421E+02  0.47000000000E+01 0.  1.
         25    2    1    2    0    0 -0.19123676166E+02  0.14684899811E+02  0.47192025613E+03  0.48878923916E+03  0.12499932359E+03 0.  0.
         25    2    1    2    0    0  0.19123676166E+02 -0.14684899811E+02  0.94666567424E+03  0.95518645914E+03  0.12499564665E+03 0.  0.
          5    1    3    3  502    0 -0.20754378882E+02  0.28211586916E+01  0.54573186587E+01  0.22148939164E+02  0.47000000000E+01 0.  1.
         -5    1    3    3    0  502  0.16307027165E+01  0.11863741119E+02  0.46646293747E+03  0.46664029999E+03  0.47000000000E+01 0.  1.
          5    1    4    4  503    0  0.16990777445E+02  0.16110697755E+02  0.89132098604E+03  0.89164086451E+03  0.47000000000E+01 0. -1.
         -5    1    4    4    0  503  0.21328987208E+01 -0.30795597566E+02  0.55344688195E+02  0.63545594637E+02  0.47000000000E+01 0. -1.
<mgrwt>
<rscale>  0 0.12730264E+03</rscale>
<asrwt>0</asrwt>
<pdfrwt beam="1">  1        5 0.22019709E+00 0.12730354E+03</pdfrwt>
<pdfrwt beam="2">  1       -5 0.19530587E-02 0.12730354E+03</pdfrwt>
<totfact> 0.75641969E+01</totfact>
</mgrwt>
</event>
<event>
 8    1  0.3759079E-007  0.1299381E+03  0.7546771E-02  0.1227550E+00
         -5   -1    0    0    0  501 -0.00000000000E+00  0.00000000000E+00  0.12632311992E+03  0.12641052419E+03  0.47000000000E+01 0. -1.
          5   -1    0    0  501    0  0.00000000000E+00 -0.00000000000E+00 -0.13773361932E+03  0.13781378702E+03  0.47000000000E+01 0. -1.
         25    2    1    2    0    0  0.33611595409E+02 -0.11254533532E+02 -0.28921667446E+02  0.13311155801E+03  0.12500328058E+03 0.  0.
         25    2    1    2    0    0 -0.33611595409E+02  0.11254533532E+02  0.17511168043E+02  0.13111275320E+03  0.12501003630E+03 0.  0.
          5    1    3    3  502    0  0.75436143694E+02 -0.22167492698E+02  0.35479806878E+01  0.78845974374E+02  0.47000000000E+01 0.  1.
         -5    1    3    3    0  502 -0.41824548285E+02  0.10912959166E+02 -0.32469648134E+02  0.54265583633E+02  0.47000000000E+01 0.  1.
          5    1    4    4  503    0 -0.73368913113E+02  0.22655145596E+02  0.36747805047E+02  0.85256930564E+02  0.47000000000E+01 0.  1.
         -5    1    4    4    0  503  0.39757317704E+02 -0.11400612065E+02 -0.19236637004E+02  0.45855822637E+02  0.47000000000E+01 0.  1.
<mgrwt>
<rscale>  0 0.12993649E+03</rscale>
<asrwt>0</asrwt>
<pdfrwt beam="2">  1        5 0.21202678E-01 0.12993811E+03</pdfrwt>
<pdfrwt beam="1">  1       -5 0.19447216E-01 0.12993811E+03</pdfrwt>
<totfact> 0.36125976E+02</totfact>
</mgrwt>
</event>
<event>
 8    1  0.3759079E-007  0.1289218E+03  0.7546771E-02  0.1229068E+00
          5   -1    0    0  501    0  0.00000000000E+00  0.00000000000E+00  0.10114859542E+03  0.10125773233E+03  0.47000000000E+01 0. -1.
         -5   -1    0    0    0  501 -0.00000000000E+00 -0.00000000000E+00 -0.17881186211E+03  0.17887362028E+03  0.47000000000E+01 0. -1.
         25    2    1    2    0    0  0.27602887215E+02  0.15234212605E+02 -0.79020835800E+02  0.15121216935E+03  0.12500730800E+03 0.  0.
         25    2    1    2    0    0 -0.27602887215E+02 -0.15234212605E+02  0.13575691117E+01  0.12891918325E+03  0.12499724877E+03 0.  0.
          5    1    3    3  502    0 -0.17108619355E+02 -0.44575952679E+02 -0.54190264970E+02  0.72376758915E+02  0.47000000000E+01 0.  1.
         -5    1    3    3    0  502  0.44711506571E+02  0.59810165284E+02 -0.24830570830E+02  0.78835410437E+02  0.47000000000E+01 0.  1.
          5    1    4    4  503    0 -0.30278941692E+02 -0.41707862748E+02  0.50835155770E+02  0.72544215394E+02  0.47000000000E+01 0.  1.
         -5    1    4    4    0  503  0.26760544767E+01  0.26473650143E+02 -0.49477586658E+02  0.56374967857E+02  0.47000000000E+01 0.  1.
<mgrwt>
<rscale>  0 0.12891935E+03</rscale>
<asrwt>0</asrwt>
<pdfrwt beam="1">  1        5 0.15574468E-01 0.12892179E+03</pdfrwt>
<pdfrwt beam="2">  1       -5 0.27522663E-01 0.12892179E+03</pdfrwt>
<totfact> 0.32935857E+02</totfact>
</mgrwt>
</event>
<event>
 8    1  0.3759079E-007  0.1462218E+03  0.7546771E-02  0.1205197E+00
         -5   -1    0    0    0  501 -0.00000000000E+00  0.00000000000E+00  0.21081812627E+03  0.21087051089E+03  0.47000000000E+01 0. -1.
          5   -1    0    0  501    0  0.00000000000E+00 -0.00000000000E+00 -0.11822845182E+03  0.11832183576E+03  0.47000000000E+01 0. -1.
         25    2    1    2    0    0  0.75455595031E+02 -0.79107253785E+01  0.10855428089E+03  0.18211214951E+03  0.12499870680E+03 0.  0.
         25    2    1    2    0    0 -0.75455595031E+02  0.79107253785E+01 -0.15964606435E+02  0.14708019715E+03  0.12498635660E+03 0.  0.
          5    1    3    3  502    0  0.97969863925E+02 -0.39653779063E+02  0.89269895066E+02  0.13842586679E+03  0.47000000000E+01 0.  1.
         -5    1    3    3    0  502 -0.22514268894E+02  0.31743053685E+02  0.19284385823E+02  0.43686282717E+02  0.47000000000E+01 0.  1.
          5    1    4    4  503    0 -0.23711882688E+02  0.48120816935E+02  0.34745090281E+02  0.64087266299E+02  0.47000000000E+01 0.  1.
         -5    1    4    4    0  503 -0.51743712343E+02 -0.40210091557E+02 -0.50709696715E+02  0.82992930849E+02  0.47000000000E+01 0.  1.
<mgrwt>
<rscale>  0 0.14621912E+03</rscale>
<asrwt>0</asrwt>
<pdfrwt beam="2">  1        5 0.18200206E-01 0.14622176E+03</pdfrwt>
<pdfrwt beam="1">  1       -5 0.32444770E-01 0.14622176E+03</pdfrwt>
<totfact> 0.18722562E+02</totfact>
</mgrwt>
</event>
<event>
 8    1  0.3759079E-007  0.1469875E+03  0.7546771E-02  0.1204226E+00
          5   -1    0    0  501    0  0.00000000000E+00  0.00000000000E+00  0.78274249547E+03  0.78275660598E+03  0.47000000000E+01 0.  1.
         -5   -1    0    0    0  501 -0.00000000000E+00 -0.00000000000E+00 -0.27417996055E+02  0.27817917026E+02  0.47000000000E+01 0.  1.
         25    2    1    2    0    0  0.41856974768E+02 -0.65024377766E+02  0.36403446500E+03  0.39258937780E+03  0.12500060726E+03 0.  0.
         25    2    1    2    0    0 -0.41856974768E+02  0.65024377766E+02  0.39129003442E+03  0.41798514521E+03  0.12499405803E+03 0.  0.
          5    1    4    4  502    0 -0.28613524860E+02 -0.64285776811E+01  0.12442047585E+02  0.32201785106E+02  0.47000000000E+01 0. -1.
         -5    1    4    4    0  502 -0.13243449908E+02  0.71452955447E+02  0.37884798683E+03  0.38578336010E+03  0.47000000000E+01 0. -1.
          5    1    3    3  503    0  0.11895632231E+01 -0.68779437001E+02  0.80076527151E+02  0.10567102827E+03  0.47000000000E+01 0.  1.
         -5    1    3    3    0  503  0.40667411545E+02  0.37550592356E+01  0.28395793784E+03  0.28691834953E+03  0.47000000000E+01 0.  1.
<mgrwt>
<rscale>  0 0.14698612E+03</rscale>
<asrwt>0</asrwt>
<pdfrwt beam="1">  1        5 0.12045377E+00 0.14698751E+03</pdfrwt>
<pdfrwt beam="2">  1       -5 0.42500018E-02 0.14698751E+03</pdfrwt>
<totfact> 0.12606005E+02</totfact>
</mgrwt>
</event>
<event>
 8    1  0.3759079E-007  0.1253352E+03  0.7546771E-02  0.1234546E+00
          5   -1    0    0  501    0  0.00000000000E+00  0.00000000000E+00  0.38602529658E+03  0.38605390763E+03  0.47000000000E+01 0. -1.
         -5   -1    0    0    0  501 -0.00000000000E+00 -0.00000000000E+00 -0.65124869853E+02  0.65294246863E+02  0.47000000000E+01 0. -1.
         25    2    1    2    0    0 -0.37140150506E+01  0.83441213017E+01  0.22023656918E+02  0.12725519941E+03  0.12500170417E+03 0.  0.
         25    2    1    2    0    0  0.37140150506E+01 -0.83441213017E+01  0.29887676981E+03  0.32409295508E+03  0.12500200693E+03 0.  0.
          5    1    4    4  502    0 -0.31558048028E+02  0.33888175960E+02  0.23539241055E+03  0.23994998606E+03  0.47000000000E+01 0. -1.
         -5    1    4    4    0  502  0.35272063078E+02 -0.42232297262E+02  0.63484359257E+02  0.84142969024E+02  0.47000000000E+01 0. -1.
          5    1    3    3  503    0  0.34141937533E+02 -0.20809295059E+02 -0.34552308126E+02  0.53053281296E+02  0.47000000000E+01 0. -1.
         -5    1    3    3    0  503 -0.37855952584E+02  0.29153416361E+02  0.56575965044E+02  0.74201918117E+02  0.47000000000E+01 0. -1.
<mgrwt>
<rscale>  0 0.12533516E+03</rscale>
<asrwt>0</asrwt>
<pdfrwt beam="1">  1        5 0.59403737E-01 0.12533523E+03</pdfrwt>
<pdfrwt beam="2">  1       -5 0.10034441E-01 0.12533523E+03</pdfrwt>
<totfact> 0.14712548E+02</totfact>
</mgrwt>
</event>
<event>
 8    1  0.3759079E-007  0.1761843E+03  0.7546771E-02  0.1171550E+00
         -5   -1    0    0    0  501 -0.00000000000E+00  0.00000000000E+00  0.42154383594E+03  0.42157003644E+03  0.47000000000E+01 0. -1.
          5   -1    0    0  501    0  0.00000000000E+00 -0.00000000000E+00 -0.77265324712E+02  0.77408141709E+02  0.47000000000E+01 0. -1.
         25    2    1    2    0    0  0.10052875601E+02 -0.12375449737E+03  0.22694558885E+03  0.28730679794E+03  0.12499863965E+03 0.  0.
         25    2    1    2    0    0 -0.10052875601E+02  0.12375449737E+03  0.11733292238E+03  0.21167138021E+03  0.12498608962E+03 0.  0.
          5    1    3    3  502    0  0.65100273587E+00 -0.14748746163E+03  0.17260273793E+03  0.22708317921E+03  0.47000000000E+01 0.  1.
         -5    1    3    3    0  502  0.94018728656E+01  0.23732964257E+02  0.54342850922E+02  0.60223618723E+02  0.47000000000E+01 0.  1.
          5    1    4    4  503    0 -0.11725189186E+02  0.11204381194E+03  0.14354402709E+03  0.18253293831E+03  0.47000000000E+01 0. -1.
         -5    1    4    4    0  503  0.16723135842E+01  0.11710685427E+02 -0.26211104711E+02  0.29138441895E+02  0.47000000000E+01 0. -1.
<mgrwt>
<rscale>  0 0.17618204E+03</rscale>
<asrwt>0</asrwt>
<pdfrwt beam="2">  1        5 0.11899974E-01 0.17618427E+03</pdfrwt>
<pdfrwt beam="1">  1       -5 0.64865899E-01 0.17618427E+03</pdfrwt>
<totfact> 0.10002918E+02</totfact>
</mgrwt>
</event>
<event>
 8    1  0.3759079E-007  0.2167007E+03  0.7546771E-02  0.1136367E+00
          5   -1    0    0  501    0  0.00000000000E+00  0.00000000000E+00  0.45270806110E+02  0.45514128421E+02  0.47000000000E+01 0.  1.
         -5   -1    0    0    0  501 -0.00000000000E+00 -0.00000000000E+00 -0.10767374172E+04  0.10767476750E+04  0.47000000000E+01 0.  1.
         25    2    1    2    0    0 -0.65622453517E+02  0.16440264797E+03 -0.62716458459E+03  0.66354698026E+03  0.12499856712E+03 0.  0.
         25    2    1    2    0    0  0.65622453517E+02 -0.16440264797E+03 -0.40430202647E+03  0.45871482312E+03  0.12499849311E+03 0.  0.
          5    1    3    3  502    0 -0.25411299770E+01  0.75928015268E+02 -0.44438004181E+03  0.45085167451E+03  0.47000000000E+01 0.  1.
         -5    1    3    3    0  502 -0.63081323540E+02  0.88474632701E+02 -0.18278454278E+03  0.21269530575E+03  0.47000000000E+01 0.  1.
          5    1    4    4  503    0 -0.28367462426E+02 -0.45821339734E+02 -0.51005660055E+02  0.74350356134E+02  0.47000000000E+01 0.  1.
         -5    1    4    4    0  503  0.93989915943E+02 -0.11858130823E+03 -0.35329636642E+03  0.38436446699E+03  0.47000000000E+01 0.  1.
<mgrwt>
<rscale>  0 0.21670066E+03</rscale>
<asrwt>0</asrwt>
<pdfrwt beam="1">  1        5 0.69842464E-02 0.21670067E+03</pdfrwt>
<pdfrwt beam="2">  1       -5 0.16567140E+00 0.21670067E+03</pdfrwt>
<totfact> 0.25701237E+01</totfact>
</mgrwt>
</event>
<event>
 8    1  0.3759079E-007  0.1420692E+03  0.7546771E-02  0.1210572E+00
         -5   -1    0    0    0  501 -0.00000000000E+00  0.00000000000E+00  0.44822801262E+02  0.45068542388E+02  0.47000000000E+01 0. -1.
          5   -1    0    0  501    0  0.00000000000E+00 -0.00000000000E+00 -0.44932156648E+03  0.44934614731E+03  0.47000000000E+01 0. -1.
         25    2    1    2    0    0 -0.25459381731E+01  0.67466410575E+02 -0.21063304914E+03  0.25406677405E+03  0.12500178370E+03 0.  0.
         25    2    1    2    0    0  0.25459381731E+01 -0.67466410575E+02 -0.19386571607E+03  0.24034791564E+03  0.12500002532E+03 0.  0.
          5    1    4    4  502    0 -0.32694792843E+02 -0.92439357404E+02 -0.14303452802E+03  0.17347896265E+03  0.47000000000E+01 0. -1.
         -5    1    4    4    0  502  0.35240731016E+02  0.24972946828E+02 -0.50831188052E+02  0.66868952995E+02  0.47000000000E+01 0. -1.
          5    1    3    3  503    0 -0.37081737868E+02  0.21522846003E+02 -0.86217225035E+01  0.43985364411E+02  0.47000000000E+01 0.  1.
         -5    1    3    3    0  503  0.34535799695E+02  0.45943564572E+02 -0.20201132664E+03  0.21008140964E+03  0.47000000000E+01 0.  1.
<mgrwt>
<rscale>  0 0.14206877E+03</rscale>
<asrwt>0</asrwt>
<pdfrwt beam="2">  1        5 0.69147186E-01 0.14206915E+03</pdfrwt>
<pdfrwt beam="1">  1       -5 0.69166099E-02 0.14206915E+03</pdfrwt>
<totfact> 0.20799369E+02</totfact>
</mgrwt>
</event>
<event>
 8    1  0.3759079E-007  0.1478623E+03  0.7546771E-02  0.1203128E+00
         -5   -1    0    0    0  501 -0.00000000000E+00  0.00000000000E+00  0.87142296640E+02  0.87268951316E+02  0.47000000000E+01 0.  1.
          5   -1    0    0  501    0  0.00000000000E+00 -0.00000000000E+00 -0.25509560663E+03  0.25513890044E+03  0.47000000000E+01 0.  1.
         25    2    1    2    0    0  0.75712341209E+02  0.22505292330E+02 -0.61114243602E+02  0.15998569684E+03  0.12498650179E+03 0.  0.
         25    2    1    2    0    0 -0.75712341209E+02 -0.22505292330E+02 -0.10683906638E+03  0.18242215492E+03  0.12499763879E+03 0.  0.
          5    1    4    4  502    0 -0.10438485091E+03 -0.39020625417E+02 -0.96357075578E+02  0.14739600510E+03  0.47000000000E+01 0.  1.
         -5    1    4    4    0  502  0.28672509697E+02  0.16515333087E+02 -0.10481990805E+02  0.35026149811E+02  0.47000000000E+01 0.  1.
          5    1    3    3  503    0  0.90659325540E+02  0.54485693574E+02 -0.64880264705E+02  0.12417464661E+03  0.47000000000E+01 0.  1.
         -5    1    3    3    0  503 -0.14946984330E+02 -0.31980401244E+02  0.37660211021E+01  0.35811050239E+02  0.47000000000E+01 0.  1.
<mgrwt>
<rscale>  0 0.14785994E+03</rscale>
<asrwt>0</asrwt>
<pdfrwt beam="2">  1        5 0.39258550E-01 0.14786229E+03</pdfrwt>
<pdfrwt beam="1">  1       -5 0.13419580E-01 0.14786229E+03</pdfrwt>
<totfact> 0.22293945E+02</totfact>
</mgrwt>
</event>
<event>
 8    1  0.3759079E-007  0.1261560E+03  0.7546771E-02  0.1233299E+00
         -5   -1    0    0    0  501 -0.00000000000E+00  0.00000000000E+00  0.14199810870E+03  0.14207587014E+03  0.47000000000E+01 0.  1.
          5   -1    0    0  501    0  0.00000000000E+00 -0.00000000000E+00 -0.11383057621E+03  0.11392756506E+03  0.47000000000E+01 0.  1.
         25    2    1    2    0    0  0.35932753770E+01  0.16166802740E+02  0.30882711204E+02  0.12981821745E+03  0.12499900236E+03 0.  0.
         25    2    1    2    0    0 -0.35932753770E+01 -0.16166802740E+02 -0.27151787178E+01  0.12618521775E+03  0.12506422288E+03 0.  0.
          5    1    3    3  502    0  0.54322308085E+02  0.17090068313E+02 -0.17287532514E+02  0.59698679810E+02  0.47000000000E+01 0. -1.
         -5    1    3    3    0  502 -0.50729032708E+02 -0.92326557259E+00  0.48170243718E+02  0.70119537639E+02  0.47000000000E+01 0. -1.
          5    1    4    4  503    0 -0.41085490283E+02  0.23681636270E+02 -0.37966643183E+02  0.60929413281E+02  0.47000000000E+01 0. -1.
         -5    1    4    4    0  503  0.37492214906E+02 -0.39848439010E+02  0.35251464465E+02  0.65255804469E+02  0.47000000000E+01 0. -1.
<mgrwt>
<rscale>  0 0.12613984E+03</rscale>
<asrwt>0</asrwt>
<pdfrwt beam="2">  1        5 0.17525839E-01 0.12615600E+03</pdfrwt>
<pdfrwt beam="1">  1       -5 0.21859305E-01 0.12615600E+03</pdfrwt>
<totfact> 0.40890981E+02</totfact>
</mgrwt>
</event>
<event>
 8    1  0.3759079E-007  0.1520777E+03  0.7546771E-02  0.1197944E+00
         -5   -1    0    0    0  501 -0.00000000000E+00  0.00000000000E+00  0.92671258638E+03  0.92672450477E+03  0.47000000000E+01 0.  1.
          5   -1    0    0  501    0  0.00000000000E+00 -0.00000000000E+00 -0.33657550378E+02  0.33984124197E+02  0.47000000000E+01 0.  1.
         25    2    1    2    0    0  0.62561990174E+02  0.59920108675E+02  0.69258332605E+03  0.70908341171E+03  0.12499279657E+03 0.  0.
         25    2    1    2    0    0 -0.62561990174E+02 -0.59920108675E+02  0.20047170995E+03  0.25162521727E+03  0.12498768514E+03 0.  0.
          5    1    3    3  502    0  0.59116251636E+01  0.86531649078E+02  0.33767217735E+03  0.34866497238E+03  0.47000000000E+01 0.  1.
         -5    1    3    3    0  502  0.56650365010E+02 -0.26611540403E+02  0.35491114870E+03  0.36041843933E+03  0.47000000000E+01 0.  1.
          5    1    4    4  503    0  0.34293791026E+02 -0.40018855071E+02  0.64217516684E+02  0.83207886124E+02  0.47000000000E+01 0. -1.
         -5    1    4    4    0  503 -0.96855781200E+02 -0.19901253604E+02  0.13625419326E+03  0.16841733114E+03  0.47000000000E+01 0. -1.
<mgrwt>
<rscale>  0 0.15207663E+03</rscale>
<asrwt>0</asrwt>
<pdfrwt beam="2">  1        5 0.52041220E-02 0.15207768E+03</pdfrwt>
<pdfrwt beam="1">  1       -5 0.14259722E+00 0.15207768E+03</pdfrwt>
<totfact> 0.58522953E+01</totfact>
</mgrwt>
</event>
<event>
 8    1  0.3759079E-007  0.1822257E+03  0.7546771E-02  0.1165666E+00
         -5   -1    0    0    0  501 -0.00000000000E+00  0.00000000000E+00  0.22035613207E+03  0.22040624978E+03  0.47000000000E+01 0.  1.
          5   -1    0    0  501    0  0.00000000000E+00 -0.00000000000E+00 -0.15139126451E+03  0.15146420359E+03  0.47000000000E+01 0.  1.
         25    2    1    2    0    0 -0.19158051395E+02  0.13120200277E+03  0.48013688513E+02  0.18844433412E+03  0.12499982525E+03 0.  0.
         25    2    1    2    0    0  0.19158051395E+02 -0.13120200277E+03  0.20951179052E+02  0.18342611925E+03  0.12500077142E+03 0.  0.
          5    1    3    3  502    0  0.47888501418E+02  0.91456670452E+02  0.18592183961E+02  0.10500185923E+03  0.47000000000E+01 0.  1.
         -5    1    3    3    0  502 -0.67046552813E+02  0.39745332319E+02  0.29421504551E+02  0.83442474887E+02  0.47000000000E+01 0.  1.
          5    1    4    4  503    0  0.83726294062E+01 -0.11595957970E+03  0.66468818932E+02  0.13400342883E+03  0.47000000000E+01 0. -1.
         -5    1    4    4    0  503  0.10785421989E+02 -0.15242423070E+02 -0.45517639881E+02  0.49422690425E+02  0.47000000000E+01 0. -1.
<mgrwt>
<rscale>  0 0.18222549E+03</rscale>
<asrwt>0</asrwt>
<pdfrwt beam="2">  1        5 0.23300430E-01 0.18222565E+03</pdfrwt>
<pdfrwt beam="1">  1       -5 0.33910409E-01 0.18222565E+03</pdfrwt>
<totfact> 0.11537840E+02</totfact>
</mgrwt>
</event>
<event>
 8    1  0.3759079E-007  0.1252274E+03  0.7546771E-02  0.1234718E+00
         -5   -1    0    0    0  501 -0.00000000000E+00  0.00000000000E+00  0.36996122179E+03  0.36999107507E+03  0.47000000000E+01 0.  1.
          5   -1    0    0  501    0  0.00000000000E+00 -0.00000000000E+00 -0.48190305160E+02  0.48418958182E+02  0.47000000000E+01 0.  1.
         25    2    1    2    0    0 -0.74922598472E+01 -0.10677183073E+01  0.23428823499E+03  0.26565164701E+03  0.12499018570E+03 0.  0.
         25    2    1    2    0    0  0.74922598472E+01  0.10677183073E+01  0.87482681639E+02  0.15275838624E+03  0.12499852399E+03 0.  0.
          5    1    3    3  502    0  0.12707303258E+02  0.17285063536E+02  0.23682584029E+03  0.23784200135E+03  0.47000000000E+01 0.  1.
         -5    1    3    3    0  502 -0.20199563105E+02 -0.18352781843E+02 -0.25376052957E+01  0.27809645658E+02  0.47000000000E+01 0.  1.
          5    1    4    4  503    0  0.52266560415E+02  0.39155793460E+02  0.54505912296E+02  0.85193626371E+02  0.47000000000E+01 0.  1.
         -5    1    4    4    0  503 -0.44774300568E+02 -0.38088075152E+02  0.32976769344E+02  0.67564759872E+02  0.47000000000E+01 0.  1.
<mgrwt>
<rscale>  0 0.12522533E+03</rscale>
<asrwt>0</asrwt>
<pdfrwt beam="2">  1        5 0.74337785E-02 0.12522741E+03</pdfrwt>
<pdfrwt beam="1">  1       -5 0.56936994E-01 0.12522741E+03</pdfrwt>
<totfact> 0.27034344E+02</totfact>
</mgrwt>
</event>
<event>
 8    1  0.3759079E-007  0.1277820E+03  0.7546771E-02  0.1230794E+00
          5   -1    0    0  501    0  0.00000000000E+00  0.00000000000E+00  0.29155286803E+02  0.29531690580E+02  0.47000000000E+01 0.  1.
         -5   -1    0    0    0  501 -0.00000000000E+00 -0.00000000000E+00 -0.72974247984E+03  0.72975761516E+03  0.47000000000E+01 0.  1.
         25    2    1    2    0    0 -0.21104200071E+02 -0.15980346758E+02 -0.53553368259E+03  0.55056748708E+03  0.12500989522E+03 0.  0.
         25    2    1    2    0    0  0.21104200071E+02  0.15980346758E+02 -0.16505351045E+03  0.20872181865E+03  0.12498550927E+03 0.  0.
          5    1    3    3  502    0 -0.56214264447E+01  0.54658533571E+02 -0.24542280759E+03  0.25154244217E+03  0.47000000000E+01 0. -1.
         -5    1    3    3    0  502 -0.15482773626E+02 -0.70638880329E+02 -0.29011087500E+03  0.29902504492E+03  0.47000000000E+01 0. -1.
          5    1    4    4  503    0  0.63564942854E+02 -0.20319119163E+02 -0.11750044528E+03  0.13521025555E+03  0.47000000000E+01 0.  1.
         -5    1    4    4    0  503 -0.42460742783E+02  0.36299465921E+02 -0.47553065163E+02  0.73511563105E+02  0.47000000000E+01 0.  1.
<mgrwt>
<rscale>  0 0.12777601E+03</rscale>
<asrwt>0</asrwt>
<pdfrwt beam="1">  1        5 0.45155477E-02 0.12778197E+03</pdfrwt>
<pdfrwt beam="2">  1       -5 0.11229818E+00 0.12778197E+03</pdfrwt>
<totfact> 0.13008269E+02</totfact>
</mgrwt>
</event>
<event>
 8    1  0.3759079E-007  0.1397151E+03  0.7546771E-02  0.1213714E+00
         -5   -1    0    0    0  501 -0.00000000000E+00  0.00000000000E+00  0.34311128601E+03  0.34314347522E+03  0.47000000000E+01 0.  1.
          5   -1    0    0  501    0  0.00000000000E+00 -0.00000000000E+00 -0.81339603596E+02  0.81475279153E+02  0.47000000000E+01 0.  1.
         25    2    1    2    0    0  0.61206971311E+02  0.12175379326E+02  0.24745534691E+03  0.28417205563E+03  0.12500030116E+03 0.  0.
         25    2    1    2    0    0 -0.61206971311E+02 -0.12175379326E+02  0.14316335502E+02  0.14044669874E+03  0.12500313806E+03 0.  0.
          5    1    3    3  502    0  0.97157817861E+02 -0.55226446188E+01  0.15204740174E+03  0.18058417303E+03  0.47000000000E+01 0. -1.
         -5    1    3    3    0  502 -0.35950846551E+02  0.17698023945E+02  0.95407945173E+02  0.10358788260E+03  0.47000000000E+01 0. -1.
          5    1    4    4  503    0  0.34081830230E+02 -0.96354041661E+01  0.26152595752E+02  0.44277086962E+02  0.47000000000E+01 0. -1.
         -5    1    4    4    0  503 -0.95288801541E+02 -0.25399751603E+01 -0.11836260250E+02  0.96169611778E+02  0.47000000000E+01 0. -1.
<mgrwt>
<rscale>  0 0.13971450E+03</rscale>
<asrwt>0</asrwt>
<pdfrwt beam="2">  1        5 0.12526698E-01 0.13971513E+03</pdfrwt>
<pdfrwt beam="1">  1       -5 0.52799265E-01 0.13971513E+03</pdfrwt>
<totfact> 0.13322622E+02</totfact>
</mgrwt>
</event>
<event>
 8    1  0.3759079E-007  0.1341199E+03  0.7546771E-02  0.1221468E+00
         -5   -1    0    0    0  501 -0.00000000000E+00  0.00000000000E+00  0.38505797893E+03  0.38508666186E+03  0.47000000000E+01 0.  1.
          5   -1    0    0  501    0  0.00000000000E+00 -0.00000000000E+00 -0.66994835726E+02  0.67159496827E+02  0.47000000000E+01 0.  1.
         25    2    1    2    0    0 -0.34810247858E+02 -0.33926632459E+02  0.28368460800E+03  0.31379148843E+03  0.12500148659E+03 0.  0.
         25    2    1    2    0    0  0.34810247858E+02  0.33926632459E+02  0.34378535210E+02  0.13845467025E+03  0.12500016914E+03 0.  0.
          5    1    3    3  502    0 -0.48122921102E+02  0.31204747515E+02  0.73826223375E+02  0.93605304661E+02  0.47000000000E+01 0. -1.
         -5    1    3    3    0  502  0.13312673244E+02 -0.65131379974E+02  0.20985838462E+03  0.22018618377E+03  0.47000000000E+01 0. -1.
          5    1    4    4  503    0  0.25692224861E+02  0.79186654446E+02  0.50070913255E+01  0.83533092988E+02  0.47000000000E+01 0. -1.
         -5    1    4    4    0  503  0.91180229967E+01 -0.45260021987E+02  0.29371443885E+02  0.54921577267E+02  0.47000000000E+01 0. -1.
<mgrwt>
<rscale>  0 0.13411957E+03</rscale>
<asrwt>0</asrwt>
<pdfrwt beam="2">  1        5 0.10321770E-01 0.13411988E+03</pdfrwt>
<pdfrwt beam="1">  1       -5 0.59254562E-01 0.13411988E+03</pdfrwt>
<totfact> 0.14416564E+02</totfact>
</mgrwt>
</event>
<event>
 8    1  0.3759079E-007  0.1354109E+03  0.7546771E-02  0.1219643E+00
         -5   -1    0    0    0  501 -0.00000000000E+00  0.00000000000E+00  0.17516517091E+03  0.17522821433E+03  0.47000000000E+01 0.  1.
          5   -1    0    0  501    0  0.00000000000E+00 -0.00000000000E+00 -0.10483270698E+03  0.10493801243E+03  0.47000000000E+01 0.  1.
         25    2    1    2    0    0 -0.24987847640E+02 -0.45671868299E+02  0.42564281479E+02  0.14194303955E+03  0.12500318530E+03 0.  0.
         25    2    1    2    0    0  0.24987847640E+02  0.45671868299E+02  0.27768182449E+02  0.13822318721E+03  0.12499706174E+03 0.  0.
          5    1    3    3  502    0 -0.33346011542E+02  0.23955629732E+02  0.56787683751E+02  0.70233608105E+02  0.47000000000E+01 0. -1.
         -5    1    3    3    0  502  0.83581639025E+01 -0.69627498031E+02 -0.14223402272E+02  0.71709431445E+02  0.47000000000E+01 0. -1.
          5    1    4    4  503    0 -0.41333770790E+02 -0.13240785607E+02 -0.40955183960E+01  0.43848173076E+02  0.47000000000E+01 0.  1.
         -5    1    4    4    0  503  0.66321618430E+02  0.58912653907E+02  0.31863700845E+02  0.94375014135E+02  0.47000000000E+01 0.  1.
<mgrwt>
<rscale>  0 0.13540947E+03</rscale>
<asrwt>0</asrwt>
<pdfrwt beam="2">  1        5 0.16141059E-01 0.13541089E+03</pdfrwt>
<pdfrwt beam="1">  1       -5 0.26961437E-01 0.13541089E+03</pdfrwt>
<totfact> 0.32687139E+02</totfact>
</mgrwt>
</event>
<event>
 8    1  0.3759079E-007  0.1541888E+03  0.7546771E-02  0.1195421E+00
          5   -1    0    0  501    0  0.00000000000E+00  0.00000000000E+00  0.32680899437E+03  0.32684278912E+03  0.47000000000E+01 0. -1.
         -5   -1    0    0    0  501 -0.00000000000E+00 -0.00000000000E+00 -0.75359731218E+02  0.75506152659E+02  0.47000000000E+01 0. -1.
         25    2    1    2    0    0 -0.23270420751E+02  0.87215802807E+02  0.87473221706E+02  0.17726597459E+03  0.12499420982E+03 0.  0.
         25    2    1    2    0    0  0.23270420751E+02 -0.87215802807E+02  0.16397604144E+03  0.22508296719E+03  0.12500436477E+03 0.  0.
          5    1    3    3  502    0 -0.74813289674E+02  0.45487295169E+02  0.48529674287E+02  0.10021647380E+03  0.47000000000E+01 0. -1.
         -5    1    3    3    0  502  0.51542868923E+02  0.41728507638E+02  0.38943547419E+02  0.77049500791E+02  0.47000000000E+01 0. -1.
          5    1    4    4  503    0 -0.38932631198E+02 -0.29681760061E+02  0.11960365080E+03  0.12932084108E+03  0.47000000000E+01 0.  1.
         -5    1    4    4    0  503  0.62203051948E+02 -0.57534042747E+02  0.44372390643E+02  0.95762126114E+02  0.47000000000E+01 0.  1.
<mgrwt>
<rscale>  0 0.15418679E+03</rscale>
<asrwt>0</asrwt>
<pdfrwt beam="1">  1        5 0.50292170E-01 0.15418885E+03</pdfrwt>
<pdfrwt beam="2">  1       -5 0.11607667E-01 0.15418885E+03</pdfrwt>
<totfact> 0.17471044E+02</totfact>
</mgrwt>
</event>
<event>
 8    1  0.3759079E-007  0.1487661E+03  0.7546771E-02  0.1202000E+00
         -5   -1    0    0    0  501 -0.00000000000E+00  0.00000000000E+00  0.61209976102E+02  0.61390155354E+02  0.47000000000E+01 0. -1.
          5   -1    0    0  501    0  0.00000000000E+00 -0.00000000000E+00 -0.43185405376E+03  0.43187962877E+03  0.47000000000E+01 0. -1.
         25    2    1    2    0    0  0.11692227733E+01 -0.80646055970E+02 -0.85321923185E+02  0.17149692300E+03  0.12500484230E+03 0.  0.
         25    2    1    2    0    0 -0.11692227733E+01  0.80646055970E+02 -0.28532215447E+03  0.32177286112E+03  0.12499555550E+03 0.  0.
          5    1    4    4  502    0  0.81815786747E+01 -0.21363301670E+02 -0.15093145703E+03  0.15272761247E+03  0.47000000000E+01 0. -1.
         -5    1    4    4    0  502 -0.93508014480E+01  0.10200935764E+03 -0.13439069743E+03  0.16904524865E+03  0.47000000000E+01 0. -1.
          5    1    3    3  503    0  0.30588687775E+02 -0.80111986282E+02 -0.10510491425E+03  0.13573036199E+03  0.47000000000E+01 0. -1.
         -5    1    3    3    0  503 -0.29419465002E+02 -0.53406968784E+00  0.19782991066E+02  0.35766561016E+02  0.47000000000E+01 0. -1.
<mgrwt>
<rscale>  0 0.14876419E+03</rscale>
<asrwt>0</asrwt>
<pdfrwt beam="2">  1        5 0.66454910E-01 0.14876614E+03</pdfrwt>
<pdfrwt beam="1">  1       -5 0.94327469E-02 0.14876614E+03</pdfrwt>
<totfact> 0.13544434E+02</totfact>
</mgrwt>
</event>
<event>
 8    1  0.3759079E-007  0.2132556E+03  0.7546771E-02  0.1139014E+00
          5   -1    0    0  501    0  0.00000000000E+00  0.00000000000E+00  0.47780078330E+03  0.47782389907E+03  0.47000000000E+01 0.  1.
         -5   -1    0    0    0  501 -0.00000000000E+00 -0.00000000000E+00 -0.13258426600E+03  0.13266754536E+03  0.47000000000E+01 0.  1.
         25    2    1    2    0    0  0.14624560437E+03  0.92015704222E+02  0.10373660272E+02  0.21350569164E+03  0.12498960323E+03 0.  0.
         25    2    1    2    0    0 -0.14624560437E+03 -0.92015704222E+02  0.33484285703E+03  0.39698575279E+03  0.12499312937E+03 0.  0.
          5    1    3    3  502    0  0.94742817123E+02 -0.24640021557E+01 -0.28369559127E+02  0.99041378161E+02  0.47000000000E+01 0. -1.
         -5    1    3    3    0  502  0.51502787245E+02  0.94479706378E+02  0.38743219399E+02  0.11446431348E+03  0.47000000000E+01 0. -1.
          5    1    4    4  503    0 -0.13949435958E+03 -0.27932589473E+02  0.18202759954E+03  0.23107367419E+03  0.47000000000E+01 0. -1.
         -5    1    4    4    0  503 -0.67512447917E+01 -0.64083114749E+02  0.15281525749E+03  0.16591207860E+03  0.47000000000E+01 0. -1.
<mgrwt>
<rscale>  0 0.21325508E+03</rscale>
<asrwt>0</asrwt>
<pdfrwt beam="1">  1        5 0.73515998E-01 0.21325560E+03</pdfrwt>
<pdfrwt beam="2">  1       -5 0.20405763E-01 0.21325560E+03</pdfrwt>
<totfact> 0.29570541E+01</totfact>
</mgrwt>
</event>
<event>
 8    1  0.3759079E-007  0.1327371E+03  0.7546771E-02  0.1223453E+00
         -5   -1    0    0    0  501 -0.00000000000E+00  0.00000000000E+00  0.15385067787E+02  0.16086960894E+02  0.47000000000E+01 0. -1.
          5   -1    0    0  501    0  0.00000000000E+00 -0.00000000000E+00 -0.11198433516E+04  0.11198532146E+04  0.47000000000E+01 0. -1.
         25    2    1    2    0    0  0.44253442848E+02 -0.57978142949E+01 -0.53560657877E+03  0.55180932852E+03  0.12500858357E+03 0.  0.
         25    2    1    2    0    0 -0.44253442848E+02  0.57978142949E+01 -0.56885170508E+03  0.58413084695E+03  0.12499840853E+03 0.  0.
          5    1    3    3  502    0  0.83864081862E+01 -0.44947375969E+02 -0.73845152104E+02  0.86981578153E+02  0.47000000000E+01 0. -1.
         -5    1    3    3    0  502  0.35867034662E+02  0.39149561674E+02 -0.46176142667E+03  0.46482775037E+03  0.47000000000E+01 0. -1.
          5    1    4    4  503    0 -0.51164252820E+02 -0.28579846845E+02 -0.52261341819E+03  0.52591012852E+03  0.47000000000E+01 0. -1.
         -5    1    4    4    0  503  0.69108099718E+01  0.34377661140E+02 -0.46238286894E+02  0.58220718433E+02  0.47000000000E+01 0. -1.
<mgrwt>
<rscale>  0 0.13273467E+03</rscale>
<asrwt>0</asrwt>
<pdfrwt beam="2">  1        5 0.17233828E+00 0.13273706E+03</pdfrwt>
<pdfrwt beam="1">  1       -5 0.24216849E-02 0.13273706E+03</pdfrwt>
<totfact> 0.11551795E+02</totfact>
</mgrwt>
</event>
<event>
 8    1  0.3759079E-007  0.1496419E+03  0.7546771E-02  0.1200916E+00
          5   -1    0    0  501    0  0.00000000000E+00  0.00000000000E+00  0.96455273560E+02  0.96569714702E+02  0.47000000000E+01 0.  1.
         -5   -1    0    0    0  501 -0.00000000000E+00 -0.00000000000E+00 -0.23566896669E+03  0.23571582862E+03  0.47000000000E+01 0.  1.
         25    2    1    2    0    0 -0.53906782798E+02  0.62134923325E+02 -0.48524794465E+02  0.15731291212E+03  0.12500402679E+03 0.  0.
         25    2    1    2    0    0  0.53906782798E+02 -0.62134923325E+02 -0.90688898666E+02  0.17497263120E+03  0.12499702156E+03 0.  0.
          5    1    3    3  502    0  0.34975921446E+02  0.32432361933E+02 -0.41185471870E+02  0.63194194944E+02  0.47000000000E+01 0. -1.
         -5    1    3    3    0  502 -0.88882704243E+02  0.29702561391E+02 -0.73393225952E+01  0.94118717176E+02  0.47000000000E+01 0. -1.
          5    1    4    4  503    0  0.43237970085E+02 -0.86098394215E+02 -0.10673622825E+03  0.14386510336E+03  0.47000000000E+01 0.  1.
         -5    1    4    4    0  503  0.10668812712E+02  0.23963470891E+02  0.16047329580E+02  0.31107527843E+02  0.47000000000E+01 0.  1.
<mgrwt>
<rscale>  0 0.14964043E+03</rscale>
<asrwt>0</asrwt>
<pdfrwt beam="1">  1        5 0.14851681E-01 0.14964189E+03</pdfrwt>
<pdfrwt beam="2">  1       -5 0.36269172E-01 0.14964189E+03</pdfrwt>
<totfact> 0.21895863E+02</totfact>
</mgrwt>
</event>
<event>
 8    1  0.3759079E-007  0.1436691E+03  0.7546771E-02  0.1208478E+00
          5   -1    0    0  501    0  0.00000000000E+00  0.00000000000E+00  0.13639141419E+02  0.14426232309E+02  0.47000000000E+01 0. -1.
         -5   -1    0    0    0  501 -0.00000000000E+00 -0.00000000000E+00 -0.14748824587E+04  0.14748899474E+04  0.47000000000E+01 0. -1.
         25    2    1    2    0    0  0.45195028376E+02  0.54524714017E+02 -0.77333258921E+03  0.78656475390E+03  0.12500113411E+03 0.  0.
         25    2    1    2    0    0 -0.45195028376E+02 -0.54524714017E+02 -0.68791072810E+03  0.70275142584E+03  0.12499144635E+03 0.  0.
          5    1    3    3  502    0 -0.26497441487E+02  0.64680095127E+02 -0.42750470652E+03  0.43320664031E+03  0.47000000000E+01 0.  1.
         -5    1    3    3    0  502  0.71692469863E+02 -0.10155381110E+02 -0.34582788269E+03  0.35335811360E+03  0.47000000000E+01 0.  1.
          5    1    4    4  503    0 -0.46459879996E+02 -0.54508847043E+02 -0.69241174192E+03  0.69612200454E+03  0.47000000000E+01 0. -1.
         -5    1    4    4    0  503  0.12648516202E+01 -0.15866974073E-01  0.45010138213E+01  0.66294213022E+01  0.47000000000E+01 0. -1.
<mgrwt>
<rscale>  0 0.14366702E+03</rscale>
<asrwt>0</asrwt>
<pdfrwt beam="1">  1        5 0.21594521E-02 0.14366913E+03</pdfrwt>
<pdfrwt beam="2">  1       -5 0.22696599E+00 0.14366913E+03</pdfrwt>
<totfact> 0.60361311E+01</totfact>
</mgrwt>
</event>
<event>
 8    1  0.3759079E-007  0.1413834E+03  0.7546771E-02  0.1211480E+00
          5   -1    0    0  501    0  0.00000000000E+00  0.00000000000E+00  0.16317154625E+02  0.16980563449E+02  0.47000000000E+01 0. -1.
         -5   -1    0    0    0  501 -0.00000000000E+00 -0.00000000000E+00 -0.12006351265E+04  0.12006443257E+04  0.47000000000E+01 0. -1.
         25    2    1    2    0    0 -0.60314775037E+02 -0.26940003879E+02 -0.57779704301E+03  0.59484342591E+03  0.12500257012E+03 0.  0.
         25    2    1    2    0    0  0.60314775037E+02  0.26940003879E+02 -0.60652092885E+03  0.62278146329E+03  0.12500191194E+03 0.  0.
          5    1    3    3  502    0 -0.22609848673E+02  0.44313992243E+01 -0.11090323739E+02  0.25998612208E+02  0.47000000000E+01 0. -1.
         -5    1    3    3    0  502 -0.37704926363E+02 -0.31371403103E+02 -0.56670671927E+03  0.56884481370E+03  0.47000000000E+01 0. -1.
          5    1    4    4  503    0  0.60747453994E+02  0.69780241828E+02 -0.32367428642E+03  0.33666997045E+03  0.47000000000E+01 0. -1.
         -5    1    4    4    0  503 -0.43267895745E+00 -0.42840237949E+02 -0.28284664243E+03  0.28611149283E+03  0.47000000000E+01 0. -1.
<mgrwt>
<rscale>  0 0.14138330E+03</rscale>
<asrwt>0</asrwt>
<pdfrwt beam="1">  1        5 0.25620715E-02 0.14138344E+03</pdfrwt>
<pdfrwt beam="2">  1       -5 0.18476477E+00 0.14138344E+03</pdfrwt>
<totfact> 0.87698678E+01</totfact>
</mgrwt>
</event>
<event>
 8    1  0.3759079E-007  0.1792311E+03  0.7546771E-02  0.1168551E+00
         -5   -1    0    0    0  501 -0.00000000000E+00  0.00000000000E+00  0.52590413806E+03  0.52592513956E+03  0.47000000000E+01 0. -1.
          5   -1    0    0  501    0  0.00000000000E+00 -0.00000000000E+00 -0.64611890213E+02  0.64782608445E+02  0.47000000000E+01 0. -1.
         25    2    1    2    0    0 -0.10209594851E+03  0.77940634523E+02  0.30067254800E+03  0.35003689198E+03  0.12499407752E+03 0.  0.
         25    2    1    2    0    0  0.10209594851E+03 -0.77940634523E+02  0.16061969985E+03  0.24067085603E+03  0.12500179100E+03 0.  0.
          5    1    4    4  502    0  0.19737280375E+02 -0.44291014108E+02  0.14136261218E+03  0.14952167833E+03  0.47000000000E+01 0. -1.
         -5    1    4    4    0  502  0.82358668132E+02 -0.33649620415E+02  0.19257087667E+02  0.91149177703E+02  0.47000000000E+01 0. -1.
          5    1    3    3  503    0  0.17709106393E+02 -0.17246837100E+02  0.56382650106E+02  0.61742684362E+02  0.47000000000E+01 0. -1.
         -5    1    3    3    0  503 -0.11980505490E+03  0.95187471623E+02  0.24428989789E+03  0.28829420762E+03  0.47000000000E+01 0. -1.
<mgrwt>
<rscale>  0 0.17922972E+03</rscale>
<asrwt>0</asrwt>
<pdfrwt beam="2">  1        5 0.99550379E-02 0.17923106E+03</pdfrwt>
<pdfrwt beam="1">  1       -5 0.80923081E-01 0.17923106E+03</pdfrwt>
<totfact> 0.83188848E+01</totfact>
</mgrwt>
</event>
<event>
 8    1  0.3759079E-007  0.1414033E+03  0.7546771E-02  0.1211454E+00
         -5   -1    0    0    0  501 -0.00000000000E+00  0.00000000000E+00  0.15334826478E+04  0.15334898504E+04  0.47000000000E+01 0. -1.
          5   -1    0    0  501    0  0.00000000000E+00 -0.00000000000E+00 -0.14236694000E+02  0.14992446634E+02  0.47000000000E+01 0. -1.
         25    2    1    2    0    0 -0.45063015891E+02  0.48361143006E+02  0.10143855624E+04  0.10241938105E+04  0.12500166686E+03 0.  0.
         25    2    1    2    0    0  0.45063015891E+02 -0.48361143006E+02  0.50486039143E+03  0.52428848651E+03  0.12499970676E+03 0.  0.
          5    1    3    3  502    0  0.11727382649E+02  0.76146064837E+02  0.50160246005E+03  0.50750652471E+03  0.47000000000E+01 0.  1.
         -5    1    3    3    0  502 -0.56790398540E+02 -0.27784921830E+02  0.51278310232E+03  0.51668728577E+03  0.47000000000E+01 0.  1.
          5    1    4    4  503    0 -0.19143163793E+02  0.16428931455E+02  0.28579976604E+03  0.28694941501E+03  0.47000000000E+01 0. -1.
         -5    1    4    4    0  503  0.64206179684E+02 -0.64790074461E+02  0.21906062540E+03  0.23733907150E+03  0.47000000000E+01 0. -1.
<mgrwt>
<rscale>  0 0.14140286E+03</rscale>
<asrwt>0</asrwt>
<pdfrwt beam="2">  1        5 0.22489506E-02 0.14140330E+03</pdfrwt>
<pdfrwt beam="1">  1       -5 0.23597898E+00 0.14140330E+03</pdfrwt>
<totfact> 0.49294018E+01</totfact>
</mgrwt>
</event>
<event>
 8    1  0.3759079E-007  0.1745559E+03  0.7546771E-02  0.1173178E+00
         -5   -1    0    0    0  501 -0.00000000000E+00  0.00000000000E+00  0.37609233234E+03  0.37612169898E+03  0.47000000000E+01 0. -1.
          5   -1    0    0  501    0  0.00000000000E+00 -0.00000000000E+00 -0.89223948080E+02  0.89347651961E+02  0.47000000000E+01 0. -1.
         25    2    1    2    0    0  0.79380613778E+02 -0.92428204839E+02  0.21438895539E+03  0.27646398337E+03  0.12500182006E+03 0.  0.
         25    2    1    2    0    0 -0.79380613778E+02  0.92428204839E+02  0.72479428875E+02  0.18900536757E+03  0.12500202585E+03 0.  0.
          5    1    3    3  502    0  0.75754774594E+02  0.57534886069E+01  0.89480234703E+02  0.11747634191E+03  0.47000000000E+01 0.  1.
         -5    1    3    3    0  502  0.36258391844E+01 -0.98181693445E+02  0.12490872068E+03  0.15898764147E+03  0.47000000000E+01 0.  1.
          5    1    4    4  503    0 -0.43463153645E+02  0.30717590969E+02  0.99158431006E+02  0.11263703014E+03  0.47000000000E+01 0. -1.
         -5    1    4    4    0  503 -0.35917460133E+02  0.61710613870E+02 -0.26679002131E+02  0.76368337426E+02  0.47000000000E+01 0. -1.
<mgrwt>
<rscale>  0 0.17455586E+03</rscale>
<asrwt>0</asrwt>
<pdfrwt beam="2">  1        5 0.13738536E-01 0.17455590E+03</pdfrwt>
<pdfrwt beam="1">  1       -5 0.57872135E-01 0.17455590E+03</pdfrwt>
<totfact> 0.99222278E+01</totfact>
</mgrwt>
</event>
<event>
 8    1  0.3759079E-007  0.1425014E+03  0.7546771E-02  0.1210006E+00
         -5   -1    0    0    0  501 -0.00000000000E+00  0.00000000000E+00  0.46720722991E+02  0.46956532632E+02  0.47000000000E+01 0.  1.
          5   -1    0    0  501    0  0.00000000000E+00 -0.00000000000E+00 -0.55878226129E+03  0.55880202713E+03  0.47000000000E+01 0.  1.
         25    2    1    2    0    0 -0.64549730986E+02  0.22641505053E+02 -0.11250312374E+03  0.18154921906E+03  0.12499544218E+03 0.  0.
         25    2    1    2    0    0  0.64549730986E+02 -0.22641505053E+02 -0.39955841456E+03  0.42420934071E+03  0.12500932998E+03 0.  0.
          5    1    4    4  502    0  0.50130325227E+02  0.29466113351E+01 -0.42616495040E+02  0.66030202750E+02  0.47000000000E+01 0. -1.
         -5    1    4    4    0  502  0.14419405759E+02 -0.25588116388E+02 -0.35694191952E+03  0.35817913796E+03  0.47000000000E+01 0. -1.
          5    1    3    3  503    0  0.30959286709E+02  0.22149230132E+02 -0.67012250417E+01  0.38936644000E+02  0.47000000000E+01 0. -1.
         -5    1    3    3    0  503 -0.95509017695E+02  0.49227492107E+00 -0.10580189870E+03  0.14261257506E+03  0.47000000000E+01 0. -1.
<mgrwt>
<rscale>  0 0.14249832E+03</rscale>
<asrwt>0</asrwt>
<pdfrwt beam="2">  1        5 0.85986156E-01 0.14250136E+03</pdfrwt>
<pdfrwt beam="1">  1       -5 0.72074636E-02 0.14250136E+03</pdfrwt>
<totfact> 0.11762878E+02</totfact>
</mgrwt>
</event>
<event>
 8    1  0.3759079E-007  0.1370405E+03  0.7546771E-02  0.1217370E+00
         -5   -1    0    0    0  501 -0.00000000000E+00  0.00000000000E+00  0.64217690246E+03  0.64219410154E+03  0.47000000000E+01 0. -1.
          5   -1    0    0  501    0  0.00000000000E+00 -0.00000000000E+00 -0.33894157449E+02  0.34218473215E+02  0.47000000000E+01 0. -1.
         25    2    1    2    0    0 -0.33468717769E+02 -0.45102215310E+02  0.43148106392E+03  0.45271873726E+03  0.12499592654E+03 0.  0.
         25    2    1    2    0    0  0.33468717769E+02  0.45102215310E+02  0.17680168110E+03  0.22369383750E+03  0.12500293437E+03 0.  0.
          5    1    3    3  502    0 -0.32694448148E+02 -0.81527720077E+02  0.20208613573E+03  0.22040098080E+03  0.47000000000E+01 0.  1.
         -5    1    3    3    0  502 -0.77426962097E+00  0.36425504767E+02  0.22939492818E+03  0.23231775646E+03  0.47000000000E+01 0.  1.
          5    1    4    4  503    0  0.44820630937E+02 -0.84209662494E+01  0.15974035266E+03  0.16618926529E+03  0.47000000000E+01 0.  1.
         -5    1    4    4    0  503 -0.11351913168E+02  0.53523181560E+02  0.17061328438E+02  0.57504572209E+02  0.47000000000E+01 0.  1.
<mgrwt>
<rscale>  0 0.13703890E+03</rscale>
<asrwt>0</asrwt>
<pdfrwt beam="2">  1        5 0.52407569E-02 0.13704050E+03</pdfrwt>
<pdfrwt beam="1">  1       -5 0.98822702E-01 0.13704050E+03</pdfrwt>
<totfact> 0.14253119E+02</totfact>
</mgrwt>
</event>
<event>
 8    1  0.3759079E-007  0.1442975E+03  0.7546771E-02  0.1207662E+00
         -5   -1    0    0    0  501 -0.00000000000E+00  0.00000000000E+00  0.38329564294E+02  0.38616647951E+02  0.47000000000E+01 0.  1.
          5   -1    0    0  501    0  0.00000000000E+00 -0.00000000000E+00 -0.69626359107E+03  0.69627945413E+03  0.47000000000E+01 0.  1.
         25    2    1    2    0    0 -0.39485125834E+02 -0.60305309030E+02 -0.15542313381E+03  0.21207779739E+03  0.12499934466E+03 0.  0.
         25    2    1    2    0    0  0.39485125834E+02  0.60305309030E+02 -0.50251089297E+03  0.52281830469E+03  0.12500390679E+03 0.  0.
          5    1    3    3  502    0 -0.85023904128E+01 -0.47529054258E+01  0.21468353353E+02  0.24038738495E+02  0.47000000000E+01 0.  1.
         -5    1    3    3    0  502 -0.30982735421E+02 -0.55552403604E+02 -0.17689148716E+03  0.18803905890E+03  0.47000000000E+01 0.  1.
          5    1    4    4  503    0  0.36684617306E+02 -0.13674312546E+02 -0.47197820098E+02  0.61501806417E+02  0.47000000000E+01 0.  1.
         -5    1    4    4    0  503  0.28005085276E+01  0.73979621575E+02 -0.45531307287E+03  0.46131649828E+03  0.47000000000E+01 0.  1.
<mgrwt>
<rscale>  0 0.14429656E+03</rscale>
<asrwt>0</asrwt>
<pdfrwt beam="2">  1        5 0.10714077E+00 0.14429755E+03</pdfrwt>
<pdfrwt beam="1">  1       -5 0.59201602E-02 0.14429755E+03</pdfrwt>
<totfact> 0.96891643E+01</totfact>
</mgrwt>
</event>
<event>
 8    1  0.3759079E-007  0.1555722E+03  0.7546771E-02  0.1193790E+00
          5   -1    0    0  501    0  0.00000000000E+00  0.00000000000E+00  0.18433790421E+03  0.18439781162E+03  0.47000000000E+01 0. -1.
         -5   -1    0    0    0  501 -0.00000000000E+00 -0.00000000000E+00 -0.13132385335E+03  0.13140793149E+03  0.47000000000E+01 0. -1.
         25    2    1    2    0    0 -0.91698852678E+02  0.12943910978E+02  0.21071882403E+02  0.15699279414E+03  0.12500595494E+03 0.  0.
         25    2    1    2    0    0  0.91698852678E+02 -0.12943910978E+02  0.31942168467E+02  0.15881294896E+03  0.12500010487E+03 0.  0.
          5    1    3    3  502    0  0.23929382978E+02  0.21073432283E+02 -0.14937669280E+02  0.35523638347E+02  0.47000000000E+01 0.  1.
         -5    1    3    3    0  502 -0.11562823566E+03 -0.81295213053E+01  0.36009551683E+02  0.12146915580E+03  0.47000000000E+01 0.  1.
          5    1    4    4  503    0  0.97292500029E+01 -0.59862371327E+02  0.88537169623E+01  0.61470644299E+02  0.47000000000E+01 0.  1.
         -5    1    4    4    0  503  0.81969602675E+02  0.46918460349E+02  0.23088451504E+02  0.97342304663E+02  0.47000000000E+01 0.  1.
<mgrwt>
<rscale>  0 0.15557104E+03</rscale>
<asrwt>0</asrwt>
<pdfrwt beam="1">  1        5 0.28370753E-01 0.15557221E+03</pdfrwt>
<pdfrwt beam="2">  1       -5 0.20214746E-01 0.15557221E+03</pdfrwt>
<totfact> 0.20469903E+02</totfact>
</mgrwt>
</event>
<event>
 8    1  0.3759079E-007  0.1504083E+03  0.7546771E-02  0.1199974E+00
         -5   -1    0    0    0  501 -0.00000000000E+00  0.00000000000E+00  0.56200530030E+02  0.56396716001E+02  0.47000000000E+01 0.  1.
          5   -1    0    0  501    0  0.00000000000E+00 -0.00000000000E+00 -0.44091148830E+03  0.44093653797E+03  0.47000000000E+01 0.  1.
         25    2    1    2    0    0  0.83077073853E+02 -0.97821648097E+01 -0.26657724597E+03  0.30607887220E+03  0.12499342778E+03 0.  0.
         25    2    1    2    0    0 -0.83077073853E+02  0.97821648097E+01 -0.11813371230E+03  0.19125438178E+03  0.12500069447E+03 0.  0.
          5    1    4    4  502    0 -0.25292295721E+02 -0.15037197300E+02  0.22360846645E+02  0.37254731084E+02  0.47000000000E+01 0.  1.
         -5    1    4    4    0  502 -0.57784778132E+02  0.24819362110E+02 -0.14049455895E+03  0.15399965069E+03  0.47000000000E+01 0.  1.
          5    1    3    3  503    0 -0.30577265948E+01 -0.25218243332E+01  0.12474828852E+02  0.13907575087E+02  0.47000000000E+01 0.  1.
         -5    1    3    3    0  503  0.86134800447E+02 -0.72603404765E+01 -0.27905207482E+03  0.29217129711E+03  0.47000000000E+01 0.  1.
<mgrwt>
<rscale>  0 0.15040682E+03</rscale>
<asrwt>0</asrwt>
<pdfrwt beam="2">  1        5 0.67849553E-01 0.15040833E+03</pdfrwt>
<pdfrwt beam="1">  1       -5 0.86632538E-02 0.15040833E+03</pdfrwt>
<totfact> 0.15037308E+02</totfact>
</mgrwt>
</event>
<event>
 8    1  0.3759079E-007  0.1261236E+03  0.7546771E-02  0.1233324E+00
         -5   -1    0    0    0  501 -0.00000000000E+00  0.00000000000E+00  0.38690332789E+03  0.38693187402E+03  0.47000000000E+01 0.  1.
          5   -1    0    0  501    0  0.00000000000E+00 -0.00000000000E+00 -0.57987192586E+02  0.58177353876E+02  0.47000000000E+01 0.  1.
         25    2    1    2    0    0  0.15542597031E+02 -0.63622383555E+01  0.28482904316E+03  0.31150399904E+03  0.12500042877E+03 0.  0.
         25    2    1    2    0    0 -0.15542597031E+02  0.63622383555E+01  0.44087092139E+02  0.13360522885E+03  0.12499854033E+03 0.  0.
          5    1    3    3  502    0 -0.19927580512E+02 -0.36040539572E+02  0.25001075747E+03  0.25342355417E+03  0.47000000000E+01 0. -1.
         -5    1    3    3    0  502  0.35470177542E+02  0.29678301216E+02  0.34818285691E+02  0.58080444871E+02  0.47000000000E+01 0. -1.
          5    1    4    4  503    0 -0.31576227705E+02 -0.51275463840E+02  0.41981090809E+02  0.73557687114E+02  0.47000000000E+01 0.  1.
         -5    1    4    4    0  503  0.16033630674E+02  0.57637702196E+02  0.21060013303E+01  0.60047541736E+02  0.47000000000E+01 0.  1.
<mgrwt>
<rscale>  0 0.12612311E+03</rscale>
<asrwt>0</asrwt>
<pdfrwt beam="2">  1        5 0.89379303E-02 0.12612358E+03</pdfrwt>
<pdfrwt beam="1">  1       -5 0.59540412E-01 0.12612358E+03</pdfrwt>
<totfact> 0.17933059E+02</totfact>
</mgrwt>
</event>
<event>
 8    1  0.3759079E-007  0.1363252E+03  0.7546771E-02  0.1218361E+00
          5   -1    0    0  501    0  0.00000000000E+00  0.00000000000E+00  0.20987936803E+02  0.21507754212E+02  0.47000000000E+01 0. -1.
         -5   -1    0    0    0  501 -0.00000000000E+00 -0.00000000000E+00 -0.10738618381E+04  0.10738721234E+04  0.47000000000E+01 0. -1.
         25    2    1    2    0    0 -0.27560906690E+02  0.46903446189E+02 -0.76258293962E+03  0.77467220320E+03  0.12499898307E+03 0.  0.
         25    2    1    2    0    0  0.27560906690E+02 -0.46903446189E+02 -0.29029096168E+03  0.32070767438E+03  0.12500013251E+03 0.  0.
          5    1    3    3  502    0 -0.29843632371E+01  0.67587321961E+02 -0.20061565761E+03  0.21176799709E+03  0.47000000000E+01 0. -1.
         -5    1    3    3    0  502 -0.24576543453E+02 -0.20683875771E+02 -0.56196728201E+03  0.56290420611E+03  0.47000000000E+01 0. -1.
          5    1    4    4  503    0 -0.18603103390E+02 -0.77059235772E+02 -0.14657493678E+03  0.16670483906E+03  0.47000000000E+01 0.  1.
         -5    1    4    4    0  503  0.46164010080E+02  0.30155789583E+02 -0.14371602490E+03  0.15400283532E+03  0.47000000000E+01 0.  1.
<mgrwt>
<rscale>  0 0.13632497E+03</rscale>
<asrwt>0</asrwt>
<pdfrwt beam="1">  1        5 0.32696913E-02 0.13632524E+03</pdfrwt>
<pdfrwt beam="2">  1       -5 0.16525025E+00 0.13632524E+03</pdfrwt>
<totfact> 0.80985951E+01</totfact>
</mgrwt>
</event>
<event>
 8    1  0.3759079E-007  0.3117388E+03  0.7546771E-02  0.1079516E+00
         -5   -1    0    0    0  501 -0.00000000000E+00  0.00000000000E+00  0.65420447251E+03  0.65422135540E+03  0.47000000000E+01 0. -1.
          5   -1    0    0  501    0  0.00000000000E+00 -0.00000000000E+00 -0.15228960531E+03  0.15236211434E+03  0.47000000000E+01 0. -1.
         25    2    1    2    0    0  0.28404160811E+03  0.29599204524E+02  0.18729009079E+03  0.36367385188E+03  0.12500137754E+03 0.  0.
         25    2    1    2    0    0 -0.28404160811E+03 -0.29599204524E+02  0.31462477642E+03  0.44290961786E+03  0.12499772642E+03 0.  0.
          5    1    4    4  502    0 -0.12298397204E+03 -0.72003193090E+02  0.11718265442E+03  0.18456267686E+03  0.47000000000E+01 0. -1.
         -5    1    4    4    0  502 -0.16105763607E+03  0.42403988566E+02  0.19744212199E+03  0.25834694099E+03  0.47000000000E+01 0. -1.
          5    1    3    3  503    0  0.15178335776E+03  0.33463056020E+02  0.30502642784E+02  0.15846281907E+03  0.47000000000E+01 0. -1.
         -5    1    3    3    0  503  0.13225825035E+03 -0.38638514966E+01  0.15678744801E+03  0.20521103281E+03  0.47000000000E+01 0. -1.
<mgrwt>
<rscale>  0 0.31173845E+03</rscale>
<asrwt>0</asrwt>
<pdfrwt beam="2">  1        5 0.23436046E-01 0.31173882E+03</pdfrwt>
<pdfrwt beam="1">  1       -5 0.10065372E+00 0.31173882E+03</pdfrwt>
<totfact> 0.11661606E+01</totfact>
</mgrwt>
</event>
<event>
 8    1  0.3759079E-007  0.1336180E+03  0.7546771E-02  0.1222192E+00
          5   -1    0    0  501    0  0.00000000000E+00  0.00000000000E+00  0.19325823675E+02  0.19889129210E+02  0.47000000000E+01 0. -1.
         -5   -1    0    0    0  501 -0.00000000000E+00 -0.00000000000E+00 -0.93046621132E+03  0.93047808164E+03  0.47000000000E+01 0. -1.
         25    2    1    2    0    0 -0.15248746543E+01  0.47169923780E+02 -0.52634375308E+03  0.54303913758E+03  0.12500572624E+03 0.  0.
         25    2    1    2    0    0  0.15248746543E+01 -0.47169923780E+02 -0.38479663457E+03  0.40732807327E+03  0.12498152800E+03 0.  0.
          5    1    4    4  502    0 -0.37440203085E+02 -0.43383416412E+02 -0.35014901646E+03  0.35483843274E+03  0.47000000000E+01 0. -1.
         -5    1    4    4    0  502  0.38965077739E+02 -0.37865073672E+01 -0.34647618114E+02  0.52489640523E+02  0.47000000000E+01 0. -1.
          5    1    3    3  503    0 -0.10585931415E+02  0.88351002581E+02 -0.30892304399E+03  0.32151749363E+03  0.47000000000E+01 0.  1.
         -5    1    3    3    0  503  0.90610567609E+01 -0.41181078801E+02 -0.21742070908E+03  0.22152164395E+03  0.47000000000E+01 0.  1.
<mgrwt>
<rscale>  0 0.13361230E+03</rscale>
<asrwt>0</asrwt>
<pdfrwt beam="1">  1        5 0.30174487E-02 0.13361796E+03</pdfrwt>
<pdfrwt beam="2">  1       -5 0.14319286E+00 0.13361796E+03</pdfrwt>
<totfact> 0.13601550E+02</totfact>
</mgrwt>
</event>
<event>
 8    1  0.3759079E-007  0.1669555E+03  0.7546771E-02  0.1181062E+00
         -5   -1    0    0    0  501 -0.00000000000E+00  0.00000000000E+00  0.60001587933E+03  0.60003428690E+03  0.47000000000E+01 0.  1.
          5   -1    0    0  501    0  0.00000000000E+00 -0.00000000000E+00 -0.51112005644E+02  0.51327644802E+02  0.47000000000E+01 0.  1.
         25    2    1    2    0    0 -0.11062548779E+03 -0.33721786610E+01  0.37397704658E+03  0.40955214381E+03  0.12499902799E+03 0.  0.
         25    2    1    2    0    0  0.11062548779E+03  0.33721786610E+01  0.17492682711E+03  0.24180978789E+03  0.12499283394E+03 0.  0.
          5    1    3    3  502    0 -0.13428635588E+03 -0.92225892835E+00  0.25614090070E+03  0.28924717276E+03  0.47000000000E+01 0.  1.
         -5    1    3    3    0  502  0.23660868090E+02 -0.24499197326E+01  0.11783614588E+03  0.12030497106E+03  0.47000000000E+01 0.  1.
          5    1    4    4  503    0  0.12702080683E+03 -0.31150949726E+01  0.18219015050E+03  0.22216959766E+03  0.47000000000E+01 0.  1.
         -5    1    4    4    0  503 -0.16395319042E+02  0.64872736336E+01 -0.72633233850E+01  0.19640190231E+02  0.47000000000E+01 0.  1.
<mgrwt>
<rscale>  0 0.16695431E+03</rscale>
<asrwt>0</asrwt>
<pdfrwt beam="2">  1        5 0.78813890E-02 0.16695546E+03</pdfrwt>
<pdfrwt beam="1">  1       -5 0.92328139E-01 0.16695546E+03</pdfrwt>
<totfact> 0.89521821E+01</totfact>
</mgrwt>
</event>
<event>
 8    1  0.3759079E-007  0.1253982E+03  0.7546771E-02  0.1234448E+00
         -5   -1    0    0    0  501 -0.00000000000E+00  0.00000000000E+00  0.14038679421E+03  0.14046544766E+03  0.47000000000E+01 0. -1.
          5   -1    0    0  501    0  0.00000000000E+00 -0.00000000000E+00 -0.11417574573E+03  0.11427244161E+03  0.47000000000E+01 0. -1.
         25    2    1    2    0    0 -0.95348117162E+01 -0.29340531951E+01  0.31270251182E+02  0.12923833593E+03  0.12500079024E+03 0.  0.
         25    2    1    2    0    0  0.95348117162E+01  0.29340531951E+01 -0.50592027037E+01  0.12549955335E+03  0.12500008423E+03 0.  0.
          5    1    3    3  502    0 -0.18850577228E+02  0.26496061870E+02  0.71279100933E+02  0.78486851041E+02  0.47000000000E+01 0. -1.
         -5    1    3    3    0  502  0.93157655119E+01 -0.29430115065E+02 -0.40008849752E+02  0.50751484887E+02  0.47000000000E+01 0. -1.
          5    1    4    4  503    0  0.64050286488E+01 -0.54891195931E+02 -0.29086130584E+02  0.62627156850E+02  0.47000000000E+01 0.  1.
         -5    1    4    4    0  503  0.31297830674E+01  0.57825249126E+02  0.24026927880E+02  0.62872396502E+02  0.47000000000E+01 0.  1.
<mgrwt>
<rscale>  0 0.12539807E+03</rscale>
<asrwt>0</asrwt>
<pdfrwt beam="2">  1        5 0.17578988E-01 0.12539824E+03</pdfrwt>
<pdfrwt beam="1">  1       -5 0.21611457E-01 0.12539824E+03</pdfrwt>
<totfact> 0.41452734E+02</totfact>
</mgrwt>
</event>
<event>
 8    1  0.3759079E-007  0.1327647E+03  0.7546771E-02  0.1223410E+00
          5   -1    0    0  501    0  0.00000000000E+00  0.00000000000E+00  0.67145457075E+02  0.67309749709E+02  0.47000000000E+01 0. -1.
         -5   -1    0    0    0  501 -0.00000000000E+00 -0.00000000000E+00 -0.26450401817E+03  0.26454577227E+03  0.47000000000E+01 0. -1.
         25    2    1    2    0    0  0.26340746720E+01 -0.44658042909E+02 -0.11480232774E+03  0.17551650214E+03  0.12500075569E+03 0.  0.
         25    2    1    2    0    0 -0.26340746720E+01  0.44658042909E+02 -0.82556233352E+02  0.15633901984E+03  0.12500031326E+03 0.  0.
          5    1    3    3  502    0 -0.15053693231E+02 -0.80322871514E+02 -0.10692992079E+03  0.13466430606E+03  0.47000000000E+01 0.  1.
         -5    1    3    3    0  502  0.17687767903E+02  0.35664828605E+02 -0.78724069545E+01  0.40852196074E+02  0.47000000000E+01 0.  1.
          5    1    4    4  503    0 -0.68039309269E+01 -0.11634132293E+02 -0.96870585175E+02  0.97916529669E+02  0.47000000000E+01 0.  1.
         -5    1    4    4    0  503  0.41698562549E+01  0.56292175201E+02  0.14314351823E+02  0.58422490175E+02  0.47000000000E+01 0.  1.
<mgrwt>
<rscale>  0 0.13276461E+03</rscale>
<asrwt>0</asrwt>
<pdfrwt beam="1">  1        5 0.10345920E-01 0.13276471E+03</pdfrwt>
<pdfrwt beam="2">  1       -5 0.40708775E-01 0.13276471E+03</pdfrwt>
<totfact> 0.31631450E+02</totfact>
</mgrwt>
</event>
<event>
 8    1  0.3759079E-007  0.1282085E+03  0.7546771E-02  0.1230141E+00
          5   -1    0    0  501    0  0.00000000000E+00  0.00000000000E+00  0.92540768333E+02  0.92660044267E+02  0.47000000000E+01 0.  1.
         -5   -1    0    0    0  501 -0.00000000000E+00 -0.00000000000E+00 -0.18266691204E+03  0.18272736728E+03  0.47000000000E+01 0.  1.
         25    2    1    2    0    0  0.11533498680E+01  0.28474412488E+02 -0.68540680837E+02  0.14537454356E+03  0.12499524232E+03 0.  0.
         25    2    1    2    0    0 -0.11533498680E+01 -0.28474412488E+02 -0.21585462869E+02  0.13001286799E+03  0.12500116501E+03 0.  0.
          5    1    4    4  502    0 -0.34211306188E+02  0.39436096460E+02 -0.61349271955E+01  0.52776382093E+02  0.47000000000E+01 0. -1.
         -5    1    4    4    0  502  0.33057956320E+02 -0.67910508949E+02 -0.15450535674E+02  0.77236485901E+02  0.47000000000E+01 0. -1.
          5    1    3    3  503    0  0.22094730435E+02 -0.30045702738E+02 -0.73799584985E+02  0.82821435088E+02  0.47000000000E+01 0.  1.
         -5    1    3    3    0  503 -0.20941380567E+02  0.58520115226E+02  0.52589041484E+01  0.62553108468E+02  0.47000000000E+01 0.  1.
<mgrwt>
<rscale>  0 0.12820703E+03</rscale>
<asrwt>0</asrwt>
<pdfrwt beam="1">  1        5 0.14250867E-01 0.12820848E+03</pdfrwt>
<pdfrwt beam="2">  1       -5 0.28116427E-01 0.12820848E+03</pdfrwt>
<totfact> 0.37024602E+02</totfact>
</mgrwt>
</event>
<event>
 8    1  0.3759079E-007  0.1280004E+03  0.7546771E-02  0.1230454E+00
          5   -1    0    0  501    0  0.00000000000E+00  0.00000000000E+00  0.10925371275E+03  0.10935476098E+03  0.47000000000E+01 0. -1.
         -5   -1    0    0    0  501 -0.00000000000E+00 -0.00000000000E+00 -0.14991138338E+03  0.14998504215E+03  0.47000000000E+01 0. -1.
         25    2    1    2    0    0 -0.12120496115E+02  0.24736295589E+02 -0.16118416015E+02  0.12900834305E+03  0.12499823397E+03 0.  0.
         25    2    1    2    0    0  0.12120496115E+02 -0.24736295589E+02 -0.24539254624E+02  0.13033146008E+03  0.12500129488E+03 0.  0.
          5    1    4    4  502    0 -0.37847968654E+02 -0.47518540346E+02  0.14692417807E+02  0.62677249053E+02  0.47000000000E+01 0.  1.
         -5    1    4    4    0  502  0.49968464769E+02  0.22782244757E+02 -0.39231672430E+02  0.67654211023E+02  0.47000000000E+01 0.  1.
          5    1    3    3  503    0  0.48045070038E+02  0.30625153938E+01 -0.37725042279E+02  0.61343105321E+02  0.47000000000E+01 0. -1.
         -5    1    3    3    0  503 -0.60165566153E+02  0.21673780195E+02  0.21606626264E+02  0.67665237729E+02  0.47000000000E+01 0. -1.
<mgrwt>
<rscale>  0 0.12799970E+03</rscale>
<asrwt>0</asrwt>
<pdfrwt beam="1">  1        5 0.16821702E-01 0.12800045E+03</pdfrwt>
<pdfrwt beam="2">  1       -5 0.23076729E-01 0.12800045E+03</pdfrwt>
<totfact> 0.40008190E+02</totfact>
</mgrwt>
</event>
<event>
 8    1  0.3759079E-007  0.1655820E+03  0.7546771E-02  0.1182536E+00
         -5   -1    0    0    0  501 -0.00000000000E+00  0.00000000000E+00  0.92845859993E+03  0.92847049592E+03  0.47000000000E+01 0. -1.
          5   -1    0    0  501    0  0.00000000000E+00 -0.00000000000E+00 -0.29330092100E+02  0.29704280880E+02  0.47000000000E+01 0. -1.
         25    2    1    2    0    0 -0.80365596454E+02 -0.73034548532E+02  0.45055837973E+03  0.48001940195E+03  0.12499239307E+03 0.  0.
         25    2    1    2    0    0  0.80365596454E+02  0.73034548532E+02  0.44857012810E+03  0.47815537485E+03  0.12499891320E+03 0.  0.
          5    1    3    3  502    0 -0.10065764441E+03 -0.69504699331E+02  0.25010160092E+03  0.27845244727E+03  0.47000000000E+01 0.  1.
         -5    1    3    3    0  502  0.20292047957E+02 -0.35298492002E+01  0.20045677882E+03  0.20156695468E+03  0.47000000000E+01 0.  1.
          5    1    4    4  503    0  0.20587194395E+02  0.97986849379E+02  0.28815920021E+03  0.30509518169E+03  0.47000000000E+01 0.  1.
         -5    1    4    4    0  503  0.59778402060E+02 -0.24952300848E+02  0.16041092789E+03  0.17306019316E+03  0.47000000000E+01 0.  1.
<mgrwt>
<rscale>  0 0.16558078E+03</rscale>
<asrwt>0</asrwt>
<pdfrwt beam="2">  1        5 0.45420202E-02 0.16558201E+03</pdfrwt>
<pdfrwt beam="1">  1       -5 0.14286950E+00 0.16558201E+03</pdfrwt>
<totfact> 0.74806799E+01</totfact>
</mgrwt>
</event>
<event>
 8    1  0.3759079E-007  0.1413057E+03  0.7546771E-02  0.1211585E+00
         -5   -1    0    0    0  501 -0.00000000000E+00  0.00000000000E+00  0.72223370794E+02  0.72376137565E+02  0.47000000000E+01 0.  1.
          5   -1    0    0  501    0  0.00000000000E+00 -0.00000000000E+00 -0.28035945382E+03  0.28039884691E+03  0.47000000000E+01 0.  1.
         25    2    1    2    0    0 -0.53592230410E+02  0.38353615277E+02 -0.82053402343E+02  0.16339669568E+03  0.12499036906E+03 0.  0.
         25    2    1    2    0    0  0.53592230410E+02 -0.38353615277E+02 -0.12608268068E+03  0.18937828879E+03  0.12499666769E+03 0.  0.
          5    1    3    3  502    0 -0.67160644725E+02 -0.23981788787E+02 -0.19856245742E+02  0.74175729779E+02  0.47000000000E+01 0.  1.
         -5    1    3    3    0  502  0.13568414316E+02  0.62335404064E+02 -0.62197156601E+02  0.89220965900E+02  0.47000000000E+01 0.  1.
          5    1    4    4  503    0 -0.60217635929E+01  0.32331693917E+02 -0.78585236134E+02  0.85318986202E+02  0.47000000000E+01 0.  1.
         -5    1    4    4    0  503  0.59613994002E+02 -0.70685309194E+02 -0.47497444549E+02  0.10405930259E+03  0.47000000000E+01 0.  1.
<mgrwt>
<rscale>  0 0.14130428E+03</rscale>
<asrwt>0</asrwt>
<pdfrwt beam="2">  1        5 0.43147005E-01 0.14130568E+03</pdfrwt>
<pdfrwt beam="1">  1       -5 0.11126069E-01 0.14130568E+03</pdfrwt>
<totfact> 0.25229178E+02</totfact>
</mgrwt>
</event>
<event>
 8    1  0.3759079E-007  0.1471527E+03  0.7546771E-02  0.1204017E+00
         -5   -1    0    0    0  501 -0.00000000000E+00  0.00000000000E+00  0.74479668262E+03  0.74481151203E+03  0.47000000000E+01 0. -1.
          5   -1    0    0  501    0  0.00000000000E+00 -0.00000000000E+00 -0.28900520286E+02  0.29280199330E+02  0.47000000000E+01 0. -1.
         25    2    1    2    0    0  0.63721790950E+02 -0.44366034707E+02  0.34503261897E+03  0.37510088392E+03  0.12499741314E+03 0.  0.
         25    2    1    2    0    0 -0.63721790950E+02  0.44366034707E+02  0.37086354337E+03  0.39899082743E+03  0.12500040359E+03 0.  0.
          5    1    3    3  502    0  0.80656025475E+02  0.17605627071E+02  0.19858109135E+03  0.21510902443E+03  0.47000000000E+01 0.  1.
         -5    1    3    3    0  502 -0.16934234525E+02 -0.61971661777E+02  0.14645152761E+03  0.15999185949E+03  0.47000000000E+01 0.  1.
          5    1    4    4  503    0 -0.39935383330E+00 -0.40574584611E+02  0.92901289680E+02  0.10148495467E+03  0.47000000000E+01 0. -1.
         -5    1    4    4    0  503 -0.63322437117E+02  0.84940619318E+02  0.27796225369E+03  0.29750587276E+03  0.47000000000E+01 0. -1.
<mgrwt>
<rscale>  0 0.14715205E+03</rscale>
<asrwt>0</asrwt>
<pdfrwt beam="2">  1        5 0.44765816E-02 0.14715268E+03</pdfrwt>
<pdfrwt beam="1">  1       -5 0.11461443E+00 0.14715268E+03</pdfrwt>
<totfact> 0.13126046E+02</totfact>
</mgrwt>
</event>
<event>
 8    1  0.3759079E-007  0.1461664E+03  0.7546771E-02  0.1205267E+00
          5   -1    0    0  501    0  0.00000000000E+00  0.00000000000E+00  0.22368130846E+03  0.22373068130E+03  0.47000000000E+01 0.  1.
         -5   -1    0    0    0  501 -0.00000000000E+00 -0.00000000000E+00 -0.11017164568E+03  0.11027185277E+03  0.47000000000E+01 0.  1.
         25    2    1    2    0    0 -0.39855106066E+02  0.64413711670E+02 -0.43690816632E+01  0.14623169173E+03  0.12500825197E+03 0.  0.
         25    2    1    2    0    0  0.39855106066E+02 -0.64413711670E+02  0.11787874444E+03  0.18777084233E+03  0.12499974044E+03 0.  0.
          5    1    4    4  502    0 -0.27673472803E+02 -0.70644632215E+02  0.46061241557E+02  0.88883143123E+02  0.47000000000E+01 0.  1.
         -5    1    4    4    0  502  0.67528578869E+02  0.62309205450E+01  0.71817502882E+02  0.98887699211E+02  0.47000000000E+01 0.  1.
          5    1    3    3  503    0 -0.73103184575E+02  0.20822100595E+00  0.35744778255E+01  0.73341569677E+02  0.47000000000E+01 0.  1.
         -5    1    3    3    0  503  0.33248078509E+02  0.64205490664E+02 -0.79435594887E+01  0.72890122055E+02  0.47000000000E+01 0.  1.
<mgrwt>
<rscale>  0 0.14616459E+03</rscale>
<asrwt>0</asrwt>
<pdfrwt beam="1">  1        5 0.34424015E-01 0.14616641E+03</pdfrwt>
<pdfrwt beam="2">  1       -5 0.16960990E-01 0.14616641E+03</pdfrwt>
<totfact> 0.18942320E+02</totfact>
</mgrwt>
</event>
<event>
 8    1  0.3759079E-007  0.1300148E+03  0.7546771E-02  0.1227437E+00
          5   -1    0    0  501    0  0.00000000000E+00  0.00000000000E+00  0.13732442875E+03  0.13740483518E+03  0.47000000000E+01 0.  1.
         -5   -1    0    0    0  501 -0.00000000000E+00 -0.00000000000E+00 -0.12350075132E+03  0.12359015161E+03  0.47000000000E+01 0.  1.
         25    2    1    2    0    0 -0.58181120861E+01  0.35280865641E+02 -0.19890479562E+01  0.13003005809E+03  0.12500107914E+03 0.  0.
         25    2    1    2    0    0  0.58181120861E+01 -0.35280865641E+02  0.15812725386E+02  0.13096492870E+03  0.12499272122E+03 0.  0.
          5    1    4    4  502    0  0.36441748457E+00 -0.77745089953E+02 -0.13249411165E+02  0.79006763685E+02  0.47000000000E+01 0. -1.
         -5    1    4    4    0  502  0.54536946015E+01  0.42464224311E+02  0.29062136550E+02  0.51958165018E+02  0.47000000000E+01 0. -1.
          5    1    3    3  503    0 -0.15573126451E+02  0.81211531992E+02 -0.11144890506E+01  0.82832163329E+02  0.47000000000E+01 0.  1.
         -5    1    3    3    0  503  0.97550143645E+01 -0.45930666351E+02 -0.87455890567E+00  0.47197894762E+02  0.47000000000E+01 0.  1.
<mgrwt>
<rscale>  0 0.13001284E+03</rscale>
<asrwt>0</asrwt>
<pdfrwt beam="1">  1        5 0.21139897E-01 0.13001484E+03</pdfrwt>
<pdfrwt beam="2">  1       -5 0.19013178E-01 0.13001484E+03</pdfrwt>
<totfact> 0.37890244E+02</totfact>
</mgrwt>
</event>
<event>
 8    1  0.3759079E-007  0.1251990E+03  0.7546771E-02  0.1234792E+00
          5   -1    0    0  501    0  0.00000000000E+00  0.00000000000E+00  0.13076062223E+03  0.13084506229E+03  0.47000000000E+01 0.  1.
         -5   -1    0    0    0  501 -0.00000000000E+00 -0.00000000000E+00 -0.12454383874E+03  0.12463249082E+03  0.47000000000E+01 0.  1.
         25    2    1    2    0    0 -0.67606027896E+01 -0.23758313396E+01 -0.22268525310E+02  0.12707897783E+03  0.12490728187E+03 0.  0.
         25    2    1    2    0    0  0.67606027896E+01  0.23758313396E+01  0.28485308793E+02  0.12839857528E+03  0.12499372381E+03 0.  0.
          5    1    4    4  502    0  0.44488627695E+02  0.43392748716E+02  0.35991312960E+02  0.71969668916E+02  0.47000000000E+01 0.  1.
         -5    1    4    4    0  502 -0.37728024906E+02 -0.41016917377E+02 -0.75060041666E+01  0.56428906360E+02  0.47000000000E+01 0.  1.
          5    1    3    3  503    0  0.42556866441E+02  0.31608834633E+02  0.16333128316E+02  0.55669258920E+02  0.47000000000E+01 0. -1.
         -5    1    3    3    0  503 -0.49317469231E+02 -0.33984665973E+02 -0.38601653625E+02  0.71409718913E+02  0.47000000000E+01 0. -1.
<mgrwt>
<rscale>  0 0.12517739E+03</rscale>
<asrwt>0</asrwt>
<pdfrwt beam="1">  1        5 0.20130334E-01 0.12519897E+03</pdfrwt>
<pdfrwt beam="2">  1       -5 0.19173905E-01 0.12519897E+03</pdfrwt>
<totfact> 0.40310781E+02</totfact>
</mgrwt>
</event>
<event>
 8    1  0.3759079E-007  0.2243644E+03  0.7546771E-02  0.1130671E+00
         -5   -1    0    0    0  501 -0.00000000000E+00  0.00000000000E+00  0.12375295153E+03  0.12384216977E+03  0.47000000000E+01 0. -1.
          5   -1    0    0  501    0  0.00000000000E+00 -0.00000000000E+00 -0.61717535576E+03  0.61719325155E+03  0.47000000000E+01 0. -1.
         25    2    1    2    0    0 -0.13454483710E+03 -0.12888703763E+03 -0.30265850827E+02  0.22639661003E+03  0.12500088659E+03 0.  0.
         25    2    1    2    0    0  0.13454483710E+03  0.12888703763E+03 -0.46315655340E+03  0.51463881129E+03  0.12499972587E+03 0.  0.
          5    1    4    4  502    0  0.92185957024E+02  0.40400045483E+01 -0.19606920698E+03  0.21674823237E+03  0.47000000000E+01 0.  1.
         -5    1    4    4    0  502  0.42358880074E+02  0.12484703309E+03 -0.26708734642E+03  0.29789057892E+03  0.47000000000E+01 0.  1.
          5    1    3    3  503    0 -0.96868917233E+02 -0.12701750224E+03 -0.67228700622E+02  0.17337479975E+03  0.47000000000E+01 0. -1.
         -5    1    3    3    0  503 -0.37675919865E+02 -0.18695353895E+01  0.36962849795E+02  0.53021810278E+02  0.47000000000E+01 0. -1.
<mgrwt>
<rscale>  0 0.22436428E+03</rscale>
<asrwt>0</asrwt>
<pdfrwt beam="2">  1        5 0.94958293E-01 0.22436444E+03</pdfrwt>
<pdfrwt beam="1">  1       -5 0.19047155E-01 0.22436444E+03</pdfrwt>
<totfact> 0.18630509E+01</totfact>
</mgrwt>
</event>
<event>
 8    1  0.3759079E-007  0.1540766E+03  0.7546771E-02  0.1195555E+00
         -5   -1    0    0    0  501 -0.00000000000E+00  0.00000000000E+00  0.37067849350E+02  0.37364628399E+02  0.47000000000E+01 0.  1.
          5   -1    0    0  501    0  0.00000000000E+00 -0.00000000000E+00 -0.72467660397E+03  0.72469184509E+03  0.47000000000E+01 0.  1.
         25    2    1    2    0    0 -0.89956989806E+02 -0.44532692465E+01 -0.21167819568E+03  0.26180704123E+03  0.12499270656E+03 0.  0.
         25    2    1    2    0    0  0.89956989806E+02  0.44532692465E+01 -0.47593055895E+03  0.50024943226E+03  0.12501002326E+03 0.  0.
          5    1    3    3  502    0 -0.74077608320E+02  0.54891571059E+02 -0.12160429267E+03  0.15267701406E+03  0.47000000000E+01 0.  1.
         -5    1    3    3    0  502 -0.15879381487E+02 -0.59344840305E+02 -0.90073903007E+02  0.10913002717E+03  0.47000000000E+01 0.  1.
          5    1    4    4  503    0  0.63262528729E+01 -0.50125005773E+02 -0.21281759007E+03  0.21878289312E+03  0.47000000000E+01 0.  1.
         -5    1    4    4    0  503  0.83630736933E+02  0.54578275019E+02 -0.26311296888E+03  0.28146653914E+03  0.47000000000E+01 0.  1.
<mgrwt>
<rscale>  0 0.15407308E+03</rscale>
<asrwt>0</asrwt>
<pdfrwt beam="2">  1        5 0.11151270E+00 0.15407660E+03</pdfrwt>
<pdfrwt beam="1">  1       -5 0.57267481E-02 0.15407660E+03</pdfrwt>
<totfact> 0.94643374E+01</totfact>
</mgrwt>
</event>
<event>
 8    1  0.3759079E-007  0.1329833E+03  0.7546771E-02  0.1223095E+00
          5   -1    0    0  501    0  0.00000000000E+00  0.00000000000E+00  0.61471431118E+03  0.61473227862E+03  0.47000000000E+01 0.  1.
         -5   -1    0    0    0  501 -0.00000000000E+00 -0.00000000000E+00 -0.29460849723E+02  0.29833398506E+02  0.47000000000E+01 0.  1.
         25    2    1    2    0    0 -0.20834881498E+02  0.40326153383E+02  0.23658432975E+03  0.27139719643E+03  0.12499600878E+03 0.  0.
         25    2    1    2    0    0  0.20834881498E+02 -0.40326153383E+02  0.34866913170E+03  0.37316848069E+03  0.12499704255E+03 0.  0.
          5    1    3    3  502    0  0.42957966919E+02  0.51641207681E+02  0.13416363605E+03  0.15011386508E+03  0.47000000000E+01 0.  1.
         -5    1    3    3    0  502 -0.63792848418E+02 -0.11315054298E+02  0.10242069371E+03  0.12128333135E+03  0.47000000000E+01 0.  1.
          5    1    4    4  503    0  0.22349359051E+02 -0.59163586793E+02  0.34794903711E+03  0.35368127782E+03  0.47000000000E+01 0. -1.
         -5    1    4    4    0  503 -0.15144775528E+01  0.18837433410E+02  0.72009459434E+00  0.19487202876E+02  0.47000000000E+01 0. -1.
<mgrwt>
<rscale>  0 0.13298303E+03</rscale>
<asrwt>0</asrwt>
<pdfrwt beam="1">  1        5 0.94601475E-01 0.13298328E+03</pdfrwt>
<pdfrwt beam="2">  1       -5 0.45624780E-02 0.13298328E+03</pdfrwt>
<totfact> 0.19730543E+02</totfact>
</mgrwt>
</event>
<event>
 8    1  0.3759079E-007  0.1610657E+03  0.7546771E-02  0.1187499E+00
         -5   -1    0    0    0  501 -0.00000000000E+00  0.00000000000E+00  0.33490109052E+02  0.33818299844E+02  0.47000000000E+01 0.  1.
          5   -1    0    0  501    0  0.00000000000E+00 -0.00000000000E+00 -0.10364997198E+04  0.10365103758E+04  0.47000000000E+01 0.  1.
         25    2    1    2    0    0  0.89190165819E+02  0.48605215489E+02 -0.23044248595E+03  0.28115102586E+03  0.12499922944E+03 0.  0.
         25    2    1    2    0    0 -0.89190165819E+02 -0.48605215489E+02 -0.77256712477E+03  0.78917764976E+03  0.12499619175E+03 0.  0.
          5    1    4    4  502    0 -0.10233358446E+03 -0.44292973385E+01 -0.65204159911E+03  0.66005463270E+03  0.47000000000E+01 0. -1.
         -5    1    4    4    0  502  0.13143418640E+02 -0.44175918150E+02 -0.12052552566E+03  0.12912301706E+03  0.47000000000E+01 0. -1.
          5    1    3    3  503    0  0.57575909582E+02 -0.30807483642E+02 -0.53347843549E+02  0.84452168853E+02  0.47000000000E+01 0. -1.
         -5    1    3    3    0  503  0.31614256236E+02  0.79412699131E+02 -0.17709464240E+03  0.19669885701E+03  0.47000000000E+01 0. -1.
<mgrwt>
<rscale>  0 0.16106511E+03</rscale>
<asrwt>0</asrwt>
<pdfrwt beam="2">  1        5 0.15948754E+00 0.16106570E+03</pdfrwt>
<pdfrwt beam="1">  1       -5 0.51783904E-02 0.16106570E+03</pdfrwt>
<totfact> 0.44109642E+01</totfact>
</mgrwt>
</event>
<event>
 8    1  0.3759079E-007  0.1308899E+03  0.7546771E-02  0.1226143E+00
          5   -1    0    0  501    0  0.00000000000E+00  0.00000000000E+00  0.16547271864E+04  0.16547338612E+04  0.47000000000E+01 0. -1.
         -5   -1    0    0    0  501 -0.00000000000E+00 -0.00000000000E+00 -0.10179191834E+02  0.11211866321E+02  0.47000000000E+01 0. -1.
         25    2    1    2    0    0  0.33605015135E+02  0.19412752992E+02  0.67185069327E+03  0.68448193973E+03  0.12500407890E+03 0.  0.
         25    2    1    2    0    0 -0.33605015135E+02 -0.19412752992E+02  0.97269730126E+03  0.98146378776E+03  0.12499989916E+03 0.  0.
          5    1    3    3  502    0 -0.12539301959E+02 -0.10529649133E+02  0.88691567666E+01  0.19205716499E+02  0.47000000000E+01 0.  1.
         -5    1    3    3    0  502  0.46144317094E+02  0.29942402125E+02  0.66298153651E+03  0.66527622323E+03  0.47000000000E+01 0.  1.
          5    1    4    4  503    0  0.16783206734E+02 -0.62134144144E+02  0.50152610768E+03  0.50566080982E+03  0.47000000000E+01 0.  1.
         -5    1    4    4    0  503 -0.50388221868E+02  0.42721391152E+02  0.47117119358E+03  0.47580297794E+03  0.47000000000E+01 0.  1.
<mgrwt>
<rscale>  0 0.13088892E+03</rscale>
<asrwt>0</asrwt>
<pdfrwt beam="1">  1        5 0.25465326E+00 0.13088992E+03</pdfrwt>
<pdfrwt beam="2">  1       -5 0.16459801E-02 0.13088992E+03</pdfrwt>
<totfact> 0.60202532E+01</totfact>
</mgrwt>
</event>
<event>
 8    1  0.3759079E-007  0.1409236E+03  0.7546771E-02  0.1212094E+00
         -5   -1    0    0    0  501 -0.00000000000E+00  0.00000000000E+00  0.94127758863E+03  0.94128932261E+03  0.47000000000E+01 0. -1.
          5   -1    0    0  501    0  0.00000000000E+00 -0.00000000000E+00 -0.20953347668E+02  0.21474002387E+02  0.47000000000E+01 0. -1.
         25    2    1    2    0    0  0.56253361504E+02 -0.32727881092E+02  0.42275034366E+03  0.44562014704E+03  0.12499562994E+03 0.  0.
         25    2    1    2    0    0 -0.56253361504E+02  0.32727881092E+02  0.49757389730E+03  0.51714317795E+03  0.12498691269E+03 0.  0.
          5    1    4    4  502    0  0.23430079639E+02 -0.24884362608E+02  0.65875831138E+02  0.74363400019E+02  0.47000000000E+01 0.  1.
         -5    1    4    4    0  502 -0.79683441144E+02  0.57612243699E+02  0.43169806616E+03  0.44277977793E+03  0.47000000000E+01 0.  1.
          5    1    3    3  503    0 -0.21411558979E+02  0.29931211329E+02  0.16653771762E+03  0.17062014435E+03  0.47000000000E+01 0. -1.
         -5    1    3    3    0  503  0.77664920483E+02 -0.62659092421E+02  0.25621262604E+03  0.27500000269E+03  0.47000000000E+01 0. -1.
<mgrwt>
<rscale>  0 0.14092167E+03</rscale>
<asrwt>0</asrwt>
<pdfrwt beam="2">  1        5 0.32645452E-02 0.14092360E+03</pdfrwt>
<pdfrwt beam="1">  1       -5 0.14485288E+00 0.14092360E+03</pdfrwt>
<totfact> 0.11803610E+02</totfact>
</mgrwt>
</event>
<event>
 8    1  0.3759079E-007  0.2091803E+03  0.7546771E-02  0.1142217E+00
          5   -1    0    0  501    0  0.00000000000E+00  0.00000000000E+00  0.11815918940E+04  0.11816012416E+04  0.47000000000E+01 0.  1.
         -5   -1    0    0    0  501 -0.00000000000E+00 -0.00000000000E+00 -0.38144628124E+02  0.38433093223E+02  0.47000000000E+01 0.  1.
         25    2    1    2    0    0 -0.16140412876E+03  0.45607289249E+02  0.46078293896E+03  0.50604065478E+03  0.12499963934E+03 0.  0.
         25    2    1    2    0    0  0.16140412876E+03 -0.45607289249E+02  0.68266432694E+03  0.71399368000E+03  0.12500029673E+03 0.  0.
          5    1    4    4  502    0 -0.21071753109E+02 -0.50607372845E+01  0.75471965781E+02  0.78662172991E+02  0.47000000000E+01 0. -1.
         -5    1    4    4    0  502  0.18247588187E+03 -0.40546551964E+02  0.60719236116E+03  0.63533150700E+03  0.47000000000E+01 0. -1.
          5    1    3    3  503    0 -0.61853503821E+02  0.70492483148E+02  0.13498430606E+03  0.16443204979E+03  0.47000000000E+01 0. -1.
         -5    1    3    3    0  503 -0.99550624940E+02 -0.24885193899E+02  0.32579863290E+03  0.34160860499E+03  0.47000000000E+01 0. -1.
<mgrwt>
<rscale>  0 0.20918019E+03</rscale>
<asrwt>0</asrwt>
<pdfrwt beam="1">  1        5 0.18180628E+00 0.20918029E+03</pdfrwt>
<pdfrwt beam="2">  1       -5 0.58913130E-02 0.20918029E+03</pdfrwt>
<totfact> 0.25919850E+01</totfact>
</mgrwt>
</event>
<event>
 8    1  0.3759079E-007  0.1430367E+03  0.7546771E-02  0.1209302E+00
          5   -1    0    0  501    0  0.00000000000E+00  0.00000000000E+00  0.12452875041E+03  0.12461741323E+03  0.47000000000E+01 0. -1.
         -5   -1    0    0    0  501 -0.00000000000E+00 -0.00000000000E+00 -0.16573582752E+03  0.16580245632E+03  0.47000000000E+01 0. -1.
         25    2    1    2    0    0  0.68818926243E+02  0.99545601881E+01 -0.62256013612E+01  0.14317214973E+03  0.12499747385E+03 0.  0.
         25    2    1    2    0    0 -0.68818926243E+02 -0.99545601881E+01 -0.34981475744E+02  0.14724771982E+03  0.12499219763E+03 0.  0.
          5    1    4    4  502    0 -0.96490837304E+02  0.14634165418E+02 -0.46482144431E+02  0.10820037076E+03  0.47000000000E+01 0.  1.
         -5    1    4    4    0  502  0.27671911061E+02 -0.24588725606E+02  0.11500668687E+02  0.39047349064E+02  0.47000000000E+01 0.  1.
          5    1    3    3  503    0 -0.10386331738E+02  0.45143818556E+02 -0.27135579175E+02  0.53891278496E+02  0.47000000000E+01 0. -1.
         -5    1    3    3    0  503  0.79205257981E+02 -0.35189258368E+02  0.20909977814E+02  0.89280871235E+02  0.47000000000E+01 0. -1.
<mgrwt>
<rscale>  0 0.14303558E+03</rscale>
<asrwt>0</asrwt>
<pdfrwt beam="1">  1        5 0.19170215E-01 0.14303673E+03</pdfrwt>
<pdfrwt beam="2">  1       -5 0.25509765E-01 0.14303673E+03</pdfrwt>
<totfact> 0.27000796E+02</totfact>
</mgrwt>
</event>
<event>
 8    1  0.3759079E-007  0.1774366E+03  0.7546771E-02  0.1170308E+00
         -5   -1    0    0    0  501 -0.00000000000E+00  0.00000000000E+00  0.34344786708E+03  0.34348002475E+03  0.47000000000E+01 0. -1.
          5   -1    0    0  501    0  0.00000000000E+00 -0.00000000000E+00 -0.10163149820E+03  0.10174011710E+03  0.47000000000E+01 0. -1.
         25    2    1    2    0    0 -0.53489800388E+02 -0.11400791095E+03  0.19089474329E+03  0.26062125597E+03  0.12499469405E+03 0.  0.
         25    2    1    2    0    0  0.53489800388E+02  0.11400791095E+03  0.50921625580E+02  0.18459888588E+03  0.12499909684E+03 0.  0.
          5    1    3    3  502    0 -0.92410369511E+02 -0.96814756519E+02  0.15422070191E+03  0.20425202171E+03  0.47000000000E+01 0. -1.
         -5    1    3    3    0  502  0.38920569122E+02 -0.17193154429E+02  0.36674041382E+02  0.56369234262E+02  0.47000000000E+01 0. -1.
          5    1    4    4  503    0  0.87644083430E+02  0.84367827470E+02  0.63658985642E+02  0.13738257577E+03  0.47000000000E+01 0.  1.
         -5    1    4    4    0  503 -0.34154283041E+02  0.29640083479E+02 -0.12737360062E+02  0.47216310106E+02  0.47000000000E+01 0.  1.
<mgrwt>
<rscale>  0 0.17743580E+03</rscale>
<asrwt>0</asrwt>
<pdfrwt beam="2">  1        5 0.15646444E-01 0.17743657E+03</pdfrwt>
<pdfrwt beam="1">  1       -5 0.52848962E-01 0.17743657E+03</pdfrwt>
<totfact> 0.95864071E+01</totfact>
</mgrwt>
</event>
<event>
 8    1  0.3759079E-007  0.1326535E+03  0.7546771E-02  0.1223571E+00
          5   -1    0    0  501    0  0.00000000000E+00  0.00000000000E+00  0.13349993985E+03  0.13358264835E+03  0.47000000000E+01 0.  1.
         -5   -1    0    0    0  501 -0.00000000000E+00 -0.00000000000E+00 -0.13491813023E+03  0.13499996986E+03  0.47000000000E+01 0.  1.
         25    2    1    2    0    0  0.48469849400E+01  0.44134471682E+02 -0.21612854582E+02  0.13440074568E+03  0.12500040041E+03 0.  0.
         25    2    1    2    0    0 -0.48469849400E+01 -0.44134471682E+02  0.20194664207E+02  0.13418187253E+03  0.12500242238E+03 0.  0.
          5    1    4    4  502    0 -0.91309867184E+01 -0.81964740381E+02 -0.12789876596E+02  0.83589859000E+02  0.47000000000E+01 0.  1.
         -5    1    4    4    0  502  0.42840017784E+01  0.37830268699E+02  0.32984540803E+02  0.50592013531E+02  0.47000000000E+01 0.  1.
          5    1    3    3  503    0  0.27293182818E+02  0.41174433171E+02  0.43071460773E+02  0.65707628997E+02  0.47000000000E+01 0. -1.
         -5    1    3    3    0  503 -0.22446197878E+02  0.29600385113E+01 -0.64684315355E+02  0.68693116687E+02  0.47000000000E+01 0. -1.
<mgrwt>
<rscale>  0 0.13265302E+03</rscale>
<asrwt>0</asrwt>
<pdfrwt beam="1">  1        5 0.20551110E-01 0.13265350E+03</pdfrwt>
<pdfrwt beam="2">  1       -5 0.20769293E-01 0.13265350E+03</pdfrwt>
<totfact> 0.34135941E+02</totfact>
</mgrwt>
</event>
<event>
 8    1  0.3759079E-007  0.1445533E+03  0.7546771E-02  0.1207333E+00
          5   -1    0    0  501    0  0.00000000000E+00  0.00000000000E+00  0.44907935154E+03  0.44910394563E+03  0.47000000000E+01 0. -1.
         -5   -1    0    0    0  501 -0.00000000000E+00 -0.00000000000E+00 -0.46515362055E+02  0.46752207510E+02  0.47000000000E+01 0. -1.
         25    2    1    2    0    0 -0.72576620373E+02  0.15692555265E+01  0.18807326680E+03  0.23720211125E+03  0.12499383789E+03 0.  0.
         25    2    1    2    0    0  0.72576620373E+02 -0.15692555265E+01  0.21449072269E+03  0.25865404189E+03  0.12500325947E+03 0.  0.
          5    1    4    4  502    0  0.45062592313E+02  0.10194686904E+01  0.31126336875E+01  0.45425268638E+02  0.47000000000E+01 0.  1.
         -5    1    4    4    0  502  0.27514028060E+02 -0.25887242168E+01  0.21137808900E+03  0.21322877325E+03  0.47000000000E+01 0.  1.
          5    1    3    3  503    0 -0.78981907831E+02  0.49847402336E+02  0.10344737714E+03  0.13945018867E+03  0.47000000000E+01 0.  1.
         -5    1    3    3    0  503  0.64052874573E+01 -0.48278146809E+02  0.84625889659E+02  0.97751922576E+02  0.47000000000E+01 0.  1.
<mgrwt>
<rscale>  0 0.14455122E+03</rscale>
<asrwt>0</asrwt>
<pdfrwt beam="1">  1        5 0.69109240E-01 0.14455325E+03</pdfrwt>
<pdfrwt beam="2">  1       -5 0.71763204E-02 0.14455325E+03</pdfrwt>
<totfact> 0.19672263E+02</totfact>
</mgrwt>
</event>
<event>
 8    1  0.3759079E-007  0.1293921E+03  0.7546771E-02  0.1228364E+00
         -5   -1    0    0    0  501 -0.00000000000E+00  0.00000000000E+00  0.45393225548E+03  0.45395658665E+03  0.47000000000E+01 0.  1.
          5   -1    0    0  501    0  0.00000000000E+00 -0.00000000000E+00 -0.38622345832E+02  0.38907269212E+02  0.47000000000E+01 0.  1.
         25    2    1    2    0    0 -0.29589722641E+02 -0.15510482942E+02  0.26233461639E+03  0.29250480070E+03  0.12499392268E+03 0.  0.
         25    2    1    2    0    0  0.29589722641E+02  0.15510482942E+02  0.15297529326E+03  0.20035905517E+03  0.12500473541E+03 0.  0.
          5    1    4    4  502    0  0.10701647106E+01 -0.39913852993E+02  0.12603543500E+03  0.13229241017E+03  0.47000000000E+01 0.  1.
         -5    1    4    4    0  502  0.28519557931E+02  0.55424335935E+02  0.26939858259E+02  0.68066644999E+02  0.47000000000E+01 0.  1.
          5    1    3    3  503    0  0.24016855616E+02 -0.54196303676E+02  0.15886443334E+03  0.16962914510E+03  0.47000000000E+01 0. -1.
         -5    1    3    3    0  503 -0.53606578257E+02  0.38685820734E+02  0.10347018305E+03  0.12287565560E+03  0.47000000000E+01 0. -1.
<mgrwt>
<rscale>  0 0.12938947E+03</rscale>
<asrwt>0</asrwt>
<pdfrwt beam="2">  1        5 0.59656883E-02 0.12939208E+03</pdfrwt>
<pdfrwt beam="1">  1       -5 0.69859519E-01 0.12939208E+03</pdfrwt>
<totfact> 0.25270986E+02</totfact>
</mgrwt>
</event>
<event>
 8    1  0.3759079E-007  0.1264083E+03  0.7546771E-02  0.1232886E+00
          5   -1    0    0  501    0  0.00000000000E+00  0.00000000000E+00  0.18238182633E+03  0.18244237604E+03  0.47000000000E+01 0. -1.
         -5   -1    0    0    0  501 -0.00000000000E+00 -0.00000000000E+00 -0.14018107028E+03  0.14025983911E+03  0.47000000000E+01 0. -1.
         25    2    1    2    0    0 -0.14130186043E+02  0.12389891136E+02 -0.77782172509E+02  0.14841804797E+03  0.12499871616E+03 0.  0.
         25    2    1    2    0    0  0.14130186043E+02 -0.12389891136E+02  0.11998292855E+03  0.17428416718E+03  0.12500358485E+03 0.  0.
          5    1    3    3  502    0 -0.77264919276E+01 -0.27798082972E+02 -0.98333492213E+02  0.10258653803E+03  0.47000000000E+01 0. -1.
         -5    1    3    3    0  502 -0.64036941152E+01  0.40187974108E+02  0.20551319704E+02  0.45831509934E+02  0.47000000000E+01 0. -1.
          5    1    4    4  503    0  0.31086330837E+02 -0.27457457396E+02  0.13848365033E+03  0.14463776595E+03  0.47000000000E+01 0. -1.
         -5    1    4    4    0  503 -0.16956144794E+02  0.15067566260E+02 -0.18500721777E+02  0.29646401224E+02  0.47000000000E+01 0. -1.
<mgrwt>
<rscale>  0 0.12640713E+03</rscale>
<asrwt>0</asrwt>
<pdfrwt beam="1">  1        5 0.28069459E-01 0.12640834E+03</pdfrwt>
<pdfrwt beam="2">  1       -5 0.21577036E-01 0.12640834E+03</pdfrwt>
<totfact> 0.17243561E+02</totfact>
</mgrwt>
</event>
<event>
 8    1  0.3759079E-007  0.1314617E+03  0.7546771E-02  0.1225320E+00
          5   -1    0    0  501    0  0.00000000000E+00  0.00000000000E+00  0.61045163195E+03  0.61046972484E+03  0.47000000000E+01 0.  1.
         -5   -1    0    0    0  501 -0.00000000000E+00 -0.00000000000E+00 -0.37618990938E+02  0.37911455777E+02  0.47000000000E+01 0.  1.
         25    2    1    2    0    0  0.76274065952E+01  0.39983361012E+02  0.12396331383E+03  0.18065706968E+03  0.12495289978E+03 0.  0.
         25    2    1    2    0    0 -0.76274065952E+01 -0.39983361012E+02  0.44886932719E+03  0.46772411094E+03  0.12500129829E+03 0.  0.
          5    1    3    3  502    0  0.66287840219E+01  0.84027036234E+02  0.63193691439E+02  0.10545148758E+03  0.47000000000E+01 0. -1.
         -5    1    3    3    0  502  0.99862257330E+00 -0.44043675222E+02  0.60769622386E+02  0.75205582100E+02  0.47000000000E+01 0. -1.
          5    1    4    4  503    0 -0.38982857110E+02 -0.13873366368E+02  0.43283894148E+02  0.60064290019E+02  0.47000000000E+01 0. -1.
         -5    1    4    4    0  503  0.31355450515E+02 -0.26109994644E+02  0.40558543304E+03  0.40765982092E+03  0.47000000000E+01 0. -1.
<mgrwt>
<rscale>  0 0.13145017E+03</rscale>
<asrwt>0</asrwt>
<pdfrwt beam="1">  1        5 0.93939513E-01 0.13146167E+03</pdfrwt>
<pdfrwt beam="2">  1       -5 0.58114269E-02 0.13146167E+03</pdfrwt>
<totfact> 0.13365446E+02</totfact>
</mgrwt>
</event>
<event>
 8    1  0.3759079E-007  0.1407374E+03  0.7546771E-02  0.1212343E+00
         -5   -1    0    0    0  501 -0.00000000000E+00  0.00000000000E+00  0.90406123186E+02  0.90528211678E+02  0.47000000000E+01 0.  1.
          5   -1    0    0  501    0  0.00000000000E+00 -0.00000000000E+00 -0.21929734297E+03  0.21934770260E+03  0.47000000000E+01 0.  1.
         25    2    1    2    0    0  0.38284596769E+02  0.52128982584E+02 -0.56920738230E+02  0.15181231335E+03  0.12499546739E+03 0.  0.
         25    2    1    2    0    0 -0.38284596769E+02 -0.52128982584E+02 -0.71970481557E+02  0.15806360093E+03  0.12498484127E+03 0.  0.
          5    1    3    3  502    0 -0.26615445855E+02  0.21427172188E+02 -0.70599654250E+02  0.78574212349E+02  0.47000000000E+01 0. -1.
         -5    1    3    3    0  502  0.64900042623E+02  0.30701810396E+02  0.13678916020E+02  0.73238100997E+02  0.47000000000E+01 0. -1.
          5    1    4    4  503    0  0.91484714839E+01  0.29482888787E+02 -0.53228490411E+02  0.61711404563E+02  0.47000000000E+01 0.  1.
         -5    1    4    4    0  503 -0.47433068253E+02 -0.81611871371E+02 -0.18741991146E+02  0.96352196367E+02  0.47000000000E+01 0.  1.
<mgrwt>
<rscale>  0 0.14073501E+03</rscale>
<asrwt>0</asrwt>
<pdfrwt beam="2">  1        5 0.33751318E-01 0.14073737E+03</pdfrwt>
<pdfrwt beam="1">  1       -5 0.13921900E-01 0.14073737E+03</pdfrwt>
<totfact> 0.27848244E+02</totfact>
</mgrwt>
</event>
<event>
 8    1  0.3759079E-007  0.1541764E+03  0.7546771E-02  0.1195434E+00
         -5   -1    0    0    0  501 -0.00000000000E+00  0.00000000000E+00  0.17048588790E+03  0.17055066102E+03  0.47000000000E+01 0. -1.
          5   -1    0    0  501    0  0.00000000000E+00 -0.00000000000E+00 -0.13977848370E+03  0.13985747927E+03  0.47000000000E+01 0. -1.
         25    2    1    2    0    0 -0.31209427910E+02  0.84676820434E+02  0.62139197501E+01  0.15429822877E+03  0.12500055318E+03 0.  0.
         25    2    1    2    0    0  0.31209427910E+02 -0.84676820434E+02  0.24493484447E+02  0.15610991151E+03  0.12500472544E+03 0.  0.
          5    1    4    4  502    0  0.22989735232E+01 -0.11205149417E+03  0.70687448969E+01  0.11239608436E+03  0.47000000000E+01 0. -1.
         -5    1    4    4    0  502  0.28910454387E+02  0.27374673739E+02  0.17424739550E+02  0.43713827144E+02  0.47000000000E+01 0. -1.
          5    1    3    3  503    0 -0.47716874759E+02  0.62179475094E+02 -0.48789427466E+02  0.92442876914E+02  0.47000000000E+01 0. -1.
         -5    1    3    3    0  503  0.16507446848E+02  0.22497345340E+02  0.55003347216E+02  0.61855351860E+02  0.47000000000E+01 0. -1.
<mgrwt>
<rscale>  0 0.15417559E+03</rscale>
<asrwt>0</asrwt>
<pdfrwt beam="2">  1        5 0.21515441E-01 0.15417644E+03</pdfrwt>
<pdfrwt beam="1">  1       -5 0.26239657E-01 0.15417644E+03</pdfrwt>
<totfact> 0.21124616E+02</totfact>
</mgrwt>
</event>
<event>
 8    1  0.3759079E-007  0.1366109E+03  0.7546771E-02  0.1217979E+00
         -5   -1    0    0    0  501 -0.00000000000E+00  0.00000000000E+00  0.82249864776E+03  0.82251207624E+03  0.47000000000E+01 0.  1.
          5   -1    0    0  501    0  0.00000000000E+00 -0.00000000000E+00 -0.28624101200E+02  0.29007398531E+02  0.47000000000E+01 0.  1.
         25    2    1    2    0    0  0.52529829927E+02 -0.16256104329E+02  0.59347877778E+03  0.60898905946E+03  0.12500788340E+03 0.  0.
         25    2    1    2    0    0 -0.52529829927E+02  0.16256104329E+02  0.20039576878E+03  0.24253041531E+03  0.12505556463E+03 0.  0.
          5    1    4    4  502    0 -0.38062705495E+02 -0.42819895427E+02  0.37621789266E+02  0.68700815290E+02  0.47000000000E+01 0. -1.
         -5    1    4    4    0  502 -0.14467124432E+02  0.59075999756E+02  0.16277397951E+03  0.17382960002E+03  0.47000000000E+01 0. -1.
          5    1    3    3  503    0  0.11130290616E+02  0.51547552652E+02  0.16846558638E+03  0.17658929001E+03  0.47000000000E+01 0. -1.
         -5    1    3    3    0  503  0.41399539311E+02 -0.67803656981E+02  0.42501319140E+03  0.43239976945E+03  0.47000000000E+01 0. -1.
<mgrwt>
<rscale>  0 0.13659999E+03</rscale>
<asrwt>0</asrwt>
<pdfrwt beam="2">  1        5 0.44342256E-02 0.13661090E+03</pdfrwt>
<pdfrwt beam="1">  1       -5 0.12656876E+00 0.13661090E+03</pdfrwt>
<totfact> 0.10113613E+02</totfact>
</mgrwt>
</event>
<event>
 8    1  0.3759079E-007  0.1468314E+03  0.7546771E-02  0.1204421E+00
         -5   -1    0    0    0  501 -0.00000000000E+00  0.00000000000E+00  0.49073702632E+02  0.49298258488E+02  0.47000000000E+01 0.  1.
          5   -1    0    0  501    0  0.00000000000E+00 -0.00000000000E+00 -0.45467450180E+03  0.45469879326E+03  0.47000000000E+01 0.  1.
         25    2    1    2    0    0 -0.64122543724E+02  0.42689868663E+02 -0.15468292792E+03  0.21327512934E+03  0.12500138841E+03 0.  0.
         25    2    1    2    0    0  0.64122543724E+02 -0.42689868663E+02 -0.25091787126E+03  0.29072192241E+03  0.12500133021E+03 0.  0.
          5    1    3    3  502    0 -0.20769662491E+02  0.59708169514E+02 -0.15391549450E+03  0.16645874514E+03  0.47000000000E+01 0.  1.
         -5    1    3    3    0  502 -0.43352881233E+02 -0.17018300851E+02 -0.76743341742E+00  0.46816384195E+02  0.47000000000E+01 0.  1.
          5    1    4    4  503    0  0.17911981879E+02 -0.82897208600E+02 -0.15679279421E+03  0.17832233905E+03  0.47000000000E+01 0.  1.
         -5    1    4    4    0  503  0.46210561845E+02  0.40207339937E+02 -0.94125077042E+02  0.11239958336E+03  0.47000000000E+01 0.  1.
<mgrwt>
<rscale>  0 0.14683143E+03</rscale>
<asrwt>0</asrwt>
<pdfrwt beam="2">  1        5 0.69969063E-01 0.14683144E+03</pdfrwt>
<pdfrwt beam="1">  1       -5 0.75689428E-02 0.14683144E+03</pdfrwt>
<totfact> 0.17559638E+02</totfact>
</mgrwt>
</event>
<event>
 8    1  0.3759079E-007  0.1480334E+03  0.7546771E-02  0.1202914E+00
         -5   -1    0    0    0  501 -0.00000000000E+00  0.00000000000E+00  0.24655161727E+03  0.24659641112E+03  0.47000000000E+01 0.  1.
          5   -1    0    0  501    0  0.00000000000E+00 -0.00000000000E+00 -0.92751096333E+02  0.92870102137E+02  0.47000000000E+01 0.  1.
         25    2    1    2    0    0 -0.68096792715E+02 -0.40599089764E+02  0.11207439664E+03  0.18566481356E+03  0.12500117337E+03 0.  0.
         25    2    1    2    0    0  0.68096792715E+02  0.40599089764E+02  0.41726124299E+02  0.15380169970E+03  0.12501373571E+03 0.  0.
          5    1    4    4  502    0  0.92341244690E+01  0.40137045260E+02 -0.36881136657E+02  0.55484769965E+02  0.47000000000E+01 0.  1.
         -5    1    4    4    0  502  0.58862668246E+02  0.46204450320E+00  0.78607260956E+02  0.98316929738E+02  0.47000000000E+01 0.  1.
          5    1    3    3  503    0 -0.70648010724E+02 -0.20728343091E+00  0.48618655850E+01  0.70971206293E+02  0.47000000000E+01 0. -1.
         -5    1    3    3    0  503  0.25512180094E+01 -0.40391806333E+02  0.10721253105E+03  0.11469360726E+03  0.47000000000E+01 0. -1.
<mgrwt>
<rscale>  0 0.14803077E+03</rscale>
<asrwt>0</asrwt>
<pdfrwt beam="2">  1        5 0.14282000E-01 0.14803342E+03</pdfrwt>
<pdfrwt beam="1">  1       -5 0.37943617E-01 0.14803342E+03</pdfrwt>
<totfact> 0.21371106E+02</totfact>
</mgrwt>
</event>
<event>
 8    1  0.3759079E-007  0.1323115E+03  0.7546771E-02  0.1224068E+00
         -5   -1    0    0    0  501 -0.00000000000E+00  0.00000000000E+00  0.61785419047E+03  0.61787206659E+03  0.47000000000E+01 0.  1.
          5   -1    0    0  501    0  0.00000000000E+00 -0.00000000000E+00 -0.29173067148E+02  0.29549244438E+02  0.47000000000E+01 0.  1.
         25    2    1    2    0    0 -0.34921474696E+02 -0.25719930740E+02  0.35542985327E+03  0.37925626838E+03  0.12499564903E+03 0.  0.
         25    2    1    2    0    0  0.34921474696E+02  0.25719930740E+02  0.23325127005E+03  0.26816504265E+03  0.12500124356E+03 0.  0.
          5    1    4    4  502    0  0.82093596409E+02  0.14733362402E+02  0.14202383432E+03  0.16477041620E+03  0.47000000000E+01 0. -1.
         -5    1    4    4    0  502 -0.47172121712E+02  0.10986568338E+02  0.91227435724E+02  0.10339462645E+03  0.47000000000E+01 0. -1.
          5    1    3    3  503    0  0.38238875826E+02  0.94173283999E+01  0.19952126088E+03  0.20342497693E+03  0.47000000000E+01 0. -1.
         -5    1    3    3    0  503 -0.73160350522E+02 -0.35137259140E+02  0.15590859239E+03  0.17583129144E+03  0.47000000000E+01 0. -1.
<mgrwt>
<rscale>  0 0.13231019E+03</rscale>
<asrwt>0</asrwt>
<pdfrwt beam="2">  1        5 0.45184761E-02 0.13231151E+03</pdfrwt>
<pdfrwt beam="1">  1       -5 0.95084800E-01 0.13231151E+03</pdfrwt>
<totfact> 0.19771236E+02</totfact>
</mgrwt>
</event>
<event>
 8    1  0.3759079E-007  0.1308300E+03  0.7546771E-02  0.1226234E+00
          5   -1    0    0  501    0  0.00000000000E+00  0.00000000000E+00  0.47041577597E+02  0.47275786856E+02  0.47000000000E+01 0.  1.
         -5   -1    0    0    0  501 -0.00000000000E+00 -0.00000000000E+00 -0.36506306309E+03  0.36509331688E+03  0.47000000000E+01 0.  1.
         25    2    1    2    0    0  0.84083980269E+01 -0.37700932160E+02 -0.17569397272E+03  0.21905447360E+03  0.12499771562E+03 0.  0.
         25    2    1    2    0    0 -0.84083980269E+01  0.37700932160E+02 -0.14232751277E+03  0.19331463014E+03  0.12498545472E+03 0.  0.
          5    1    3    3  502    0 -0.18957598482E+00 -0.20354463967E+02 -0.19210827043E+03  0.19324082827E+03  0.47000000000E+01 0. -1.
         -5    1    3    3    0  502  0.85979740117E+01 -0.17346468193E+02  0.16414297710E+02  0.25813645329E+02  0.47000000000E+01 0. -1.
          5    1    4    4  503    0  0.41120318524E+02  0.43116717599E+02 -0.23216479455E+02  0.64117289792E+02  0.47000000000E+01 0. -1.
         -5    1    4    4    0  503 -0.49528716550E+02 -0.54157854389E+01 -0.11911103332E+03  0.12919734035E+03  0.47000000000E+01 0. -1.
<mgrwt>
<rscale>  0 0.13082708E+03</rscale>
<asrwt>0</asrwt>
<pdfrwt beam="1">  1        5 0.72575093E-02 0.13083001E+03</pdfrwt>
<pdfrwt beam="2">  1       -5 0.56183890E-01 0.13083001E+03</pdfrwt>
<totfact> 0.29447295E+02</totfact>
</mgrwt>
</event>
<event>
 8    1  0.3759079E-007  0.1598987E+03  0.7546771E-02  0.1188812E+00
         -5   -1    0    0    0  501 -0.00000000000E+00  0.00000000000E+00  0.59600322811E+02  0.59785353384E+02  0.47000000000E+01 0. -1.
          5   -1    0    0  501    0  0.00000000000E+00 -0.00000000000E+00 -0.45112474974E+03  0.45114923233E+03  0.47000000000E+01 0. -1.
         25    2    1    2    0    0  0.48582345820E+02 -0.87077379266E+02 -0.13807545293E+03  0.21126147938E+03  0.12499547057E+03 0.  0.
         25    2    1    2    0    0 -0.48582345820E+02  0.87077379266E+02 -0.25344897400E+03  0.29967310633E+03  0.12499949572E+03 0.  0.
          5    1    3    3  502    0  0.68619802521E+02 -0.77807244658E+02 -0.41088811472E+02  0.11168269807E+03  0.47000000000E+01 0.  1.
         -5    1    3    3    0  502 -0.20037456701E+02 -0.92701346079E+01 -0.96986641454E+02  0.99578781311E+02  0.47000000000E+01 0.  1.
          5    1    4    4  503    0  0.39741793920E+02  0.72341619595E+01 -0.60545782835E+02  0.72935760106E+02  0.47000000000E+01 0.  1.
         -5    1    4    4    0  503 -0.88324139739E+02  0.79843217307E+02 -0.19290319117E+03  0.22673734622E+03  0.47000000000E+01 0.  1.
<mgrwt>
<rscale>  0 0.15989789E+03</rscale>
<asrwt>0</asrwt>
<pdfrwt beam="2">  1        5 0.69419922E-01 0.15989868E+03</pdfrwt>
<pdfrwt beam="1">  1       -5 0.91853971E-02 0.15989868E+03</pdfrwt>
<totfact> 0.13160066E+02</totfact>
</mgrwt>
</event>
<event>
 8    1  0.3759079E-007  0.1315075E+03  0.7546771E-02  0.1225237E+00
         -5   -1    0    0    0  501 -0.00000000000E+00  0.00000000000E+00  0.13025374396E+03  0.13033851240E+03  0.47000000000E+01 0.  1.
          5   -1    0    0  501    0  0.00000000000E+00 -0.00000000000E+00 -0.15779399360E+03  0.15786397441E+03  0.47000000000E+01 0.  1.
         25    2    1    2    0    0 -0.37874432844E+02 -0.15313788494E+02  0.43779253731E+02  0.13860069700E+03  0.12499818147E+03 0.  0.
         25    2    1    2    0    0  0.37874432844E+02  0.15313788494E+02 -0.71319503371E+02  0.14960178981E+03  0.12500095668E+03 0.  0.
          5    1    4    4  502    0 -0.32332232899E+02  0.44501160434E+02 -0.26782451287E+02  0.61360543195E+02  0.47000000000E+01 0. -1.
         -5    1    4    4    0  502  0.70206665744E+02 -0.29187371940E+02 -0.44537052084E+02  0.88241246614E+02  0.47000000000E+01 0. -1.
          5    1    3    3  503    0  0.14675945100E+02  0.25997936492E+02  0.62158572473E+02  0.69116236864E+02  0.47000000000E+01 0. -1.
         -5    1    3    3    0  503 -0.52550377944E+02 -0.41311724986E+02 -0.18379318742E+02  0.69484460139E+02  0.47000000000E+01 0. -1.
<mgrwt>
<rscale>  0 0.13150685E+03</rscale>
<asrwt>0</asrwt>
<pdfrwt beam="2">  1        5 0.24287903E-01 0.13150751E+03</pdfrwt>
<pdfrwt beam="1">  1       -5 0.20050941E-01 0.13150751E+03</pdfrwt>
<totfact> 0.26507655E+02</totfact>
</mgrwt>
</event>
<event>
 8    1  0.3759079E-007  0.1482210E+03  0.7546771E-02  0.1202692E+00
          5   -1    0    0  501    0  0.00000000000E+00  0.00000000000E+00  0.20802119594E+03  0.20807428471E+03  0.47000000000E+01 0. -1.
         -5   -1    0    0    0  501 -0.00000000000E+00 -0.00000000000E+00 -0.13342934313E+03  0.13351209536E+03  0.47000000000E+01 0. -1.
         25    2    1    2    0    0  0.75566894284E+02  0.24906190849E+02 -0.40855975486E+02  0.15374870793E+03  0.12505511027E+03 0.  0.
         25    2    1    2    0    0 -0.75566894284E+02 -0.24906190849E+02  0.11544782829E+03  0.18783767215E+03  0.12499646461E+03 0.  0.
          5    1    3    3  502    0  0.10790662172E+03  0.79643193632E+01 -0.16354680072E+02  0.10953006416E+03  0.47000000000E+01 0. -1.
         -5    1    3    3    0  502 -0.32339727438E+02  0.16941871485E+02 -0.24501295414E+02  0.44218643773E+02  0.47000000000E+01 0. -1.
          5    1    4    4  503    0 -0.30714779315E+02 -0.61291720315E+02  0.12707471761E+02  0.69883062942E+02  0.47000000000E+01 0.  1.
         -5    1    4    4    0  503 -0.44852114968E+02  0.36385529467E+02  0.10274035653E+03  0.11795460920E+03  0.47000000000E+01 0.  1.
<mgrwt>
<rscale>  0 0.14820859E+03</rscale>
<asrwt>0</asrwt>
<pdfrwt beam="1">  1        5 0.32013710E-01 0.14822096E+03</pdfrwt>
<pdfrwt beam="2">  1       -5 0.20538041E-01 0.14822096E+03</pdfrwt>
<totfact> 0.15421399E+02</totfact>
</mgrwt>
</event>
<event>
 8    1  0.3759079E-007  0.1528173E+03  0.7546771E-02  0.1197055E+00
          5   -1    0    0  501    0  0.00000000000E+00  0.00000000000E+00  0.30998182017E+03  0.31001744925E+03  0.47000000000E+01 0. -1.
         -5   -1    0    0    0  501 -0.00000000000E+00 -0.00000000000E+00 -0.75347844846E+02  0.75494289340E+02  0.47000000000E+01 0. -1.
         25    2    1    2    0    0  0.10136187673E+02 -0.87319931013E+02  0.12519707925E+03  0.19755365356E+03  0.12500249889E+03 0.  0.
         25    2    1    2    0    0 -0.10136187673E+02  0.87319931013E+02  0.10943689608E+03  0.18795808503E+03  0.12499717938E+03 0.  0.
          5    1    3    3  502    0  0.17976120067E+02 -0.11793990794E+03  0.10927231438E+03  0.16185021306E+03  0.47000000000E+01 0.  1.
         -5    1    3    3    0  502 -0.78399323948E+01  0.30619976929E+02  0.15924764869E+02  0.35703440496E+02  0.47000000000E+01 0.  1.
          5    1    4    4  503    0 -0.35382862991E+02  0.47881726294E+02  0.12488081471E+03  0.13842656750E+03  0.47000000000E+01 0.  1.
         -5    1    4    4    0  503  0.25246675319E+02  0.39438204718E+02 -0.15443918636E+02  0.49531517531E+02  0.47000000000E+01 0.  1.
<mgrwt>
<rscale>  0 0.15281625E+03</rscale>
<asrwt>0</asrwt>
<pdfrwt beam="1">  1        5 0.47703517E-01 0.15281733E+03</pdfrwt>
<pdfrwt beam="2">  1       -5 0.11605982E-01 0.15281733E+03</pdfrwt>
<totfact> 0.19486948E+02</totfact>
</mgrwt>
</event>
<event>
 8    1  0.3759079E-007  0.1367751E+03  0.7546771E-02  0.1217736E+00
         -5   -1    0    0    0  501 -0.00000000000E+00  0.00000000000E+00  0.10799190731E+04  0.10799293006E+04  0.47000000000E+01 0. -1.
          5   -1    0    0  501    0  0.00000000000E+00 -0.00000000000E+00 -0.23094156371E+02  0.23567563695E+02  0.47000000000E+01 0. -1.
         25    2    1    2    0    0  0.10168305738E+02  0.54584156992E+02  0.80857971304E+03  0.82006590841E+03  0.12499646861E+03 0.  0.
         25    2    1    2    0    0 -0.10168305738E+02 -0.54584156992E+02  0.24824520367E+03  0.28343095593E+03  0.12499840399E+03 0.  0.
          5    1    4    4  502    0 -0.17886525438E+02 -0.59587442887E+02  0.38252266820E+02  0.73184131197E+02  0.47000000000E+01 0.  1.
         -5    1    4    4    0  502  0.77182196998E+01  0.50032858952E+01  0.20999293685E+03  0.21024682473E+03  0.47000000000E+01 0.  1.
          5    1    3    3  503    0 -0.22945548557E+02 -0.32843788793E+02  0.17370992172E+03  0.17833238507E+03  0.47000000000E+01 0. -1.
         -5    1    3    3    0  503  0.33113854296E+02  0.87427945785E+02  0.63486979132E+03  0.64173352334E+03  0.47000000000E+01 0. -1.
<mgrwt>
<rscale>  0 0.13677465E+03</rscale>
<asrwt>0</asrwt>
<pdfrwt beam="2">  1        5 0.35901517E-02 0.13677509E+03</pdfrwt>
<pdfrwt beam="1">  1       -5 0.16617851E+00 0.13677509E+03</pdfrwt>
<totfact> 0.68536467E+01</totfact>
</mgrwt>
</event>
<event>
 8    1  0.3759079E-007  0.1329849E+03  0.7546771E-02  0.1223119E+00
         -5   -1    0    0    0  501 -0.00000000000E+00  0.00000000000E+00  0.35342663698E+03  0.35345788678E+03  0.47000000000E+01 0.  1.
          5   -1    0    0  501    0  0.00000000000E+00 -0.00000000000E+00 -0.58105066833E+02  0.58294843612E+02  0.47000000000E+01 0.  1.
         25    2    1    2    0    0 -0.15537785527E+02  0.42412044883E+02  0.22498660528E+03  0.26131337285E+03  0.12500200776E+03 0.  0.
         25    2    1    2    0    0  0.15537785527E+02 -0.42412044883E+02  0.70334964865E+02  0.15043935754E+03  0.12507912969E+03 0.  0.
          5    1    3    3  502    0 -0.15246111983E+02  0.82354799376E+02  0.10282895058E+03  0.13270508652E+03  0.47000000000E+01 0.  1.
         -5    1    3    3    0  502 -0.29167354354E+00 -0.39942754493E+02  0.12215765470E+03  0.12860828633E+03  0.47000000000E+01 0.  1.
          5    1    4    4  503    0  0.43696931031E+02  0.12951774465E+02 -0.11840569633E+02  0.47322926078E+02  0.47000000000E+01 0.  1.
         -5    1    4    4    0  503 -0.28159145504E+02 -0.55363819347E+02  0.82175534497E+02  0.10311643147E+03  0.47000000000E+01 0.  1.
<mgrwt>
<rscale>  0 0.13296680E+03</rscale>
<asrwt>0</asrwt>
<pdfrwt beam="2">  1        5 0.89562432E-02 0.13298494E+03</pdfrwt>
<pdfrwt beam="1">  1       -5 0.54390330E-01 0.13298494E+03</pdfrwt>
<totfact> 0.22147938E+02</totfact>
</mgrwt>
</event>
<event>
 8    1  0.3759079E-007  0.1257374E+03  0.7546771E-02  0.1233923E+00
          5   -1    0    0  501    0  0.00000000000E+00  0.00000000000E+00  0.16286427982E+02  0.16951039390E+02  0.47000000000E+01 0. -1.
         -5   -1    0    0    0  501 -0.00000000000E+00 -0.00000000000E+00 -0.97844593670E+03  0.97845722495E+03  0.47000000000E+01 0. -1.
         25    2    1    2    0    0 -0.65439853187E+01 -0.11837576129E+02 -0.56497703666E+03  0.57879836274E+03  0.12500216323E+03 0.  0.
         25    2    1    2    0    0  0.65439853187E+01  0.11837576129E+02 -0.39718247207E+03  0.41660990160E+03  0.12500776791E+03 0.  0.
          5    1    4    4  502    0  0.62646527060E+02  0.25381024170E+02 -0.22137043197E+03  0.23150754176E+03  0.47000000000E+01 0.  1.
         -5    1    4    4    0  502 -0.56102541741E+02 -0.13543448042E+02 -0.17581204009E+03  0.18510235984E+03  0.47000000000E+01 0.  1.
          5    1    3    3  503    0  0.35129101425E+02  0.31460537786E+02 -0.40635581386E+03  0.40910995669E+03  0.47000000000E+01 0.  1.
         -5    1    3    3    0  503 -0.41673086743E+02 -0.43298113914E+02 -0.15862122279E+03  0.16968840605E+03  0.47000000000E+01 0.  1.
<mgrwt>
<rscale>  0 0.12573601E+03</rscale>
<asrwt>0</asrwt>
<pdfrwt beam="1">  1        5 0.25575973E-02 0.12573740E+03</pdfrwt>
<pdfrwt beam="2">  1       -5 0.15058209E+00 0.12573740E+03</pdfrwt>
<totfact> 0.15174164E+02</totfact>
</mgrwt>
</event>
<event>
 8    1  0.3759079E-007  0.1342395E+03  0.7546771E-02  0.1221298E+00
         -5   -1    0    0    0  501 -0.00000000000E+00  0.00000000000E+00  0.30303719975E+03  0.30307364523E+03  0.47000000000E+01 0.  1.
          5   -1    0    0  501    0  0.00000000000E+00 -0.00000000000E+00 -0.59423416031E+02  0.59608995737E+02  0.47000000000E+01 0.  1.
         25    2    1    2    0    0 -0.48801495947E+02 -0.37554522765E+01  0.11469093743E+03  0.17656234068E+03  0.12499823834E+03 0.  0.
         25    2    1    2    0    0  0.48801495947E+02  0.37554522765E+01  0.12892284629E+03  0.18612030029E+03  0.12499590576E+03 0.  0.
          5    1    3    3  502    0  0.31631107512E+02 -0.31218498907E+02  0.62085300180E+02  0.76497033504E+02  0.47000000000E+01 0. -1.
         -5    1    3    3    0  502 -0.80432603458E+02  0.27463046630E+02  0.52605637248E+02  0.10006530717E+03  0.47000000000E+01 0. -1.
          5    1    4    4  503    0  0.27557929830E+02 -0.48823549661E+02  0.11425765892E+03  0.12735808227E+03  0.47000000000E+01 0. -1.
         -5    1    4    4    0  503  0.21243566117E+02  0.52579001937E+02  0.14665187375E+02  0.58762218022E+02  0.47000000000E+01 0. -1.
<mgrwt>
<rscale>  0 0.13423898E+03</rscale>
<asrwt>0</asrwt>
<pdfrwt beam="2">  1        5 0.91591430E-02 0.13423952E+03</pdfrwt>
<pdfrwt beam="1">  1       -5 0.46638186E-01 0.13423952E+03</pdfrwt>
<totfact> 0.29616295E+02</totfact>
</mgrwt>
</event>
<event>
 8    1  0.3759079E-007  0.1286912E+03  0.7546771E-02  0.1229412E+00
          5   -1    0    0  501    0  0.00000000000E+00  0.00000000000E+00  0.23143862721E+02  0.23616273661E+02  0.47000000000E+01 0.  1.
         -5   -1    0    0    0  501 -0.00000000000E+00 -0.00000000000E+00 -0.78520304181E+03  0.78521710811E+03  0.47000000000E+01 0.  1.
         25    2    1    2    0    0 -0.22750751844E+02 -0.20471614845E+02 -0.50791631917E+03  0.52396496592E+03  0.12499445791E+03 0.  0.
         25    2    1    2    0    0  0.22750751844E+02  0.20471614845E+02 -0.25414285992E+03  0.28486841585E+03  0.12499894950E+03 0.  0.
          5    1    4    4  502    0  0.50527363262E+02  0.54130134839E+01 -0.31556937198E+02  0.60002045287E+02  0.47000000000E+01 0.  1.
         -5    1    4    4    0  502 -0.27776611418E+02  0.15058601361E+02 -0.22258592272E+03  0.22486637056E+03  0.47000000000E+01 0.  1.
          5    1    3    3  503    0 -0.59921290538E+02 -0.94183888869E+01 -0.45007680340E+03  0.45417010698E+03  0.47000000000E+01 0. -1.
         -5    1    3    3    0  503  0.37170538694E+02 -0.11053225958E+02 -0.57839515764E+02  0.69794858942E+02  0.47000000000E+01 0. -1.
<mgrwt>
<rscale>  0 0.12869009E+03</rscale>
<asrwt>0</asrwt>
<pdfrwt beam="1">  1        5 0.35980162E-02 0.12869119E+03</pdfrwt>
<pdfrwt beam="2">  1       -5 0.12083787E+00 0.12869119E+03</pdfrwt>
<totfact> 0.15732466E+02</totfact>
</mgrwt>
</event>
<event>
 8    1  0.3759079E-007  0.1928918E+03  0.7546771E-02  0.1155879E+00
         -5   -1    0    0    0  501 -0.00000000000E+00  0.00000000000E+00  0.68741997007E+03  0.68743603721E+03  0.47000000000E+01 0.  1.
          5   -1    0    0  501    0  0.00000000000E+00 -0.00000000000E+00 -0.55778601777E+02  0.55976266544E+02  0.47000000000E+01 0.  1.
         25    2    1    2    0    0 -0.10956446638E+03  0.97866748014E+02  0.38193400206E+03  0.42787939707E+03  0.12499969537E+03 0.  0.
         25    2    1    2    0    0  0.10956446638E+03 -0.97866748014E+02  0.24970736623E+03  0.31553290669E+03  0.12499989517E+03 0.  0.
          5    1    3    3  502    0  0.22403898330E+02  0.17150355607E+01  0.94732860414E+02  0.97474513846E+02  0.47000000000E+01 0.  1.
         -5    1    3    3    0  502 -0.13196836471E+03  0.96151712453E+02  0.28720114165E+03  0.33040488322E+03  0.47000000000E+01 0.  1.
          5    1    4    4  503    0  0.13890471302E+02 -0.12988767159E+01 -0.13039897148E+02  0.19666244973E+02  0.47000000000E+01 0. -1.
         -5    1    4    4    0  503  0.95673995076E+02 -0.96567871298E+02  0.26274726338E+03  0.29586666171E+03  0.47000000000E+01 0. -1.
<mgrwt>
<rscale>  0 0.19289177E+03</rscale>
<asrwt>0</asrwt>
<pdfrwt beam="2">  1        5 0.85977648E-02 0.19289180E+03</pdfrwt>
<pdfrwt beam="1">  1       -5 0.10577335E+00 0.19289180E+03</pdfrwt>
<totfact> 0.57554471E+01</totfact>
</mgrwt>
</event>
<event>
 8    1  0.3759079E-007  0.1438229E+03  0.7546771E-02  0.1208277E+00
         -5   -1    0    0    0  501 -0.00000000000E+00  0.00000000000E+00  0.15136045330E+03  0.15143340723E+03  0.47000000000E+01 0. -1.
          5   -1    0    0  501    0  0.00000000000E+00 -0.00000000000E+00 -0.13762830306E+03  0.13770853207E+03  0.47000000000E+01 0. -1.
         25    2    1    2    0    0  0.10479245514E+02 -0.70369200947E+02  0.19892593241E+02  0.14518717187E+03  0.12498784174E+03 0.  0.
         25    2    1    2    0    0 -0.10479245514E+02  0.70369200947E+02 -0.61604430024E+01  0.14395476742E+03  0.12499353974E+03 0.  0.
          5    1    3    3  502    0  0.23156050985E+02 -0.12789201848E+02 -0.48084134672E+02  0.55081216293E+02  0.47000000000E+01 0.  1.
         -5    1    3    3    0  502 -0.12676805472E+02 -0.57579999099E+02  0.67976727913E+02  0.90105955580E+02  0.47000000000E+01 0.  1.
          5    1    4    4  503    0  0.14318143265E+02  0.17528316920E+02 -0.60067128443E+02  0.64361487241E+02  0.47000000000E+01 0. -1.
         -5    1    4    4    0  503 -0.24797388778E+02  0.52840884027E+02  0.53906685440E+02  0.79593280182E+02  0.47000000000E+01 0. -1.
<mgrwt>
<rscale>  0 0.14382165E+03</rscale>
<asrwt>0</asrwt>
<pdfrwt beam="2">  1        5 0.21185368E-01 0.14382289E+03</pdfrwt>
<pdfrwt beam="1">  1       -5 0.23298007E-01 0.14382289E+03</pdfrwt>
<totfact> 0.26688358E+02</totfact>
</mgrwt>
</event>
<event>
 8    1  0.3759079E-007  0.1285264E+03  0.7546771E-02  0.1229668E+00
          5   -1    0    0  501    0  0.00000000000E+00  0.00000000000E+00  0.47673244454E+02  0.47904365530E+02  0.47000000000E+01 0. -1.
         -5   -1    0    0    0  501 -0.00000000000E+00 -0.00000000000E+00 -0.49381542003E+03  0.49383778618E+03  0.47000000000E+01 0. -1.
         25    2    1    2    0    0 -0.18133219123E+02 -0.23741438271E+02 -0.37153812283E+03  0.39313260837E+03  0.12498080463E+03 0.  0.
         25    2    1    2    0    0  0.18133219123E+02  0.23741438271E+02 -0.74604052748E+02  0.14860954334E+03  0.12500624847E+03 0.  0.
          5    1    3    3  502    0 -0.13138257859E+02  0.25358811979E+02 -0.13961683751E+02  0.32135677646E+02  0.47000000000E+01 0. -1.
         -5    1    3    3    0  502 -0.49949612640E+01 -0.49100250250E+02 -0.35757643908E+03  0.36099693073E+03  0.47000000000E+01 0. -1.
          5    1    4    4  503    0  0.13164138469E+02  0.58401760614E+00 -0.10716389750E+03  0.10807324621E+03  0.47000000000E+01 0.  1.
         -5    1    4    4    0  503  0.49690806544E+01  0.23157420664E+02  0.32559844754E+02  0.40536297127E+02  0.47000000000E+01 0.  1.
<mgrwt>
<rscale>  0 0.12852020E+03</rscale>
<asrwt>0</asrwt>
<pdfrwt beam="1">  1        5 0.73538447E-02 0.12852639E+03</pdfrwt>
<pdfrwt beam="2">  1       -5 0.75991099E-01 0.12852639E+03</pdfrwt>
<totfact> 0.14629098E+02</totfact>
</mgrwt>
</event>
<event>
 8    1  0.3759079E-007  0.1444564E+03  0.7546771E-02  0.1207457E+00
         -5   -1    0    0    0  501 -0.00000000000E+00  0.00000000000E+00  0.84185956728E+03  0.84187268695E+03  0.47000000000E+01 0. -1.
          5   -1    0    0  501    0  0.00000000000E+00 -0.00000000000E+00 -0.34191942908E+02  0.34513460560E+02  0.47000000000E+01 0. -1.
         25    2    1    2    0    0  0.69239429991E+02  0.21153621227E+02  0.63517964104E+03  0.65139778081E+03  0.12499727239E+03 0.  0.
         25    2    1    2    0    0 -0.69239429991E+02 -0.21153621227E+02  0.17248798334E+03  0.22498836669E+03  0.12500434550E+03 0.  0.
          5    1    4    4  502    0 -0.23202034727E+02  0.33118631331E+02  0.14147252081E+03  0.14721325450E+03  0.47000000000E+01 0. -1.
         -5    1    4    4    0  502 -0.46037395265E+02 -0.54272252558E+02  0.31015462530E+02  0.77775112192E+02  0.47000000000E+01 0. -1.
          5    1    3    3  503    0  0.33035755035E+02  0.64067183306E+02  0.20116555595E+03  0.21374198462E+03  0.47000000000E+01 0. -1.
         -5    1    3    3    0  503  0.36203674957E+02 -0.42913562079E+02  0.43401408509E+03  0.43765579620E+03  0.47000000000E+01 0. -1.
<mgrwt>
<rscale>  0 0.14445490E+03</rscale>
<asrwt>0</asrwt>
<pdfrwt beam="2">  1        5 0.52860406E-02 0.14445643E+03</pdfrwt>
<pdfrwt beam="1">  1       -5 0.12954259E+00 0.14445643E+03</pdfrwt>
<totfact> 0.72383881E+01</totfact>
</mgrwt>
</event>
<event>
 8    1  0.3759079E-007  0.1270510E+03  0.7546771E-02  0.1231914E+00
         -5   -1    0    0    0  501 -0.00000000000E+00  0.00000000000E+00  0.51105456814E+03  0.51107617985E+03  0.47000000000E+01 0. -1.
          5   -1    0    0  501    0  0.00000000000E+00 -0.00000000000E+00 -0.44386595490E+02  0.44634738256E+02  0.47000000000E+01 0. -1.
         25    2    1    2    0    0 -0.15078675115E+02  0.16703367844E+02  0.38324308367E+03  0.40375392211E+03  0.12504239082E+03 0.  0.
         25    2    1    2    0    0  0.15078675115E+02 -0.16703367844E+02  0.83424888980E+02  0.15195699600E+03  0.12499939036E+03 0.  0.
          5    1    4    4  502    0 -0.44497741858E+02  0.42984791727E+01  0.75839056335E+02  0.88159959275E+02  0.47000000000E+01 0. -1.
         -5    1    4    4    0  502  0.59576416973E+02 -0.21001847016E+02  0.75858326455E+01  0.63797036721E+02  0.47000000000E+01 0. -1.
          5    1    3    3  503    0  0.45204716311E+02  0.19836028343E+02  0.77024035828E+02  0.91606367096E+02  0.47000000000E+01 0.  1.
         -5    1    3    3    0  503 -0.60283391426E+02 -0.31326605000E+01  0.30621904784E+03  0.31214755502E+03  0.47000000000E+01 0.  1.
<mgrwt>
<rscale>  0 0.12704047E+03</rscale>
<asrwt>0</asrwt>
<pdfrwt beam="2">  1        5 0.68494577E-02 0.12705105E+03</pdfrwt>
<pdfrwt beam="1">  1       -5 0.78644526E-01 0.12705105E+03</pdfrwt>
<totfact> 0.15193651E+02</totfact>
</mgrwt>
</event>
<event>
 8    1  0.3759079E-007  0.1416390E+03  0.7546771E-02  0.1211143E+00
         -5   -1    0    0    0  501 -0.00000000000E+00  0.00000000000E+00  0.40184972068E+02  0.40458892472E+02  0.47000000000E+01 0.  1.
          5   -1    0    0  501    0  0.00000000000E+00 -0.00000000000E+00 -0.49846984696E+03  0.49849200428E+03  0.47000000000E+01 0.  1.
         25    2    1    2    0    0 -0.24253519936E+02 -0.62011721374E+02 -0.21567430291E+03  0.25802522015E+03  0.12501168938E+03 0.  0.
         25    2    1    2    0    0  0.24253519936E+02  0.62011721374E+02 -0.24261057199E+03  0.28092567660E+03  0.12500263724E+03 0.  0.
          5    1    4    4  502    0 -0.14307764988E+02 -0.31564048855E+02 -0.10037669544E+03  0.10629474261E+03  0.47000000000E+01 0.  1.
         -5    1    4    4    0  502  0.38561284923E+02  0.93575770229E+02 -0.14223387655E+03  0.17463093399E+03  0.47000000000E+01 0.  1.
          5    1    3    3  503    0 -0.61590017927E+02 -0.78380071313E+02 -0.13979566344E+03  0.17176054088E+03  0.47000000000E+01 0. -1.
         -5    1    3    3    0  503  0.37336497991E+02  0.16368349939E+02 -0.75878639467E+02  0.86264679269E+02  0.47000000000E+01 0. -1.
<mgrwt>
<rscale>  0 0.14163701E+03</rscale>
<asrwt>0</asrwt>
<pdfrwt beam="2">  1        5 0.76710439E-01 0.14163901E+03</pdfrwt>
<pdfrwt beam="1">  1       -5 0.62050790E-02 0.14163901E+03</pdfrwt>
<totfact> 0.19722074E+02</totfact>
</mgrwt>
</event>
<event>
 8    1  0.3759079E-007  0.1441707E+03  0.7546771E-02  0.1207826E+00
         -5   -1    0    0    0  501 -0.00000000000E+00  0.00000000000E+00  0.42727801318E+03  0.42730386208E+03  0.47000000000E+01 0.  1.
          5   -1    0    0  501    0  0.00000000000E+00 -0.00000000000E+00 -0.48928321275E+02  0.49153541304E+02  0.47000000000E+01 0.  1.
         25    2    1    2    0    0 -0.70837035047E+02 -0.11855169987E+02  0.21133587819E+03  0.25582814559E+03  0.12500702411E+03 0.  0.
         25    2    1    2    0    0  0.70837035047E+02  0.11855169987E+02  0.16701381371E+03  0.22062925779E+03  0.12500089933E+03 0.  0.
          5    1    4    4  502    0  0.89342025456E+02 -0.10229430867E+02  0.16886811347E+03  0.19137703236E+03  0.47000000000E+01 0. -1.
         -5    1    4    4    0  502 -0.18504990409E+02  0.22084600854E+02 -0.18542997567E+01  0.29252225429E+02  0.47000000000E+01 0. -1.
          5    1    3    3  503    0 -0.19156966123E+02 -0.53294846133E+02  0.33429973431E+02  0.65931654757E+02  0.47000000000E+01 0.  1.
         -5    1    3    3    0  503 -0.51680068923E+02  0.41439676146E+02  0.17790590476E+03  0.18989649084E+03  0.47000000000E+01 0.  1.
<mgrwt>
<rscale>  0 0.14416936E+03</rscale>
<asrwt>0</asrwt>
<pdfrwt beam="2">  1        5 0.75467470E-02 0.14417069E+03</pdfrwt>
<pdfrwt beam="1">  1       -5 0.65754392E-01 0.14417069E+03</pdfrwt>
<totfact> 0.20163697E+02</totfact>
</mgrwt>
</event>
<event>
 8    1  0.3759079E-007  0.1420326E+03  0.7546771E-02  0.1210625E+00
          5   -1    0    0  501    0  0.00000000000E+00  0.00000000000E+00  0.28988940303E+02  0.29367476226E+02  0.47000000000E+01 0.  1.
         -5   -1    0    0    0  501 -0.00000000000E+00 -0.00000000000E+00 -0.70930490868E+03  0.70932048009E+03  0.47000000000E+01 0.  1.
         25    2    1    2    0    0 -0.50911069949E+02  0.44194675668E+02 -0.39957980905E+03  0.42406749136E+03  0.12499642806E+03 0.  0.
         25    2    1    2    0    0  0.50911069949E+02 -0.44194675668E+02 -0.28073615932E+03  0.31462046495E+03  0.12501255703E+03 0.  0.
          5    1    4    4  502    0 -0.16298853944E+02 -0.24058579824E+02 -0.21923176007E+03  0.22119928238E+03  0.47000000000E+01 0. -1.
         -5    1    4    4    0  502  0.67209923892E+02 -0.20136095844E+02 -0.61504399252E+02  0.93421182570E+02  0.47000000000E+01 0. -1.
          5    1    3    3  503    0 -0.46086475358E+02  0.71311090798E+02 -0.38132612479E+03  0.39069289516E+03  0.47000000000E+01 0. -1.
         -5    1    3    3    0  503 -0.48245945904E+01 -0.27116415130E+02 -0.18253684262E+02  0.33374596201E+02  0.47000000000E+01 0. -1.
<mgrwt>
<rscale>  0 0.14202900E+03</rscale>
<asrwt>0</asrwt>
<pdfrwt beam="1">  1        5 0.44901535E-02 0.14203255E+03</pdfrwt>
<pdfrwt beam="2">  1       -5 0.10915413E+00 0.14203255E+03</pdfrwt>
<totfact> 0.14589043E+02</totfact>
</mgrwt>
</event>
<event>
 8    1  0.3759079E-007  0.1275100E+03  0.7546771E-02  0.1231204E+00
          5   -1    0    0  501    0  0.00000000000E+00  0.00000000000E+00  0.25634407004E+03  0.25638715304E+03  0.47000000000E+01 0.  1.
         -5   -1    0    0    0  501 -0.00000000000E+00 -0.00000000000E+00 -0.67603361224E+02  0.67766543727E+02  0.47000000000E+01 0.  1.
         25    2    1    2    0    0 -0.17801342808E+02  0.17759981928E+02  0.53463394256E+02  0.13826472540E+03  0.12500597986E+03 0.  0.
         25    2    1    2    0    0  0.17801342808E+02 -0.17759981928E+02  0.13527731456E+03  0.18588897136E+03  0.12498981189E+03 0.  0.
          5    1    4    4  502    0  0.18803364384E+02  0.51130773285E+02  0.82484164253E+02  0.98962871024E+02  0.47000000000E+01 0.  1.
         -5    1    4    4    0  502 -0.10020215758E+01 -0.68890755212E+02  0.52793150305E+02  0.86926100339E+02  0.47000000000E+01 0.  1.
          5    1    3    3  503    0 -0.42389490293E+02 -0.19168782088E+02  0.75266307978E+02  0.88608228798E+02  0.47000000000E+01 0. -1.
         -5    1    3    3    0  503  0.24588147484E+02  0.36928764016E+02 -0.21802913722E+02  0.49656496606E+02  0.47000000000E+01 0. -1.
<mgrwt>
<rscale>  0 0.12750604E+03</rscale>
<asrwt>0</asrwt>
<pdfrwt beam="1">  1        5 0.39453416E-01 0.12751000E+03</pdfrwt>
<pdfrwt beam="2">  1       -5 0.10416384E-01 0.12751000E+03</pdfrwt>
<totfact> 0.32837948E+02</totfact>
</mgrwt>
</event>
<event>
 8    1  0.3759079E-007  0.1350274E+03  0.7546771E-02  0.1220190E+00
         -5   -1    0    0    0  501 -0.00000000000E+00  0.00000000000E+00  0.35961513499E+02  0.36267346927E+02  0.47000000000E+01 0. -1.
          5   -1    0    0  501    0  0.00000000000E+00 -0.00000000000E+00 -0.60792089070E+03  0.60793905891E+03  0.47000000000E+01 0. -1.
         25    2    1    2    0    0  0.22806303886E+02 -0.45616522499E+02 -0.15309677391E+03  0.20411744731E+03  0.12499726194E+03 0.  0.
         25    2    1    2    0    0 -0.22806303886E+02  0.45616522499E+02 -0.41886260330E+03  0.44008895853E+03  0.12502566281E+03 0.  0.
          5    1    4    4  502    0 -0.63674454855E+02  0.21274300592E+02 -0.34906040702E+03  0.35548880407E+03  0.47000000000E+01 0. -1.
         -5    1    4    4    0  502  0.40868150968E+02  0.24342221907E+02 -0.69802196277E+02  0.84600154468E+02  0.47000000000E+01 0. -1.
          5    1    3    3  503    0 -0.47567744761E+02  0.40381779996E+01 -0.65435146510E+02  0.81134737456E+02  0.47000000000E+01 0.  1.
         -5    1    3    3    0  503  0.70374048648E+02 -0.49654700499E+02 -0.87661627396E+02  0.12298270985E+03  0.47000000000E+01 0.  1.
<mgrwt>
<rscale>  0 0.13502087E+03</rscale>
<asrwt>0</asrwt>
<pdfrwt beam="2">  1        5 0.93551207E-01 0.13502745E+03</pdfrwt>
<pdfrwt beam="1">  1       -5 0.55574642E-02 0.13502745E+03</pdfrwt>
<totfact> 0.14676046E+02</totfact>
</mgrwt>
</event>
<event>
 8    1  0.3759079E-007  0.1442986E+03  0.7546771E-02  0.1207660E+00
          5   -1    0    0  501    0  0.00000000000E+00  0.00000000000E+00  0.38119788719E+02  0.38408440374E+02  0.47000000000E+01 0.  1.
         -5   -1    0    0    0  501 -0.00000000000E+00 -0.00000000000E+00 -0.54392830480E+03  0.54394861041E+03  0.47000000000E+01 0.  1.
         25    2    1    2    0    0 -0.49389612740E+02 -0.52499844719E+02 -0.25625702092E+03  0.29408973490E+03  0.12500217542E+03 0.  0.
         25    2    1    2    0    0  0.49389612740E+02  0.52499844719E+02 -0.24955149516E+03  0.28826731588E+03  0.12500611635E+03 0.  0.
          5    1    4    4  502    0  0.18642288038E+02 -0.15706788083E+02 -0.19241829325E+03  0.19401321520E+03  0.47000000000E+01 0.  1.
         -5    1    4    4    0  502  0.30747324702E+02  0.68206632802E+02 -0.57133201912E+02  0.94254100681E+02  0.47000000000E+01 0.  1.
          5    1    3    3  503    0 -0.72031370444E+02 -0.79110767286E+02 -0.21193555678E+03  0.23745694779E+03  0.47000000000E+01 0. -1.
         -5    1    3    3    0  503  0.22641757704E+02  0.26610922568E+02 -0.44321464148E+02  0.56632787112E+02  0.47000000000E+01 0. -1.
<mgrwt>
<rscale>  0 0.14429778E+03</rscale>
<asrwt>0</asrwt>
<pdfrwt beam="1">  1        5 0.58883492E-02 0.14429864E+03</pdfrwt>
<pdfrwt beam="2">  1       -5 0.83705038E-01 0.14429864E+03</pdfrwt>
<totfact> 0.17705182E+02</totfact>
</mgrwt>
</event>
<event>
 8    1  0.3759079E-007  0.1346551E+03  0.7546771E-02  0.1220707E+00
          5   -1    0    0  501    0  0.00000000000E+00  0.00000000000E+00  0.27787280555E+03  0.27791255111E+03  0.47000000000E+01 0. -1.
         -5   -1    0    0    0  501 -0.00000000000E+00 -0.00000000000E+00 -0.78864541369E+02  0.79004467502E+02  0.47000000000E+01 0. -1.
         25    2    1    2    0    0 -0.41029690984E+01 -0.49900622972E+02  0.25105076001E+02  0.13697543388E+03  0.12500039247E+03 0.  0.
         25    2    1    2    0    0  0.41029690984E+01  0.49900622972E+02  0.17390318818E+03  0.21994158473E+03  0.12500030123E+03 0.  0.
          5    1    4    4  502    0  0.53064049122E+02  0.36233225956E+02  0.15064486961E+03  0.16384323822E+03  0.47000000000E+01 0. -1.
         -5    1    4    4    0  502 -0.48961080024E+02  0.13667397016E+02  0.23258318572E+02  0.56098346510E+02  0.47000000000E+01 0. -1.
          5    1    3    3  503    0  0.39302188926E+02 -0.39450047493E+02 -0.31952925160E+02  0.64374278464E+02  0.47000000000E+01 0. -1.
         -5    1    3    3    0  503 -0.43405158024E+02 -0.10450575479E+02  0.57058001160E+02  0.72601155413E+02  0.47000000000E+01 0. -1.
<mgrwt>
<rscale>  0 0.13465511E+03</rscale>
<asrwt>0</asrwt>
<pdfrwt beam="1">  1        5 0.42763483E-01 0.13465513E+03</pdfrwt>
<pdfrwt beam="2">  1       -5 0.12146827E-01 0.13465513E+03</pdfrwt>
<totfact> 0.21651214E+02</totfact>
</mgrwt>
</event>
<event>
 8    1  0.3759079E-007  0.1697200E+03  0.7546771E-02  0.1178145E+00
         -5   -1    0    0    0  501 -0.00000000000E+00  0.00000000000E+00  0.35071822550E+02  0.35385346359E+02  0.47000000000E+01 0.  1.
          5   -1    0    0  501    0  0.00000000000E+00 -0.00000000000E+00 -0.82339844285E+03  0.82341185666E+03  0.47000000000E+01 0.  1.
         25    2    1    2    0    0 -0.10482087067E+03  0.46821067486E+02 -0.43122973798E+03  0.46342010689E+03  0.12497792312E+03 0.  0.
         25    2    1    2    0    0  0.10482087067E+03 -0.46821067486E+02 -0.35709688232E+03  0.39537709613E+03  0.12500094995E+03 0.  0.
          5    1    4    4  502    0 -0.79413114494E+01 -0.50938337306E+02 -0.71595061100E+02  0.88349993825E+02  0.47000000000E+01 0.  1.
         -5    1    4    4    0  502  0.11276218212E+03  0.41172698198E+01 -0.28550182122E+03  0.30702710230E+03  0.47000000000E+01 0.  1.
          5    1    3    3  503    0 -0.60158956173E+01 -0.18895136105E+01 -0.25772516156E+03  0.25784512825E+03  0.47000000000E+01 0.  1.
         -5    1    3    3    0  503 -0.98804975049E+02  0.48710581097E+02 -0.17350457641E+03  0.20557497864E+03  0.47000000000E+01 0.  1.
<mgrwt>
<rscale>  0 0.16971572E+03</rscale>
<asrwt>0</asrwt>
<pdfrwt beam="2">  1        5 0.12670182E+00 0.16971996E+03</pdfrwt>
<pdfrwt beam="1">  1       -5 0.54208147E-02 0.16971996E+03</pdfrwt>
<totfact> 0.77082663E+01</totfact>
</mgrwt>
</event>
<event>
 8    1  0.3759079E-007  0.1255546E+03  0.7546771E-02  0.1234209E+00
          5   -1    0    0  501    0  0.00000000000E+00  0.00000000000E+00  0.75668117179E+02  0.75813943027E+02  0.47000000000E+01 0. -1.
         -5   -1    0    0    0  501 -0.00000000000E+00 -0.00000000000E+00 -0.21057340925E+03  0.21062585474E+03  0.47000000000E+01 0. -1.
         25    2    1    2    0    0  0.31296427407E+01  0.11364577884E+02 -0.83452817429E+02  0.15075150008E+03  0.12499077464E+03 0.  0.
         25    2    1    2    0    0 -0.31296427407E+01 -0.11364577884E+02 -0.51452474643E+02  0.13568829768E+03  0.12500003475E+03 0.  0.
          5    1    3    3  502    0 -0.28553421420E+02  0.60364353868E+02 -0.42122354986E+02  0.79091945748E+02  0.47000000000E+01 0.  1.
         -5    1    3    3    0  502  0.31683064161E+02 -0.48999775984E+02 -0.41330462444E+02  0.71659554331E+02  0.47000000000E+01 0.  1.
          5    1    4    4  503    0 -0.45368080524E+02 -0.31973780622E+02  0.11610016627E+02  0.56898750986E+02  0.47000000000E+01 0.  1.
         -5    1    4    4    0  503  0.42238437783E+02  0.20609202737E+02 -0.63062491270E+02  0.78789546699E+02  0.47000000000E+01 0.  1.
<mgrwt>
<rscale>  0 0.12555229E+03</rscale>
<asrwt>0</asrwt>
<pdfrwt beam="1">  1        5 0.11656501E-01 0.12555460E+03</pdfrwt>
<pdfrwt beam="2">  1       -5 0.32411161E-01 0.12555460E+03</pdfrwt>
<totfact> 0.39769015E+02</totfact>
</mgrwt>
</event>
<event>
 8    1  0.3759079E-007  0.1367090E+03  0.7546771E-02  0.1217828E+00
         -5   -1    0    0    0  501 -0.00000000000E+00  0.00000000000E+00  0.75142057541E+02  0.75288902313E+02  0.47000000000E+01 0.  1.
          5   -1    0    0  501    0  0.00000000000E+00 -0.00000000000E+00 -0.25677672185E+03  0.25681973228E+03  0.47000000000E+01 0.  1.
         25    2    1    2    0    0 -0.79719484272E+01 -0.54774884056E+02 -0.60660016441E+02  0.14955940299E+03  0.12499815016E+03 0.  0.
         25    2    1    2    0    0  0.79719484272E+01  0.54774884056E+02 -0.12097464787E+03  0.18254923159E+03  0.12500206655E+03 0.  0.
          5    1    4    4  502    0  0.10816066278E+02 -0.39232995909E+02 -0.24498706391E+02  0.47733550806E+02  0.47000000000E+01 0.  1.
         -5    1    4    4    0  502 -0.28441178503E+01  0.94007879964E+02 -0.96475941482E+02  0.13481568079E+03  0.47000000000E+01 0.  1.
          5    1    3    3  503    0  0.21406035143E+02 -0.44816353272E+02 -0.92351489134E+02  0.10496481032E+03  0.47000000000E+01 0. -1.
         -5    1    3    3    0  503 -0.29377983570E+02 -0.99585307841E+01  0.31691472693E+02  0.44594592671E+02  0.47000000000E+01 0. -1.
<mgrwt>
<rscale>  0 0.13670813E+03</rscale>
<asrwt>0</asrwt>
<pdfrwt beam="2">  1        5 0.39518715E-01 0.13670902E+03</pdfrwt>
<pdfrwt beam="1">  1       -5 0.11574921E-01 0.13670902E+03</pdfrwt>
<totfact> 0.27871195E+02</totfact>
</mgrwt>
</event>
<event>
 8    1  0.3759079E-007  0.1326754E+03  0.7546771E-02  0.1223545E+00
          5   -1    0    0  501    0  0.00000000000E+00  0.00000000000E+00  0.45278555185E+02  0.45521836075E+02  0.47000000000E+01 0.  1.
         -5   -1    0    0    0  501 -0.00000000000E+00 -0.00000000000E+00 -0.38873826832E+03  0.38876667971E+03  0.47000000000E+01 0.  1.
         25    2    1    2    0    0 -0.38639161801E+02  0.21904967728E+02 -0.15908342147E+03  0.20714802554E+03  0.12501982668E+03 0.  0.
         25    2    1    2    0    0  0.38639161801E+02 -0.21904967728E+02 -0.18437629166E+03  0.22714049025E+03  0.12500149178E+03 0.  0.
          5    1    3    3  502    0  0.61342395687E+01 -0.34134186971E+02 -0.27807479435E+01  0.35108320586E+02  0.47000000000E+01 0.  1.
         -5    1    3    3    0  502 -0.44773401370E+02  0.56039154699E+02 -0.15630267353E+03  0.17203970495E+03  0.47000000000E+01 0.  1.
          5    1    4    4  503    0  0.31578041607E+02  0.47907534636E+02 -0.11365700659E+03  0.12740608201E+03  0.47000000000E+01 0.  1.
         -5    1    4    4    0  503  0.70611201934E+01 -0.69812502364E+02 -0.70719285075E+02  0.99734408236E+02  0.47000000000E+01 0.  1.
<mgrwt>
<rscale>  0 0.13267111E+03</rscale>
<asrwt>0</asrwt>
<pdfrwt beam="1">  1        5 0.69868313E-02 0.13267543E+03</pdfrwt>
<pdfrwt beam="2">  1       -5 0.59826784E-01 0.13267543E+03</pdfrwt>
<totfact> 0.27541785E+02</totfact>
</mgrwt>
</event>
<event>
 8    1  0.3759079E-007  0.1503030E+03  0.7546771E-02  0.1200103E+00
          5   -1    0    0  501    0  0.00000000000E+00  0.00000000000E+00  0.40656269696E+03  0.40658986284E+03  0.47000000000E+01 0. -1.
         -5   -1    0    0    0  501 -0.00000000000E+00 -0.00000000000E+00 -0.57149658126E+02  0.57342596941E+02  0.47000000000E+01 0. -1.
         25    2    1    2    0    0  0.45302154839E+02  0.70087022286E+02  0.13461127629E+03  0.20177012347E+03  0.12500604424E+03 0.  0.
         25    2    1    2    0    0 -0.45302154839E+02 -0.70087022286E+02  0.21480176255E+03  0.26216233631E+03  0.12499926983E+03 0.  0.
          5    1    3    3  502    0  0.24321970852E+02 -0.33168688318E+02  0.19872470687E+02  0.45920858464E+02  0.47000000000E+01 0.  1.
         -5    1    3    3    0  502  0.20980183986E+02  0.10325571060E+03  0.11473880560E+03  0.15584926501E+03  0.47000000000E+01 0.  1.
          5    1    4    4  503    0  0.43160175909E+02 -0.21124741713E+02  0.57149726845E+02  0.74814682886E+02  0.47000000000E+01 0.  1.
         -5    1    4    4    0  503 -0.88462330748E+02 -0.48962280573E+02  0.15765203570E+03  0.18734765342E+03  0.47000000000E+01 0.  1.
<mgrwt>
<rscale>  0 0.15030158E+03</rscale>
<asrwt>0</asrwt>
<pdfrwt beam="1">  1        5 0.62565036E-01 0.15030298E+03</pdfrwt>
<pdfrwt beam="2">  1       -5 0.88091865E-02 0.15030298E+03</pdfrwt>
<totfact> 0.17495294E+02</totfact>
</mgrwt>
</event>
<event>
 8    1  0.3759079E-007  0.1305476E+03  0.7546771E-02  0.1226645E+00
          5   -1    0    0  501    0  0.00000000000E+00  0.00000000000E+00  0.41975021881E+03  0.41977653125E+03  0.47000000000E+01 0. -1.
         -5   -1    0    0    0  501 -0.00000000000E+00 -0.00000000000E+00 -0.44897175460E+02  0.45142511719E+02  0.47000000000E+01 0. -1.
         25    2    1    2    0    0 -0.24442245629E+01 -0.37580014229E+02  0.11440043559E+03  0.17358033847E+03  0.12499777013E+03 0.  0.
         25    2    1    2    0    0  0.24442245629E+01  0.37580014229E+02  0.26045260776E+03  0.29133870450E+03  0.12499779257E+03 0.  0.
          5    1    3    3  502    0 -0.15744953166E+02 -0.76047795530E+02  0.37328136900E+02  0.86293977540E+02  0.47000000000E+01 0. -1.
         -5    1    3    3    0  502  0.13300728603E+02  0.38467781301E+02  0.77072298691E+02  0.87286360934E+02  0.47000000000E+01 0. -1.
          5    1    4    4  503    0 -0.47021206931E+02  0.51982838965E+02  0.19884923495E+03  0.21089409116E+03  0.47000000000E+01 0.  1.
         -5    1    4    4    0  503  0.49465431494E+02 -0.14402824735E+02  0.61603372813E+02  0.80444613339E+02  0.47000000000E+01 0.  1.
<mgrwt>
<rscale>  0 0.13054761E+03</rscale>
<asrwt>0</asrwt>
<pdfrwt beam="1">  1        5 0.64597855E-01 0.13054762E+03</pdfrwt>
<pdfrwt beam="2">  1       -5 0.69281536E-02 0.13054762E+03</pdfrwt>
<totfact> 0.23461818E+02</totfact>
</mgrwt>
</event>
<event>
 8    1  0.3759079E-007  0.1519631E+03  0.7546771E-02  0.1198085E+00
          5   -1    0    0  501    0  0.00000000000E+00  0.00000000000E+00  0.23687501185E+03  0.23692163523E+03  0.47000000000E+01 0. -1.
         -5   -1    0    0    0  501 -0.00000000000E+00 -0.00000000000E+00 -0.98896400853E+02  0.99008020391E+02  0.47000000000E+01 0. -1.
         25    2    1    2    0    0  0.84101446696E+02 -0.19838263042E+02  0.48132803222E+02  0.15940369097E+03  0.12500463964E+03 0.  0.
         25    2    1    2    0    0 -0.84101446696E+02  0.19838263042E+02  0.89845807778E+02  0.17652596466E+03  0.12499014763E+03 0.  0.
          5    1    4    4  502    0 -0.11496333899E+03  0.11112569361E+02  0.85592127044E+02  0.14383379547E+03  0.47000000000E+01 0.  1.
         -5    1    4    4    0  502  0.30861892290E+02  0.87256936809E+01  0.42536807340E+01  0.32692169181E+02  0.47000000000E+01 0.  1.
          5    1    3    3  503    0  0.51761883031E+02 -0.48433363578E+02  0.78910171381E+02  0.10617903931E+03  0.47000000000E+01 0.  1.
         -5    1    3    3    0  503  0.32339563665E+02  0.28595100535E+02 -0.30777368159E+02  0.53224651652E+02  0.47000000000E+01 0.  1.
<mgrwt>
<rscale>  0 0.15196007E+03</rscale>
<asrwt>0</asrwt>
<pdfrwt beam="1">  1        5 0.36454482E-01 0.15196305E+03</pdfrwt>
<pdfrwt beam="2">  1       -5 0.15227004E-01 0.15196305E+03</pdfrwt>
<totfact> 0.20818150E+02</totfact>
</mgrwt>
</event>
<event>
 8    1  0.3759079E-007  0.1324094E+03  0.7546771E-02  0.1223927E+00
         -5   -1    0    0    0  501 -0.00000000000E+00  0.00000000000E+00  0.11612871617E+04  0.11612966726E+04  0.47000000000E+01 0.  1.
          5   -1    0    0  501    0  0.00000000000E+00 -0.00000000000E+00 -0.15234628244E+02  0.15943145791E+02  0.47000000000E+01 0.  1.
         25    2    1    2    0    0 -0.30124483164E+02 -0.31606503751E+02  0.67867129732E+03  0.69146726077E+03  0.12500314936E+03 0.  0.
         25    2    1    2    0    0  0.30124483164E+02  0.31606503751E+02  0.46738123612E+03  0.48577255766E+03  0.12499320915E+03 0.  0.
          5    1    4    4  502    0 -0.40721582393E+02 -0.18891750673E+02  0.17008696410E+03  0.17597389259E+03  0.47000000000E+01 0.  1.
         -5    1    4    4    0  502  0.70846065557E+02  0.50498254424E+02  0.29729427202E+03  0.30979866507E+03  0.47000000000E+01 0.  1.
          5    1    3    3  503    0  0.29840068739E+02 -0.58490429427E+02  0.37459888575E+03  0.38033928963E+03  0.47000000000E+01 0.  1.
         -5    1    3    3    0  503 -0.59964551903E+02  0.26883925676E+02  0.30407241157E+03  0.31112797114E+03  0.47000000000E+01 0.  1.
<mgrwt>
<rscale>  0 0.13240703E+03</rscale>
<asrwt>0</asrwt>
<pdfrwt beam="2">  1        5 0.23990207E-02 0.13240938E+03</pdfrwt>
<pdfrwt beam="1">  1       -5 0.17871489E+00 0.13240938E+03</pdfrwt>
<totfact> 0.10542386E+02</totfact>
</mgrwt>
</event>
<event>
 8    1  0.3759079E-007  0.1331848E+03  0.7546771E-02  0.1222809E+00
          5   -1    0    0  501    0  0.00000000000E+00  0.00000000000E+00  0.28974307514E+02  0.29353032141E+02  0.47000000000E+01 0. -1.
         -5   -1    0    0    0  501 -0.00000000000E+00 -0.00000000000E+00 -0.61328563356E+03  0.61330364284E+03  0.47000000000E+01 0. -1.
         25    2    1    2    0    0 -0.26354934176E+02 -0.37653196003E+02 -0.32255291454E+03  0.34896354884E+03  0.12499131976E+03 0.  0.
         25    2    1    2    0    0  0.26354934176E+02  0.37653196003E+02 -0.26175841150E+03  0.29369312614E+03  0.12500336247E+03 0.  0.
          5    1    4    4  502    0 -0.17521454223E+02  0.55974872662E+00 -0.22410494860E+03  0.22483868142E+03  0.47000000000E+01 0. -1.
         -5    1    4    4    0  502  0.43876388399E+02  0.37093447276E+02 -0.37653462903E+02  0.68854444725E+02  0.47000000000E+01 0. -1.
          5    1    3    3  503    0 -0.30730466678E+01  0.30900147966E+02 -0.22609729771E+03  0.22826813355E+03  0.47000000000E+01 0.  1.
         -5    1    3    3    0  503 -0.23281887508E+02 -0.68553343969E+02 -0.96455616832E+02  0.12069541530E+03  0.47000000000E+01 0.  1.
<mgrwt>
<rscale>  0 0.13318196E+03</rscale>
<asrwt>0</asrwt>
<pdfrwt beam="1">  1        5 0.44881042E-02 0.13318478E+03</pdfrwt>
<pdfrwt beam="2">  1       -5 0.94382144E-01 0.13318478E+03</pdfrwt>
<totfact> 0.20396364E+02</totfact>
</mgrwt>
</event>
<event>
 8    1  0.3759079E-007  0.1643739E+03  0.7546771E-02  0.1183850E+00
         -5   -1    0    0    0  501 -0.00000000000E+00  0.00000000000E+00  0.66860886254E+03  0.66862538171E+03  0.47000000000E+01 0. -1.
          5   -1    0    0  501    0  0.00000000000E+00 -0.00000000000E+00 -0.42099869968E+02  0.42361409931E+02  0.47000000000E+01 0. -1.
         25    2    1    2    0    0 -0.80031402177E+02 -0.70585906045E+02  0.38749709028E+03  0.42091895814E+03  0.12502551290E+03 0.  0.
         25    2    1    2    0    0  0.80031402177E+02  0.70585906045E+02  0.23901190229E+03  0.29006783350E+03  0.12500105251E+03 0.  0.
          5    1    4    4  502    0  0.63313558220E+02  0.61976867634E+02  0.25171468076E+03  0.26689344182E+03  0.47000000000E+01 0. -1.
         -5    1    4    4    0  502  0.16717843957E+02  0.86090384108E+01 -0.12702778471E+02  0.23174391682E+02  0.47000000000E+01 0. -1.
          5    1    3    3  503    0 -0.93747158928E+02 -0.10939347089E+02  0.16537179710E+03  0.19046816111E+03  0.47000000000E+01 0.  1.
         -5    1    3    3    0  503  0.13715756751E+02 -0.59646558955E+02  0.22212529318E+03  0.23045079703E+03  0.47000000000E+01 0.  1.
<mgrwt>
<rscale>  0 0.16436923E+03</rscale>
<asrwt>0</asrwt>
<pdfrwt beam="2">  1        5 0.64982921E-02 0.16437389E+03</pdfrwt>
<pdfrwt beam="1">  1       -5 0.10288429E+00 0.16437389E+03</pdfrwt>
<totfact> 0.95236109E+01</totfact>
</mgrwt>
</event>
<event>
 8    1  0.3759079E-007  0.1536203E+03  0.7546771E-02  0.1196095E+00
         -5   -1    0    0    0  501 -0.00000000000E+00  0.00000000000E+00  0.77275372570E+03  0.77276801861E+03  0.47000000000E+01 0.  1.
          5   -1    0    0  501    0  0.00000000000E+00 -0.00000000000E+00 -0.30369497487E+02  0.30731032811E+02  0.47000000000E+01 0.  1.
         25    2    1    2    0    0 -0.54032426472E+02 -0.71096401060E+02  0.35938679057E+03  0.39084275823E+03  0.12499998027E+03 0.  0.
         25    2    1    2    0    0  0.54032426472E+02  0.71096401060E+02  0.38299743764E+03  0.41265629319E+03  0.12499591080E+03 0.  0.
          5    1    4    4  502    0  0.65338124255E+02  0.60590416315E+02  0.12194463315E+03  0.15110543532E+03  0.47000000000E+01 0. -1.
         -5    1    4    4    0  502 -0.11305697783E+02  0.10505984745E+02  0.26105280450E+03  0.26155085787E+03  0.47000000000E+01 0. -1.
          5    1    3    3  503    0 -0.66978341311E+02 -0.86915141651E+02  0.18459445703E+03  0.21479651678E+03  0.47000000000E+01 0.  1.
         -5    1    3    3    0  503  0.12945914839E+02  0.15818740591E+02  0.17479233354E+03  0.17604624145E+03  0.47000000000E+01 0.  1.
<mgrwt>
<rscale>  0 0.15361947E+03</rscale>
<asrwt>0</asrwt>
<pdfrwt beam="2">  1        5 0.47011406E-02 0.15362030E+03</pdfrwt>
<pdfrwt beam="1">  1       -5 0.11891409E+00 0.15362030E+03</pdfrwt>
<totfact> 0.11179476E+02</totfact>
</mgrwt>
</event>
<event>
 8    1  0.3759079E-007  0.1752588E+03  0.7546771E-02  0.1172474E+00
         -5   -1    0    0    0  501 -0.00000000000E+00  0.00000000000E+00  0.82510253052E+03  0.82511591663E+03  0.47000000000E+01 0. -1.
          5   -1    0    0  501    0  0.00000000000E+00 -0.00000000000E+00 -0.37475822126E+02  0.37769395600E+02  0.47000000000E+01 0. -1.
         25    2    1    2    0    0  0.10993921387E+03 -0.54798030280E+02  0.43895099461E+03  0.47264533357E+03  0.12500472315E+03 0.  0.
         25    2    1    2    0    0 -0.10993921387E+03  0.54798030280E+02  0.34867571378E+03  0.39023997865E+03  0.12499213051E+03 0.  0.
          5    1    3    3  502    0  0.77358682910E+02 -0.42704207627E+00  0.37332852083E+03  0.38128837203E+03  0.47000000000E+01 0.  1.
         -5    1    3    3    0  502  0.32580530959E+02 -0.54370988204E+02  0.65622473785E+02  0.91356961538E+02  0.47000000000E+01 0.  1.
          5    1    4    4  503    0  0.73839075475E+01 -0.21957750566E+02  0.11732381637E+03  0.11968138029E+03  0.47000000000E+01 0.  1.
         -5    1    4    4    0  503 -0.11732312142E+03  0.76755780846E+02  0.23135189741E+03  0.27055859837E+03  0.47000000000E+01 0.  1.
<mgrwt>
<rscale>  0 0.17525652E+03</rscale>
<asrwt>0</asrwt>
<pdfrwt beam="2">  1        5 0.57891239E-02 0.17525877E+03</pdfrwt>
<pdfrwt beam="1">  1       -5 0.12696245E+00 0.17525877E+03</pdfrwt>
<totfact> 0.69273750E+01</totfact>
</mgrwt>
</event>
<event>
 8    1  0.3759079E-007  0.1295198E+03  0.7546771E-02  0.1228170E+00
         -5   -1    0    0    0  501 -0.00000000000E+00  0.00000000000E+00  0.64338406713E+03  0.64340123394E+03  0.47000000000E+01 0. -1.
          5   -1    0    0  501    0  0.00000000000E+00 -0.00000000000E+00 -0.27454288914E+02  0.27853688800E+02  0.47000000000E+01 0. -1.
         25    2    1    2    0    0  0.17243044449E+02 -0.29194305815E+02  0.38862199868E+03  0.40963695931E+03  0.12500300199E+03 0.  0.
         25    2    1    2    0    0 -0.17243044449E+02  0.29194305815E+02  0.22730777954E+03  0.26161796343E+03  0.12500200829E+03 0.  0.
          5    1    3    3  502    0  0.18235164683E+02 -0.32638266188E+02  0.39732985100E+03  0.39911261336E+03  0.47000000000E+01 0.  1.
         -5    1    3    3    0  502 -0.99212023368E+00  0.34439603732E+01 -0.87078523221E+01  0.10524345950E+02  0.47000000000E+01 0.  1.
          5    1    4    4  503    0  0.38040875734E+02  0.47218624807E+02  0.16691782266E+03  0.17765234667E+03  0.47000000000E+01 0. -1.
         -5    1    4    4    0  503 -0.55283920183E+02 -0.18024318992E+02  0.60389956879E+02  0.83965616759E+02  0.47000000000E+01 0. -1.
<mgrwt>
<rscale>  0 0.12951957E+03</rscale>
<asrwt>0</asrwt>
<pdfrwt beam="2">  1        5 0.42557804E-02 0.12951981E+03</pdfrwt>
<pdfrwt beam="1">  1       -5 0.99014206E-01 0.12951981E+03</pdfrwt>
<totfact> 0.19644976E+02</totfact>
</mgrwt>
</event>
<event>
 8    1  0.3759079E-007  0.1371224E+03  0.7546771E-02  0.1217254E+00
          5   -1    0    0  501    0  0.00000000000E+00  0.00000000000E+00  0.11189973908E+03  0.11199840001E+03  0.47000000000E+01 0. -1.
         -5   -1    0    0    0  501 -0.00000000000E+00 -0.00000000000E+00 -0.20484583746E+03  0.20489974896E+03  0.47000000000E+01 0. -1.
         25    2    1    2    0    0  0.83218991144E+00  0.56364047533E+02 -0.11380742049E+03  0.17819794437E+03  0.12499912009E+03 0.  0.
         25    2    1    2    0    0 -0.83218991144E+00 -0.56364047533E+02  0.20861322102E+02  0.13870020461E+03  0.12499981442E+03 0.  0.
          5    1    4    4  502    0  0.50431296716E+02 -0.58081934766E+02  0.35937654271E+02  0.85031945933E+02  0.47000000000E+01 0. -1.
         -5    1    4    4    0  502 -0.51263486627E+02  0.17178872333E+01 -0.15076332169E+02  0.53668258677E+02  0.47000000000E+01 0. -1.
          5    1    3    3  503    0 -0.55196126507E+02  0.55823295695E+02 -0.81910735748E+02  0.11355312129E+03  0.47000000000E+01 0.  1.
         -5    1    3    3    0  503  0.56028316418E+02  0.54075183767E+00 -0.31896684740E+02  0.64644823077E+02  0.47000000000E+01 0.  1.
<mgrwt>
<rscale>  0 0.13712224E+03</rscale>
<asrwt>0</asrwt>
<pdfrwt beam="1">  1        5 0.17227081E-01 0.13712240E+03</pdfrwt>
<pdfrwt beam="2">  1       -5 0.31526481E-01 0.13712240E+03</pdfrwt>
<totfact> 0.21464618E+02</totfact>
</mgrwt>
</event>
<event>
 8    1  0.3759079E-007  0.1879036E+03  0.7546771E-02  0.1160366E+00
          5   -1    0    0  501    0  0.00000000000E+00  0.00000000000E+00  0.18387281669E+03  0.18393287557E+03  0.47000000000E+01 0.  1.
         -5   -1    0    0    0  501 -0.00000000000E+00 -0.00000000000E+00 -0.20979078836E+03  0.20984342944E+03  0.47000000000E+01 0.  1.
         25    2    1    2    0    0 -0.81935201228E+02 -0.11388560601E+03 -0.70437314772E+02  0.20067080643E+03  0.12499619509E+03 0.  0.
         25    2    1    2    0    0  0.81935201228E+02  0.11388560601E+03  0.44519343103E+02  0.19310549858E+03  0.12499781284E+03 0.  0.
          5    1    3    3  502    0  0.81462638943E+01  0.20666079345E+02 -0.21946568261E+02  0.31578320243E+02  0.47000000000E+01 0.  1.
         -5    1    3    3    0  502 -0.90081465122E+02 -0.13455168535E+03 -0.48490746510E+02  0.16909248619E+03  0.47000000000E+01 0.  1.
          5    1    4    4  503    0  0.11247874334E+03  0.64947322694E+02  0.28606902322E+02  0.13307917677E+03  0.47000000000E+01 0.  1.
         -5    1    4    4    0  503 -0.30543542114E+02  0.48938283312E+02  0.15912440781E+02  0.60026321809E+02  0.47000000000E+01 0.  1.
<mgrwt>
<rscale>  0 0.18790333E+03</rscale>
<asrwt>0</asrwt>
<pdfrwt beam="1">  1        5 0.28296795E-01 0.18790360E+03</pdfrwt>
<pdfrwt beam="2">  1       -5 0.32284175E-01 0.18790360E+03</pdfrwt>
<totfact> 0.88220871E+01</totfact>
</mgrwt>
</event>
<event>
 8    1  0.3759079E-007  0.1310549E+03  0.7546771E-02  0.1225899E+00
          5   -1    0    0  501    0  0.00000000000E+00  0.00000000000E+00  0.36587393323E+03  0.36590411998E+03  0.47000000000E+01 0.  1.
         -5   -1    0    0    0  501 -0.00000000000E+00 -0.00000000000E+00 -0.56079856503E+02  0.56276463157E+02  0.47000000000E+01 0.  1.
         25    2    1    2    0    0 -0.36559682996E+02  0.14613874293E+02  0.69184174049E+02  0.14819424251E+03  0.12499963132E+03 0.  0.
         25    2    1    2    0    0  0.36559682996E+02 -0.14613874293E+02  0.24060990268E+03  0.27398634063E+03  0.12500085537E+03 0.  0.
          5    1    3    3  502    0 -0.27970774665E+02 -0.11226152963E+02  0.10131971995E+03  0.10581193882E+03  0.47000000000E+01 0.  1.
         -5    1    3    3    0  502 -0.85889083313E+01  0.25840027256E+02 -0.32135545905E+02  0.42382303684E+02  0.47000000000E+01 0.  1.
          5    1    4    4  503    0  0.15523937391E+02 -0.19597541284E+02 -0.62026024003E+01  0.26184318456E+02  0.47000000000E+01 0.  1.
         -5    1    4    4    0  503  0.21035745605E+02  0.49836669910E+01  0.24681250508E+03  0.24780202218E+03  0.47000000000E+01 0.  1.
<mgrwt>
<rscale>  0 0.13105462E+03</rscale>
<asrwt>0</asrwt>
<pdfrwt beam="1">  1        5 0.56305742E-01 0.13105491E+03</pdfrwt>
<pdfrwt beam="2">  1       -5 0.86451161E-02 0.13105491E+03</pdfrwt>
<totfact> 0.21737356E+02</totfact>
</mgrwt>
</event>
<event>
 8    1  0.3759079E-007  0.4363877E+03  0.7546771E-02  0.1031861E+00
          5   -1    0    0  501    0  0.00000000000E+00  0.00000000000E+00  0.26153530180E+03  0.26157752978E+03  0.47000000000E+01 0. -1.
         -5   -1    0    0    0  501 -0.00000000000E+00 -0.00000000000E+00 -0.73217087236E+03  0.73218595748E+03  0.47000000000E+01 0. -1.
         25    2    1    2    0    0 -0.35717809100E+03 -0.21732931334E+03 -0.27270953657E+03  0.51458822982E+03  0.12498934278E+03 0.  0.
         25    2    1    2    0    0  0.35717809100E+03  0.21732931334E+03 -0.19792603398E+03  0.47917525744E+03  0.12500397307E+03 0.  0.
          5    1    4    4  502    0  0.23743428035E+03  0.10755084325E+03 -0.63637065381E+02  0.26835422012E+03  0.47000000000E+01 0. -1.
         -5    1    4    4    0  502  0.11974381065E+03  0.10977847010E+03 -0.13428896860E+03  0.21082103731E+03  0.47000000000E+01 0. -1.
          5    1    3    3  503    0 -0.11385869793E+03 -0.35193750014E+02 -0.13715983828E+03  0.18176169665E+03  0.47000000000E+01 0. -1.
         -5    1    3    3    0  503 -0.24331939307E+03 -0.18213556333E+03 -0.13554969829E+03  0.33282653317E+03  0.47000000000E+01 0. -1.
<mgrwt>
<rscale>  0 0.43638664E+03</rscale>
<asrwt>0</asrwt>
<pdfrwt beam="1">  1        5 0.40240609E-01 0.43638769E+03</pdfrwt>
<pdfrwt beam="2">  1       -5 0.11264608E+00 0.43638769E+03</pdfrwt>
<totfact> 0.31371929E+00</totfact>
</mgrwt>
</event>
<event>
 8    1  0.3759079E-007  0.1497852E+03  0.7546771E-02  0.1200739E+00
          5   -1    0    0  501    0  0.00000000000E+00  0.00000000000E+00  0.11806095527E+03  0.11815447160E+03  0.47000000000E+01 0.  1.
         -5   -1    0    0    0  501 -0.00000000000E+00 -0.00000000000E+00 -0.19345826358E+03  0.19351534758E+03  0.47000000000E+01 0.  1.
         25    2    1    2    0    0  0.24473175853E+02  0.78813502042E+02 -0.59035309313E+02  0.16099929896E+03  0.12500040832E+03 0.  0.
         25    2    1    2    0    0 -0.24473175853E+02 -0.78813502042E+02 -0.16361998993E+02  0.15067052022E+03  0.12499354468E+03 0.  0.
          5    1    3    3  502    0  0.14857121520E+02 -0.30784746018E+02  0.29549631826E+01  0.34630282335E+02  0.47000000000E+01 0. -1.
         -5    1    3    3    0  502  0.96160543328E+01  0.10959824806E+03 -0.61990272495E+02  0.12636901662E+03  0.47000000000E+01 0. -1.
          5    1    4    4  503    0 -0.51444260360E+02 -0.94071036325E+02  0.12520779772E+02  0.10804967249E+03  0.47000000000E+01 0. -1.
         -5    1    4    4    0  503  0.26971084507E+02  0.15257534283E+02 -0.28882778766E+02  0.42620847729E+02  0.47000000000E+01 0. -1.
<mgrwt>
<rscale>  0 0.14978377E+03</rscale>
<asrwt>0</asrwt>
<pdfrwt beam="1">  1        5 0.18174808E-01 0.14978520E+03</pdfrwt>
<pdfrwt beam="2">  1       -5 0.29774395E-01 0.14978520E+03</pdfrwt>
<totfact> 0.22418069E+02</totfact>
</mgrwt>
</event>
<event>
 8    1  0.3759079E-007  0.1309146E+03  0.7546771E-02  0.1226106E+00
          5   -1    0    0  501    0  0.00000000000E+00  0.00000000000E+00  0.82652475170E+02  0.82785999128E+02  0.47000000000E+01 0. -1.
         -5   -1    0    0    0  501 -0.00000000000E+00 -0.00000000000E+00 -0.23804338780E+03  0.23808978239E+03  0.47000000000E+01 0. -1.
         25    2    1    2    0    0 -0.28702983154E+02 -0.26253732535E+02 -0.13558608410E+03  0.18847160482E+03  0.12499935962E+03 0.  0.
         25    2    1    2    0    0  0.28702983154E+02  0.26253732535E+02 -0.19804828528E+02  0.13240417670E+03  0.12500206022E+03 0.  0.
          5    1    4    4  502    0 -0.23333192259E+02  0.56933603493E+02 -0.33600931607E+02  0.70263686728E+02  0.47000000000E+01 0.  1.
         -5    1    4    4    0  502  0.52036175413E+02 -0.30679870958E+02  0.13796103079E+02  0.62140489970E+02  0.47000000000E+01 0.  1.
          5    1    3    3  503    0  0.14613997681E+02  0.41158515514E+02 -0.21314464517E+02  0.48826107004E+02  0.47000000000E+01 0. -1.
         -5    1    3    3    0  503 -0.43316980835E+02 -0.67412248050E+02 -0.11427161959E+03  0.13964549781E+03  0.47000000000E+01 0. -1.
<mgrwt>
<rscale>  0 0.13091396E+03</rscale>
<asrwt>0</asrwt>
<pdfrwt beam="1">  1        5 0.12729605E-01 0.13091461E+03</pdfrwt>
<pdfrwt beam="2">  1       -5 0.36635899E-01 0.13091461E+03</pdfrwt>
<totfact> 0.27046388E+02</totfact>
</mgrwt>
</event>
<event>
 8    1  0.3759079E-007  0.1351496E+03  0.7546771E-02  0.1220010E+00
         -5   -1    0    0    0  501 -0.00000000000E+00  0.00000000000E+00  0.11403583812E+03  0.11413265254E+03  0.47000000000E+01 0.  1.
          5   -1    0    0  501    0  0.00000000000E+00 -0.00000000000E+00 -0.19562269645E+03  0.19567914904E+03  0.47000000000E+01 0.  1.
         25    2    1    2    0    0  0.33947555669E+02 -0.38552076192E+02  0.25312330489E+02  0.13749565377E+03  0.12500256643E+03 0.  0.
         25    2    1    2    0    0 -0.33947555669E+02  0.38552076192E+02 -0.10689918882E+03  0.17231614781E+03  0.12500687626E+03 0.  0.
          5    1    4    4  502    0 -0.28892114684E+02  0.83805656677E+02 -0.78077840948E+02  0.11822174770E+03  0.47000000000E+01 0. -1.
         -5    1    4    4    0  502 -0.50554409851E+01 -0.45253580485E+02 -0.28821347875E+02  0.54094400113E+02  0.47000000000E+01 0. -1.
          5    1    3    3  503    0  0.17579662833E+02 -0.83904296016E+02  0.87544320326E+01  0.86300089893E+02  0.47000000000E+01 0. -1.
         -5    1    3    3    0  503  0.16367892836E+02  0.45352219824E+02  0.16557898456E+02  0.51195563872E+02  0.47000000000E+01 0. -1.
<mgrwt>
<rscale>  0 0.13514862E+03</rscale>
<asrwt>0</asrwt>
<pdfrwt beam="2">  1        5 0.30107589E-01 0.13514961E+03</pdfrwt>
<pdfrwt beam="1">  1       -5 0.17555765E-01 0.13514961E+03</pdfrwt>
<totfact> 0.22589101E+02</totfact>
</mgrwt>
</event>
<event>
 8    1  0.3759079E-007  0.1293013E+03  0.7546771E-02  0.1228499E+00
          5   -1    0    0  501    0  0.00000000000E+00  0.00000000000E+00  0.12327439853E+03  0.12336396286E+03  0.47000000000E+01 0. -1.
         -5   -1    0    0    0  501 -0.00000000000E+00 -0.00000000000E+00 -0.14714542068E+03  0.14722046335E+03  0.47000000000E+01 0. -1.
         25    2    1    2    0    0 -0.30031957580E+02  0.13854819792E+02 -0.50080343667E+02  0.13865359717E+03  0.12499161843E+03 0.  0.
         25    2    1    2    0    0  0.30031957580E+02 -0.13854819792E+02  0.26209321512E+02  0.13193082903E+03  0.12499976243E+03 0.  0.
          5    1    3    3  502    0 -0.55870998587E+02  0.42753282318E+02  0.55042362788E+01  0.70723392517E+02  0.47000000000E+01 0.  1.
         -5    1    3    3    0  502  0.25839041007E+02 -0.28898462526E+02 -0.55584579946E+02  0.67930204653E+02  0.47000000000E+01 0.  1.
          5    1    4    4  503    0  0.29957774333E+02  0.46494833400E+02  0.41723497142E+02  0.69441903701E+02  0.47000000000E+01 0.  1.
         -5    1    4    4    0  503  0.74183247691E-01 -0.60349653193E+02 -0.15514175630E+02  0.62488925332E+02  0.47000000000E+01 0.  1.
<mgrwt>
<rscale>  0 0.12929929E+03</rscale>
<asrwt>0</asrwt>
<pdfrwt beam="1">  1        5 0.18977954E-01 0.12930126E+03</pdfrwt>
<pdfrwt beam="2">  1       -5 0.22650419E-01 0.12930126E+03</pdfrwt>
<totfact> 0.33318356E+02</totfact>
</mgrwt>
</event>
<event>
 8    1  0.3759079E-007  0.1465833E+03  0.7546771E-02  0.1204738E+00
         -5   -1    0    0    0  501 -0.00000000000E+00  0.00000000000E+00  0.78667526047E+02  0.78807801989E+02  0.47000000000E+01 0.  1.
          5   -1    0    0  501    0  0.00000000000E+00 -0.00000000000E+00 -0.27274079488E+03  0.27278128820E+03  0.47000000000E+01 0.  1.
         25    2    1    2    0    0 -0.70438946598E+01  0.76227172824E+02 -0.98760644172E+02  0.17674302533E+03  0.12499693531E+03 0.  0.
         25    2    1    2    0    0  0.70438946598E+01 -0.76227172824E+02 -0.95312624664E+02  0.17484606486E+03  0.12500580645E+03 0.  0.
          5    1    4    4  502    0 -0.55174506622E+01  0.26405843100E+01  0.27341166260E+02  0.28408525477E+02  0.47000000000E+01 0. -1.
         -5    1    4    4    0  502  0.12561345322E+02 -0.78867757134E+02 -0.12265379092E+03  0.14643753938E+03  0.47000000000E+01 0. -1.
          5    1    3    3  503    0  0.17904415178E+01 -0.23263659966E+02 -0.68123989025E+02  0.72162119125E+02  0.47000000000E+01 0. -1.
         -5    1    3    3    0  503 -0.88343361776E+01  0.99490832790E+02 -0.30636655147E+02  0.10458090621E+03  0.47000000000E+01 0. -1.
<mgrwt>
<rscale>  0 0.14658136E+03</rscale>
<asrwt>0</asrwt>
<pdfrwt beam="2">  1        5 0.41974027E-01 0.14658325E+03</pdfrwt>
<pdfrwt beam="1">  1       -5 0.12116602E-01 0.14658325E+03</pdfrwt>
<totfact> 0.23252482E+02</totfact>
</mgrwt>
</event>
<event>
 8    1  0.3759079E-007  0.1306877E+03  0.7546771E-02  0.1226439E+00
          5   -1    0    0  501    0  0.00000000000E+00  0.00000000000E+00  0.14838994126E+03  0.14846435487E+03  0.47000000000E+01 0. -1.
         -5   -1    0    0    0  501 -0.00000000000E+00 -0.00000000000E+00 -0.12411979238E+03  0.12420874712E+03  0.47000000000E+01 0. -1.
         25    2    1    2    0    0 -0.28079197774E+00 -0.38135686854E+02 -0.24905745089E+02  0.13303977380E+03  0.12499950327E+03 0.  0.
         25    2    1    2    0    0  0.28079197774E+00  0.38135686854E+02  0.49175893968E+02  0.13963332820E+03  0.12499915335E+03 0.  0.
          5    1    4    4  502    0  0.48785831006E+02  0.32305082560E+02 -0.13296366636E+02  0.60187698343E+02  0.47000000000E+01 0. -1.
         -5    1    4    4    0  502 -0.48505039028E+02  0.58306042940E+01  0.62472260604E+02  0.79445629852E+02  0.47000000000E+01 0. -1.
          5    1    3    3  503    0 -0.10669391536E+02 -0.70443259120E+02  0.22217542304E+02  0.74778324782E+02  0.47000000000E+01 0.  1.
         -5    1    3    3    0  503  0.10388599559E+02  0.32307572266E+02 -0.47123287393E+02  0.58261449014E+02  0.47000000000E+01 0.  1.
<mgrwt>
<rscale>  0 0.13068766E+03</rscale>
<asrwt>0</asrwt>
<pdfrwt beam="1">  1        5 0.22841788E-01 0.13068774E+03</pdfrwt>
<pdfrwt beam="2">  1       -5 0.19107920E-01 0.13068774E+03</pdfrwt>
<totfact> 0.32506408E+02</totfact>
</mgrwt>
</event>
<event>
 8    1  0.3759079E-007  0.1277617E+03  0.7546771E-02  0.1230816E+00
         -5   -1    0    0    0  501 -0.00000000000E+00  0.00000000000E+00  0.39916489280E+02  0.40192239505E+02  0.47000000000E+01 0. -1.
          5   -1    0    0  501    0  0.00000000000E+00 -0.00000000000E+00 -0.42797649513E+03  0.42800230184E+03  0.47000000000E+01 0. -1.
         25    2    1    2    0    0 -0.26369364338E+02  0.18388393554E+01 -0.14250308081E+03  0.19138907895E+03  0.12499570709E+03 0.  0.
         25    2    1    2    0    0  0.26369364338E+02 -0.18388393554E+01 -0.24555692503E+03  0.27680546240E+03  0.12499734348E+03 0.  0.
          5    1    4    4  502    0 -0.32943840609E+02 -0.41322227810E+02 -0.74677166680E+02  0.91605635027E+02  0.47000000000E+01 0. -1.
         -5    1    4    4    0  502  0.59313204947E+02  0.39483388455E+02 -0.17087975835E+03  0.18519982738E+03  0.47000000000E+01 0. -1.
          5    1    3    3  503    0 -0.57415608124E+02  0.26553180384E+02 -0.13710347007E+03  0.15106645872E+03  0.47000000000E+01 0.  1.
         -5    1    3    3    0  503  0.31046243786E+02 -0.24714341029E+02 -0.53996107453E+01  0.40322620226E+02  0.47000000000E+01 0.  1.
<mgrwt>
<rscale>  0 0.12776133E+03</rscale>
<asrwt>0</asrwt>
<pdfrwt beam="2">  1        5 0.65865731E-01 0.12776173E+03</pdfrwt>
<pdfrwt beam="1">  1       -5 0.61641953E-02 0.12776173E+03</pdfrwt>
<totfact> 0.27160024E+02</totfact>
</mgrwt>
</event>
<event>
 8    1  0.3759079E-007  0.1265265E+03  0.7546771E-02  0.1232708E+00
          5   -1    0    0  501    0  0.00000000000E+00  0.00000000000E+00  0.16666278686E+03  0.16672904524E+03  0.47000000000E+01 0. -1.
         -5   -1    0    0    0  501 -0.00000000000E+00 -0.00000000000E+00 -0.99183781011E+02  0.99295077499E+02  0.47000000000E+01 0. -1.
         25    2    1    2    0    0  0.16484783152E+02 -0.10543352924E+02  0.95723546486E+01  0.12688810522E+03  0.12500420356E+03 0.  0.
         25    2    1    2    0    0 -0.16484783152E+02  0.10543352924E+02  0.57906651204E+02  0.13913601751E+03  0.12499096267E+03 0.  0.
          5    1    3    3  502    0  0.44554498565E+02  0.44989837261E+02 -0.15097133535E+01  0.63510298642E+02  0.47000000000E+01 0.  1.
         -5    1    3    3    0  502 -0.28069715413E+02 -0.55533190186E+02  0.11082068002E+02  0.63377806579E+02  0.47000000000E+01 0.  1.
          5    1    4    4  503    0 -0.39709503566E+02  0.58091665029E+02  0.18265047716E+02  0.72850450839E+02  0.47000000000E+01 0. -1.
         -5    1    4    4    0  503  0.23224720414E+02 -0.47548312105E+02  0.39641603489E+02  0.66285566676E+02  0.47000000000E+01 0. -1.
<mgrwt>
<rscale>  0 0.12652325E+03</rscale>
<asrwt>0</asrwt>
<pdfrwt beam="1">  1        5 0.25654087E-01 0.12652652E+03</pdfrwt>
<pdfrwt beam="2">  1       -5 0.15272701E-01 0.12652652E+03</pdfrwt>
<totfact> 0.38809900E+02</totfact>
</mgrwt>
</event>
<event>
 8    1  0.3759079E-007  0.1259729E+03  0.7546771E-02  0.1233557E+00
         -5   -1    0    0    0  501 -0.00000000000E+00  0.00000000000E+00  0.37349148691E+03  0.37352105803E+03  0.47000000000E+01 0. -1.
          5   -1    0    0  501    0  0.00000000000E+00 -0.00000000000E+00 -0.47049932299E+02  0.47284100174E+02  0.47000000000E+01 0. -1.
         25    2    1    2    0    0 -0.83941780523E+01 -0.13174273839E+02  0.22968832029E+03  0.26196446334E+03  0.12499852741E+03 0.  0.
         25    2    1    2    0    0  0.83941780523E+01  0.13174273839E+02  0.96753234318E+02  0.15884069487E+03  0.12500061712E+03 0.  0.
          5    1    3    3  502    0  0.43435494636E+02 -0.10260593684E+02  0.26328288403E+02  0.52030671217E+02  0.47000000000E+01 0. -1.
         -5    1    3    3    0  502 -0.51829672688E+02 -0.29136801548E+01  0.20336003189E+03  0.20993379212E+03  0.47000000000E+01 0. -1.
          5    1    4    4  503    0 -0.36844813977E+02  0.47866307752E+02  0.21445100200E+02  0.64270569139E+02  0.47000000000E+01 0. -1.
         -5    1    4    4    0  503  0.45238992029E+02 -0.34692033914E+02  0.75308134118E+02  0.94570125733E+02  0.47000000000E+01 0. -1.
<mgrwt>
<rscale>  0 0.12597241E+03</rscale>
<asrwt>0</asrwt>
<pdfrwt beam="2">  1        5 0.72587390E-02 0.12597293E+03</pdfrwt>
<pdfrwt beam="1">  1       -5 0.57480514E-01 0.12597293E+03</pdfrwt>
<totfact> 0.27639023E+02</totfact>
</mgrwt>
</event>
<event>
 8    1  0.3759079E-007  0.2144113E+03  0.7546771E-02  0.1138121E+00
         -5   -1    0    0    0  501 -0.00000000000E+00  0.00000000000E+00  0.56571120843E+03  0.56573073219E+03  0.47000000000E+01 0.  1.
          5   -1    0    0  501    0  0.00000000000E+00 -0.00000000000E+00 -0.85519887497E+02  0.85648941368E+02  0.47000000000E+01 0.  1.
         25    2    1    2    0    0 -0.29495456585E+02  0.17168536413E+03  0.31346032134E+03  0.37977068483E+03  0.12499021475E+03 0.  0.
         25    2    1    2    0    0  0.29495456585E+02 -0.17168536413E+03  0.16673099959E+03  0.27160898873E+03  0.12500548116E+03 0.  0.
          5    1    4    4  502    0  0.32738571123E+02 -0.18919973245E+03  0.16481154234E+03  0.25308750915E+03  0.47000000000E+01 0.  1.
         -5    1    4    4    0  502 -0.32431145378E+01  0.17514368327E+02  0.19194572565E+01  0.18521479584E+02  0.47000000000E+01 0.  1.
          5    1    3    3  503    0 -0.49073943624E+02  0.87042520055E+01  0.67920642539E+02  0.84376060756E+02  0.47000000000E+01 0. -1.
         -5    1    3    3    0  503  0.19578487039E+02  0.16298111212E+03  0.24553967880E+03  0.29539462407E+03  0.47000000000E+01 0. -1.
<mgrwt>
<rscale>  0 0.21440910E+03</rscale>
<asrwt>0</asrwt>
<pdfrwt beam="2">  1        5 0.13168334E-01 0.21441133E+03</pdfrwt>
<pdfrwt beam="1">  1       -5 0.87043925E-01 0.21441133E+03</pdfrwt>
<totfact> 0.44714852E+01</totfact>
</mgrwt>
</event>
<event>
 8    1  0.3759079E-007  0.1357680E+03  0.7546771E-02  0.1219151E+00
         -5   -1    0    0    0  501 -0.00000000000E+00  0.00000000000E+00  0.11462431375E+03  0.11472063155E+03  0.47000000000E+01 0.  1.
          5   -1    0    0  501    0  0.00000000000E+00 -0.00000000000E+00 -0.19212190913E+03  0.19217939007E+03  0.47000000000E+01 0.  1.
         25    2    1    2    0    0  0.50997205974E+02 -0.14064208022E+02  0.23409057858E+02  0.13774006267E+03  0.12500329559E+03 0.  0.
         25    2    1    2    0    0 -0.50997205974E+02  0.14064208022E+02 -0.10090665324E+03  0.16915995895E+03  0.12503768264E+03 0.  0.
          5    1    4    4  502    0 -0.33170699441E+02  0.52182088484E+01 -0.12957986504E+03  0.13394236233E+03  0.47000000000E+01 0.  1.
         -5    1    4    4    0  502 -0.17826506533E+02  0.88459991739E+01  0.28673211800E+02  0.35217596617E+02  0.47000000000E+01 0.  1.
          5    1    3    3  503    0  0.53581886126E+02  0.48805265685E+02  0.11744323978E+02  0.73573035992E+02  0.47000000000E+01 0. -1.
         -5    1    3    3    0  503 -0.25846801513E+01 -0.62869473707E+02  0.11664733880E+02  0.64167026674E+02  0.47000000000E+01 0. -1.
<mgrwt>
<rscale>  0 0.13576004E+03</rscale>
<asrwt>0</asrwt>
<pdfrwt beam="2">  1        5 0.29569047E-01 0.13576796E+03</pdfrwt>
<pdfrwt beam="1">  1       -5 0.17646341E-01 0.13576796E+03</pdfrwt>
<totfact> 0.23218039E+02</totfact>
</mgrwt>
</event>
<event>
 8    1  0.3759079E-007  0.1452446E+03  0.7546771E-02  0.1206462E+00
          5   -1    0    0  501    0  0.00000000000E+00  0.00000000000E+00  0.53502992104E+02  0.53709032426E+02  0.47000000000E+01 0.  1.
         -5   -1    0    0    0  501 -0.00000000000E+00 -0.00000000000E+00 -0.39807272747E+03  0.39810047269E+03  0.47000000000E+01 0.  1.
         25    2    1    2    0    0 -0.72780650401E+02  0.12449854398E+02 -0.14710138176E+03  0.20667742896E+03  0.12499888470E+03 0.  0.
         25    2    1    2    0    0  0.72780650401E+02 -0.12449854398E+02 -0.19746835360E+03  0.24513207616E+03  0.12507582557E+03 0.  0.
          5    1    3    3  502    0 -0.17760134164E+02  0.65669230447E+02 -0.75834391856E+02  0.10198438695E+03  0.47000000000E+01 0. -1.
         -5    1    3    3    0  502 -0.55020516237E+02 -0.53219376049E+02 -0.71266989908E+02  0.10469304201E+03  0.47000000000E+01 0. -1.
          5    1    4    4  503    0  0.24799923093E+02 -0.28921097881E+00 -0.19362475868E+03  0.19526330173E+03  0.47000000000E+01 0.  1.
         -5    1    4    4    0  503  0.47980727308E+02 -0.12160643420E+02 -0.38435949223E+01  0.49868774431E+02  0.47000000000E+01 0.  1.
<mgrwt>
<rscale>  0 0.14522800E+03</rscale>
<asrwt>0</asrwt>
<pdfrwt beam="1">  1        5 0.82492133E-02 0.14524457E+03</pdfrwt>
<pdfrwt beam="2">  1       -5 0.61259940E-01 0.14524457E+03</pdfrwt>
<totfact> 0.20296796E+02</totfact>
</mgrwt>
</event>
<event>
 8    1  0.3759079E-007  0.1367263E+03  0.7546771E-02  0.1217816E+00
          5   -1    0    0  501    0  0.00000000000E+00  0.00000000000E+00  0.13722452942E+03  0.13730499436E+03  0.47000000000E+01 0.  1.
         -5   -1    0    0    0  501 -0.00000000000E+00 -0.00000000000E+00 -0.13646112748E+03  0.13654204229E+03  0.47000000000E+01 0.  1.
         25    2    1    2    0    0 -0.18399471002E+02 -0.52281982686E+02  0.80673775904E+01  0.13692575911E+03  0.12494652729E+03 0.  0.
         25    2    1    2    0    0  0.18399471002E+02  0.52281982686E+02 -0.73039756459E+01  0.13692127753E+03  0.12498856722E+03 0.  0.
          5    1    4    4  502    0  0.47880277095E+02  0.74933925475E+02 -0.28959952620E+02  0.93639644262E+02  0.47000000000E+01 0.  1.
         -5    1    4    4    0  502 -0.29480806093E+02 -0.22651942788E+02  0.21655976974E+02  0.43281633272E+02  0.47000000000E+01 0.  1.
          5    1    3    3  503    0 -0.41850263776E+02 -0.67424559978E+02 -0.33802857484E+02  0.86384252271E+02  0.47000000000E+01 0. -1.
         -5    1    3    3    0  503  0.23450792774E+02  0.15142577292E+02  0.41870235074E+02  0.50541506843E+02  0.47000000000E+01 0. -1.
<mgrwt>
<rscale>  0 0.13671672E+03</rscale>
<asrwt>0</asrwt>
<pdfrwt beam="1">  1        5 0.21123880E-01 0.13672633E+03</pdfrwt>
<pdfrwt beam="2">  1       -5 0.21006433E-01 0.13672633E+03</pdfrwt>
<totfact> 0.32072556E+02</totfact>
</mgrwt>
</event>
<event>
 8    1  0.3759079E-007  0.1336217E+03  0.7546771E-02  0.1222179E+00
          5   -1    0    0  501    0  0.00000000000E+00  0.00000000000E+00  0.25237617720E+03  0.25241993745E+03  0.47000000000E+01 0. -1.
         -5   -1    0    0    0  501 -0.00000000000E+00 -0.00000000000E+00 -0.71253570206E+02  0.71408411739E+02  0.47000000000E+01 0. -1.
         25    2    1    2    0    0  0.38583074659E+02  0.27218404784E+02  0.75295379247E+02  0.15337554866E+03  0.12500067832E+03 0.  0.
         25    2    1    2    0    0 -0.38583074659E+02 -0.27218404784E+02  0.10582722775E+03  0.17045280053E+03  0.12500103946E+03 0.  0.
          5    1    3    3  502    0  0.41653695278E+00  0.73106424027E+02  0.47949241365E+02  0.87555368108E+02  0.47000000000E+01 0.  1.
         -5    1    3    3    0  502  0.38166537706E+02 -0.45888019243E+02  0.27346137882E+02  0.65820180550E+02  0.47000000000E+01 0.  1.
          5    1    4    4  503    0 -0.78498622372E+02 -0.43878652244E+02  0.73762664693E+02  0.11640614477E+03  0.47000000000E+01 0. -1.
         -5    1    4    4    0  503  0.39915547714E+02  0.16660247460E+02  0.32064563058E+02  0.54046655760E+02  0.47000000000E+01 0. -1.
<mgrwt>
<rscale>  0 0.13362160E+03</rscale>
<asrwt>0</asrwt>
<pdfrwt beam="1">  1        5 0.38842381E-01 0.13362169E+03</pdfrwt>
<pdfrwt beam="2">  1       -5 0.10977365E-01 0.13362169E+03</pdfrwt>
<totfact> 0.31447961E+02</totfact>
</mgrwt>
</event>
<event>
 8    1  0.3759079E-007  0.1299901E+03  0.7546771E-02  0.1227472E+00
          5   -1    0    0  501    0  0.00000000000E+00  0.00000000000E+00  0.88896387814E+02  0.89020546878E+02  0.47000000000E+01 0. -1.
         -5   -1    0    0    0  501 -0.00000000000E+00 -0.00000000000E+00 -0.19600597065E+03  0.19606231288E+03  0.47000000000E+01 0. -1.
         25    2    1    2    0    0 -0.22674924028E+02 -0.27522891164E+02 -0.28181821464E+02  0.13300989716E+03  0.12500302382E+03 0.  0.
         25    2    1    2    0    0  0.22674924028E+02  0.27522891164E+02 -0.78927761372E+02  0.15207296259E+03  0.12499973087E+03 0.  0.
          5    1    3    3  502    0 -0.52485129030E+02 -0.63832451253E+02 -0.18417388771E+02  0.84797174549E+02  0.47000000000E+01 0. -1.
         -5    1    3    3    0  502  0.29810205003E+02  0.36309560088E+02 -0.97644326928E+01  0.48212722615E+02  0.47000000000E+01 0. -1.
          5    1    4    4  503    0  0.49934766608E+02  0.28747788429E+02  0.10235562257E+02  0.58709224066E+02  0.47000000000E+01 0.  1.
         -5    1    4    4    0  503 -0.27259842580E+02 -0.12248972649E+01 -0.89163323629E+02  0.93363738525E+02  0.47000000000E+01 0.  1.
<mgrwt>
<rscale>  0 0.12998928E+03</rscale>
<asrwt>0</asrwt>
<pdfrwt beam="1">  1        5 0.13690252E-01 0.12999007E+03</pdfrwt>
<pdfrwt beam="2">  1       -5 0.30168649E-01 0.12999007E+03</pdfrwt>
<totfact> 0.34854976E+02</totfact>
</mgrwt>
</event>
<event>
 8    1  0.3759079E-007  0.1539294E+03  0.7546771E-02  0.1195726E+00
         -5   -1    0    0    0  501 -0.00000000000E+00  0.00000000000E+00  0.52672186029E+03  0.52674282919E+03  0.47000000000E+01 0. -1.
          5   -1    0    0  501    0  0.00000000000E+00 -0.00000000000E+00 -0.46022047762E+02  0.46261418917E+02  0.47000000000E+01 0. -1.
         25    2    1    2    0    0 -0.87490395630E+02 -0.20365011758E+02  0.28614368442E+03  0.32491915690E+03  0.12499978942E+03 0.  0.
         25    2    1    2    0    0  0.87490395630E+02  0.20365011758E+02  0.19455612810E+03  0.24808509121E+03  0.12499928986E+03 0.  0.
          5    1    4    4  502    0  0.10647634260E+03 -0.17719054275E+01  0.90226306326E+02  0.13965395639E+03  0.47000000000E+01 0. -1.
         -5    1    4    4    0  502 -0.18985946974E+02  0.22136917185E+02  0.10432982178E+03  0.10843113482E+03  0.47000000000E+01 0. -1.
          5    1    3    3  503    0 -0.10768981873E+03  0.18753729124E+02  0.21176173604E+03  0.23835671224E+03  0.47000000000E+01 0. -1.
         -5    1    3    3    0  503  0.20199423105E+02 -0.39118740882E+02  0.74381948379E+02  0.86562444667E+02  0.47000000000E+01 0. -1.
<mgrwt>
<rscale>  0 0.15392927E+03</rscale>
<asrwt>0</asrwt>
<pdfrwt beam="2">  1        5 0.71003414E-02 0.15392937E+03</pdfrwt>
<pdfrwt beam="1">  1       -5 0.81054156E-01 0.15392937E+03</pdfrwt>
<totfact> 0.14198476E+02</totfact>
</mgrwt>
</event>
<event>
 8    1  0.3759079E-007  0.1504619E+03  0.7546771E-02  0.1199910E+00
         -5   -1    0    0    0  501 -0.00000000000E+00  0.00000000000E+00  0.14703695709E+03  0.14711205508E+03  0.47000000000E+01 0. -1.
          5   -1    0    0  501    0  0.00000000000E+00 -0.00000000000E+00 -0.16613505419E+03  0.16620152295E+03  0.47000000000E+01 0. -1.
         25    2    1    2    0    0  0.73119562355E+02  0.40838318777E+02  0.33112260454E+02  0.15405053181E+03  0.12498362244E+03 0.  0.
         25    2    1    2    0    0 -0.73119562355E+02 -0.40838318777E+02 -0.52210357552E+02  0.15926304622E+03  0.12499823109E+03 0.  0.
          5    1    4    4  502    0 -0.95479715349E+02 -0.64305366585E+02 -0.52259911720E+02  0.12650985965E+03  0.47000000000E+01 0.  1.
         -5    1    4    4    0  502  0.22360152995E+02  0.23467047809E+02  0.49554167563E-01  0.32753186569E+02  0.47000000000E+01 0.  1.
          5    1    3    3  503    0  0.85716139581E+02  0.59384927156E+02 -0.10376084553E+02  0.10489794702E+03  0.47000000000E+01 0.  1.
         -5    1    3    3    0  503 -0.12596577226E+02 -0.18546608379E+02  0.43488345006E+02  0.49152584791E+02  0.47000000000E+01 0.  1.
<mgrwt>
<rscale>  0 0.15045891E+03</rscale>
<asrwt>0</asrwt>
<pdfrwt beam="2">  1        5 0.25570129E-01 0.15046194E+03</pdfrwt>
<pdfrwt beam="1">  1       -5 0.22631960E-01 0.15046194E+03</pdfrwt>
<totfact> 0.20016773E+02</totfact>
</mgrwt>
</event>
<event>
 8    1  0.3759079E-007  0.1260204E+03  0.7546771E-02  0.1233488E+00
          5   -1    0    0  501    0  0.00000000000E+00  0.00000000000E+00  0.62251825348E+02  0.62428997743E+02  0.47000000000E+01 0.  1.
         -5   -1    0    0    0  501 -0.00000000000E+00 -0.00000000000E+00 -0.25483017183E+03  0.25487351073E+03  0.47000000000E+01 0.  1.
         25    2    1    2    0    0 -0.11992377804E+02 -0.10504897851E+02 -0.10180693749E+03  0.16200552383E+03  0.12500786865E+03 0.  0.
         25    2    1    2    0    0  0.11992377804E+02  0.10504897851E+02 -0.90771408988E+02  0.15529698465E+03  0.12499413885E+03 0.  0.
          5    1    4    4  502    0 -0.21868286509E+02 -0.50471977327E+02 -0.49302641045E+02  0.74016774208E+02  0.47000000000E+01 0.  1.
         -5    1    4    4    0  502  0.33860664314E+02  0.60976875178E+02 -0.41468767943E+02  0.81280210438E+02  0.47000000000E+01 0.  1.
          5    1    3    3  503    0  0.31993879755E+02  0.42138328168E+02 -0.65229693245E+02  0.84120448902E+02  0.47000000000E+01 0.  1.
         -5    1    3    3    0  503 -0.43986257560E+02 -0.52643226019E+02 -0.36577244247E+02  0.77885074928E+02  0.47000000000E+01 0.  1.
<mgrwt>
<rscale>  0 0.12601698E+03</rscale>
<asrwt>0</asrwt>
<pdfrwt beam="1">  1        5 0.95941665E-02 0.12602038E+03</pdfrwt>
<pdfrwt beam="2">  1       -5 0.39221604E-01 0.12602038E+03</pdfrwt>
<totfact> 0.38188414E+02</totfact>
</mgrwt>
</event>
<event>
 8    1  0.3759079E-007  0.1938312E+03  0.7546771E-02  0.1155051E+00
          5   -1    0    0  501    0  0.00000000000E+00  0.00000000000E+00  0.29056958851E+03  0.29060759757E+03  0.47000000000E+01 0.  1.
         -5   -1    0    0    0  501 -0.00000000000E+00 -0.00000000000E+00 -0.13263957748E+03  0.13272282213E+03  0.47000000000E+01 0.  1.
         25    2    1    2    0    0  0.47108881646E+02  0.14044902786E+03  0.44939275867E+02  0.19897256607E+03  0.12500146949E+03 0.  0.
         25    2    1    2    0    0 -0.47108881646E+02 -0.14044902786E+03  0.11299073516E+03  0.22435785363E+03  0.12499745637E+03 0.  0.
          5    1    3    3  502    0  0.80669267866E+02  0.47457964774E+02  0.11064154838E+02  0.94362570550E+02  0.47000000000E+01 0.  1.
         -5    1    3    3    0  502 -0.33560386220E+02  0.92991063086E+02  0.33875121030E+02  0.10460999552E+03  0.47000000000E+01 0.  1.
          5    1    4    4  503    0 -0.49007277875E+01 -0.14363452637E+03  0.58599157932E+02  0.15527667439E+03  0.47000000000E+01 0. -1.
         -5    1    4    4    0  503 -0.42208153858E+02  0.31854985090E+01  0.54391577227E+02  0.69081179246E+02  0.47000000000E+01 0. -1.
<mgrwt>
<rscale>  0 0.19383058E+03</rscale>
<asrwt>0</asrwt>
<pdfrwt beam="1">  1        5 0.44712341E-01 0.19383122E+03</pdfrwt>
<pdfrwt beam="2">  1       -5 0.20415416E-01 0.19383122E+03</pdfrwt>
<totfact> 0.85621781E+01</totfact>
</mgrwt>
</event>
<event>
 8    1  0.3759079E-007  0.3936574E+03  0.7546771E-02  0.1045999E+00
          5   -1    0    0  501    0  0.00000000000E+00  0.00000000000E+00  0.18499313734E+03  0.18505283263E+03  0.47000000000E+01 0.  1.
         -5   -1    0    0    0  501 -0.00000000000E+00 -0.00000000000E+00 -0.94945777476E+03  0.94946940764E+03  0.47000000000E+01 0.  1.
         25    2    1    2    0    0  0.85284507258E+02  0.36341254824E+03 -0.57703448823E+03  0.69852198757E+03  0.12498815588E+03 0.  0.
         25    2    1    2    0    0 -0.85284507258E+02 -0.36341254824E+03 -0.18743014919E+03  0.43600025270E+03  0.12499612848E+03 0.  0.
          5    1    3    3  502    0  0.84952854533E+02  0.10475705581E+03 -0.19834895187E+03  0.23990711733E+03  0.47000000000E+01 0. -1.
         -5    1    3    3    0  502  0.33165272486E+00  0.25865549243E+03 -0.37868553636E+03  0.45861487024E+03  0.47000000000E+01 0. -1.
          5    1    4    4  503    0 -0.66693105310E+02 -0.23287756799E+03 -0.53746560061E+02  0.24817476642E+03  0.47000000000E+01 0. -1.
         -5    1    4    4    0  503 -0.18591401948E+02 -0.13053498025E+03 -0.13368358913E+03  0.18782548628E+03  0.47000000000E+01 0. -1.
<mgrwt>
<rscale>  0 0.39365678E+03</rscale>
<asrwt>0</asrwt>
<pdfrwt beam="1">  1        5 0.28465970E-01 0.39365741E+03</pdfrwt>
<pdfrwt beam="2">  1       -5 0.14607591E+00 0.39365741E+03</pdfrwt>
<totfact> 0.31249845E+00</totfact>
</mgrwt>
</event>
<event>
 8    1  0.3759079E-007  0.1440519E+03  0.7546771E-02  0.1207979E+00
          5   -1    0    0  501    0  0.00000000000E+00  0.00000000000E+00  0.32192948122E+03  0.32196378815E+03  0.47000000000E+01 0. -1.
         -5   -1    0    0    0  501 -0.00000000000E+00 -0.00000000000E+00 -0.76215969883E+02  0.76360749506E+02  0.47000000000E+01 0. -1.
         25    2    1    2    0    0 -0.60373222844E+02  0.38482733414E+02  0.44320448377E+02  0.15071574181E+03  0.12500034351E+03 0.  0.
         25    2    1    2    0    0  0.60373222844E+02 -0.38482733414E+02  0.20139306296E+03  0.24760879584E+03  0.12500041265E+03 0.  0.
          5    1    4    4  502    0  0.20401899712E+02 -0.70219959137E+02  0.17550497125E+03  0.19018718439E+03  0.47000000000E+01 0. -1.
         -5    1    4    4    0  502  0.39971323132E+02  0.31737225724E+02  0.25888091717E+02  0.57421611457E+02  0.47000000000E+01 0. -1.
          5    1    3    3  503    0 -0.97082887833E+02  0.15911780557E+02  0.42667138002E+02  0.10733520641E+03  0.47000000000E+01 0.  1.
         -5    1    3    3    0  503  0.36709664989E+02  0.22570952857E+02  0.16533103753E+01  0.43380535400E+02  0.47000000000E+01 0.  1.
<mgrwt>
<rscale>  0 0.14405189E+03</rscale>
<asrwt>0</asrwt>
<pdfrwt beam="1">  1        5 0.49541388E-01 0.14405190E+03</pdfrwt>
<pdfrwt beam="2">  1       -5 0.11739310E-01 0.14405190E+03</pdfrwt>
<totfact> 0.17292632E+02</totfact>
</mgrwt>
</event>
<event>
 8    1  0.3759079E-007  0.1341243E+03  0.7546771E-02  0.1221462E+00
         -5   -1    0    0    0  501 -0.00000000000E+00  0.00000000000E+00  0.67707156635E+02  0.67870089580E+02  0.47000000000E+01 0. -1.
          5   -1    0    0  501    0  0.00000000000E+00 -0.00000000000E+00 -0.39685674389E+03  0.39688457412E+03  0.47000000000E+01 0. -1.
         25    2    1    2    0    0 -0.18231891908E+02 -0.45072696500E+02 -0.30757858308E+02  0.13760587269E+03  0.12500152199E+03 0.  0.
         25    2    1    2    0    0  0.18231891908E+02  0.45072696500E+02 -0.29839172895E+03  0.32714879100E+03  0.12499903079E+03 0.  0.
          5    1    4    4  502    0  0.40796950594E+02 -0.28596259072E+02 -0.69868434282E+02  0.85940824523E+02  0.47000000000E+01 0. -1.
         -5    1    4    4    0  502 -0.22565058685E+02  0.73668955573E+02 -0.22852329467E+03  0.24120796648E+03  0.47000000000E+01 0. -1.
          5    1    3    3  503    0 -0.56624506735E+02 -0.15997105183E+02  0.24715452333E+02  0.63993638131E+02  0.47000000000E+01 0.  1.
         -5    1    3    3    0  503  0.38392614827E+02 -0.29075591318E+02 -0.55473310642E+02  0.73612234562E+02  0.47000000000E+01 0.  1.
<mgrwt>
<rscale>  0 0.13412373E+03</rscale>
<asrwt>0</asrwt>
<pdfrwt beam="2">  1        5 0.61069556E-01 0.13412431E+03</pdfrwt>
<pdfrwt beam="1">  1       -5 0.10431160E-01 0.13412431E+03</pdfrwt>
<totfact> 0.13248975E+02</totfact>
</mgrwt>
</event>
<event>
 8    1  0.3759079E-007  0.1303531E+03  0.7546771E-02  0.1226934E+00
          5   -1    0    0  501    0  0.00000000000E+00  0.00000000000E+00  0.13530165877E+03  0.13538326657E+03  0.47000000000E+01 0.  1.
         -5   -1    0    0    0  501 -0.00000000000E+00 -0.00000000000E+00 -0.13584779906E+03  0.13592907897E+03  0.47000000000E+01 0.  1.
         25    2    1    2    0    0  0.32097837515E+02  0.18289652757E+02 -0.37838514734E+02  0.13572975033E+03  0.12500411736E+03 0.  0.
         25    2    1    2    0    0 -0.32097837515E+02 -0.18289652757E+02  0.37292374442E+02  0.13558259521E+03  0.12500854515E+03 0.  0.
          5    1    4    4  502    0 -0.29105122969E+01  0.17296371656E+02 -0.40888252889E+02  0.44738962646E+02  0.47000000000E+01 0.  1.
         -5    1    4    4    0  502 -0.29187325218E+02 -0.35586024413E+02  0.78180627331E+02  0.90843632561E+02  0.47000000000E+01 0.  1.
          5    1    3    3  503    0  0.20664280815E+02  0.72003290823E+02 -0.18346708832E+02  0.77266927699E+02  0.47000000000E+01 0. -1.
         -5    1    3    3    0  503  0.11433556700E+02 -0.53713638066E+02 -0.19491805902E+02  0.58462822635E+02  0.47000000000E+01 0. -1.
<mgrwt>
<rscale>  0 0.13035199E+03</rscale>
<asrwt>0</asrwt>
<pdfrwt beam="1">  1        5 0.20828170E-01 0.13035305E+03</pdfrwt>
<pdfrwt beam="2">  1       -5 0.20912191E-01 0.13035305E+03</pdfrwt>
<totfact> 0.32656822E+02</totfact>
</mgrwt>
</event>
<event>
 8    1  0.3759079E-007  0.1280015E+03  0.7546771E-02  0.1230455E+00
          5   -1    0    0  501    0  0.00000000000E+00  0.00000000000E+00  0.99355335338E+03  0.99356446998E+03  0.47000000000E+01 0.  1.
         -5   -1    0    0    0  501 -0.00000000000E+00 -0.00000000000E+00 -0.21897553731E+02  0.22396268872E+02  0.47000000000E+01 0.  1.
         25    2    1    2    0    0 -0.10348661300E+02  0.25511297326E+02  0.22888777837E+03  0.26224413123E+03  0.12499779276E+03 0.  0.
         25    2    1    2    0    0  0.10348661300E+02 -0.25511297326E+02  0.74276802127E+03  0.75371660762E+03  0.12500588024E+03 0.  0.
          5    1    4    4  502    0  0.50850357126E+02 -0.38732994826E+02  0.62701151990E+03  0.63027893809E+03  0.47000000000E+01 0. -1.
         -5    1    4    4    0  502 -0.40501695826E+02  0.13221697500E+02  0.11575650137E+03  0.12343766953E+03  0.47000000000E+01 0. -1.
          5    1    3    3  503    0 -0.37856508332E+02 -0.34011853431E+02  0.49334979636E+02  0.71034861952E+02  0.47000000000E+01 0.  1.
         -5    1    3    3    0  503  0.27507847032E+02  0.59523150757E+02  0.17955279874E+03  0.19120926928E+03  0.47000000000E+01 0.  1.
<mgrwt>
<rscale>  0 0.12799955E+03</rscale>
<asrwt>0</asrwt>
<pdfrwt beam="1">  1        5 0.15289359E+00 0.12800153E+03</pdfrwt>
<pdfrwt beam="2">  1       -5 0.34080720E-02 0.12800153E+03</pdfrwt>
<totfact> 0.92196160E+01</totfact>
</mgrwt>
</event>
<event>
 8    1  0.3759079E-007  0.1761066E+03  0.7546771E-02  0.1171627E+00
          5   -1    0    0  501    0  0.00000000000E+00  0.00000000000E+00  0.55802392643E+02  0.55999973434E+02  0.47000000000E+01 0. -1.
         -5   -1    0    0    0  501 -0.00000000000E+00 -0.00000000000E+00 -0.56014625830E+03  0.56016597602E+03  0.47000000000E+01 0. -1.
         25    2    1    2    0    0 -0.10397240666E+03  0.67669864995E+02 -0.28292814163E+03  0.33325948208E+03  0.12499630831E+03 0.  0.
         25    2    1    2    0    0  0.10397240666E+03 -0.67669864995E+02 -0.22141572403E+03  0.28290646738E+03  0.12498669713E+03 0.  0.
          5    1    3    3  502    0 -0.68712575065E+02 -0.23137169720E+02 -0.16458885924E+03  0.17991200400E+03  0.47000000000E+01 0. -1.
         -5    1    3    3    0  502 -0.35259831599E+02  0.90807034715E+02 -0.11833928239E+03  0.15334747808E+03  0.47000000000E+01 0. -1.
          5    1    4    4  503    0  0.40334987281E+02  0.95260485369E+01 -0.20524597752E+01  0.41760739826E+02  0.47000000000E+01 0. -1.
         -5    1    4    4    0  503  0.63637419383E+02 -0.77195913532E+02 -0.21936326425E+03  0.24114572755E+03  0.47000000000E+01 0. -1.
<mgrwt>
<rscale>  0 0.17610494E+03</rscale>
<asrwt>0</asrwt>
<pdfrwt beam="1">  1        5 0.86016992E-02 0.17610664E+03</pdfrwt>
<pdfrwt beam="2">  1       -5 0.86193059E-01 0.17610664E+03</pdfrwt>
<totfact> 0.92070495E+01</totfact>
</mgrwt>
</event>
<event>
 8    1  0.3759079E-007  0.1264898E+03  0.7546771E-02  0.1232760E+00
          5   -1    0    0  501    0  0.00000000000E+00  0.00000000000E+00  0.36824745314E+03  0.36827744534E+03  0.47000000000E+01 0.  1.
         -5   -1    0    0    0  501 -0.00000000000E+00 -0.00000000000E+00 -0.45206644798E+02  0.45450310602E+02  0.47000000000E+01 0.  1.
         25    2    1    2    0    0 -0.40184152078E+01 -0.18869866088E+02  0.11904221156E+03  0.17369719151E+03  0.12500978641E+03 0.  0.
         25    2    1    2    0    0  0.40184152078E+01  0.18869866088E+02  0.20399859679E+03  0.24003056443E+03  0.12500809919E+03 0.  0.
          5    1    4    4  502    0  0.27344930126E+02 -0.41906290639E+02  0.13946780437E+03  0.14824722883E+03  0.47000000000E+01 0.  1.
         -5    1    4    4    0  502 -0.23326514918E+02  0.60776156727E+02  0.64530792416E+02  0.91783335604E+02  0.47000000000E+01 0.  1.
          5    1    3    3  503    0  0.24240809365E+02 -0.10739110258E+02 -0.18693371551E+02  0.32779223111E+02  0.47000000000E+01 0. -1.
         -5    1    3    3    0  503 -0.28259224573E+02 -0.81307558305E+01  0.13773558311E+03  0.14091796840E+03  0.47000000000E+01 0. -1.
<mgrwt>
<rscale>  0 0.12648937E+03</rscale>
<asrwt>0</asrwt>
<pdfrwt beam="1">  1        5 0.56674506E-01 0.12648979E+03</pdfrwt>
<pdfrwt beam="2">  1       -5 0.69759190E-02 0.12648979E+03</pdfrwt>
<totfact> 0.30531402E+02</totfact>
</mgrwt>
</event>
<event>
 8    1  0.3759079E-007  0.1408998E+03  0.7546771E-02  0.1212125E+00
          5   -1    0    0  501    0  0.00000000000E+00  0.00000000000E+00  0.10779506526E+03  0.10789747956E+03  0.47000000000E+01 0.  1.
         -5   -1    0    0    0  501 -0.00000000000E+00 -0.00000000000E+00 -0.18466722332E+03  0.18472702392E+03  0.47000000000E+01 0.  1.
         25    2    1    2    0    0  0.51212433963E+02 -0.40063850180E+02 -0.47590452762E+02  0.14871416726E+03  0.12499290726E+03 0.  0.
         25    2    1    2    0    0 -0.51212433963E+02  0.40063850180E+02 -0.29281705293E+02  0.14391033623E+03  0.12499976450E+03 0.  0.
          5    1    4    4  502    0 -0.80373813480E+01  0.52117894150E+02 -0.66821317584E+02  0.85252876041E+02  0.47000000000E+01 0. -1.
         -5    1    4    4    0  502 -0.43175052615E+02 -0.12054043970E+02  0.37539612291E+02  0.58657460185E+02  0.47000000000E+01 0. -1.
          5    1    3    3  503    0 -0.62121009723E+01 -0.44340566952E+02 -0.72866375782E+02  0.85652056576E+02  0.47000000000E+01 0.  1.
         -5    1    3    3    0  503  0.57424534935E+02  0.42767167714E+01  0.25275923020E+02  0.63062110680E+02  0.47000000000E+01 0.  1.
<mgrwt>
<rscale>  0 0.14089833E+03</rscale>
<asrwt>0</asrwt>
<pdfrwt beam="1">  1        5 0.16596334E-01 0.14089985E+03</pdfrwt>
<pdfrwt beam="2">  1       -5 0.28422820E-01 0.14089985E+03</pdfrwt>
<totfact> 0.28426078E+02</totfact>
</mgrwt>
</event>
<event>
 8    1  0.3759079E-007  0.1380723E+03  0.7546771E-02  0.1215951E+00
         -5   -1    0    0    0  501 -0.00000000000E+00  0.00000000000E+00  0.16152215204E+03  0.16159051828E+03  0.47000000000E+01 0. -1.
          5   -1    0    0  501    0  0.00000000000E+00 -0.00000000000E+00 -0.11864996822E+03  0.11874302068E+03  0.47000000000E+01 0. -1.
         25    2    1    2    0    0  0.11155596395E+02 -0.57571426694E+02  0.32745564310E+02  0.14189040359E+03  0.12498679189E+03 0.  0.
         25    2    1    2    0    0 -0.11155596395E+02  0.57571426694E+02  0.10126619502E+02  0.13844313537E+03  0.12500014722E+03 0.  0.
          5    1    4    4  502    0  0.34566028373E+02 -0.25263792816E+02  0.71724274747E+01  0.43664668335E+02  0.47000000000E+01 0.  1.
         -5    1    4    4    0  502 -0.45721624768E+02  0.82835219509E+02  0.29541920275E+01  0.94778467033E+02  0.47000000000E+01 0.  1.
          5    1    3    3  503    0  0.19639982249E+02 -0.91666178860E+02  0.34310696221E+00  0.93864929404E+02  0.47000000000E+01 0. -1.
         -5    1    3    3    0  503 -0.84843858537E+01  0.34094752167E+02  0.32402457348E+02  0.48025474186E+02  0.47000000000E+01 0. -1.
<mgrwt>
<rscale>  0 0.13806925E+03</rscale>
<asrwt>0</asrwt>
<pdfrwt beam="2">  1        5 0.18266258E-01 0.13807228E+03</pdfrwt>
<pdfrwt beam="1">  1       -5 0.24861979E-01 0.13807228E+03</pdfrwt>
<totfact> 0.30651869E+02</totfact>
</mgrwt>
</event>
<event>
 8    1  0.3759079E-007  0.1375512E+03  0.7546771E-02  0.1216667E+00
          5   -1    0    0  501    0  0.00000000000E+00  0.00000000000E+00  0.19839797712E+02  0.20388908094E+02  0.47000000000E+01 0. -1.
         -5   -1    0    0    0  501 -0.00000000000E+00 -0.00000000000E+00 -0.14638185669E+04  0.14638261122E+04  0.47000000000E+01 0. -1.
         25    2    1    2    0    0  0.33775043865E+02 -0.46397478395E+02 -0.11658148717E+04  0.11738998975E+04  0.12499269865E+03 0.  0.
         25    2    1    2    0    0 -0.33775043865E+02  0.46397478395E+02 -0.27816389751E+03  0.31031512282E+03  0.12500736771E+03 0.  0.
          5    1    3    3  502    0  0.64980564857E+02 -0.85556437903E+01 -0.96090179131E+03  0.96314589518E+03  0.47000000000E+01 0.  1.
         -5    1    3    3    0  502 -0.31205520993E+02 -0.37841834605E+02 -0.20491308038E+03  0.21075400232E+03  0.47000000000E+01 0.  1.
          5    1    4    4  503    0 -0.14708359582E+02  0.60201456903E+01  0.95440502028E+01  0.19124771632E+02  0.47000000000E+01 0. -1.
         -5    1    4    4    0  503 -0.19066684283E+02  0.40377332705E+02 -0.28770794772E+03  0.29119035119E+03  0.47000000000E+01 0. -1.
<mgrwt>
<rscale>  0 0.13754783E+03</rscale>
<asrwt>0</asrwt>
<pdfrwt beam="1">  1        5 0.30950974E-02 0.13755116E+03</pdfrwt>
<pdfrwt beam="2">  1       -5 0.22524559E+00 0.13755116E+03</pdfrwt>
<totfact> 0.34354887E+01</totfact>
</mgrwt>
</event>
<event>
 8    1  0.3759079E-007  0.2005144E+03  0.7546771E-02  0.1149306E+00
         -5   -1    0    0    0  501 -0.00000000000E+00  0.00000000000E+00  0.67283025562E+03  0.67284667115E+03  0.47000000000E+01 0.  1.
          5   -1    0    0  501    0  0.00000000000E+00 -0.00000000000E+00 -0.68162994716E+02  0.68324840641E+02  0.47000000000E+01 0.  1.
         25    2    1    2    0    0 -0.13083314770E+03  0.86389865250E+02  0.43314196972E+03  0.47730228417E+03  0.12499993273E+03 0.  0.
         25    2    1    2    0    0  0.13083314770E+03 -0.86389865250E+02  0.17152529118E+03  0.26386922762E+03  0.12500208965E+03 0.  0.
          5    1    4    4  502    0 -0.14788868205E+01  0.24900165420E+02  0.36447471653E+02  0.44415239886E+02  0.47000000000E+01 0. -1.
         -5    1    4    4    0  502  0.13231203452E+03 -0.11129003067E+03  0.13507781953E+03  0.21945398774E+03  0.47000000000E+01 0. -1.
          5    1    3    3  503    0 -0.11242754874E+03  0.36303631515E+02  0.15994404223E+03  0.19890222226E+03  0.47000000000E+01 0.  1.
         -5    1    3    3    0  503 -0.18405598962E+02  0.50086233735E+02  0.27319792749E+03  0.27840006191E+03  0.47000000000E+01 0.  1.
<mgrwt>
<rscale>  0 0.20051411E+03</rscale>
<asrwt>0</asrwt>
<pdfrwt beam="2">  1        5 0.10500327E-01 0.20051445E+03</pdfrwt>
<pdfrwt beam="1">  1       -5 0.10352606E+00 0.20051445E+03</pdfrwt>
<totfact> 0.43223115E+01</totfact>
</mgrwt>
</event>
<event>
 8    1  0.3759079E-007  0.1374166E+03  0.7546771E-02  0.1216849E+00
         -5   -1    0    0    0  501 -0.00000000000E+00  0.00000000000E+00  0.38677015211E+03  0.38679870807E+03  0.47000000000E+01 0. -1.
          5   -1    0    0  501    0  0.00000000000E+00 -0.00000000000E+00 -0.52720777573E+02  0.52929862913E+02  0.47000000000E+01 0. -1.
         25    2    1    2    0    0 -0.30479946553E+01 -0.57011646757E+02  0.10628466249E+03  0.17372088311E+03  0.12499159016E+03 0.  0.
         25    2    1    2    0    0  0.30479946553E+01  0.57011646757E+02  0.22776471205E+03  0.26600768787E+03  0.12499483115E+03 0.  0.
          5    1    3    3  502    0  0.31190263525E+02 -0.55801769163E+02  0.23042018957E+01  0.64141011271E+02  0.47000000000E+01 0. -1.
         -5    1    3    3    0  502 -0.34238258180E+02 -0.12098775940E+01  0.10398046060E+03  0.10957987184E+03  0.47000000000E+01 0. -1.
          5    1    4    4  503    0  0.63557685144E+02  0.32200193570E+02  0.10801790963E+03  0.12948509801E+03  0.47000000000E+01 0.  1.
         -5    1    4    4    0  503 -0.60509690488E+02  0.24811453187E+02  0.11974680241E+03  0.13652258986E+03  0.47000000000E+01 0.  1.
<mgrwt>
<rscale>  0 0.13741588E+03</rscale>
<asrwt>0</asrwt>
<pdfrwt beam="2">  1        5 0.81291690E-02 0.13741661E+03</pdfrwt>
<pdfrwt beam="1">  1       -5 0.59521380E-01 0.13741661E+03</pdfrwt>
<totfact> 0.21765693E+02</totfact>
</mgrwt>
</event>
<event>
 8    1  0.3759079E-007  0.1708124E+03  0.7546771E-02  0.1177004E+00
         -5   -1    0    0    0  501 -0.00000000000E+00  0.00000000000E+00  0.53156711579E+03  0.53158789357E+03  0.47000000000E+01 0.  1.
          5   -1    0    0  501    0  0.00000000000E+00 -0.00000000000E+00 -0.54768443915E+02  0.54969741211E+02  0.47000000000E+01 0.  1.
         25    2    1    2    0    0 -0.74064729501E+02  0.89807289629E+02  0.23605737915E+03  0.29137421206E+03  0.12499964710E+03 0.  0.
         25    2    1    2    0    0  0.74064729501E+02 -0.89807289629E+02  0.24074129272E+03  0.29518342272E+03  0.12500379834E+03 0.  0.
          5    1    4    4  502    0  0.10706993954E+03 -0.82417188354E+02  0.17541082301E+03  0.22146695401E+03  0.47000000000E+01 0.  1.
         -5    1    4    4    0  502 -0.33005210036E+02 -0.73901012746E+01  0.65330469707E+02  0.73716468706E+02  0.47000000000E+01 0.  1.
          5    1    3    3  503    0 -0.92116302844E+02  0.46437903108E+02  0.87034212200E+02  0.13505160565E+03  0.47000000000E+01 0.  1.
         -5    1    3    3    0  503  0.18051573343E+02  0.43369386521E+02  0.14902316695E+03  0.15632260641E+03  0.47000000000E+01 0.  1.
<mgrwt>
<rscale>  0 0.17081166E+03</rscale>
<asrwt>0</asrwt>
<pdfrwt beam="2">  1        5 0.84429971E-02 0.17081242E+03</pdfrwt>
<pdfrwt beam="1">  1       -5 0.81796640E-01 0.17081242E+03</pdfrwt>
<totfact> 0.10657833E+02</totfact>
</mgrwt>
</event>
<event>
 8    1  0.3759079E-007  0.1537980E+03  0.7546771E-02  0.1195884E+00
         -5   -1    0    0    0  501 -0.00000000000E+00  0.00000000000E+00  0.59148173075E+03  0.59150040389E+03  0.47000000000E+01 0. -1.
          5   -1    0    0  501    0  0.00000000000E+00 -0.00000000000E+00 -0.45503281031E+02  0.45745366810E+02  0.47000000000E+01 0. -1.
         25    2    1    2    0    0 -0.88625205285E+02 -0.13184407728E+02  0.38512861664E+03  0.41470028090E+03  0.12499606395E+03 0.  0.
         25    2    1    2    0    0  0.88625205285E+02  0.13184407728E+02  0.16084983307E+03  0.22254548980E+03  0.12500228243E+03 0.  0.
          5    1    3    3  502    0  0.28575109711E+02 -0.15884722521E+01  0.36100077001E+02  0.46307296386E+02  0.47000000000E+01 0.  1.
         -5    1    3    3    0  502 -0.11720031500E+03 -0.11595935475E+02  0.34902853964E+03  0.36839298451E+03  0.47000000000E+01 0.  1.
          5    1    4    4  503    0  0.25175955848E+02  0.86967044974E+01  0.15627735060E+03  0.15860063598E+03  0.47000000000E+01 0.  1.
         -5    1    4    4    0  503  0.63449249437E+02  0.44877032302E+01  0.45724824678E+01  0.63944853822E+02  0.47000000000E+01 0.  1.
<mgrwt>
<rscale>  0 0.15379674E+03</rscale>
<asrwt>0</asrwt>
<pdfrwt beam="2">  1        5 0.70205624E-02 0.15379800E+03</pdfrwt>
<pdfrwt beam="1">  1       -5 0.91017257E-01 0.15379800E+03</pdfrwt>
<totfact> 0.11014498E+02</totfact>
</mgrwt>
</event>
<event>
 8    1  0.3759079E-007  0.1310735E+03  0.7546771E-02  0.1225873E+00
          5   -1    0    0  501    0  0.00000000000E+00  0.00000000000E+00  0.46245797273E+03  0.46248185537E+03  0.47000000000E+01 0. -1.
         -5   -1    0    0    0  501 -0.00000000000E+00 -0.00000000000E+00 -0.48386301925E+02  0.48614033097E+02  0.47000000000E+01 0. -1.
         25    2    1    2    0    0 -0.39112558470E+02  0.50788158777E+01  0.83296680016E+02  0.15529768579E+03  0.12499379069E+03 0.  0.
         25    2    1    2    0    0  0.39112558470E+02 -0.50788158777E+01  0.33077499079E+03  0.35579820267E+03  0.12499871956E+03 0.  0.
          5    1    3    3  502    0 -0.77006625152E+02  0.35016745215E+01  0.17468817433E+02  0.79180373984E+02  0.47000000000E+01 0.  1.
         -5    1    3    3    0  502  0.37894066682E+02  0.15771413562E+01  0.65827862583E+02  0.76117311808E+02  0.47000000000E+01 0.  1.
          5    1    4    4  503    0 -0.27802498611E+02 -0.17381124345E+02  0.23991601981E+03  0.24219180203E+03  0.47000000000E+01 0.  1.
         -5    1    4    4    0  503  0.66915057081E+02  0.12302308467E+02  0.90858970987E+02  0.11360640064E+03  0.47000000000E+01 0.  1.
<mgrwt>
<rscale>  0 0.13107234E+03</rscale>
<asrwt>0</asrwt>
<pdfrwt beam="1">  1        5 0.71166734E-01 0.13107352E+03</pdfrwt>
<pdfrwt beam="2">  1       -5 0.74634015E-02 0.13107352E+03</pdfrwt>
<totfact> 0.16671315E+02</totfact>
</mgrwt>
</event>
<event>
 8    1  0.3759079E-007  0.1300696E+03  0.7546771E-02  0.1227353E+00
          5   -1    0    0  501    0  0.00000000000E+00  0.00000000000E+00  0.21862708415E+03  0.21867759813E+03  0.47000000000E+01 0.  1.
         -5   -1    0    0    0  501 -0.00000000000E+00 -0.00000000000E+00 -0.78581649845E+02  0.78722078811E+02  0.47000000000E+01 0.  1.
         25    2    1    2    0    0 -0.32207553190E+02  0.15961647389E+02  0.50699429986E+02  0.13960136443E+03  0.12500403226E+03 0.  0.
         25    2    1    2    0    0  0.32207553190E+02 -0.15961647389E+02  0.89346004323E+02  0.15779831251E+03  0.12500199308E+03 0.  0.
          5    1    4    4  502    0  0.29025290937E+02 -0.69461669704E+02  0.60874800460E+02  0.96928955442E+02  0.47000000000E+01 0.  1.
         -5    1    4    4    0  502  0.31822622530E+01  0.53500022315E+02  0.28471203863E+02  0.60869357071E+02  0.47000000000E+01 0.  1.
          5    1    3    3  503    0 -0.45480840419E+02 -0.46789876939E+02  0.20545310372E+02  0.68571125173E+02  0.47000000000E+01 0.  1.
         -5    1    3    3    0  503  0.13273287229E+02  0.62751524328E+02  0.30154119613E+02  0.71030239258E+02  0.47000000000E+01 0.  1.
<mgrwt>
<rscale>  0 0.13006914E+03</rscale>
<asrwt>0</asrwt>
<pdfrwt beam="1">  1        5 0.33649624E-01 0.13006963E+03</pdfrwt>
<pdfrwt beam="2">  1       -5 0.12104172E-01 0.13006963E+03</pdfrwt>
<totfact> 0.34989030E+02</totfact>
</mgrwt>
</event>
<event>
 8    1  0.3759079E-007  0.1404595E+03  0.7546771E-02  0.1212713E+00
          5   -1    0    0  501    0  0.00000000000E+00  0.00000000000E+00  0.16537720549E+02  0.17192620538E+02  0.47000000000E+01 0.  1.
         -5   -1    0    0    0  501 -0.00000000000E+00 -0.00000000000E+00 -0.12205203603E+04  0.12205294097E+04  0.47000000000E+01 0.  1.
         25    2    1    2    0    0 -0.52958230518E+02 -0.36037446054E+02 -0.72895225885E+03  0.74236127337E+03  0.12500237126E+03 0.  0.
         25    2    1    2    0    0  0.52958230518E+02  0.36037446054E+02 -0.47503038092E+03  0.49536075687E+03  0.12500057981E+03 0.  0.
          5    1    3    3  502    0 -0.17157639910E+02 -0.73045696738E+02 -0.57646008488E+03  0.58134187694E+03  0.47000000000E+01 0. -1.
         -5    1    3    3    0  502 -0.35800590607E+02  0.37008250683E+02 -0.15249217397E+03  0.16101939644E+03  0.47000000000E+01 0. -1.
          5    1    4    4  503    0 -0.29645059034E+02 -0.17593740121E+01 -0.26204971320E+03  0.26376896541E+03  0.47000000000E+01 0.  1.
         -5    1    4    4    0  503  0.82603289552E+02  0.37796820066E+02 -0.21298066771E+03  0.23159179146E+03  0.47000000000E+01 0.  1.
<mgrwt>
<rscale>  0 0.14045908E+03</rscale>
<asrwt>0</asrwt>
<pdfrwt beam="1">  1        5 0.25953387E-02 0.14045948E+03</pdfrwt>
<pdfrwt beam="2">  1       -5 0.18782337E+00 0.14045948E+03</pdfrwt>
<totfact> 0.81623467E+01</totfact>
</mgrwt>
</event>
<event>
 8    1  0.3759079E-007  0.1304317E+03  0.7546771E-02  0.1226819E+00
          5   -1    0    0  501    0  0.00000000000E+00  0.00000000000E+00  0.70343571641E+02  0.70500411852E+02  0.47000000000E+01 0.  1.
         -5   -1    0    0    0  501 -0.00000000000E+00 -0.00000000000E+00 -0.34462061240E+03  0.34465266065E+03  0.47000000000E+01 0.  1.
         25    2    1    2    0    0 -0.36845813292E+02 -0.55033380049E+01 -0.25071872159E+03  0.28261688383E+03  0.12499809991E+03 0.  0.
         25    2    1    2    0    0  0.36845813292E+02  0.55033380049E+01 -0.23558319166E+02  0.13253618867E+03  0.12499178461E+03 0.  0.
          5    1    4    4  502    0 -0.20522500083E+02  0.40677206862E+02  0.22324817617E+02  0.50953858042E+02  0.47000000000E+01 0. -1.
         -5    1    4    4    0  502  0.57368313375E+02 -0.35173868857E+02 -0.45883136783E+02  0.81582330630E+02  0.47000000000E+01 0. -1.
          5    1    3    3  503    0  0.18338936278E+02 -0.53487582724E+02 -0.12065413566E+03  0.13332947364E+03  0.47000000000E+01 0.  1.
         -5    1    3    3    0  503 -0.55184749570E+02  0.47984244719E+02 -0.13006458593E+03  0.14928741018E+03  0.47000000000E+01 0.  1.
<mgrwt>
<rscale>  0 0.13043018E+03</rscale>
<asrwt>0</asrwt>
<pdfrwt beam="1">  1        5 0.10836618E-01 0.13043169E+03</pdfrwt>
<pdfrwt beam="2">  1       -5 0.53033085E-01 0.13043169E+03</pdfrwt>
<totfact> 0.16662585E+02</totfact>
</mgrwt>
</event>
<event>
 8    1  0.3759079E-007  0.1260376E+03  0.7546771E-02  0.1233457E+00
          5   -1    0    0  501    0  0.00000000000E+00  0.00000000000E+00  0.33555380780E+02  0.33882939355E+02  0.47000000000E+01 0.  1.
         -5   -1    0    0    0  501 -0.00000000000E+00 -0.00000000000E+00 -0.50400531679E+03  0.50402723077E+03  0.47000000000E+01 0.  1.
         25    2    1    2    0    0  0.26670557300E+01  0.15909072458E+02 -0.30427642678E+03  0.32934727332E+03  0.12500108311E+03 0.  0.
         25    2    1    2    0    0 -0.26670557300E+01 -0.15909072458E+02 -0.16617350924E+03  0.20856289680E+03  0.12499853991E+03 0.  0.
          5    1    4    4  502    0  0.43062036689E+02 -0.46348866451E+02 -0.52969262585E+02  0.82646168718E+02  0.47000000000E+01 0.  1.
         -5    1    4    4    0  502 -0.45729092419E+02  0.30439793993E+02 -0.11320424665E+03  0.12591672809E+03  0.47000000000E+01 0.  1.
          5    1    3    3  503    0 -0.38107546145E+02 -0.39078047679E+02 -0.16909298875E+03  0.17774647037E+03  0.47000000000E+01 0.  1.
         -5    1    3    3    0  503  0.40774601875E+02  0.54987120137E+02 -0.13518343802E+03  0.15160080295E+03  0.47000000000E+01 0.  1.
<mgrwt>
<rscale>  0 0.12603699E+03</rscale>
<asrwt>0</asrwt>
<pdfrwt beam="1">  1        5 0.51892491E-02 0.12603762E+03</pdfrwt>
<pdfrwt beam="2">  1       -5 0.77566157E-01 0.12603762E+03</pdfrwt>
<totfact> 0.24912461E+02</totfact>
</mgrwt>
</event>
<event>
 8    1  0.3759079E-007  0.1717753E+03  0.7546771E-02  0.1176010E+00
         -5   -1    0    0    0  501 -0.00000000000E+00  0.00000000000E+00  0.41115973577E+02  0.41383732108E+02  0.47000000000E+01 0.  1.
          5   -1    0    0  501    0  0.00000000000E+00 -0.00000000000E+00 -0.72837610576E+03  0.72839126947E+03  0.47000000000E+01 0.  1.
         25    2    1    2    0    0 -0.81264575785E+02 -0.85309473447E+02 -0.29154575651E+03  0.33838689154E+03  0.12500049076E+03 0.  0.
         25    2    1    2    0    0  0.81264575785E+02  0.85309473447E+02 -0.39571437567E+03  0.43138811004E+03  0.12499678728E+03 0.  0.
          5    1    3    3  502    0  0.31384747359E+02 -0.75263671551E+01 -0.36969065614E+02  0.49299598190E+02  0.47000000000E+01 0. -1.
         -5    1    3    3    0  502 -0.11264932314E+03 -0.77783106292E+02 -0.25457669090E+03  0.28908729335E+03  0.47000000000E+01 0. -1.
          5    1    4    4  503    0 -0.17073963615E+02 -0.16144285364E+02 -0.11039706942E+03  0.11296796502E+03  0.47000000000E+01 0. -1.
         -5    1    4    4    0  503  0.98338539400E+02  0.10145375881E+03 -0.28531730625E+03  0.31842014502E+03  0.47000000000E+01 0. -1.
<mgrwt>
<rscale>  0 0.17177465E+03</rscale>
<asrwt>0</asrwt>
<pdfrwt beam="2">  1        5 0.11207962E+00 0.17177532E+03</pdfrwt>
<pdfrwt beam="1">  1       -5 0.63472982E-02 0.17177532E+03</pdfrwt>
<totfact> 0.81106069E+01</totfact>
</mgrwt>
</event>
<event>
 8    1  0.3759079E-007  0.1389788E+03  0.7546771E-02  0.1214710E+00
          5   -1    0    0  501    0  0.00000000000E+00  0.00000000000E+00  0.67701615250E+02  0.67864561499E+02  0.47000000000E+01 0.  1.
         -5   -1    0    0    0  501 -0.00000000000E+00 -0.00000000000E+00 -0.32340613989E+03  0.32344029019E+03  0.47000000000E+01 0.  1.
         25    2    1    2    0    0  0.48226948386E+02  0.36933253251E+02 -0.19545554148E+03  0.23982862301E+03  0.12499998389E+03 0.  0.
         25    2    1    2    0    0 -0.48226948386E+02 -0.36933253251E+02 -0.60248983163E+02  0.15147622868E+03  0.12500081655E+03 0.  0.
          5    1    3    3  502    0 -0.10863429963E+02  0.57887825754E+02 -0.37911113155E+02  0.70202257669E+02  0.47000000000E+01 0.  1.
         -5    1    3    3    0  502  0.59090378350E+02 -0.20954572503E+02 -0.15754442832E+03  0.16962636534E+03  0.47000000000E+01 0.  1.
          5    1    4    4  503    0 -0.40837123119E+02  0.19760667076E+02  0.22444243456E+02  0.50832948491E+02  0.47000000000E+01 0.  1.
         -5    1    4    4    0  503 -0.73898252669E+01 -0.56693920327E+02 -0.82693226619E+02  0.10064328019E+03  0.47000000000E+01 0.  1.
<mgrwt>
<rscale>  0 0.13897862E+03</rscale>
<asrwt>0</asrwt>
<pdfrwt beam="1">  1        5 0.10430795E-01 0.13897880E+03</pdfrwt>
<pdfrwt beam="2">  1       -5 0.49769951E-01 0.13897880E+03</pdfrwt>
<totfact> 0.20837345E+02</totfact>
</mgrwt>
</event>
<event>
 8    1  0.3759079E-007  0.2320626E+03  0.7546771E-02  0.1125197E+00
         -5   -1    0    0    0  501 -0.00000000000E+00  0.00000000000E+00  0.14430589069E+03  0.14438240920E+03  0.47000000000E+01 0.  1.
          5   -1    0    0  501    0  0.00000000000E+00 -0.00000000000E+00 -0.45264231887E+03  0.45266671938E+03  0.47000000000E+01 0.  1.
         25    2    1    2    0    0 -0.17744703366E+03 -0.82099647000E+02 -0.28958541895E+02  0.23386249557E+03  0.12500107157E+03 0.  0.
         25    2    1    2    0    0  0.17744703366E+03  0.82099647000E+02 -0.27937788629E+03  0.36318663301E+03  0.12499890102E+03 0.  0.
          5    1    4    4  502    0  0.12143500959E+03  0.54311459206E+02 -0.26831115111E+03  0.29951487437E+03  0.47000000000E+01 0.  1.
         -5    1    4    4    0  502  0.56012024073E+02  0.27788187793E+02 -0.11066735179E+02  0.63671758646E+02  0.47000000000E+01 0.  1.
          5    1    3    3  503    0 -0.11478900404E+03 -0.25424428324E+01 -0.57565595460E+02  0.12852574546E+03  0.47000000000E+01 0. -1.
         -5    1    3    3    0  503 -0.62658029621E+02 -0.79557204167E+02  0.28607053565E+02  0.10533675011E+03  0.47000000000E+01 0. -1.
<mgrwt>
<rscale>  0 0.23206235E+03</rscale>
<asrwt>0</asrwt>
<pdfrwt beam="2">  1        5 0.69645042E-01 0.23206264E+03</pdfrwt>
<pdfrwt beam="1">  1       -5 0.22208669E-01 0.23206264E+03</pdfrwt>
<totfact> 0.29091432E+01</totfact>
</mgrwt>
</event>
<event>
 8    1  0.3759079E-007  0.1420535E+03  0.7546771E-02  0.1210593E+00
          5   -1    0    0  501    0  0.00000000000E+00  0.00000000000E+00  0.97531366785E+02  0.97644546735E+02  0.47000000000E+01 0. -1.
         -5   -1    0    0    0  501 -0.00000000000E+00 -0.00000000000E+00 -0.26364705073E+03  0.26368894053E+03  0.47000000000E+01 0. -1.
         25    2    1    2    0    0 -0.11685451406E+01 -0.67471928565E+02 -0.16704470778E+03  0.21927691432E+03  0.12499841646E+03 0.  0.
         25    2    1    2    0    0  0.11685451406E+01  0.67471928565E+02  0.92902382853E+00  0.14205657295E+03  0.12500152075E+03 0.  0.
          5    1    3    3  502    0  0.41544399842E+01 -0.47388005121E+02  0.30072504633E+01  0.47895886632E+02  0.47000000000E+01 0. -1.
         -5    1    3    3    0  502 -0.53229851248E+01 -0.20083923445E+02 -0.17005195824E+03  0.17138102769E+03  0.47000000000E+01 0. -1.
          5    1    4    4  503    0  0.23570037518E+02  0.99195789091E+02 -0.63606333361E+01  0.10226386898E+03  0.47000000000E+01 0. -1.
         -5    1    4    4    0  503 -0.22401492378E+02 -0.31723860526E+02  0.72896571646E+01  0.39792703967E+02  0.47000000000E+01 0. -1.
<mgrwt>
<rscale>  0 0.14205285E+03</rscale>
<asrwt>0</asrwt>
<pdfrwt beam="1">  1        5 0.15016754E-01 0.14205354E+03</pdfrwt>
<pdfrwt beam="2">  1       -5 0.40573013E-01 0.14205354E+03</pdfrwt>
<totfact> 0.16793164E+02</totfact>
</mgrwt>
</event>
<event>
 8    1  0.3759079E-007  0.1355361E+03  0.7546771E-02  0.1219467E+00
          5   -1    0    0  501    0  0.00000000000E+00  0.00000000000E+00  0.12618832837E+03  0.12627582594E+03  0.47000000000E+01 0.  1.
         -5   -1    0    0    0  501 -0.00000000000E+00 -0.00000000000E+00 -0.17467900130E+03  0.17474222013E+03  0.47000000000E+01 0.  1.
         25    2    1    2    0    0  0.17131724383E+02  0.49511460859E+02 -0.85846056709E+02  0.16043563201E+03  0.12500066332E+03 0.  0.
         25    2    1    2    0    0 -0.17131724383E+02 -0.49511460859E+02  0.37355383770E+02  0.14058241406E+03  0.12499243861E+03 0.  0.
          5    1    4    4  502    0 -0.64052799784E+02 -0.48235057896E+02 -0.14274307182E+00  0.80321182424E+02  0.47000000000E+01 0.  1.
         -5    1    4    4    0  502  0.46921075401E+02 -0.12764029635E+01  0.37498126842E+02  0.60261231633E+02  0.47000000000E+01 0.  1.
          5    1    3    3  503    0 -0.46456236503E+02  0.51270195829E+02 -0.59682250885E+02  0.91492491282E+02  0.47000000000E+01 0.  1.
         -5    1    3    3    0  503  0.63587960886E+02 -0.17587349699E+01 -0.26163805824E+02  0.68943140728E+02  0.47000000000E+01 0.  1.
<mgrwt>
<rscale>  0 0.13553425E+03</rscale>
<asrwt>0</asrwt>
<pdfrwt beam="1">  1        5 0.19425183E-01 0.13553614E+03</pdfrwt>
<pdfrwt beam="2">  1       -5 0.26885286E-01 0.13553614E+03</pdfrwt>
<totfact> 0.23378925E+02</totfact>
</mgrwt>
</event>
<event>
 8    1  0.3759079E-007  0.1605787E+03  0.7546771E-02  0.1188046E+00
          5   -1    0    0  501    0  0.00000000000E+00  0.00000000000E+00  0.65338664577E+03  0.65340354978E+03  0.47000000000E+01 0. -1.
         -5   -1    0    0    0  501 -0.00000000000E+00 -0.00000000000E+00 -0.40099384220E+02  0.40373885307E+02  0.47000000000E+01 0. -1.
         25    2    1    2    0    0  0.90729788797E+02  0.43906523284E+02  0.25802770290E+03  0.30391417753E+03  0.12500341786E+03 0.  0.
         25    2    1    2    0    0 -0.90729788797E+02 -0.43906523284E+02  0.35525955865E+03  0.38986325756E+03  0.12499731286E+03 0.  0.
          5    1    4    4  502    0 -0.64680113101E+02  0.37133571810E+02  0.14935989682E+03  0.16701164020E+03  0.47000000000E+01 0.  1.
         -5    1    4    4    0  502 -0.26049675696E+02 -0.81040095093E+02  0.20589966184E+03  0.22285161736E+03  0.47000000000E+01 0.  1.
          5    1    3    3  503    0  0.94880522544E+02 -0.19380393758E+02  0.15860104964E+03  0.18588785912E+03  0.47000000000E+01 0.  1.
         -5    1    3    3    0  503 -0.41507337467E+01  0.63286917042E+02  0.99426653257E+02  0.11802631841E+03  0.47000000000E+01 0.  1.
<mgrwt>
<rscale>  0 0.16057755E+03</rscale>
<asrwt>0</asrwt>
<pdfrwt beam="1">  1        5 0.10054343E+00 0.16057874E+03</pdfrwt>
<pdfrwt beam="2">  1       -5 0.61915525E-02 0.16057874E+03</pdfrwt>
<totfact> 0.10863433E+02</totfact>
</mgrwt>
</event>
<event>
 8    1  0.3759079E-007  0.1796042E+03  0.7546771E-02  0.1168189E+00
          5   -1    0    0  501    0  0.00000000000E+00  0.00000000000E+00  0.30014457426E+02  0.30380218145E+02  0.47000000000E+01 0. -1.
         -5   -1    0    0    0  501 -0.00000000000E+00 -0.00000000000E+00 -0.10841845391E+04  0.10841947265E+04  0.47000000000E+01 0. -1.
         25    2    1    2    0    0 -0.76365424825E+02  0.10392927327E+03 -0.59556716058E+03  0.62205662314E+03  0.12498490983E+03 0.  0.
         25    2    1    2    0    0  0.76365424825E+02 -0.10392927327E+03 -0.45860292115E+03  0.49251832148E+03  0.12499874304E+03 0.  0.
          5    1    4    4  502    0  0.13993125007E+02  0.16810254838E+01  0.27564617734E+01  0.15110310244E+02  0.47000000000E+01 0.  1.
         -5    1    4    4    0  502  0.62372299818E+02 -0.10561029876E+03 -0.46135938292E+03  0.47740801124E+03  0.47000000000E+01 0.  1.
          5    1    3    3  503    0  0.15492270934E+02  0.65625077136E+02 -0.13671201535E+03  0.15250877466E+03  0.47000000000E+01 0. -1.
         -5    1    3    3    0  503 -0.91857695760E+02  0.38304196138E+02 -0.45885514522E+03  0.46954784848E+03  0.47000000000E+01 0. -1.
<mgrwt>
<rscale>  0 0.17960176E+03</rscale>
<asrwt>0</asrwt>
<pdfrwt beam="1">  1        5 0.46465288E-02 0.17960417E+03</pdfrwt>
<pdfrwt beam="2">  1       -5 0.16682651E+00 0.17960417E+03</pdfrwt>
<totfact> 0.47848002E+01</totfact>
</mgrwt>
</event>
<event>
 8    1  0.3759079E-007  0.1345566E+03  0.7546771E-02  0.1220897E+00
          5   -1    0    0  501    0  0.00000000000E+00  0.00000000000E+00  0.73563474656E+02  0.73713464194E+02  0.47000000000E+01 0. -1.
         -5   -1    0    0    0  501 -0.00000000000E+00 -0.00000000000E+00 -0.25195162116E+03  0.25199545513E+03  0.47000000000E+01 0. -1.
         25    2    1    2    0    0  0.11283130626E+02  0.48297417627E+02 -0.11540890971E+03  0.17727015225E+03  0.12508213642E+03 0.  0.
         25    2    1    2    0    0 -0.11283130626E+02 -0.48297417627E+02 -0.62979236793E+02  0.14843876708E+03  0.12493091578E+03 0.  0.
          5    1    4    4  502    0  0.35237187930E+02 -0.73004200506E+02 -0.43211823510E+02  0.91981652496E+02  0.47000000000E+01 0.  1.
         -5    1    4    4    0  502 -0.46520318556E+02  0.24706782879E+02 -0.19767413283E+02  0.56457114580E+02  0.47000000000E+01 0.  1.
          5    1    3    3  503    0 -0.55893419433E+02  0.13174377067E+02 -0.39270690503E+02  0.69727438499E+02  0.47000000000E+01 0.  1.
         -5    1    3    3    0  503  0.67176550059E+02  0.35123040560E+02 -0.76138219208E+02  0.10754271375E+03  0.47000000000E+01 0.  1.
<mgrwt>
<rscale>  0 0.13452149E+03</rscale>
<asrwt>0</asrwt>
<pdfrwt beam="1">  1        5 0.11332367E-01 0.13455664E+03</pdfrwt>
<pdfrwt beam="2">  1       -5 0.38776697E-01 0.13455664E+03</pdfrwt>
<totfact> 0.29908772E+02</totfact>
</mgrwt>
</event>
<event>
 8    1  0.3759079E-007  0.1669744E+03  0.7546771E-02  0.1181043E+00
          5   -1    0    0  501    0  0.00000000000E+00  0.00000000000E+00  0.34406019193E+02  0.34725554807E+02  0.47000000000E+01 0. -1.
         -5   -1    0    0    0  501 -0.00000000000E+00 -0.00000000000E+00 -0.86218321538E+03  0.86219602578E+03  0.47000000000E+01 0. -1.
         25    2    1    2    0    0 -0.11052255496E+03  0.60693457495E+01 -0.52811337867E+03  0.55387808710E+03  0.12500049008E+03 0.  0.
         25    2    1    2    0    0  0.11052255496E+03 -0.60693457495E+01 -0.29966381751E+03  0.34304349350E+03  0.12501345044E+03 0.  0.
          5    1    3    3  502    0 -0.69841533929E+02 -0.11151233431E+02 -0.95193560142E+02  0.11868485060E+03  0.47000000000E+01 0.  1.
         -5    1    3    3    0  502 -0.40681021028E+02  0.17220579181E+02 -0.43291981853E+03  0.43519323650E+03  0.47000000000E+01 0.  1.
          5    1    4    4  503    0  0.12783360232E+03  0.24707065532E+02 -0.21827755744E+03  0.25420277546E+03  0.47000000000E+01 0. -1.
         -5    1    4    4    0  503 -0.17311047366E+02 -0.30776411282E+02 -0.81386260073E+02  0.88840718035E+02  0.47000000000E+01 0. -1.
<mgrwt>
<rscale>  0 0.16697193E+03</rscale>
<asrwt>0</asrwt>
<pdfrwt beam="1">  1        5 0.53187995E-02 0.16697435E+03</pdfrwt>
<pdfrwt beam="2">  1       -5 0.13266912E+00 0.16697435E+03</pdfrwt>
<totfact> 0.70233520E+01</totfact>
</mgrwt>
</event>
<event>
 8    1  0.3759079E-007  0.1719576E+03  0.7546771E-02  0.1175823E+00
          5   -1    0    0  501    0  0.00000000000E+00  0.00000000000E+00  0.34591480320E+03  0.34594673155E+03  0.47000000000E+01 0.  1.
         -5   -1    0    0    0  501 -0.00000000000E+00 -0.00000000000E+00 -0.86027379485E+02  0.86155673180E+02  0.47000000000E+01 0.  1.
         25    2    1    2    0    0  0.93990836576E+02 -0.71471852961E+02  0.11120939918E+03  0.20478195319E+03  0.12500245901E+03 0.  0.
         25    2    1    2    0    0 -0.93990836576E+02  0.71471852961E+02  0.14867802453E+03  0.22732045155E+03  0.12500771811E+03 0.  0.
          5    1    4    4  502    0 -0.67911956736E+02  0.25124714711E+02  0.35113263275E+01  0.72647811871E+02  0.47000000000E+01 0.  1.
         -5    1    4    4    0  502 -0.26078879841E+02  0.46347138250E+02  0.14516669820E+03  0.15467263968E+03  0.47000000000E+01 0.  1.
          5    1    3    3  503    0  0.73505626610E+02 -0.25485493046E+02 -0.49481061576E+01  0.78097127051E+02  0.47000000000E+01 0. -1.
         -5    1    3    3    0  503  0.20485209967E+02 -0.45986359915E+02  0.11615750534E+03  0.12668482614E+03  0.47000000000E+01 0. -1.
<mgrwt>
<rscale>  0 0.17195669E+03</rscale>
<asrwt>0</asrwt>
<pdfrwt beam="1">  1        5 0.53229986E-01 0.17195765E+03</pdfrwt>
<pdfrwt beam="2">  1       -5 0.13247306E-01 0.17195765E+03</pdfrwt>
<totfact> 0.12643129E+02</totfact>
</mgrwt>
</event>
<event>
 8    1  0.3759079E-007  0.1489817E+03  0.7546771E-02  0.1201733E+00
          5   -1    0    0  501    0  0.00000000000E+00  0.00000000000E+00  0.16894959252E+03  0.16901495441E+03  0.47000000000E+01 0.  1.
         -5   -1    0    0    0  501 -0.00000000000E+00 -0.00000000000E+00 -0.14003557026E+03  0.14011442088E+03  0.47000000000E+01 0.  1.
         25    2    1    2    0    0  0.32472633809E+01  0.80977460640E+02 -0.24275321441E+02  0.15093758898E+03  0.12499988273E+03 0.  0.
         25    2    1    2    0    0 -0.32472633809E+01 -0.80977460640E+02  0.53189343704E+02  0.15819178630E+03  0.12501056403E+03 0.  0.
          5    1    3    3  502    0 -0.36456108455E+02  0.79759820758E+02 -0.52191348895E+02  0.10216018672E+03  0.47000000000E+01 0.  1.
         -5    1    3    3    0  502  0.39703371836E+02  0.12176398824E+01  0.27916027454E+02  0.48777402256E+02  0.47000000000E+01 0.  1.
          5    1    4    4  503    0  0.93853945343E+01 -0.25202265640E+02 -0.40193411212E+02  0.48588477326E+02  0.47000000000E+01 0. -1.
         -5    1    4    4    0  503 -0.12632657915E+02 -0.55775195000E+02  0.93382754916E+02  0.10960330898E+03  0.47000000000E+01 0. -1.
<mgrwt>
<rscale>  0 0.14897942E+03</rscale>
<asrwt>0</asrwt>
<pdfrwt beam="1">  1        5 0.26003338E-01 0.14898166E+03</pdfrwt>
<pdfrwt beam="2">  1       -5 0.21555027E-01 0.14898166E+03</pdfrwt>
<totfact> 0.21181276E+02</totfact>
</mgrwt>
</event>
<event>
 8    1  0.3759079E-007  0.1601149E+03  0.7546771E-02  0.1188568E+00
          5   -1    0    0  501    0  0.00000000000E+00  0.00000000000E+00  0.51601806435E+03  0.51603946819E+03  0.47000000000E+01 0.  1.
         -5   -1    0    0    0  501 -0.00000000000E+00 -0.00000000000E+00 -0.50180941959E+02  0.50400564837E+02  0.47000000000E+01 0.  1.
         25    2    1    2    0    0  0.88302333314E+02  0.47056747368E+02  0.20117995502E+03  0.25711785228E+03  0.12499830446E+03 0.  0.
         25    2    1    2    0    0 -0.88302333314E+02 -0.47056747368E+02  0.26465716737E+03  0.30932218075E+03  0.12500062288E+03 0.  0.
          5    1    4    4  502    0  0.21081344322E+02  0.11119404772E+02  0.10170936183E+03  0.10457030423E+03  0.47000000000E+01 0.  1.
         -5    1    4    4    0  502 -0.10938367764E+03 -0.58176152140E+02  0.16294780553E+03  0.20475187652E+03  0.47000000000E+01 0.  1.
          5    1    3    3  503    0  0.47883367468E+02  0.89103810529E+02  0.13541882555E+03  0.16909362568E+03  0.47000000000E+01 0. -1.
         -5    1    3    3    0  503  0.40418965846E+02 -0.42047063161E+02  0.65761129470E+02  0.88024226607E+02  0.47000000000E+01 0. -1.
<mgrwt>
<rscale>  0 0.16011449E+03</rscale>
<asrwt>0</asrwt>
<pdfrwt beam="1">  1        5 0.79405934E-01 0.16011494E+03</pdfrwt>
<pdfrwt beam="2">  1       -5 0.77386855E-02 0.16011494E+03</pdfrwt>
<totfact> 0.13015702E+02</totfact>
</mgrwt>
</event>
<event>
 8    1  0.3759079E-007  0.1251036E+03  0.7546771E-02  0.1234911E+00
         -5   -1    0    0    0  501 -0.00000000000E+00  0.00000000000E+00  0.10368794296E+03  0.10379440985E+03  0.47000000000E+01 0.  1.
          5   -1    0    0  501    0  0.00000000000E+00 -0.00000000000E+00 -0.17632065417E+03  0.17638328460E+03  0.47000000000E+01 0.  1.
         25    2    1    2    0    0  0.51449803500E+01 -0.70174091170E+00  0.17046317102E+02  0.12625159006E+03  0.12498769460E+03 0.  0.
         25    2    1    2    0    0 -0.51449803500E+01  0.70174091170E+00 -0.89679028312E+02  0.15392610439E+03  0.12499581685E+03 0.  0.
          5    1    3    3  502    0 -0.29430931109E+02  0.40443198650E+02  0.43235919637E+02  0.66281722744E+02  0.47000000000E+01 0.  1.
         -5    1    3    3    0  502  0.34575911459E+02 -0.41144939562E+02 -0.26189602536E+02  0.59969867315E+02  0.47000000000E+01 0.  1.
          5    1    4    4  503    0  0.47413681879E+02  0.87100868299E+01  0.12932547113E+01  0.48452918897E+02  0.47000000000E+01 0.  1.
         -5    1    4    4    0  503 -0.52558662229E+02 -0.80083459182E+01 -0.90972283024E+02  0.10547318549E+03  0.47000000000E+01 0.  1.
<mgrwt>
<rscale>  0 0.12510160E+03</rscale>
<asrwt>0</asrwt>
<pdfrwt beam="2">  1        5 0.27139262E-01 0.12510363E+03</pdfrwt>
<pdfrwt beam="1">  1       -5 0.15964999E-01 0.12510363E+03</pdfrwt>
<totfact> 0.31998089E+02</totfact>
</mgrwt>
</event>
<event>
 8    1  0.3759079E-007  0.1275879E+03  0.7546771E-02  0.1231081E+00
         -5   -1    0    0    0  501 -0.00000000000E+00  0.00000000000E+00  0.23075409421E+03  0.23080195405E+03  0.47000000000E+01 0.  1.
          5   -1    0    0  501    0  0.00000000000E+00 -0.00000000000E+00 -0.75928133995E+02  0.76073461417E+02  0.47000000000E+01 0.  1.
         25    2    1    2    0    0 -0.20598429934E+02 -0.15123265140E+02  0.11872534052E+03  0.17428245534E+03  0.12500263714E+03 0.  0.
         25    2    1    2    0    0  0.20598429934E+02  0.15123265140E+02  0.36100619693E+02  0.13259296013E+03  0.12499851947E+03 0.  0.
          5    1    3    3  502    0 -0.23624332176E+01 -0.10558013881E+02  0.14285171598E+03  0.14333790673E+03  0.47000000000E+01 0. -1.
         -5    1    3    3    0  502 -0.18235996717E+02 -0.45652512589E+01 -0.24126375463E+02  0.30944548604E+02  0.47000000000E+01 0. -1.
          5    1    4    4  503    0 -0.22735489426E+02  0.32834031295E+02 -0.30906611410E+02  0.50717696314E+02  0.47000000000E+01 0.  1.
         -5    1    4    4    0  503  0.43333919361E+02 -0.17710766155E+02  0.67007231103E+02  0.81875263817E+02  0.47000000000E+01 0.  1.
<mgrwt>
<rscale>  0 0.12758687E+03</rscale>
<asrwt>0</asrwt>
<pdfrwt beam="2">  1        5 0.11696112E-01 0.12758788E+03</pdfrwt>
<pdfrwt beam="1">  1       -5 0.35515490E-01 0.12758788E+03</pdfrwt>
<totfact> 0.33140742E+02</totfact>
</mgrwt>
</event>
<event>
 8    1  0.3759079E-007  0.1500162E+03  0.7546771E-02  0.1200453E+00
          5   -1    0    0  501    0  0.00000000000E+00  0.00000000000E+00  0.17565196461E+03  0.17571483338E+03  0.47000000000E+01 0.  1.
         -5   -1    0    0    0  501 -0.00000000000E+00 -0.00000000000E+00 -0.12861010086E+03  0.12869595193E+03  0.47000000000E+01 0.  1.
         25    2    1    2    0    0  0.76742009175E+02 -0.31481157135E+02  0.34061598454E+02  0.15383453797E+03  0.12499789341E+03 0.  0.
         25    2    1    2    0    0 -0.76742009175E+02  0.31481157135E+02  0.12980265292E+02  0.15057624735E+03  0.12499727898E+03 0.  0.
          5    1    3    3  502    0  0.88670787918E+02 -0.39700883812E+02  0.66617415736E+02  0.11789248867E+03  0.47000000000E+01 0.  1.
         -5    1    3    3    0  502 -0.11928778743E+02  0.82197266770E+01 -0.32555817282E+02  0.35942049299E+02  0.47000000000E+01 0.  1.
          5    1    4    4  503    0 -0.98165454366E+02  0.24409202379E+02  0.45257125953E+02  0.11091691954E+03  0.47000000000E+01 0.  1.
         -5    1    4    4    0  503  0.21423445190E+02  0.70719547553E+01 -0.32276860661E+02  0.39659327805E+02  0.47000000000E+01 0.  1.
<mgrwt>
<rscale>  0 0.15001611E+03</rscale>
<asrwt>0</asrwt>
<pdfrwt beam="1">  1        5 0.27034819E-01 0.15001624E+03</pdfrwt>
<pdfrwt beam="2">  1       -5 0.19797609E-01 0.15001624E+03</pdfrwt>
<totfact> 0.23098649E+02</totfact>
</mgrwt>
</event>
<event>
 8    1  0.3759079E-007  0.1429475E+03  0.7546771E-02  0.1209423E+00
         -5   -1    0    0    0  501 -0.00000000000E+00  0.00000000000E+00  0.15443833145E+03  0.15450983212E+03  0.47000000000E+01 0.  1.
          5   -1    0    0  501    0  0.00000000000E+00 -0.00000000000E+00 -0.13572546130E+03  0.13580681443E+03  0.47000000000E+01 0.  1.
         25    2    1    2    0    0  0.14147384698E+02  0.67870469811E+02  0.32899141178E+02  0.14668448071E+03  0.12500973652E+03 0.  0.
         25    2    1    2    0    0 -0.14147384698E+02 -0.67870469811E+02 -0.14186271030E+02  0.14363216584E+03  0.12498959801E+03 0.  0.
          5    1    3    3  502    0  0.49504171602E+02 -0.37283451927E+01 -0.16671100422E+02  0.52579265430E+02  0.47000000000E+01 0. -1.
         -5    1    3    3    0  502 -0.35356786905E+02  0.71598815004E+02  0.49570241600E+02  0.94105215278E+02  0.47000000000E+01 0. -1.
          5    1    4    4  503    0  0.41820437477E+01 -0.82036824716E+02 -0.53226703974E+02  0.97993377916E+02  0.47000000000E+01 0.  1.
         -5    1    4    4    0  503 -0.18329428446E+02  0.14166354905E+02  0.39040432944E+02  0.45638787921E+02  0.47000000000E+01 0.  1.
<mgrwt>
<rscale>  0 0.14294308E+03</rscale>
<asrwt>0</asrwt>
<pdfrwt beam="2">  1        5 0.20892598E-01 0.14294748E+03</pdfrwt>
<pdfrwt beam="1">  1       -5 0.23771501E-01 0.14294748E+03</pdfrwt>
<totfact> 0.26311661E+02</totfact>
</mgrwt>
</event>
<event>
 8    1  0.3759079E-007  0.1480407E+03  0.7546771E-02  0.1202905E+00
         -5   -1    0    0    0  501 -0.00000000000E+00  0.00000000000E+00  0.48370303430E+03  0.48372586802E+03  0.47000000000E+01 0.  1.
          5   -1    0    0  501    0  0.00000000000E+00 -0.00000000000E+00 -0.56925122162E+02  0.57118819430E+02  0.47000000000E+01 0.  1.
         25    2    1    2    0    0 -0.60373502623E+02  0.51424642294E+02  0.33607838157E+03  0.36723931325E+03  0.12500632376E+03 0.  0.
         25    2    1    2    0    0  0.60373502623E+02 -0.51424642294E+02  0.90699530567E+02  0.17360537420E+03  0.12499186955E+03 0.  0.
          5    1    4    4  502    0  0.20983611619E+02 -0.65463338306E+02 -0.49767444005E+01  0.69084141477E+02  0.47000000000E+01 0.  1.
         -5    1    4    4    0  502  0.39389891004E+02  0.14038696013E+02  0.95676274968E+02  0.10452123273E+03  0.47000000000E+01 0.  1.
          5    1    3    3  503    0  0.26326590043E+02 -0.49664548505E+00  0.17495651400E+03  0.17698928722E+03  0.47000000000E+01 0.  1.
         -5    1    3    3    0  503 -0.86700092666E+02  0.51921287779E+02  0.16112186758E+03  0.19025002603E+03  0.47000000000E+01 0.  1.
<mgrwt>
<rscale>  0 0.14803760E+03</rscale>
<asrwt>0</asrwt>
<pdfrwt beam="2">  1        5 0.87743672E-02 0.14804065E+03</pdfrwt>
<pdfrwt beam="1">  1       -5 0.74432508E-01 0.14804065E+03</pdfrwt>
<totfact> 0.11868189E+02</totfact>
</mgrwt>
</event>
<event>
 8    1  0.3759079E-007  0.1324791E+03  0.7546771E-02  0.1223824E+00
         -5   -1    0    0    0  501 -0.00000000000E+00  0.00000000000E+00  0.40633606405E+02  0.40904522604E+02  0.47000000000E+01 0.  1.
          5   -1    0    0  501    0  0.00000000000E+00 -0.00000000000E+00 -0.43734863658E+03  0.43737389030E+03  0.47000000000E+01 0.  1.
         25    2    1    2    0    0  0.41410198285E+02 -0.14486500468E+02 -0.16779096966E+03  0.21378469845E+03  0.12500169828E+03 0.  0.
         25    2    1    2    0    0 -0.41410198285E+02  0.14486500468E+02 -0.22892406051E+03  0.26449371446E+03  0.12500414508E+03 0.  0.
          5    1    3    3  502    0  0.55034188967E+01  0.10899345170E+02 -0.16903684545E+03  0.16954240905E+03  0.47000000000E+01 0. -1.
         -5    1    3    3    0  502  0.35906779388E+02 -0.25385845638E+02  0.12458757950E+01  0.44242289399E+02  0.47000000000E+01 0. -1.
          5    1    4    4  503    0 -0.24911362891E+02 -0.22709182716E+02 -0.21994133615E+03  0.22255912547E+03  0.47000000000E+01 0.  1.
         -5    1    4    4    0  503 -0.16498835394E+02  0.37195683183E+02 -0.89827243625E+01  0.41934588990E+02  0.47000000000E+01 0.  1.
<mgrwt>
<rscale>  0 0.13247848E+03</rscale>
<asrwt>0</asrwt>
<pdfrwt beam="2">  1        5 0.67307185E-01 0.13247905E+03</pdfrwt>
<pdfrwt beam="1">  1       -5 0.62741067E-02 0.13247905E+03</pdfrwt>
<totfact> 0.25451712E+02</totfact>
</mgrwt>
</event>
<event>
 8    1  0.3759079E-007  0.1593253E+03  0.7546771E-02  0.1189462E+00
          5   -1    0    0  501    0  0.00000000000E+00  0.00000000000E+00  0.36646803095E+02  0.36946964382E+02  0.47000000000E+01 0.  1.
         -5   -1    0    0    0  501 -0.00000000000E+00 -0.00000000000E+00 -0.70226509369E+03  0.70228082119E+03  0.47000000000E+01 0.  1.
         25    2    1    2    0    0 -0.74021055100E+02  0.65423689755E+02 -0.38256791257E+03  0.41441696412E+03  0.12499534649E+03 0.  0.
         25    2    1    2    0    0  0.74021055100E+02 -0.65423689755E+02 -0.28305037803E+03  0.32481082146E+03  0.12500070981E+03 0.  0.
          5    1    4    4  502    0  0.67095805103E+02 -0.81084018179E+02 -0.11552731852E+03  0.15634934087E+03  0.47000000000E+01 0.  1.
         -5    1    4    4    0  502  0.69252499970E+01  0.15660328424E+02 -0.16752305951E+03  0.16846148058E+03  0.47000000000E+01 0.  1.
          5    1    3    3  503    0 -0.10584559052E+03  0.27268474345E+02 -0.26500779258E+03  0.28670207334E+03  0.47000000000E+01 0.  1.
         -5    1    3    3    0  503  0.31824535416E+02  0.38155215410E+02 -0.11756011998E+03  0.12771489078E+03  0.47000000000E+01 0.  1.
<mgrwt>
<rscale>  0 0.15932425E+03</rscale>
<asrwt>0</asrwt>
<pdfrwt beam="1">  1        5 0.56622694E-02 0.15932531E+03</pdfrwt>
<pdfrwt beam="2">  1       -5 0.10806507E+00 0.15932531E+03</pdfrwt>
<totfact> 0.10539844E+02</totfact>
</mgrwt>
</event>
<event>
 8    1  0.3759079E-007  0.1496246E+03  0.7546771E-02  0.1200937E+00
         -5   -1    0    0    0  501 -0.00000000000E+00  0.00000000000E+00  0.10015086499E+03  0.10026108796E+03  0.47000000000E+01 0.  1.
          5   -1    0    0  501    0  0.00000000000E+00 -0.00000000000E+00 -0.23632895973E+03  0.23637569082E+03  0.47000000000E+01 0.  1.
         25    2    1    2    0    0  0.81643653806E+02 -0.98417828356E+01 -0.28538815697E+02  0.15232197673E+03  0.12499989479E+03 0.  0.
         25    2    1    2    0    0 -0.81643653806E+02  0.98417828356E+01 -0.10763927905E+03  0.18431480204E+03  0.12499273963E+03 0.  0.
          5    1    3    3  502    0 -0.82215933335E+01  0.43732899786E+02 -0.54376629098E+01  0.45075706301E+02  0.47000000000E+01 0.  1.
         -5    1    3    3    0  502  0.89865247140E+02 -0.53574682622E+02 -0.23101152787E+02  0.10724627043E+03  0.47000000000E+01 0.  1.
          5    1    4    4  503    0  0.16168396170E+02 -0.20482016684E+02 -0.70434315069E+02  0.75259635804E+02  0.47000000000E+01 0. -1.
         -5    1    4    4    0  503 -0.97812049976E+02  0.30323799519E+02 -0.37204963980E+02  0.10905516623E+03  0.47000000000E+01 0. -1.
<mgrwt>
<rscale>  0 0.14962310E+03</rscale>
<asrwt>0</asrwt>
<pdfrwt beam="2">  1        5 0.36370375E-01 0.14962460E+03</pdfrwt>
<pdfrwt beam="1">  1       -5 0.15419899E-01 0.14962460E+03</pdfrwt>
<totfact> 0.20338253E+02</totfact>
</mgrwt>
</event>
<event>
 8    1  0.3759079E-007  0.1352922E+03  0.7546771E-02  0.1219809E+00
         -5   -1    0    0    0  501 -0.00000000000E+00  0.00000000000E+00  0.34429094683E+02  0.34748418103E+02  0.47000000000E+01 0.  1.
          5   -1    0    0  501    0  0.00000000000E+00 -0.00000000000E+00 -0.54700134103E+03  0.54702153257E+03  0.47000000000E+01 0.  1.
         25    2    1    2    0    0 -0.46289637684E+02  0.23163039521E+02 -0.20329678414E+03  0.24419728988E+03  0.12499390781E+03 0.  0.
         25    2    1    2    0    0  0.46289637684E+02 -0.23163039521E+02 -0.30927546221E+03  0.33757266079E+03  0.12499893130E+03 0.  0.
          5    1    4    4  502    0 -0.26204796180E+02 -0.46815436090E+02 -0.17481480701E+03  0.18292261520E+03  0.47000000000E+01 0. -1.
         -5    1    4    4    0  502  0.72494433863E+02  0.23652396569E+02 -0.13446065520E+03  0.15465004559E+03  0.47000000000E+01 0. -1.
          5    1    3    3  503    0 -0.87278505959E+02  0.31252482594E+02 -0.14859811145E+03  0.17520771671E+03  0.47000000000E+01 0. -1.
         -5    1    3    3    0  503  0.40988868276E+02 -0.80894430730E+01 -0.54698672693E+02  0.68989573170E+02  0.47000000000E+01 0. -1.
<mgrwt>
<rscale>  0 0.13529108E+03</rscale>
<asrwt>0</asrwt>
<pdfrwt beam="2">  1        5 0.84180163E-01 0.13529224E+03</pdfrwt>
<pdfrwt beam="1">  1       -5 0.53229007E-02 0.13529224E+03</pdfrwt>
<totfact> 0.20253538E+02</totfact>
</mgrwt>
</event>
<event>
 8    1  0.3759079E-007  0.1441784E+03  0.7546771E-02  0.1207820E+00
         -5   -1    0    0    0  501 -0.00000000000E+00  0.00000000000E+00  0.56892402821E+03  0.56894344172E+03  0.47000000000E+01 0. -1.
          5   -1    0    0  501    0  0.00000000000E+00 -0.00000000000E+00 -0.36372641787E+02  0.36675046974E+02  0.47000000000E+01 0. -1.
         25    2    1    2    0    0  0.71754969569E+02  0.28255079405E+01  0.27125263061E+03  0.30718182789E+03  0.12500370643E+03 0.  0.
         25    2    1    2    0    0 -0.71754969569E+02 -0.28255079405E+01  0.26129875581E+03  0.29843666080E+03  0.12502256424E+03 0.  0.
          5    1    3    3  502    0  0.80481132653E+02  0.83900663671E+01  0.74467320105E+02  0.11006851362E+03  0.47000000000E+01 0.  1.
         -5    1    3    3    0  502 -0.87261630836E+01 -0.55645584266E+01  0.19678531051E+03  0.19711331427E+03  0.47000000000E+01 0.  1.
          5    1    4    4  503    0 -0.21182526170E+02 -0.40871954986E+01 -0.86761691070E+01  0.23722784246E+02  0.47000000000E+01 0. -1.
         -5    1    4    4    0  503 -0.50572443399E+02  0.12616875581E+01  0.26997492492E+03  0.27471387655E+03  0.47000000000E+01 0. -1.
<mgrwt>
<rscale>  0 0.14417428E+03</rscale>
<asrwt>0</asrwt>
<pdfrwt beam="2">  1        5 0.56205463E-02 0.14417836E+03</pdfrwt>
<pdfrwt beam="1">  1       -5 0.87551530E-01 0.14417836E+03</pdfrwt>
<totfact> 0.17220965E+02</totfact>
</mgrwt>
</event>
<event>
 8    1  0.3759079E-007  0.1281577E+03  0.7546771E-02  0.1230216E+00
          5   -1    0    0  501    0  0.00000000000E+00  0.00000000000E+00  0.12135291977E+04  0.12135382992E+04  0.47000000000E+01 0.  1.
         -5   -1    0    0    0  501 -0.00000000000E+00 -0.00000000000E+00 -0.13441642056E+02  0.14239653828E+02  0.47000000000E+01 0.  1.
         25    2    1    2    0    0 -0.18628891673E+02  0.21266821881E+02  0.50736774052E+03  0.52330286812E+03  0.12499821739E+03 0.  0.
         25    2    1    2    0    0  0.18628891673E+02 -0.21266821881E+02  0.69271981512E+03  0.70447508492E+03  0.12500035876E+03 0.  0.
          5    1    4    4  502    0  0.58024796079E+02 -0.42184068328E+02  0.27088791653E+03  0.28026545614E+03  0.47000000000E+01 0. -1.
         -5    1    4    4    0  502 -0.39395904406E+02  0.20917246447E+02  0.42183189859E+03  0.42420962878E+03  0.47000000000E+01 0. -1.
          5    1    3    3  503    0  0.39780876900E+02  0.48684336225E+02  0.22940813929E+03  0.23791357072E+03  0.47000000000E+01 0. -1.
         -5    1    3    3    0  503 -0.58409768573E+02 -0.27417514344E+02  0.27795960122E+03  0.28538929740E+03  0.47000000000E+01 0. -1.
<mgrwt>
<rscale>  0 0.12815720E+03</rscale>
<asrwt>0</asrwt>
<pdfrwt beam="1">  1        5 0.18675895E+00 0.12815773E+03</pdfrwt>
<pdfrwt beam="2">  1       -5 0.21300299E-02 0.12815773E+03</pdfrwt>
<totfact> 0.11066555E+02</totfact>
</mgrwt>
</event>
<event>
 8    1  0.3759079E-007  0.1503993E+03  0.7546771E-02  0.1199984E+00
         -5   -1    0    0    0  501 -0.00000000000E+00  0.00000000000E+00  0.29514296814E+04  0.29514334237E+04  0.47000000000E+01 0.  1.
          5   -1    0    0  501    0  0.00000000000E+00 -0.00000000000E+00 -0.73703078498E+01  0.87413636122E+01  0.47000000000E+01 0.  1.
         25    2    1    2    0    0 -0.31835884877E+02 -0.77338670725E+02  0.17999393338E+04  0.18062117892E+04  0.12499851405E+03 0.  0.
         25    2    1    2    0    0  0.31835884877E+02  0.77338670725E+02  0.11441200397E+04  0.11539629981E+04  0.12500056799E+03 0.  0.
          5    1    3    3  502    0  0.37183508031E+02 -0.19387506811E+02  0.24127718196E+03  0.24493929294E+03  0.47000000000E+01 0.  1.
         -5    1    3    3    0  502 -0.69019392909E+02 -0.57951163914E+02  0.15586621519E+04  0.15612724963E+04  0.47000000000E+01 0.  1.
          5    1    4    4  503    0 -0.29738451780E+02 -0.18196583045E+02  0.20762110304E+03  0.21058039694E+03  0.47000000000E+01 0.  1.
         -5    1    4    4    0  503  0.61574336657E+02  0.95535253770E+02  0.93649893670E+03  0.94338260112E+03  0.47000000000E+01 0.  1.
<mgrwt>
<rscale>  0 0.15039883E+03</rscale>
<asrwt>0</asrwt>
<pdfrwt beam="2">  1        5 0.12396465E-02 0.15039925E+03</pdfrwt>
<pdfrwt beam="1">  1       -5 0.45417212E+00 0.15039925E+03</pdfrwt>
<totfact> 0.44104530E+00</totfact>
</mgrwt>
</event>
<event>
 8    1  0.3759079E-007  0.1522195E+03  0.7546771E-02  0.1197776E+00
          5   -1    0    0  501    0  0.00000000000E+00  0.00000000000E+00  0.29437898930E+02  0.29810734533E+02  0.47000000000E+01 0.  1.
         -5   -1    0    0    0  501 -0.00000000000E+00 -0.00000000000E+00 -0.79304875313E+03  0.79306268027E+03  0.47000000000E+01 0.  1.
         25    2    1    2    0    0 -0.83069653630E+02  0.25349684322E+02 -0.43101414272E+03  0.45710388543E+03  0.12501038758E+03 0.  0.
         25    2    1    2    0    0  0.83069653630E+02 -0.25349684322E+02 -0.33259671149E+03  0.36576952938E+03  0.12499440900E+03 0.  0.
          5    1    3    3  502    0 -0.89210699394E+02  0.54766126596E+01 -0.42586211010E+03  0.43516567993E+03  0.47000000000E+01 0. -1.
         -5    1    3    3    0  502  0.61410457637E+01  0.19873071663E+02 -0.51520326206E+01  0.21938205499E+02  0.47000000000E+01 0. -1.
          5    1    4    4  503    0  0.44375776678E+01  0.22651745397E+02 -0.21511187251E+03  0.21639778502E+03  0.47000000000E+01 0. -1.
         -5    1    4    4    0  503  0.78632075962E+02 -0.48001429719E+02 -0.11748483898E+03  0.14937174436E+03  0.47000000000E+01 0. -1.
<mgrwt>
<rscale>  0 0.15221620E+03</rscale>
<asrwt>0</asrwt>
<pdfrwt beam="1">  1        5 0.45586591E-02 0.15221948E+03</pdfrwt>
<pdfrwt beam="2">  1       -5 0.12203724E+00 0.15221948E+03</pdfrwt>
<totfact> 0.10976794E+02</totfact>
</mgrwt>
</event>
<event>
 8    1  0.3759079E-007  0.1867125E+03  0.7546771E-02  0.1161460E+00
          5   -1    0    0  501    0  0.00000000000E+00  0.00000000000E+00  0.46286152874E+03  0.46288539056E+03  0.47000000000E+01 0.  1.
         -5   -1    0    0    0  501 -0.00000000000E+00 -0.00000000000E+00 -0.79353987289E+02  0.79493051889E+02  0.47000000000E+01 0.  1.
         25    2    1    2    0    0  0.90390367967E+02  0.10519200119E+03  0.12990852293E+03  0.22745937328E+03  0.12500306568E+03 0.  0.
         25    2    1    2    0    0 -0.90390367967E+02 -0.10519200119E+03  0.25359901853E+03  0.31491906916E+03  0.12500312872E+03 0.  0.
          5    1    3    3  502    0  0.98001439316E+01  0.99528497236E+02  0.43769947234E+02  0.10926967953E+03  0.47000000000E+01 0. -1.
         -5    1    3    3    0  502  0.80590224036E+02  0.56635039568E+01  0.86138575693E+02  0.11818969375E+03  0.47000000000E+01 0. -1.
          5    1    4    4  503    0 -0.11171689149E+02 -0.70226541477E+02  0.34286161206E+02  0.79083529363E+02  0.47000000000E+01 0. -1.
         -5    1    4    4    0  503 -0.79218678818E+02 -0.34965459716E+02  0.21931285732E+03  0.23583553980E+03  0.47000000000E+01 0. -1.
<mgrwt>
<rscale>  0 0.18671249E+03</rscale>
<asrwt>0</asrwt>
<pdfrwt beam="1">  1        5 0.71222000E-01 0.18671250E+03</pdfrwt>
<pdfrwt beam="2">  1       -5 0.12220838E-01 0.18671250E+03</pdfrwt>
<totfact> 0.78581932E+01</totfact>
</mgrwt>
</event>
<event>
 8    1  0.3759079E-007  0.1449261E+03  0.7546771E-02  0.1206855E+00
          5   -1    0    0  501    0  0.00000000000E+00  0.00000000000E+00  0.10143254052E+03  0.10154137224E+03  0.47000000000E+01 0. -1.
         -5   -1    0    0    0  501 -0.00000000000E+00 -0.00000000000E+00 -0.20716867423E+03  0.20722198142E+03  0.47000000000E+01 0. -1.
         25    2    1    2    0    0 -0.31061810352E+02  0.66402603691E+02 -0.46357545276E+02  0.15214472248E+03  0.12499941094E+03 0.  0.
         25    2    1    2    0    0  0.31061810352E+02 -0.66402603691E+02 -0.59378588433E+02  0.15661863118E+03  0.12501774686E+03 0.  0.
          5    1    3    3  502    0 -0.27213672699E+02  0.39797256666E+02  0.39216106841E+02  0.62324944089E+02  0.47000000000E+01 0. -1.
         -5    1    3    3    0  502 -0.38481376530E+01  0.26605347025E+02 -0.85573652117E+02  0.89819778392E+02  0.47000000000E+01 0. -1.
          5    1    4    4  503    0 -0.21009894019E+02 -0.84041930334E+02 -0.20575749211E+02  0.89162285505E+02  0.47000000000E+01 0.  1.
         -5    1    4    4    0  503  0.52071704372E+02  0.17639326643E+02 -0.38802839222E+02  0.67456345678E+02  0.47000000000E+01 0.  1.
<mgrwt>
<rscale>  0 0.14492216E+03</rscale>
<asrwt>0</asrwt>
<pdfrwt beam="1">  1        5 0.15617478E-01 0.14492612E+03</pdfrwt>
<pdfrwt beam="2">  1       -5 0.31884576E-01 0.14492612E+03</pdfrwt>
<totfact> 0.25583056E+02</totfact>
</mgrwt>
</event>
<event>
 8    1  0.3759079E-007  0.1341040E+03  0.7546771E-02  0.1221492E+00
          5   -1    0    0  501    0  0.00000000000E+00  0.00000000000E+00  0.26186500398E+03  0.26190717881E+03  0.47000000000E+01 0.  1.
         -5   -1    0    0    0  501 -0.00000000000E+00 -0.00000000000E+00 -0.69988810334E+02  0.70146443758E+02  0.47000000000E+01 0.  1.
         25    2    1    2    0    0  0.48291554392E+02 -0.51248015001E+01  0.72131485412E+02  0.15226850328E+03  0.12499763233E+03 0.  0.
         25    2    1    2    0    0 -0.48291554392E+02  0.51248015001E+01  0.11974470823E+03  0.17978511928E+03  0.12500222457E+03 0.  0.
          5    1    3    3  502    0  0.63342993128E+02  0.46262671210E+02  0.30544026113E+02  0.84306565919E+02  0.47000000000E+01 0. -1.
         -5    1    3    3    0  502 -0.15051438736E+02 -0.51387472710E+02  0.41587459299E+02  0.67961937365E+02  0.47000000000E+01 0. -1.
          5    1    4    4  503    0  0.34247621715E+02 -0.20406966607E+02  0.12616870737E+02  0.42078727481E+02  0.47000000000E+01 0.  1.
         -5    1    4    4    0  503 -0.82539176107E+02  0.25531768107E+02  0.10712783750E+03  0.13770639180E+03  0.47000000000E+01 0.  1.
<mgrwt>
<rscale>  0 0.13410297E+03</rscale>
<asrwt>0</asrwt>
<pdfrwt beam="1">  1        5 0.40302294E-01 0.13410404E+03</pdfrwt>
<pdfrwt beam="2">  1       -5 0.10782879E-01 0.13410404E+03</pdfrwt>
<totfact> 0.30134940E+02</totfact>
</mgrwt>
</event>
<event>
 8    1  0.3759079E-007  0.1255117E+03  0.7546771E-02  0.1234272E+00
         -5   -1    0    0    0  501 -0.00000000000E+00  0.00000000000E+00  0.30804136632E+02  0.31160629545E+02  0.47000000000E+01 0. -1.
          5   -1    0    0  501    0  0.00000000000E+00 -0.00000000000E+00 -0.50848602095E+03  0.50850774183E+03  0.47000000000E+01 0. -1.
         25    2    1    2    0    0  0.11212691750E+02  0.16725621183E+01 -0.23127227392E+03  0.26313465864E+03  0.12499784788E+03 0.  0.
         25    2    1    2    0    0 -0.11212691750E+02 -0.16725621183E+01 -0.24640961039E+03  0.27653371273E+03  0.12499870504E+03 0.  0.
          5    1    4    4  502    0 -0.22086565814E+02  0.42391217169E+01 -0.25794969600E+03  0.25897089066E+03  0.47000000000E+01 0. -1.
         -5    1    4    4    0  502  0.10873874063E+02 -0.59116838352E+01  0.11540085612E+02  0.17562822064E+02  0.47000000000E+01 0. -1.
          5    1    3    3  503    0  0.19432827656E+02  0.59642825567E+01  0.89393121884E+01  0.22698210492E+02  0.47000000000E+01 0. -1.
         -5    1    3    3    0  503 -0.82201359055E+01 -0.42917204384E+01 -0.24021158611E+03  0.24043644815E+03  0.47000000000E+01 0. -1.
<mgrwt>
<rscale>  0 0.12551153E+03</rscale>
<asrwt>0</asrwt>
<pdfrwt beam="2">  1        5 0.78257706E-01 0.12551175E+03</pdfrwt>
<pdfrwt beam="1">  1       -5 0.47681917E-02 0.12551175E+03</pdfrwt>
<totfact> 0.28044024E+02</totfact>
</mgrwt>
</event>
<event>
 8    1  0.3759079E-007  0.1432360E+03  0.7546771E-02  0.1209043E+00
         -5   -1    0    0    0  501 -0.00000000000E+00  0.00000000000E+00  0.22822048888E+04  0.22822097285E+04  0.47000000000E+01 0. -1.
          5   -1    0    0  501    0  0.00000000000E+00 -0.00000000000E+00 -0.94320495037E+01  0.10538195189E+02  0.47000000000E+01 0. -1.
         25    2    1    2    0    0 -0.67328580684E+02 -0.18927242562E+02  0.14991942795E+04  0.15060203078E+04  0.12498920624E+03 0.  0.
         25    2    1    2    0    0  0.67328580684E+02  0.18927242562E+02  0.77357855985E+03  0.78672761581E+03  0.12500069970E+03 0.  0.
          5    1    4    4  502    0  0.96777409426E+01 -0.20961682716E+02  0.23198767765E+02  0.33065444771E+02  0.47000000000E+01 0. -1.
         -5    1    4    4    0  502  0.57650839742E+02  0.39888925278E+02  0.75037979209E+03  0.75366217104E+03  0.47000000000E+01 0. -1.
          5    1    3    3  503    0  0.80784653976E+01 -0.32461152488E+02  0.10327974138E+04  0.10333496872E+04  0.47000000000E+01 0. -1.
         -5    1    3    3    0  503 -0.75407046082E+02  0.13533909926E+02  0.46639686569E+03  0.47267062067E+03  0.47000000000E+01 0. -1.
<mgrwt>
<rscale>  0 0.14323350E+03</rscale>
<asrwt>0</asrwt>
<pdfrwt beam="2">  1        5 0.15365436E-02 0.14323601E+03</pdfrwt>
<pdfrwt beam="1">  1       -5 0.35119421E+00 0.14323601E+03</pdfrwt>
<totfact> 0.16636653E+01</totfact>
</mgrwt>
</event>
<event>
 8    1  0.3759079E-007  0.2248284E+03  0.7546771E-02  0.1130334E+00
         -5   -1    0    0    0  501 -0.00000000000E+00  0.00000000000E+00  0.77089619036E+03  0.77091051771E+03  0.47000000000E+01 0.  1.
          5   -1    0    0  501    0  0.00000000000E+00 -0.00000000000E+00 -0.69431815826E+02  0.69590710938E+02  0.47000000000E+01 0.  1.
         25    2    1    2    0    0  0.43673086911E+02 -0.18169807169E+03  0.25046970433E+03  0.33657265185E+03  0.12499819762E+03 0.  0.
         25    2    1    2    0    0 -0.43673086911E+02  0.18169807169E+03  0.45099467021E+03  0.50392857680E+03  0.12500516063E+03 0.  0.
          5    1    4    4  502    0 -0.78300988921E+02  0.17013234501E+03  0.39050644071E+03  0.43312057203E+03  0.47000000000E+01 0. -1.
         -5    1    4    4    0  502  0.34627902010E+02  0.11565726683E+02  0.60488229501E+02  0.70808004769E+02  0.47000000000E+01 0. -1.
          5    1    3    3  503    0 -0.19355285808E+02  0.10435530218E+02  0.22492567014E+02  0.31804605806E+02  0.47000000000E+01 0.  1.
         -5    1    3    3    0  503  0.63028372719E+02 -0.19213360191E+03  0.22797713732E+03  0.30476804604E+03  0.47000000000E+01 0.  1.
<mgrwt>
<rscale>  0 0.22482745E+03</rscale>
<asrwt>0</asrwt>
<pdfrwt beam="2">  1        5 0.10695143E-01 0.22482842E+03</pdfrwt>
<pdfrwt beam="1">  1       -5 0.11861274E+00 0.22482842E+03</pdfrwt>
<totfact> 0.30553300E+01</totfact>
</mgrwt>
</event>
<event>
 8    1  0.3759079E-007  0.1292338E+03  0.7546771E-02  0.1228600E+00
         -5   -1    0    0    0  501 -0.00000000000E+00  0.00000000000E+00  0.18845229887E+03  0.18851089876E+03  0.47000000000E+01 0.  1.
          5   -1    0    0  501    0  0.00000000000E+00 -0.00000000000E+00 -0.11415349980E+03  0.11425021452E+03  0.47000000000E+01 0.  1.
         25    2    1    2    0    0 -0.31531397337E+02  0.89767139369E+01  0.10888316474E+03  0.16898788896E+03  0.12500621040E+03 0.  0.
         25    2    1    2    0    0  0.31531397337E+02 -0.89767139369E+01 -0.34584365670E+02  0.13377322432E+03  0.12499754712E+03 0.  0.
          5    1    4    4  502    0  0.31973069466E+01 -0.43218554418E+02  0.31651172340E+02  0.53869777503E+02  0.47000000000E+01 0. -1.
         -5    1    4    4    0  502  0.28334090390E+02  0.34241840481E+02 -0.66235538010E+02  0.79903446817E+02  0.47000000000E+01 0. -1.
          5    1    3    3  503    0  0.22710850949E+02 -0.35823535102E+01  0.11062384606E+03  0.11308554870E+03  0.47000000000E+01 0.  1.
         -5    1    3    3    0  503 -0.54242248286E+02  0.12559067447E+02 -0.17406813248E+01  0.55902340252E+02  0.47000000000E+01 0.  1.
<mgrwt>
<rscale>  0 0.12923166E+03</rscale>
<asrwt>0</asrwt>
<pdfrwt beam="2">  1        5 0.17574024E-01 0.12923375E+03</pdfrwt>
<pdfrwt beam="1">  1       -5 0.29004608E-01 0.12923375E+03</pdfrwt>
<totfact> 0.23876582E+02</totfact>
</mgrwt>
</event>
<event>
 8    1  0.3759079E-007  0.1329935E+03  0.7546771E-02  0.1223089E+00
         -5   -1    0    0    0  501 -0.00000000000E+00  0.00000000000E+00  0.18353043115E+02  0.18945294708E+02  0.47000000000E+01 0.  1.
          5   -1    0    0  501    0  0.00000000000E+00 -0.00000000000E+00 -0.96803002503E+03  0.96804143473E+03  0.47000000000E+01 0.  1.
         25    2    1    2    0    0  0.26930530633E+02  0.36555835035E+02 -0.40319752493E+03  0.42455711583E+03  0.12497566939E+03 0.  0.
         25    2    1    2    0    0 -0.26930530633E+02 -0.36555835035E+02 -0.54647945698E+03  0.56242961360E+03  0.12500276318E+03 0.  0.
          5    1    4    4  502    0 -0.40784334296E+02 -0.51777293668E+02 -0.13396463726E+03  0.14937491121E+03  0.47000000000E+01 0.  1.
         -5    1    4    4    0  502  0.13853803663E+02  0.15221458634E+02 -0.41251481972E+03  0.41305470239E+03  0.47000000000E+01 0.  1.
          5    1    3    3  503    0 -0.15483641930E+02 -0.40412195756E+02 -0.10563022499E+03  0.11424851493E+03  0.47000000000E+01 0.  1.
         -5    1    3    3    0  503  0.42414172564E+02  0.76968030790E+02 -0.29756729994E+03  0.31030860090E+03  0.47000000000E+01 0.  1.
<mgrwt>
<rscale>  0 0.13298714E+03</rscale>
<asrwt>0</asrwt>
<pdfrwt beam="2">  1        5 0.14897409E+00 0.13299351E+03</pdfrwt>
<pdfrwt beam="1">  1       -5 0.28699813E-02 0.13299351E+03</pdfrwt>
<totfact> 0.13230898E+02</totfact>
</mgrwt>
</event>
<event>
 8    1  0.3759079E-007  0.1377570E+03  0.7546771E-02  0.1216383E+00
         -5   -1    0    0    0  501 -0.00000000000E+00  0.00000000000E+00  0.34182329872E+02  0.34503937101E+02  0.47000000000E+01 0.  1.
          5   -1    0    0  501    0  0.00000000000E+00 -0.00000000000E+00 -0.55371160029E+03  0.55373154714E+03  0.47000000000E+01 0.  1.
         25    2    1    2    0    0 -0.17876875635E+02  0.55047713022E+02 -0.24441397135E+03  0.28056224319E+03  0.12500859778E+03 0.  0.
         25    2    1    2    0    0  0.17876875635E+02 -0.55047713022E+02 -0.27511529907E+03  0.30767324105E+03  0.12499824833E+03 0.  0.
          5    1    4    4  502    0 -0.30363332888E+02 -0.47980875040E+02 -0.45562523294E+02  0.72952929225E+02  0.47000000000E+01 0.  1.
         -5    1    4    4    0  502  0.48240208523E+02 -0.70668379817E+01 -0.22955277578E+03  0.23472031183E+03  0.47000000000E+01 0.  1.
          5    1    3    3  503    0  0.34579874055E+02  0.72621870585E+02 -0.12278757719E+03  0.14686246249E+03  0.47000000000E+01 0. -1.
         -5    1    3    3    0  503 -0.52456749689E+02 -0.17574157563E+02 -0.12162639415E+03  0.13369978069E+03  0.47000000000E+01 0. -1.
<mgrwt>
<rscale>  0 0.13775462E+03</rscale>
<asrwt>0</asrwt>
<pdfrwt beam="2">  1        5 0.85212667E-01 0.13775697E+03</pdfrwt>
<pdfrwt beam="1">  1       -5 0.52850938E-02 0.13775697E+03</pdfrwt>
<totfact> 0.20038805E+02</totfact>
</mgrwt>
</event>
<event>
 8    1  0.3759079E-007  0.1298119E+03  0.7546771E-02  0.1227736E+00
          5   -1    0    0  501    0  0.00000000000E+00  0.00000000000E+00  0.41433895266E+03  0.41436560872E+03  0.47000000000E+01 0.  1.
         -5   -1    0    0    0  501 -0.00000000000E+00 -0.00000000000E+00 -0.40645791119E+02  0.40916626641E+02  0.47000000000E+01 0.  1.
         25    2    1    2    0    0  0.20604131994E+02 -0.28314426964E+02  0.20016629254E+03  0.23857341563E+03  0.12499797176E+03 0.  0.
         25    2    1    2    0    0 -0.20604131994E+02  0.28314426964E+02  0.17352686900E+03  0.21670881973E+03  0.12499960503E+03 0.  0.
          5    1    4    4  502    0  0.16257115527E+02 -0.17317725861E+02 -0.82995872501E+01  0.25596300177E+02  0.47000000000E+01 0.  1.
         -5    1    4    4    0  502 -0.36861247521E+02  0.45632152825E+02  0.18182645625E+03  0.19111251956E+03  0.47000000000E+01 0.  1.
          5    1    3    3  503    0  0.17773727497E+02 -0.70620519602E+02  0.17360811455E+03  0.18832161484E+03  0.47000000000E+01 0. -1.
         -5    1    3    3    0  503  0.28304044964E+01  0.42306092638E+02  0.26558177989E+02  0.50251800783E+02  0.47000000000E+01 0. -1.
<mgrwt>
<rscale>  0 0.12981154E+03</rscale>
<asrwt>0</asrwt>
<pdfrwt beam="1">  1        5 0.63767337E-01 0.12981193E+03</pdfrwt>
<pdfrwt beam="2">  1       -5 0.62760827E-02 0.12981193E+03</pdfrwt>
<totfact> 0.28474254E+02</totfact>
</mgrwt>
</event>
<event>
 8    1  0.3759079E-007  0.2043487E+03  0.7546771E-02  0.1146122E+00
         -5   -1    0    0    0  501 -0.00000000000E+00  0.00000000000E+00  0.52312687613E+03  0.52314798913E+03  0.47000000000E+01 0. -1.
          5   -1    0    0  501    0  0.00000000000E+00 -0.00000000000E+00 -0.79755018188E+02  0.79893384746E+02  0.47000000000E+01 0. -1.
         25    2    1    2    0    0  0.12284572469E+02 -0.16118391933E+03  0.22692044217E+03  0.30536774421E+03  0.12500162223E+03 0.  0.
         25    2    1    2    0    0 -0.12284572469E+02  0.16118391933E+03  0.21645141578E+03  0.29767362967E+03  0.12500883103E+03 0.  0.
          5    1    4    4  502    0  0.45604989951E+02  0.33146826058E+02  0.10093989682E+03  0.11571292044E+03  0.47000000000E+01 0. -1.
         -5    1    4    4    0  502 -0.57889562419E+02  0.12803709327E+03  0.11551151895E+03  0.18196070923E+03  0.47000000000E+01 0. -1.
          5    1    3    3  503    0 -0.42583132123E+02 -0.10774059162E+03  0.18388188001E+03  0.21738443831E+03  0.47000000000E+01 0.  1.
         -5    1    3    3    0  503  0.54867704591E+02 -0.53443327717E+02  0.43038562153E+02  0.87983305898E+02  0.47000000000E+01 0.  1.
<mgrwt>
<rscale>  0 0.20434756E+03</rscale>
<asrwt>0</asrwt>
<pdfrwt beam="2">  1        5 0.12282270E-01 0.20434866E+03</pdfrwt>
<pdfrwt beam="1">  1       -5 0.80493327E-01 0.20434866E+03</pdfrwt>
<totfact> 0.60185491E+01</totfact>
</mgrwt>
</event>
<event>
 8    1  0.3759079E-007  0.1653550E+03  0.7546771E-02  0.1182783E+00
          5   -1    0    0  501    0  0.00000000000E+00  0.00000000000E+00  0.15841088002E+03  0.15848058842E+03  0.47000000000E+01 0.  1.
         -5   -1    0    0    0  501 -0.00000000000E+00 -0.00000000000E+00 -0.20651079544E+03  0.20656427240E+03  0.47000000000E+01 0.  1.
         25    2    1    2    0    0 -0.88929212773E+02  0.61697062652E+02 -0.98150654988E+02  0.19228101623E+03  0.12499402267E+03 0.  0.
         25    2    1    2    0    0  0.88929212773E+02 -0.61697062652E+02  0.50050739567E+02  0.17276384460E+03  0.12500934783E+03 0.  0.
          5    1    3    3  502    0 -0.86175523959E+02  0.86111086205E+02 -0.38907696650E+02  0.12797358695E+03  0.47000000000E+01 0.  1.
         -5    1    3    3    0  502 -0.27536888139E+01 -0.24414023553E+02 -0.59242958339E+02  0.64307429282E+02  0.47000000000E+01 0.  1.
          5    1    4    4  503    0 -0.25049655997E+01 -0.14599156358E+02 -0.35595082286E+02  0.38839543020E+02  0.47000000000E+01 0. -1.
         -5    1    4    4    0  503  0.91434178373E+02 -0.47097906294E+02  0.85645821853E+02  0.13392430158E+03  0.47000000000E+01 0. -1.
<mgrwt>
<rscale>  0 0.16535208E+03</rscale>
<asrwt>0</asrwt>
<pdfrwt beam="1">  1        5 0.24380381E-01 0.16535498E+03</pdfrwt>
<pdfrwt beam="2">  1       -5 0.31780367E-01 0.16535498E+03</pdfrwt>
<totfact> 0.11701340E+02</totfact>
</mgrwt>
</event>
<event>
 8    1  0.3759079E-007  0.1518059E+03  0.7546771E-02  0.1198272E+00
          5   -1    0    0  501    0  0.00000000000E+00  0.00000000000E+00  0.11080606676E+03  0.11090570063E+03  0.47000000000E+01 0.  1.
         -5   -1    0    0    0  501 -0.00000000000E+00 -0.00000000000E+00 -0.20913303316E+03  0.20918583977E+03  0.47000000000E+01 0.  1.
         25    2    1    2    0    0  0.26428704137E+02  0.81987835879E+02 -0.62159299553E+02  0.16403904216E+03  0.12499818878E+03 0.  0.
         25    2    1    2    0    0 -0.26428704137E+02 -0.81987835879E+02 -0.36167666847E+02  0.15605249823E+03  0.12499520169E+03 0.  0.
          5    1    3    3  502    0  0.68920677187E+01  0.10615422744E+03 -0.15240845917E+02  0.10756669552E+03  0.47000000000E+01 0. -1.
         -5    1    3    3    0  502  0.19536636418E+02 -0.24166391561E+02 -0.46918453636E+02  0.56472346642E+02  0.47000000000E+01 0. -1.
          5    1    4    4  503    0  0.17877651716E+02  0.25680696674E+02 -0.22292733955E+02  0.38706131293E+02  0.47000000000E+01 0.  1.
         -5    1    4    4    0  503 -0.44306355853E+02 -0.10766853255E+03 -0.13874932892E+02  0.11734636694E+03  0.47000000000E+01 0.  1.
<mgrwt>
<rscale>  0 0.15180528E+03</rscale>
<asrwt>0</asrwt>
<pdfrwt beam="1">  1        5 0.17058813E-01 0.15180589E+03</pdfrwt>
<pdfrwt beam="2">  1       -5 0.32186039E-01 0.15180589E+03</pdfrwt>
<totfact> 0.21700775E+02</totfact>
</mgrwt>
</event>
<event>
 8    1  0.3759079E-007  0.1257779E+03  0.7546771E-02  0.1233862E+00
         -5   -1    0    0    0  501 -0.00000000000E+00  0.00000000000E+00  0.31553383672E+03  0.31556883895E+03  0.47000000000E+01 0. -1.
          5   -1    0    0  501    0  0.00000000000E+00 -0.00000000000E+00 -0.52084989037E+02  0.52296616363E+02  0.47000000000E+01 0. -1.
         25    2    1    2    0    0  0.20656129508E+01  0.13743648229E+02  0.16856868090E+03  0.21032235232E+03  0.12500774809E+03 0.  0.
         25    2    1    2    0    0 -0.20656129508E+01 -0.13743648229E+02  0.94880166779E+02  0.15754310299E+03  0.12499771449E+03 0.  0.
          5    1    3    3  502    0 -0.29119652782E+02  0.56162607826E+02  0.50923034570E+02  0.81347637617E+02  0.47000000000E+01 0. -1.
         -5    1    3    3    0  502  0.31185265733E+02 -0.42418959597E+02  0.11764564633E+03  0.12897471471E+03  0.47000000000E+01 0. -1.
          5    1    4    4  503    0  0.48552267285E+02  0.30874168915E+02  0.37454048591E+02  0.68814480457E+02  0.47000000000E+01 0.  1.
         -5    1    4    4    0  503 -0.50617880236E+02 -0.44617817144E+02  0.57426118188E+02  0.88728622532E+02  0.47000000000E+01 0.  1.
<mgrwt>
<rscale>  0 0.12577545E+03</rscale>
<asrwt>0</asrwt>
<pdfrwt beam="2">  1        5 0.80320467E-02 0.12577795E+03</pdfrwt>
<pdfrwt beam="1">  1       -5 0.48562639E-01 0.12577795E+03</pdfrwt>
<totfact> 0.33316203E+02</totfact>
</mgrwt>
</event>
<event>
 8    1  0.3759079E-007  0.1716137E+03  0.7546771E-02  0.1176176E+00
         -5   -1    0    0    0  501 -0.00000000000E+00  0.00000000000E+00  0.17394738034E+03  0.17401086497E+03  0.47000000000E+01 0.  1.
          5   -1    0    0  501    0  0.00000000000E+00 -0.00000000000E+00 -0.17238851596E+03  0.17245257446E+03  0.47000000000E+01 0.  1.
         25    2    1    2    0    0 -0.11528541298E+03  0.23135472682E+02  0.24397896120E+02  0.17333931018E+03  0.12500113030E+03 0.  0.
         25    2    1    2    0    0  0.11528541298E+03 -0.23135472682E+02 -0.22839031740E+02  0.17312412925E+03  0.12499746484E+03 0.  0.
          5    1    4    4  502    0  0.12127570889E+03 -0.46611503706E+02  0.11853207501E+02  0.13054891180E+03  0.47000000000E+01 0.  1.
         -5    1    4    4    0  502 -0.59902959075E+01  0.23476031023E+02 -0.34692239241E+02  0.42575217453E+02  0.47000000000E+01 0.  1.
          5    1    3    3  503    0 -0.13864288328E+03  0.22320326393E+02  0.18399093029E+01  0.14051875790E+03  0.47000000000E+01 0.  1.
         -5    1    3    3    0  503  0.23357470306E+02  0.81514628971E+00  0.22557986817E+02  0.32820552278E+02  0.47000000000E+01 0.  1.
<mgrwt>
<rscale>  0 0.17161302E+03</rscale>
<asrwt>0</asrwt>
<pdfrwt beam="2">  1        5 0.26531121E-01 0.17161369E+03</pdfrwt>
<pdfrwt beam="1">  1       -5 0.26770947E-01 0.17161369E+03</pdfrwt>
<totfact> 0.14076168E+02</totfact>
</mgrwt>
</event>
<event>
 8    1  0.3759079E-007  0.1332780E+03  0.7546771E-02  0.1222673E+00
         -5   -1    0    0    0  501 -0.00000000000E+00  0.00000000000E+00  0.61630035477E+02  0.61808990227E+02  0.47000000000E+01 0.  1.
          5   -1    0    0  501    0  0.00000000000E+00 -0.00000000000E+00 -0.29624623309E+03  0.29628351392E+03  0.47000000000E+01 0.  1.
         25    2    1    2    0    0  0.45863375243E+02 -0.58451437222E+01 -0.86726899149E+02  0.15901125590E+03  0.12500163828E+03 0.  0.
         25    2    1    2    0    0 -0.45863375243E+02  0.58451437222E+01 -0.14788929847E+03  0.19908124825E+03  0.12499793563E+03 0.  0.
          5    1    3    3  502    0 -0.13590744377E+02 -0.16805795603E+02  0.24080391001E+02  0.32697069124E+02  0.47000000000E+01 0. -1.
         -5    1    3    3    0  502  0.59454119620E+02  0.10960651880E+02 -0.11080729015E+03  0.12631418677E+03  0.47000000000E+01 0. -1.
          5    1    4    4  503    0 -0.36766539228E+01 -0.43175587422E+02 -0.12148420526E+03  0.12906646064E+03  0.47000000000E+01 0. -1.
         -5    1    4    4    0  503 -0.42186721320E+02  0.49020731144E+02 -0.26405093205E+02  0.70014787615E+02  0.47000000000E+01 0. -1.
<mgrwt>
<rscale>  0 0.13327713E+03</rscale>
<asrwt>0</asrwt>
<pdfrwt beam="2">  1        5 0.45592976E-01 0.13327800E+03</pdfrwt>
<pdfrwt beam="1">  1       -5 0.94981776E-02 0.13327800E+03</pdfrwt>
<totfact> 0.29084121E+02</totfact>
</mgrwt>
</event>
<event>
 8    1  0.3759079E-007  0.1326465E+03  0.7546771E-02  0.1223584E+00
         -5   -1    0    0    0  501 -0.00000000000E+00  0.00000000000E+00  0.50227007404E+02  0.50446429733E+02  0.47000000000E+01 0.  1.
          5   -1    0    0  501    0  0.00000000000E+00 -0.00000000000E+00 -0.39153532537E+03  0.39156353381E+03  0.47000000000E+01 0.  1.
         25    2    1    2    0    0  0.43155738536E+02  0.10247464614E+02 -0.98085164682E+02  0.16497213067E+03  0.12501070381E+03 0.  0.
         25    2    1    2    0    0 -0.43155738536E+02 -0.10247464614E+02 -0.24322315328E+03  0.27703783288E+03  0.12500012101E+03 0.  0.
          5    1    4    4  502    0 -0.38379950593E+02 -0.63206148635E+02 -0.10207324024E+03  0.12613117856E+03  0.47000000000E+01 0.  1.
         -5    1    4    4    0  502 -0.47757879433E+01  0.52958684021E+02 -0.14114991304E+03  0.15090665431E+03  0.47000000000E+01 0.  1.
          5    1    3    3  503    0  0.60910518686E+02 -0.39524213129E+02 -0.81795485207E+02  0.10947532192E+03  0.47000000000E+01 0.  1.
         -5    1    3    3    0  503 -0.17754780150E+02  0.49771677743E+02 -0.16289679474E+02  0.55496808745E+02  0.47000000000E+01 0.  1.
<mgrwt>
<rscale>  0 0.13264405E+03</rscale>
<asrwt>0</asrwt>
<pdfrwt beam="2">  1        5 0.60255251E-01 0.13264654E+03</pdfrwt>
<pdfrwt beam="1">  1       -5 0.77462807E-02 0.13264654E+03</pdfrwt>
<totfact> 0.22743665E+02</totfact>
</mgrwt>
</event>
<event>
 8    1  0.3759079E-007  0.1518896E+03  0.7546771E-02  0.1198172E+00
         -5   -1    0    0    0  501 -0.00000000000E+00  0.00000000000E+00  0.57717727665E+03  0.57719641257E+03  0.47000000000E+01 0. -1.
          5   -1    0    0  501    0  0.00000000000E+00 -0.00000000000E+00 -0.44118544883E+02  0.44368186830E+02  0.47000000000E+01 0. -1.
         25    2    1    2    0    0 -0.33454565989E+02  0.79539093793E+02  0.36331880486E+03  0.39378822049E+03  0.12499173253E+03 0.  0.
         25    2    1    2    0    0  0.33454565989E+02 -0.79539093793E+02  0.16973992691E+03  0.22777637892E+03  0.12499904231E+03 0.  0.
          5    1    4    4  502    0 -0.40795380421E+01 -0.14051218505E+02  0.14840264290E+03  0.14919622580E+03  0.47000000000E+01 0.  1.
         -5    1    4    4    0  502  0.37534104031E+02 -0.65487875288E+02  0.21337284007E+02  0.78580153118E+02  0.47000000000E+01 0.  1.
          5    1    3    3  503    0 -0.30689640265E+02  0.10127941901E+03  0.35400813551E+03  0.36951755674E+03  0.47000000000E+01 0. -1.
         -5    1    3    3    0  503 -0.27649257235E+01 -0.21740325217E+02  0.93106693531E+01  0.24270663744E+02  0.47000000000E+01 0. -1.
<mgrwt>
<rscale>  0 0.15188805E+03</rscale>
<asrwt>0</asrwt>
<pdfrwt beam="2">  1        5 0.68081434E-02 0.15188955E+03</pdfrwt>
<pdfrwt beam="1">  1       -5 0.88817183E-01 0.15188955E+03</pdfrwt>
<totfact> 0.12251834E+02</totfact>
</mgrwt>
</event>
<event>
 8    1  0.3759079E-007  0.1412683E+03  0.7546771E-02  0.1211634E+00
          5   -1    0    0  501    0  0.00000000000E+00  0.00000000000E+00  0.11471328488E+04  0.11471424771E+04  0.47000000000E+01 0. -1.
         -5   -1    0    0    0  501 -0.00000000000E+00 -0.00000000000E+00 -0.18751976107E+02  0.19332009930E+02  0.47000000000E+01 0. -1.
         25    2    1    2    0    0 -0.92562078626E+01 -0.65152852966E+02  0.39226406875E+03  0.41692483129E+03  0.12499857469E+03 0.  0.
         25    2    1    2    0    0  0.92562078626E+01  0.65152852966E+02  0.73611680390E+03  0.74954965571E+03  0.12500466298E+03 0.  0.
          5    1    4    4  502    0 -0.23928231746E+02  0.46805390734E+02  0.67766747058E+03  0.67971949770E+03  0.47000000000E+01 0. -1.
         -5    1    4    4    0  502  0.33184439609E+02  0.18347462232E+02  0.58449333320E+02  0.69830158012E+02  0.47000000000E+01 0. -1.
          5    1    3    3  503    0 -0.20088583577E+02 -0.12970691173E+02  0.36455752327E+01  0.24640824629E+02  0.47000000000E+01 0.  1.
         -5    1    3    3    0  503  0.10832375714E+02 -0.52182161793E+02  0.38861849352E+03  0.39228400666E+03  0.47000000000E+01 0.  1.
<mgrwt>
<rscale>  0 0.14126697E+03</rscale>
<asrwt>0</asrwt>
<pdfrwt beam="1">  1        5 0.17652732E+00 0.14126832E+03</pdfrwt>
<pdfrwt beam="2">  1       -5 0.29302782E-02 0.14126832E+03</pdfrwt>
<totfact> 0.80834905E+01</totfact>
</mgrwt>
</event>
<event>
 8    1  0.3759079E-007  0.1280202E+03  0.7546771E-02  0.1230425E+00
          5   -1    0    0  501    0  0.00000000000E+00  0.00000000000E+00  0.30056057046E+02  0.30421317610E+02  0.47000000000E+01 0.  1.
         -5   -1    0    0    0  501 -0.00000000000E+00 -0.00000000000E+00 -0.57210025209E+03  0.57211955782E+03  0.47000000000E+01 0.  1.
         25    2    1    2    0    0  0.12303835396E+02 -0.24752911615E+02 -0.34056106084E+03  0.36382828298E+03  0.12500036935E+03 0.  0.
         25    2    1    2    0    0 -0.12303835396E+02  0.24752911615E+02 -0.20148313420E+03  0.23871259245E+03  0.12499662966E+03 0.  0.
          5    1    3    3  502    0  0.15892986368E+02  0.17929094110E+02 -0.42681283532E+01  0.24786011195E+02  0.47000000000E+01 0. -1.
         -5    1    3    3    0  502 -0.35891509722E+01 -0.42682005725E+02 -0.33629293248E+03  0.33904227178E+03  0.47000000000E+01 0. -1.
          5    1    4    4  503    0  0.43771193643E+02  0.49759627104E+02 -0.10492173305E+03  0.12418775281E+03  0.47000000000E+01 0.  1.
         -5    1    4    4    0  503 -0.56075029038E+02 -0.25006715490E+02 -0.96561401159E+02  0.11452483964E+03  0.47000000000E+01 0.  1.
<mgrwt>
<rscale>  0 0.12801933E+03</rscale>
<asrwt>0</asrwt>
<pdfrwt beam="1">  1        5 0.46535912E-02 0.12802025E+03</pdfrwt>
<pdfrwt beam="2">  1       -5 0.88044997E-01 0.12802025E+03</pdfrwt>
<totfact> 0.22350640E+02</totfact>
</mgrwt>
</event>
<event>
 8    1  0.3759079E-007  0.1465551E+03  0.7546771E-02  0.1204772E+00
          5   -1    0    0  501    0  0.00000000000E+00  0.00000000000E+00  0.33273639497E+03  0.33276958776E+03  0.47000000000E+01 0.  1.
         -5   -1    0    0    0  501 -0.00000000000E+00 -0.00000000000E+00 -0.64427805091E+02  0.64599009813E+02  0.47000000000E+01 0.  1.
         25    2    1    2    0    0  0.74928630243E+02 -0.15461922410E+02  0.13460343463E+03  0.19898865986E+03  0.12500012586E+03 0.  0.
         25    2    1    2    0    0 -0.74928630243E+02  0.15461922410E+02  0.13370515524E+03  0.19837993771E+03  0.12499664184E+03 0.  0.
          5    1    3    3  502    0  0.13922648809E+02  0.37984059016E+02 -0.11935040775E+01  0.40744856622E+02  0.47000000000E+01 0.  1.
         -5    1    3    3    0  502  0.61005981434E+02 -0.53445981426E+02  0.13579693871E+03  0.15824380324E+03  0.47000000000E+01 0.  1.
          5    1    4    4  503    0 -0.49996737504E+02 -0.50200472608E+02  0.93192620888E+02  0.11716106776E+03  0.47000000000E+01 0.  1.
         -5    1    4    4    0  503 -0.24931892739E+02  0.65662395018E+02  0.40512534355E+02  0.81218869943E+02  0.47000000000E+01 0.  1.
<mgrwt>
<rscale>  0 0.14655437E+03</rscale>
<asrwt>0</asrwt>
<pdfrwt beam="1">  1        5 0.51205938E-01 0.14655512E+03</pdfrwt>
<pdfrwt beam="2">  1       -5 0.99276928E-02 0.14655512E+03</pdfrwt>
<totfact> 0.21768045E+02</totfact>
</mgrwt>
</event>
<event>
 8    1  0.3759079E-007  0.1290104E+03  0.7546771E-02  0.1228936E+00
         -5   -1    0    0    0  501 -0.00000000000E+00  0.00000000000E+00  0.89957187238E+02  0.90079884191E+02  0.47000000000E+01 0.  1.
          5   -1    0    0  501    0  0.00000000000E+00 -0.00000000000E+00 -0.18744874372E+03  0.18750765723E+03  0.47000000000E+01 0.  1.
         25    2    1    2    0    0  0.23095746538E+02 -0.22063492925E+02 -0.32011290811E+02  0.13291080943E+03  0.12498139580E+03 0.  0.
         25    2    1    2    0    0 -0.23095746538E+02  0.22063492925E+02 -0.65480265667E+02  0.14467673200E+03  0.12499392130E+03 0.  0.
          5    1    4    4  502    0 -0.15723550890E+02  0.13622546208E+02  0.36338507734E+02  0.42135269812E+02  0.47000000000E+01 0. -1.
         -5    1    4    4    0  502 -0.73721956481E+01  0.84409467167E+01 -0.10181877340E+03  0.10254146218E+03  0.47000000000E+01 0. -1.
          5    1    3    3  503    0  0.54733302080E+02  0.33890529639E+02 -0.16107060544E+02  0.66526910008E+02  0.47000000000E+01 0.  1.
         -5    1    3    3    0  503 -0.31637555541E+02 -0.55954022564E+02 -0.15904230266E+02  0.66383899419E+02  0.47000000000E+01 0.  1.
<mgrwt>
<rscale>  0 0.12900740E+03</rscale>
<asrwt>0</asrwt>
<pdfrwt beam="2">  1        5 0.28852238E-01 0.12901043E+03</pdfrwt>
<pdfrwt beam="1">  1       -5 0.13853537E-01 0.12901043E+03</pdfrwt>
<totfact> 0.37129279E+02</totfact>
</mgrwt>
</event>
<event>
 8    1  0.3759079E-007  0.1666588E+03  0.7546771E-02  0.1181379E+00
         -5   -1    0    0    0  501 -0.00000000000E+00  0.00000000000E+00  0.24903442495E+03  0.24907877230E+03  0.47000000000E+01 0. -1.
          5   -1    0    0  501    0  0.00000000000E+00 -0.00000000000E+00 -0.15218127950E+03  0.15225384011E+03  0.47000000000E+01 0. -1.
         25    2    1    2    0    0 -0.43812013242E+02 -0.10114013189E+03  0.15222764529E+03  0.22571514281E+03  0.12500100368E+03 0.  0.
         25    2    1    2    0    0  0.43812013242E+02  0.10114013189E+03 -0.55374499827E+02  0.17561746961E+03  0.12500536635E+03 0.  0.
          5    1    4    4  502    0 -0.55275742725E+00 -0.18516030077E+02  0.19728753172E+02  0.27467482817E+02  0.47000000000E+01 0. -1.
         -5    1    4    4    0  502  0.44364770669E+02  0.11965616197E+03 -0.75103252999E+02  0.14814998679E+03  0.47000000000E+01 0. -1.
          5    1    3    3  503    0 -0.35021933521E+02 -0.64301172270E+01 -0.10280425632E+02  0.37358524948E+02  0.47000000000E+01 0.  1.
         -5    1    3    3    0  503 -0.87900797212E+01 -0.94710014667E+02  0.16250807092E+03  0.18835661786E+03  0.47000000000E+01 0.  1.
<mgrwt>
<rscale>  0 0.16665800E+03</rscale>
<asrwt>0</asrwt>
<pdfrwt beam="2">  1        5 0.23421498E-01 0.16665881E+03</pdfrwt>
<pdfrwt beam="1">  1       -5 0.38321981E-01 0.16665881E+03</pdfrwt>
<totfact> 0.86912032E+01</totfact>
</mgrwt>
</event>
<event>
 8    1  0.3759079E-007  0.1262177E+03  0.7546771E-02  0.1233180E+00
          5   -1    0    0  501    0  0.00000000000E+00  0.00000000000E+00  0.55333022723E+03  0.55335018783E+03  0.47000000000E+01 0. -1.
         -5   -1    0    0    0  501 -0.00000000000E+00 -0.00000000000E+00 -0.29085006273E+02  0.29462307953E+02  0.47000000000E+01 0. -1.
         25    2    1    2    0    0 -0.66602029105E+01 -0.16178818882E+02  0.22390718878E+03  0.25703179645E+03  0.12499921087E+03 0.  0.
         25    2    1    2    0    0  0.66602029105E+01  0.16178818882E+02  0.30033803218E+03  0.32578069933E+03  0.12499607192E+03 0.  0.
          5    1    3    3  502    0  0.51763719117E+02 -0.35757821680E+02  0.13171298459E+03  0.14604281816E+03  0.47000000000E+01 0. -1.
         -5    1    3    3    0  502 -0.58423922028E+02  0.19579002799E+02  0.92194204188E+02  0.11098897829E+03  0.47000000000E+01 0. -1.
          5    1    4    4  503    0 -0.27239284338E+01 -0.36591026046E+02  0.24791932620E+03  0.25066392895E+03  0.47000000000E+01 0.  1.
         -5    1    4    4    0  503  0.93841313443E+01  0.52769844927E+02  0.52418705978E+02  0.75116770373E+02  0.47000000000E+01 0.  1.
<mgrwt>
<rscale>  0 0.12621695E+03</rscale>
<asrwt>0</asrwt>
<pdfrwt beam="1">  1        5 0.85158279E-01 0.12621773E+03</pdfrwt>
<pdfrwt beam="2">  1       -5 0.45051753E-02 0.12621773E+03</pdfrwt>
<totfact> 0.25369368E+02</totfact>
</mgrwt>
</event>
<event>
 8    1  0.3759079E-007  0.1302210E+03  0.7546771E-02  0.1227139E+00
         -5   -1    0    0    0  501 -0.00000000000E+00  0.00000000000E+00  0.95244474644E+02  0.95360368866E+02  0.47000000000E+01 0. -1.
          5   -1    0    0  501    0  0.00000000000E+00 -0.00000000000E+00 -0.19093127548E+03  0.19098911476E+03  0.47000000000E+01 0. -1.
         25    2    1    2    0    0  0.35763857650E+02  0.68335734064E+01 -0.10241007770E+02  0.13062309883E+03  0.12502705495E+03 0.  0.
         25    2    1    2    0    0 -0.35763857650E+02 -0.68335734064E+01 -0.85445793063E+02  0.15572638479E+03  0.12499588845E+03 0.  0.
          5    1    3    3  502    0  0.47922422162E+02 -0.46116017826E+02 -0.29341581231E+02  0.72844107759E+02  0.47000000000E+01 0. -1.
         -5    1    3    3    0  502 -0.12158564513E+02  0.52949591232E+02  0.19100573461E+02  0.57778991071E+02  0.47000000000E+01 0. -1.
          5    1    4    4  503    0 -0.24670709923E+02  0.18588674921E+02 -0.11246234852E+03  0.11672211701E+03  0.47000000000E+01 0.  1.
         -5    1    4    4    0  503 -0.11093147727E+02 -0.25422248327E+02  0.27016555460E+02  0.39004267785E+02  0.47000000000E+01 0.  1.
<mgrwt>
<rscale>  0 0.13021354E+03</rscale>
<asrwt>0</asrwt>
<pdfrwt beam="2">  1        5 0.29387406E-01 0.13022103E+03</pdfrwt>
<pdfrwt beam="1">  1       -5 0.14666360E-01 0.13022103E+03</pdfrwt>
<totfact> 0.32438879E+02</totfact>
</mgrwt>
</event>
<event>
 8    1  0.3759079E-007  0.1404928E+03  0.7546771E-02  0.1212668E+00
         -5   -1    0    0    0  501 -0.00000000000E+00  0.00000000000E+00  0.74554611238E+03  0.74556092687E+03  0.47000000000E+01 0.  1.
          5   -1    0    0  501    0  0.00000000000E+00 -0.00000000000E+00 -0.28916039502E+02  0.29295517413E+02  0.47000000000E+01 0.  1.
         25    2    1    2    0    0 -0.81676058927E+01 -0.63606803876E+02  0.47511022852E+03  0.49544723382E+03  0.12500278785E+03 0.  0.
         25    2    1    2    0    0  0.81676058927E+01  0.63606803876E+02  0.24151984436E+03  0.27940921047E+03  0.12500054556E+03 0.  0.
          5    1    3    3  502    0 -0.57066435764E+02 -0.49694945489E+02  0.17062866319E+03  0.18671474607E+03  0.47000000000E+01 0. -1.
         -5    1    3    3    0  502  0.48898829871E+02 -0.13911858386E+02  0.30448156533E+03  0.30873248775E+03  0.47000000000E+01 0. -1.
          5    1    4    4  503    0 -0.46871547350E+02  0.50539172538E+02  0.68398525724E+02  0.97219330552E+02  0.47000000000E+01 0.  1.
         -5    1    4    4    0  503  0.55039153242E+02  0.13067631338E+02  0.17312131863E+03  0.18218987992E+03  0.47000000000E+01 0.  1.
<mgrwt>
<rscale>  0 0.14049232E+03</rscale>
<asrwt>0</asrwt>
<pdfrwt beam="2">  1        5 0.44789511E-02 0.14049282E+03</pdfrwt>
<pdfrwt beam="1">  1       -5 0.11472975E+00 0.14049282E+03</pdfrwt>
<totfact> 0.12891285E+02</totfact>
</mgrwt>
</event>
<event>
 8    1  0.3759079E-007  0.1401129E+03  0.7546771E-02  0.1213178E+00
          5   -1    0    0  501    0  0.00000000000E+00  0.00000000000E+00  0.18198456690E+03  0.18204524874E+03  0.47000000000E+01 0.  1.
         -5   -1    0    0    0  501 -0.00000000000E+00 -0.00000000000E+00 -0.12685172427E+03  0.12693876457E+03  0.47000000000E+01 0.  1.
         25    2    1    2    0    0 -0.22007025224E+02 -0.59342125639E+02 -0.32358891492E+02  0.14379801075E+03  0.12499989201E+03 0.  0.
         25    2    1    2    0    0  0.22007025224E+02  0.59342125639E+02  0.87491734120E+02  0.16518600256E+03  0.12500325943E+03 0.  0.
          5    1    3    3  502    0 -0.29602859558E+02 -0.90392761042E+02 -0.49385551354E+02  0.10727629386E+03  0.47000000000E+01 0.  1.
         -5    1    3    3    0  502  0.75958343338E+01  0.31050635404E+02  0.17026659862E+02  0.36521716885E+02  0.47000000000E+01 0.  1.
          5    1    4    4  503    0  0.22792636408E+02  0.97635883006E+02  0.72365714432E+02  0.12373825823E+03  0.47000000000E+01 0.  1.
         -5    1    4    4    0  503 -0.78561118445E+00 -0.38293757367E+02  0.15126019688E+02  0.41447744327E+02  0.47000000000E+01 0.  1.
<mgrwt>
<rscale>  0 0.14011210E+03</rscale>
<asrwt>0</asrwt>
<pdfrwt beam="1">  1        5 0.28008989E-01 0.14011285E+03</pdfrwt>
<pdfrwt beam="2">  1       -5 0.19527013E-01 0.14011285E+03</pdfrwt>
<totfact> 0.21625973E+02</totfact>
</mgrwt>
</event>
<event>
 8    1  0.3759079E-007  0.1629520E+03  0.7546771E-02  0.1185407E+00
          5   -1    0    0  501    0  0.00000000000E+00  0.00000000000E+00  0.34374323481E+02  0.34694151017E+02  0.47000000000E+01 0.  1.
         -5   -1    0    0    0  501 -0.00000000000E+00 -0.00000000000E+00 -0.79260968152E+03  0.79262361638E+03  0.47000000000E+01 0.  1.
         25    2    1    2    0    0  0.70804829350E+02 -0.76908499003E+02 -0.45122812699E+03  0.47975010275E+03  0.12500038968E+03 0.  0.
         25    2    1    2    0    0 -0.70804829350E+02  0.76908499003E+02 -0.30700723105E+03  0.34756766465E+03  0.12498640132E+03 0.  0.
          5    1    4    4  502    0 -0.69281880891E+02  0.50070766805E+02 -0.74568146276E+02  0.11353219432E+03  0.47000000000E+01 0. -1.
         -5    1    4    4    0  502 -0.15229484598E+01  0.26837732198E+02 -0.23243908477E+03  0.23403547033E+03  0.47000000000E+01 0. -1.
          5    1    3    3  503    0  0.19106344291E+02 -0.86647429576E+02 -0.15340231925E+03  0.17727715870E+03  0.47000000000E+01 0. -1.
         -5    1    3    3    0  503  0.51698485059E+02  0.97389305731E+01 -0.29782580774E+03  0.30247294405E+03  0.47000000000E+01 0. -1.
<mgrwt>
<rscale>  0 0.16294927E+03</rscale>
<asrwt>0</asrwt>
<pdfrwt beam="1">  1        5 0.53140321E-02 0.16295195E+03</pdfrwt>
<pdfrwt beam="2">  1       -5 0.12196561E+00 0.16295195E+03</pdfrwt>
<totfact> 0.86946649E+01</totfact>
</mgrwt>
</event>
<event>
 8    1  0.3759079E-007  0.2217872E+03  0.7546771E-02  0.1132558E+00
         -5   -1    0    0    0  501 -0.00000000000E+00  0.00000000000E+00  0.75053689675E+03  0.75055161274E+03  0.47000000000E+01 0. -1.
          5   -1    0    0  501    0  0.00000000000E+00 -0.00000000000E+00 -0.67085188413E+02  0.67249628285E+02  0.47000000000E+01 0. -1.
         25    2    1    2    0    0 -0.16650650556E+02  0.18245201499E+03  0.40568794277E+03  0.46235466808E+03  0.12499260077E+03 0.  0.
         25    2    1    2    0    0  0.16650650556E+02 -0.18245201499E+03  0.27776376557E+03  0.35544657295E+03  0.12499429914E+03 0.  0.
          5    1    3    3  502    0  0.17901730608E+02 -0.85225809751E+01  0.85645513273E+02  0.88036073794E+02  0.47000000000E+01 0.  1.
         -5    1    3    3    0  502 -0.34552381164E+02  0.19097459597E+03  0.32004242950E+03  0.37431859428E+03  0.47000000000E+01 0.  1.
          5    1    4    4  503    0  0.59003847919E+02 -0.36862704576E+02  0.97027052015E+02  0.11948494416E+03  0.47000000000E+01 0. -1.
         -5    1    4    4    0  503 -0.42353197363E+02 -0.14558931042E+03  0.18073671356E+03  0.23596162879E+03  0.47000000000E+01 0. -1.
<mgrwt>
<rscale>  0 0.22178695E+03</rscale>
<asrwt>0</asrwt>
<pdfrwt beam="2">  1        5 0.10334579E-01 0.22178719E+03</pdfrwt>
<pdfrwt beam="1">  1       -5 0.11548100E+00 0.22178719E+03</pdfrwt>
<totfact> 0.34638559E+01</totfact>
</mgrwt>
</event>
<event>
 8    1  0.3759079E-007  0.1328885E+03  0.7546771E-02  0.1223232E+00
         -5   -1    0    0    0  501 -0.00000000000E+00  0.00000000000E+00  0.12928809211E+03  0.12937349327E+03  0.47000000000E+01 0.  1.
          5   -1    0    0  501    0  0.00000000000E+00 -0.00000000000E+00 -0.17658085789E+03  0.17664339606E+03  0.47000000000E+01 0.  1.
         25    2    1    2    0    0  0.39573304640E+01  0.44929417391E+02  0.49293573081E+02  0.14173582940E+03  0.12499950391E+03 0.  0.
         25    2    1    2    0    0 -0.39573304640E+01 -0.44929417391E+02 -0.96586338863E+02  0.16428105994E+03  0.12500013115E+03 0.  0.
          5    1    4    4  502    0 -0.62360900847E+02 -0.22297398539E+02 -0.30361168793E+02  0.73006482634E+02  0.47000000000E+01 0. -1.
         -5    1    4    4    0  502  0.58403570383E+02 -0.22632018852E+02 -0.66225170070E+02  0.91274577302E+02  0.47000000000E+01 0. -1.
          5    1    3    3  503    0  0.23886232890E+01  0.18610363403E+02 -0.42190040523E+02  0.46412720956E+02  0.47000000000E+01 0.  1.
         -5    1    3    3    0  503  0.15687071750E+01  0.26319053988E+02  0.91483613604E+02  0.95323108442E+02  0.47000000000E+01 0.  1.
<mgrwt>
<rscale>  0 0.13288832E+03</rscale>
<asrwt>0</asrwt>
<pdfrwt beam="2">  1        5 0.27177666E-01 0.13288847E+03</pdfrwt>
<pdfrwt beam="1">  1       -5 0.19901856E-01 0.13288847E+03</pdfrwt>
<totfact> 0.21738658E+02</totfact>
</mgrwt>
</event>
<event>
 8    1  0.3759079E-007  0.1285387E+03  0.7546771E-02  0.1229652E+00
         -5   -1    0    0    0  501 -0.00000000000E+00  0.00000000000E+00  0.52090739089E+03  0.52092859384E+03  0.47000000000E+01 0. -1.
          5   -1    0    0  501    0  0.00000000000E+00 -0.00000000000E+00 -0.33216230725E+02  0.33547100971E+02  0.47000000000E+01 0. -1.
         25    2    1    2    0    0 -0.17732832627E+02  0.24121750405E+02  0.30623263222E+03  0.33210347362E+03  0.12497191667E+03 0.  0.
         25    2    1    2    0    0  0.17732832627E+02 -0.24121750405E+02  0.18145852794E+03  0.22237222119E+03  0.12500358075E+03 0.  0.
          5    1    4    4  502    0  0.18882291612E+01 -0.60048983317E+02  0.32936988709E+02  0.68675913041E+02  0.47000000000E+01 0. -1.
         -5    1    4    4    0  502  0.15844603466E+02  0.35927232912E+02  0.14852153923E+03  0.15369630815E+03  0.47000000000E+01 0. -1.
          5    1    3    3  503    0 -0.24833298503E+02 -0.13989986630E+02  0.62070278258E+01  0.29547074896E+02  0.47000000000E+01 0. -1.
         -5    1    3    3    0  503  0.71004658765E+01  0.38111737035E+02  0.30002560439E+03  0.30255639872E+03  0.47000000000E+01 0. -1.
<mgrwt>
<rscale>  0 0.12853104E+03</rscale>
<asrwt>0</asrwt>
<pdfrwt beam="2">  1        5 0.51372724E-02 0.12853874E+03</pdfrwt>
<pdfrwt beam="1">  1       -5 0.80166673E-01 0.12853874E+03</pdfrwt>
<totfact> 0.23646088E+02</totfact>
</mgrwt>
</event>
<event>
 8    1  0.3759079E-007  0.1409629E+03  0.7546771E-02  0.1212044E+00
          5   -1    0    0  501    0  0.00000000000E+00  0.00000000000E+00  0.16606009308E+03  0.16612659184E+03  0.47000000000E+01 0. -1.
         -5   -1    0    0    0  501 -0.00000000000E+00 -0.00000000000E+00 -0.13728477200E+03  0.13736520164E+03  0.47000000000E+01 0. -1.
         25    2    1    2    0    0  0.58996929826E+02  0.27588051052E+02 -0.40182765207E+02  0.14657832758E+03  0.12501525189E+03 0.  0.
         25    2    1    2    0    0 -0.58996929826E+02 -0.27588051052E+02  0.68958086292E+02  0.15691346590E+03  0.12499951931E+03 0.  0.
          5    1    4    4  502    0 -0.57342573765E+02  0.24229847084E+02  0.82180474669E+02  0.10320356909E+03  0.47000000000E+01 0.  1.
         -5    1    4    4    0  502 -0.16543560610E+01 -0.51817898137E+02 -0.13222388378E+02  0.53709896813E+02  0.47000000000E+01 0.  1.
          5    1    3    3  503    0  0.28403003095E+02  0.60235925727E+02  0.21583873456E+02  0.70164456289E+02  0.47000000000E+01 0. -1.
         -5    1    3    3    0  503  0.30593926731E+02 -0.32647874674E+02 -0.61766638662E+02  0.76413871288E+02  0.47000000000E+01 0. -1.
<mgrwt>
<rscale>  0 0.14095946E+03</rscale>
<asrwt>0</asrwt>
<pdfrwt beam="1">  1        5 0.25559009E-01 0.14096294E+03</pdfrwt>
<pdfrwt beam="2">  1       -5 0.21132036E-01 0.14096294E+03</pdfrwt>
<totfact> 0.22312629E+02</totfact>
</mgrwt>
</event>
<event>
 8    1  0.3759079E-007  0.1337444E+03  0.7546771E-02  0.1222004E+00
          5   -1    0    0  501    0  0.00000000000E+00  0.00000000000E+00  0.69283613925E+03  0.69285208078E+03  0.47000000000E+01 0.  1.
         -5   -1    0    0    0  501 -0.00000000000E+00 -0.00000000000E+00 -0.24986530381E+03  0.24990950372E+03  0.47000000000E+01 0. -1.
         25    2    1    2    0    0 -0.39911617974E+02  0.25877505013E+02 -0.22488306549E+03  0.26164750594E+03  0.12499776680E+03 0.  0.
         25    2    1    2    0    0  0.39911617974E+02 -0.25877505013E+02  0.66785390093E+03  0.68111407856E+03  0.12499989005E+03 0.  0.
          5    1    3    3  502    0  0.58531572612E+01  0.50893821557E+02 -0.29359631076E+02  0.59232748201E+02  0.47000000000E+01 0. -1.
         -5    1    3    3    0  502 -0.45764775236E+02 -0.25016316544E+02 -0.19552343441E+03  0.20241475774E+03  0.47000000000E+01 0. -1.
          5    1    4    4  503    0  0.24290909017E+02  0.46277021989E+02  0.39265505234E+03  0.39614604776E+03  0.47000000000E+01 0. -1.
         -5    1    4    4    0  503  0.15620708957E+02 -0.72154527002E+02  0.27519884858E+03  0.28496803080E+03  0.47000000000E+01 0. -1.
<mgrwt>
<rscale>  0 0.13374387E+03</rscale>
<asrwt>0</asrwt>
<pdfrwt beam="1">  1        5 0.10659480E+00 0.13374436E+03</pdfrwt>
<pdfrwt beam="2">  1       -5 0.38445443E-01 0.13374436E+03</pdfrwt>
<totfact> 0.31519078E+00</totfact>
</mgrwt>
</event>
<event>
 8    1  0.3759079E-007  0.1304138E+03  0.7546771E-02  0.1226848E+00
         -5   -1    0    0    0  501 -0.00000000000E+00  0.00000000000E+00  0.74983250322E+02  0.75130405488E+02  0.47000000000E+01 0. -1.
          5   -1    0    0  501    0  0.00000000000E+00 -0.00000000000E+00 -0.23241797966E+03  0.23246549695E+03  0.47000000000E+01 0. -1.
         25    2    1    2    0    0 -0.28364376234E+02  0.23992055976E+02 -0.53990538810E+02  0.14114788996E+03  0.12501036745E+03 0.  0.
         25    2    1    2    0    0  0.28364376234E+02 -0.23992055976E+02 -0.10344419053E+03  0.16644801248E+03  0.12499633480E+03 0.  0.
          5    1    4    4  502    0  0.55284018197E+02 -0.11639949503E+02  0.20958907911E+01  0.56730008379E+02  0.47000000000E+01 0. -1.
         -5    1    4    4    0  502 -0.26919641963E+02 -0.12352106473E+02 -0.10554008132E+03  0.10971800410E+03  0.47000000000E+01 0. -1.
          5    1    3    3  503    0 -0.75262519314E+02  0.23752772579E+02 -0.50653441407E+02  0.93896230728E+02  0.47000000000E+01 0.  1.
         -5    1    3    3    0  503  0.46898143079E+02  0.23928339736E+00 -0.33370974029E+01  0.47251659229E+02  0.47000000000E+01 0.  1.
<mgrwt>
<rscale>  0 0.13041040E+03</rscale>
<asrwt>0</asrwt>
<pdfrwt beam="2">  1        5 0.35771587E-01 0.13041376E+03</pdfrwt>
<pdfrwt beam="1">  1       -5 0.11550860E-01 0.13041376E+03</pdfrwt>
<totfact> 0.33663961E+02</totfact>
</mgrwt>
</event>
<event>
 8    1  0.3759079E-007  0.1288329E+03  0.7546771E-02  0.1229203E+00
          5   -1    0    0  501    0  0.00000000000E+00  0.00000000000E+00  0.11917907012E+04  0.11917999687E+04  0.47000000000E+01 0.  1.
         -5   -1    0    0    0  501 -0.00000000000E+00 -0.00000000000E+00 -0.14442590235E+02  0.15188101024E+02  0.47000000000E+01 0.  1.
         25    2    1    2    0    0 -0.17373684179E+02  0.25861777205E+02  0.44002176640E+03  0.45849087807E+03  0.12499621572E+03 0.  0.
         25    2    1    2    0    0  0.17373684179E+02 -0.25861777205E+02  0.73732634456E+03  0.74849719168E+03  0.12500892428E+03 0.  0.
          5    1    4    4  502    0  0.16236289148E+02  0.19143120145E+02  0.64662188560E+03  0.64712597620E+03  0.47000000000E+01 0.  1.
         -5    1    4    4    0  502  0.11373950309E+01 -0.45004897350E+02  0.90704458961E+02  0.10137121548E+03  0.47000000000E+01 0.  1.
          5    1    3    3  503    0  0.45223222590E+02 -0.12378009217E+02  0.99063319459E+02  0.10969952705E+03  0.47000000000E+01 0. -1.
         -5    1    3    3    0  503 -0.62596906769E+02  0.38239786422E+02  0.34095844694E+03  0.34879135101E+03  0.47000000000E+01 0. -1.
<mgrwt>
<rscale>  0 0.12882978E+03</rscale>
<asrwt>0</asrwt>
<pdfrwt beam="1">  1        5 0.18341053E+00 0.12883287E+03</pdfrwt>
<pdfrwt beam="2">  1       -5 0.22799962E-02 0.12883287E+03</pdfrwt>
<totfact> 0.10499093E+02</totfact>
</mgrwt>
</event>
<event>
 8    1  0.3759079E-007  0.1925182E+03  0.7546771E-02  0.1156210E+00
          5   -1    0    0  501    0  0.00000000000E+00  0.00000000000E+00  0.55547395431E+03  0.55549383788E+03  0.47000000000E+01 0. -1.
         -5   -1    0    0    0  501 -0.00000000000E+00 -0.00000000000E+00 -0.72125670757E+02  0.72278644026E+02  0.47000000000E+01 0. -1.
         25    2    1    2    0    0 -0.17804712639E+02 -0.14532779803E+03  0.15504622309E+03  0.24718677166E+03  0.12499916846E+03 0.  0.
         25    2    1    2    0    0  0.17804712639E+02  0.14532779803E+03  0.32830206047E+03  0.38058571025E+03  0.12500425298E+03 0.  0.
          5    1    3    3  502    0 -0.60882638992E+02 -0.10251216060E+03  0.58160337275E+02  0.13274092674E+03  0.47000000000E+01 0. -1.
         -5    1    3    3    0  502  0.43077926352E+02 -0.42815637438E+02  0.96885885815E+02  0.11444584491E+03  0.47000000000E+01 0. -1.
          5    1    4    4  503    0  0.45674867132E+02  0.15310345434E+03  0.29953470024E+03  0.33951434118E+03  0.47000000000E+01 0.  1.
         -5    1    4    4    0  503 -0.27870154493E+02 -0.77756563095E+01  0.28767360225E+02  0.41071369064E+02  0.47000000000E+01 0.  1.
<mgrwt>
<rscale>  0 0.19251733E+03</rscale>
<asrwt>0</asrwt>
<pdfrwt beam="1">  1        5 0.85470834E-01 0.19251815E+03</pdfrwt>
<pdfrwt beam="2">  1       -5 0.11109553E-01 0.19251815E+03</pdfrwt>
<totfact> 0.61531476E+01</totfact>
</mgrwt>
</event>
<event>
 8    1  0.3759079E-007  0.1485453E+03  0.7546771E-02  0.1202273E+00
         -5   -1    0    0    0  501 -0.00000000000E+00  0.00000000000E+00  0.36252358274E+02  0.36555758513E+02  0.47000000000E+01 0. -1.
          5   -1    0    0  501    0  0.00000000000E+00 -0.00000000000E+00 -0.12305711238E+04  0.12305800993E+04  0.47000000000E+01 0. -1.
         25    2    1    2    0    0 -0.74774407632E+02 -0.29157081134E+02 -0.14578377515E+03  0.20813126456E+03  0.12499746708E+03 0.  0.
         25    2    1    2    0    0  0.74774407632E+02  0.29157081134E+02 -0.10485349904E+04  0.10590045932E+04  0.12499501992E+03 0.  0.
          5    1    4    4  502    0  0.25093643351E+02 -0.17475140025E+02 -0.81750771499E+03  0.81809291986E+03  0.47000000000E+01 0. -1.
         -5    1    4    4    0  502  0.49680764280E+02  0.46632221159E+02 -0.23102727537E+03  0.24091167334E+03  0.47000000000E+01 0. -1.
          5    1    3    3  503    0 -0.63134897873E+02  0.38068321314E+02 -0.10539883737E+03  0.12870981833E+03  0.47000000000E+01 0.  1.
         -5    1    3    3    0  503 -0.11639509759E+02 -0.67225402448E+02 -0.40384937781E+02  0.79421446230E+02  0.47000000000E+01 0.  1.
<mgrwt>
<rscale>  0 0.14854481E+03</rscale>
<asrwt>0</asrwt>
<pdfrwt beam="2">  1        5 0.18934263E+00 0.14854533E+03</pdfrwt>
<pdfrwt beam="1">  1       -5 0.56013157E-02 0.14854533E+03</pdfrwt>
<totfact> 0.22958584E+01</totfact>
</mgrwt>
</event>
<event>
 8    1  0.3759079E-007  0.1275515E+03  0.7546771E-02  0.1231139E+00
         -5   -1    0    0    0  501 -0.00000000000E+00  0.00000000000E+00  0.66377949216E+02  0.66544136798E+02  0.47000000000E+01 0. -1.
          5   -1    0    0  501    0  0.00000000000E+00 -0.00000000000E+00 -0.28019795372E+03  0.28023736951E+03  0.47000000000E+01 0. -1.
         25    2    1    2    0    0 -0.22139254360E+02  0.12376629629E+02 -0.45123840773E+02  0.13529796928E+03  0.12500420769E+03 0.  0.
         25    2    1    2    0    0  0.22139254360E+02 -0.12376629629E+02 -0.16869616373E+03  0.21148353703E+03  0.12499425280E+03 0.  0.
          5    1    3    3  502    0  0.12711878051E+02  0.63799229104E+02 -0.21585164240E+02  0.68701839809E+02  0.47000000000E+01 0. -1.
         -5    1    3    3    0  502 -0.34851132410E+02 -0.51422599475E+02 -0.23538676533E+02  0.66596129467E+02  0.47000000000E+01 0. -1.
          5    1    4    4  503    0  0.46623488426E+02 -0.24066539157E+01 -0.68425844935E+01  0.47417851266E+02  0.47000000000E+01 0. -1.
         -5    1    4    4    0  503 -0.24484234067E+02 -0.99699757128E+01 -0.16185357924E+03  0.16406568577E+03  0.47000000000E+01 0. -1.
<mgrwt>
<rscale>  0 0.12754904E+03</rscale>
<asrwt>0</asrwt>
<pdfrwt beam="2">  1        5 0.43123193E-01 0.12755148E+03</pdfrwt>
<pdfrwt beam="1">  1       -5 0.10227808E-01 0.12755148E+03</pdfrwt>
<totfact> 0.28250730E+02</totfact>
</mgrwt>
</event>
<event>
 8    1  0.3759079E-007  0.1294059E+03  0.7546771E-02  0.1228340E+00
          5   -1    0    0  501    0  0.00000000000E+00  0.00000000000E+00  0.23032998582E+02  0.23507637561E+02  0.47000000000E+01 0.  1.
         -5   -1    0    0    0  501 -0.00000000000E+00 -0.00000000000E+00 -0.77956769801E+03  0.77958186599E+03  0.47000000000E+01 0.  1.
         25    2    1    2    0    0  0.22196159266E+02 -0.25079073366E+02 -0.49003472345E+03  0.50683322992E+03  0.12499705337E+03 0.  0.
         25    2    1    2    0    0 -0.22196159266E+02  0.25079073366E+02 -0.26649997597E+03  0.29625627363E+03  0.12499565219E+03 0.  0.
          5    1    3    3  502    0  0.13013181509E+01  0.40124373658E+02 -0.33315843239E+03  0.33560138537E+03  0.47000000000E+01 0. -1.
         -5    1    3    3    0  502  0.20894841115E+02 -0.65203447024E+02 -0.15687629106E+03  0.17123184455E+03  0.47000000000E+01 0. -1.
          5    1    4    4  503    0 -0.72904514292E+02  0.26839779840E+02 -0.14664284228E+03  0.16601703279E+03  0.47000000000E+01 0. -1.
         -5    1    4    4    0  503  0.50708355026E+02 -0.17607064738E+01 -0.11985713369E+03  0.13023924084E+03  0.47000000000E+01 0. -1.
<mgrwt>
<rscale>  0 0.12940558E+03</rscale>
<asrwt>0</asrwt>
<pdfrwt beam="1">  1        5 0.35811394E-02 0.12940592E+03</pdfrwt>
<pdfrwt beam="2">  1       -5 0.11997107E+00 0.12940592E+03</pdfrwt>
<totfact> 0.16177980E+02</totfact>
</mgrwt>
</event>
<event>
 8    1  0.3759079E-007  0.1362683E+03  0.7546771E-02  0.1218441E+00
         -5   -1    0    0    0  501 -0.00000000000E+00  0.00000000000E+00  0.84671283782E+02  0.84801629096E+02  0.47000000000E+01 0.  1.
          5   -1    0    0  501    0  0.00000000000E+00 -0.00000000000E+00 -0.22020374235E+03  0.22025389474E+03  0.47000000000E+01 0.  1.
         25    2    1    2    0    0 -0.46907435864E+00  0.54252822722E+02 -0.56400989830E+02  0.14747921655E+03  0.12500183541E+03 0.  0.
         25    2    1    2    0    0  0.46907435864E+00 -0.54252822722E+02 -0.79131468740E+02  0.15757630728E+03  0.12499965787E+03 0.  0.
          5    1    4    4  502    0 -0.39247868247E+02  0.25077116032E+02 -0.34519470273E+02  0.58163053035E+02  0.47000000000E+01 0. -1.
         -5    1    4    4    0  502  0.39716942605E+02 -0.79329938754E+02 -0.44611998467E+02  0.99413254247E+02  0.47000000000E+01 0. -1.
          5    1    3    3  503    0 -0.44730791084E+02  0.11306284582E+02 -0.70173001428E+02  0.84113113552E+02  0.47000000000E+01 0.  1.
         -5    1    3    3    0  503  0.44261716725E+02  0.42946538140E+02  0.13772011598E+02  0.63366102998E+02  0.47000000000E+01 0.  1.
<mgrwt>
<rscale>  0 0.13626779E+03</rscale>
<asrwt>0</asrwt>
<pdfrwt beam="2">  1        5 0.33891383E-01 0.13626829E+03</pdfrwt>
<pdfrwt beam="1">  1       -5 0.13040236E-01 0.13626829E+03</pdfrwt>
<totfact> 0.30714291E+02</totfact>
</mgrwt>
</event>
<event>
 8    1  0.3759079E-007  0.1336042E+03  0.7546771E-02  0.1222227E+00
          5   -1    0    0  501    0  0.00000000000E+00  0.00000000000E+00  0.25770872869E+03  0.25775158359E+03  0.47000000000E+01 0.  1.
         -5   -1    0    0    0  501 -0.00000000000E+00 -0.00000000000E+00 -0.70619215113E+02  0.70775444493E+02  0.47000000000E+01 0.  1.
         25    2    1    2    0    0  0.42063860744E+02 -0.21354968924E+02  0.69481254881E+02  0.15053324829E+03  0.12492882367E+03 0.  0.
         25    2    1    2    0    0 -0.42063860744E+02  0.21354968924E+02  0.11760825870E+03  0.17799377980E+03  0.12499872021E+03 0.  0.
          5    1    3    3  502    0  0.72409021809E+02  0.65688204762E+01  0.79500500934E+02  0.10783615113E+03  0.47000000000E+01 0.  1.
         -5    1    3    3    0  502 -0.30345161065E+02 -0.27923789400E+02 -0.10019246053E+02  0.42697097161E+02  0.47000000000E+01 0.  1.
          5    1    4    4  503    0 -0.53212932580E+02  0.45582244076E+02  0.13035209223E+03  0.14806456402E+03  0.47000000000E+01 0. -1.
         -5    1    4    4    0  503  0.11149071836E+02 -0.24227275152E+02 -0.12743833530E+02  0.29929215779E+02  0.47000000000E+01 0. -1.
<mgrwt>
<rscale>  0 0.13358785E+03</rscale>
<asrwt>0</asrwt>
<pdfrwt beam="1">  1        5 0.39662811E-01 0.13360420E+03</pdfrwt>
<pdfrwt beam="2">  1       -5 0.10879809E-01 0.13360420E+03</pdfrwt>
<totfact> 0.30611644E+02</totfact>
</mgrwt>
</event>
<event>
 8    1  0.3759079E-007  0.1325296E+03  0.7546771E-02  0.1223750E+00
          5   -1    0    0  501    0  0.00000000000E+00  0.00000000000E+00  0.41581184637E+02  0.41845966542E+02  0.47000000000E+01 0. -1.
         -5   -1    0    0    0  501 -0.00000000000E+00 -0.00000000000E+00 -0.43309031363E+03  0.43311581564E+03  0.47000000000E+01 0. -1.
         25    2    1    2    0    0 -0.32845438144E+02  0.29293887405E+02 -0.23576962169E+03  0.27046518180E+03  0.12500858135E+03 0.  0.
         25    2    1    2    0    0  0.32845438144E+02 -0.29293887405E+02 -0.15573950731E+03  0.20449660038E+03  0.12500844286E+03 0.  0.
          5    1    3    3  502    0  0.19013505160E+02 -0.25610326870E+02 -0.12259345980E+02  0.34493242595E+02  0.47000000000E+01 0.  1.
         -5    1    3    3    0  502 -0.51858943305E+02  0.54904214275E+02 -0.22351027571E+03  0.23597193921E+03  0.47000000000E+01 0.  1.
          5    1    4    4  503    0 -0.46262493458E+02 -0.23830268600E+02 -0.73266355561E+02  0.89989715300E+02  0.47000000000E+01 0.  1.
         -5    1    4    4    0  503  0.79107931603E+02 -0.54636188044E+01 -0.82473151746E+02  0.11450688508E+03  0.47000000000E+01 0.  1.
<mgrwt>
<rscale>  0 0.13252959E+03</rscale>
<asrwt>0</asrwt>
<pdfrwt beam="1">  1        5 0.64194351E-02 0.13252962E+03</pdfrwt>
<pdfrwt beam="2">  1       -5 0.66651606E-01 0.13252962E+03</pdfrwt>
<totfact> 0.25032177E+02</totfact>
</mgrwt>
</event>
<event>
 8    1  0.3759079E-007  0.1426164E+03  0.7546771E-02  0.1209859E+00
          5   -1    0    0  501    0  0.00000000000E+00  0.00000000000E+00  0.28976749138E+03  0.28980560564E+03  0.47000000000E+01 0.  1.
         -5   -1    0    0    0  501 -0.00000000000E+00 -0.00000000000E+00 -0.10161003447E+03  0.10171867629E+03  0.47000000000E+01 0.  1.
         25    2    1    2    0    0  0.68589378874E+02  0.20725187420E+01 -0.14910015289E+02  0.14339366461E+03  0.12502254303E+03 0.  0.
         25    2    1    2    0    0 -0.68589378874E+02 -0.20725187420E+01  0.20306747220E+03  0.24813061732E+03  0.12499442690E+03 0.  0.
          5    1    3    3  502    0  0.90494501227E+02  0.37686050675E+02  0.17104665091E+01  0.98155534044E+02  0.47000000000E+01 0. -1.
         -5    1    3    3    0  502 -0.21905122353E+02 -0.35613531933E+02 -0.16620481798E+02  0.45238130567E+02  0.47000000000E+01 0. -1.
          5    1    4    4  503    0 -0.75543988018E+02 -0.38814240297E+02  0.19011812126E+03  0.20827969034E+03  0.47000000000E+01 0. -1.
         -5    1    4    4    0  503  0.69546091442E+01  0.36741721555E+02  0.12949350936E+02  0.39850926976E+02  0.47000000000E+01 0. -1.
<mgrwt>
<rscale>  0 0.14261023E+03</rscale>
<asrwt>0</asrwt>
<pdfrwt beam="1">  1        5 0.44590902E-01 0.14261639E+03</pdfrwt>
<pdfrwt beam="2">  1       -5 0.15643602E-01 0.14261639E+03</pdfrwt>
<totfact> 0.12844596E+02</totfact>
</mgrwt>
</event>
<event>
 8    1  0.3759079E-007  0.1339364E+03  0.7546771E-02  0.1221732E+00
          5   -1    0    0  501    0  0.00000000000E+00  0.00000000000E+00  0.90206121540E+03  0.90207345950E+03  0.47000000000E+01 0.  1.
         -5   -1    0    0    0  501 -0.00000000000E+00 -0.00000000000E+00 -0.20309046944E+02  0.20845800243E+02  0.47000000000E+01 0.  1.
         25    2    1    2    0    0  0.47259558849E+02  0.89190850030E+01  0.35552017391E+03  0.37990998163E+03  0.12499593637E+03 0.  0.
         25    2    1    2    0    0 -0.47259558849E+02 -0.89190850030E+01  0.52623199455E+03  0.54300927811E+03  0.12500379212E+03 0.  0.
          5    1    4    4  502    0  0.31488141705E+02  0.26138564478E+02  0.10052247821E+03  0.10863510596E+03  0.47000000000E+01 0.  1.
         -5    1    4    4    0  502 -0.78747700555E+02 -0.35057649482E+02  0.42570951634E+03  0.43437417215E+03  0.47000000000E+01 0.  1.
          5    1    3    3  503    0  0.41193139346E+00  0.30116226235E+02  0.30872311052E+03  0.31022444413E+03  0.47000000000E+01 0. -1.
         -5    1    3    3    0  503  0.46847627456E+02 -0.21197141232E+02  0.46797063390E+02  0.69685537499E+02  0.47000000000E+01 0. -1.
<mgrwt>
<rscale>  0 0.13393458E+03</rscale>
<asrwt>0</asrwt>
<pdfrwt beam="1">  1        5 0.13882089E+00 0.13393642E+03</pdfrwt>
<pdfrwt beam="2">  1       -5 0.31666991E-02 0.13393642E+03</pdfrwt>
<totfact> 0.13678450E+02</totfact>
</mgrwt>
</event>
<event>
 8    1  0.3759079E-007  0.1290027E+03  0.7546771E-02  0.1228944E+00
          5   -1    0    0  501    0  0.00000000000E+00  0.00000000000E+00  0.13551060048E+03  0.13559208252E+03  0.47000000000E+01 0.  1.
         -5   -1    0    0    0  501 -0.00000000000E+00 -0.00000000000E+00 -0.13115042653E+03  0.13123461578E+03  0.47000000000E+01 0.  1.
         25    2    1    2    0    0  0.11175804615E+02 -0.29853384265E+02 -0.31780393197E+02  0.13285717692E+03  0.12499965162E+03 0.  0.
         25    2    1    2    0    0 -0.11175804615E+02  0.29853384265E+02  0.36140567145E+02  0.13396952138E+03  0.12500227559E+03 0.  0.
          5    1    3    3  502    0  0.21108566581E+02  0.38782676712E+02  0.17417155267E+02  0.47698164468E+02  0.47000000000E+01 0. -1.
         -5    1    3    3    0  502 -0.99327619666E+01 -0.68636060976E+02 -0.49197548464E+02  0.85159012450E+02  0.47000000000E+01 0. -1.
          5    1    4    4  503    0  0.28258131475E+02  0.65122017627E+02  0.26787308180E+01  0.71194555783E+02  0.47000000000E+01 0.  1.
         -5    1    4    4    0  503 -0.39433936090E+02 -0.35268633363E+02  0.33461836327E+02  0.62774965593E+02  0.47000000000E+01 0.  1.
<mgrwt>
<rscale>  0 0.12900205E+03</rscale>
<asrwt>0</asrwt>
<pdfrwt beam="1">  1        5 0.20860529E-01 0.12900268E+03</pdfrwt>
<pdfrwt beam="2">  1       -5 0.20189733E-01 0.12900268E+03</pdfrwt>
<totfact> 0.34642286E+02</totfact>
</mgrwt>
</event>
<event>
 8    1  0.3759079E-007  0.1283100E+03  0.7546771E-02  0.1229986E+00
          5   -1    0    0  501    0  0.00000000000E+00  0.00000000000E+00  0.39143802874E+03  0.39146624419E+03  0.47000000000E+01 0. -1.
         -5   -1    0    0    0  501 -0.00000000000E+00 -0.00000000000E+00 -0.48872128242E+02  0.49097606041E+02  0.47000000000E+01 0. -1.
         25    2    1    2    0    0 -0.56314684997E+01 -0.28402403802E+02  0.88295611677E+02  0.15575369532E+03  0.12499875434E+03 0.  0.
         25    2    1    2    0    0  0.56314684997E+01  0.28402403802E+02  0.25427028882E+03  0.28481015491E+03  0.12500013834E+03 0.  0.
          5    1    4    4  502    0 -0.22236435960E+02 -0.12735146028E+02  0.37440271529E+00  0.26055195373E+02  0.47000000000E+01 0.  1.
         -5    1    4    4    0  502  0.27867904459E+02  0.41137549830E+02  0.25389588610E+03  0.25875495954E+03  0.47000000000E+01 0.  1.
          5    1    3    3  503    0  0.58124496684E+01 -0.77040572744E+02  0.61506974190E+02  0.98864717133E+02  0.47000000000E+01 0.  1.
         -5    1    3    3    0  503 -0.11443918168E+02  0.48638168942E+02  0.26788637488E+02  0.56888978190E+02  0.47000000000E+01 0.  1.
<mgrwt>
<rscale>  0 0.12830962E+03</rscale>
<asrwt>0</asrwt>
<pdfrwt beam="1">  1        5 0.60240751E-01 0.12830996E+03</pdfrwt>
<pdfrwt beam="2">  1       -5 0.75383037E-02 0.12830996E+03</pdfrwt>
<totfact> 0.23556619E+02</totfact>
</mgrwt>
</event>
<event>
 8    1  0.3759079E-007  0.1462418E+03  0.7546771E-02  0.1205169E+00
          5   -1    0    0  501    0  0.00000000000E+00  0.00000000000E+00  0.40621198988E+03  0.40623917920E+03  0.47000000000E+01 0.  1.
         -5   -1    0    0    0  501 -0.00000000000E+00 -0.00000000000E+00 -0.58613834937E+02  0.58801969746E+02  0.47000000000E+01 0.  1.
         25    2    1    2    0    0 -0.22666555993E+02  0.72427316792E+02  0.98937736856E+02  0.17656542937E+03  0.12500874408E+03 0.  0.
         25    2    1    2    0    0  0.22666555993E+02 -0.72427316792E+02  0.24866041808E+03  0.28847571958E+03  0.12500699295E+03 0.  0.
          5    1    4    4  502    0 -0.20127251416E+02 -0.82557522754E+02  0.21970715669E+03  0.23561446372E+03  0.47000000000E+01 0. -1.
         -5    1    4    4    0  502  0.42793807409E+02  0.10130205962E+02  0.28953261393E+02  0.52861255856E+02  0.47000000000E+01 0. -1.
          5    1    3    3  503    0 -0.57392309154E+02  0.85466426637E+02  0.92789585111E+02  0.13867366130E+03  0.47000000000E+01 0. -1.
         -5    1    3    3    0  503  0.34725753161E+02 -0.13039109846E+02  0.61481517453E+01  0.37891768077E+02  0.47000000000E+01 0. -1.
<mgrwt>
<rscale>  0 0.14624146E+03</rscale>
<asrwt>0</asrwt>
<pdfrwt beam="1">  1        5 0.62510716E-01 0.14624184E+03</pdfrwt>
<pdfrwt beam="2">  1       -5 0.90340764E-02 0.14624184E+03</pdfrwt>
<totfact> 0.16631202E+02</totfact>
</mgrwt>
</event>
<event>
 8    1  0.3759079E-007  0.1458326E+03  0.7546771E-02  0.1205696E+00
         -5   -1    0    0    0  501 -0.00000000000E+00  0.00000000000E+00  0.20060113315E+03  0.20065618510E+03  0.47000000000E+01 0. -1.
          5   -1    0    0  501    0  0.00000000000E+00 -0.00000000000E+00 -0.14578628599E+03  0.14586202790E+03  0.47000000000E+01 0. -1.
         25    2    1    2    0    0  0.26607319107E+02 -0.70235955517E+02  0.11800862816E+03  0.18758236383E+03  0.12498027054E+03 0.  0.
         25    2    1    2    0    0 -0.26607319107E+02  0.70235955517E+02 -0.63193781011E+02  0.15893584917E+03  0.12500444518E+03 0.  0.
          5    1    3    3  502    0  0.50992788469E+02 -0.66199263734E+02  0.13384140519E+03  0.15785505610E+03  0.47000000000E+01 0.  1.
         -5    1    3    3    0  502 -0.24385469362E+02 -0.40366917828E+01 -0.15832777025E+02  0.29727307730E+02  0.47000000000E+01 0.  1.
          5    1    4    4  503    0  0.44181912822E+02  0.45825596415E+01 -0.23706113301E+01  0.44729755998E+02  0.47000000000E+01 0.  1.
         -5    1    4    4    0  503 -0.70789231930E+02  0.65653395875E+02 -0.60823169680E+02  0.11420609317E+03  0.47000000000E+01 0.  1.
<mgrwt>
<rscale>  0 0.14582743E+03</rscale>
<asrwt>0</asrwt>
<pdfrwt beam="2">  1        5 0.22438720E-01 0.14583261E+03</pdfrwt>
<pdfrwt beam="1">  1       -5 0.30871774E-01 0.14583261E+03</pdfrwt>
<totfact> 0.13951070E+02</totfact>
</mgrwt>
</event>
<event>
 8    1  0.3759079E-007  0.1662821E+03  0.7546771E-02  0.1181782E+00
         -5   -1    0    0    0  501 -0.00000000000E+00  0.00000000000E+00  0.29077605492E+02  0.29455001972E+02  0.47000000000E+01 0.  1.
          5   -1    0    0  501    0  0.00000000000E+00 -0.00000000000E+00 -0.10074809755E+04  0.10074919385E+04  0.47000000000E+01 0.  1.
         25    2    1    2    0    0 -0.41908481032E+02 -0.10133603392E+03 -0.35946997748E+03  0.39606615996E+03  0.12499770319E+03 0.  0.
         25    2    1    2    0    0  0.41908481032E+02  0.10133603392E+03 -0.61893339256E+03  0.64088078047E+03  0.12499727115E+03 0.  0.
          5    1    3    3  502    0  0.37825748996E+02 -0.71480536169E+02 -0.17645220663E+03  0.19415902133E+03  0.47000000000E+01 0. -1.
         -5    1    3    3    0  502 -0.79734230028E+02 -0.29855497754E+02 -0.18301777085E+03  0.20190713863E+03  0.47000000000E+01 0. -1.
          5    1    4    4  503    0  0.34685857982E+02 -0.13395119208E+01 -0.36733894531E+03  0.36900527608E+03  0.47000000000E+01 0. -1.
         -5    1    4    4    0  503  0.72226230505E+01  0.10267554584E+03 -0.25159444726E+03  0.27187550439E+03  0.47000000000E+01 0. -1.
<mgrwt>
<rscale>  0 0.16628202E+03</rscale>
<asrwt>0</asrwt>
<pdfrwt beam="2">  1        5 0.15502692E+00 0.16628210E+03</pdfrwt>
<pdfrwt beam="1">  1       -5 0.45033523E-02 0.16628210E+03</pdfrwt>
<totfact> 0.60754320E+01</totfact>
</mgrwt>
</event>
<event>
 8    1  0.3759079E-007  0.1785580E+03  0.7546771E-02  0.1169207E+00
         -5   -1    0    0    0  501 -0.00000000000E+00  0.00000000000E+00  0.57234047088E+02  0.57426702378E+02  0.47000000000E+01 0.  1.
          5   -1    0    0  501    0  0.00000000000E+00 -0.00000000000E+00 -0.68103186591E+03  0.68104808375E+03  0.47000000000E+01 0.  1.
         25    2    1    2    0    0  0.12448663207E+03  0.27569370943E+02 -0.15366307889E+03  0.23557443564E+03  0.12500392448E+03 0.  0.
         25    2    1    2    0    0 -0.12448663207E+03 -0.27569370943E+02 -0.47013473992E+03  0.50290035048E+03  0.12500038822E+03 0.  0.
          5    1    3    3  502    0  0.10550373885E+03  0.13867628681E+02 -0.17413045741E+03  0.20412460958E+03  0.47000000000E+01 0. -1.
         -5    1    3    3    0  502  0.18982893220E+02  0.13701742262E+02  0.20467378519E+02  0.31449826064E+02  0.47000000000E+01 0. -1.
          5    1    4    4  503    0 -0.32655201646E+02 -0.34502339359E+02 -0.34041077284E+03  0.34374170227E+03  0.47000000000E+01 0. -1.
         -5    1    4    4    0  503 -0.91831430425E+02  0.69329684160E+01 -0.12972396709E+03  0.15915864822E+03  0.47000000000E+01 0. -1.
<mgrwt>
<rscale>  0 0.17855742E+03</rscale>
<asrwt>0</asrwt>
<pdfrwt beam="2">  1        5 0.10479019E+00 0.17855804E+03</pdfrwt>
<pdfrwt beam="1">  1       -5 0.88213056E-02 0.17855804E+03</pdfrwt>
<totfact> 0.55162854E+01</totfact>
</mgrwt>
</event>
<event>
 8    1  0.3759079E-007  0.2703024E+03  0.7546771E-02  0.1101107E+00
         -5   -1    0    0    0  501 -0.00000000000E+00  0.00000000000E+00  0.19385650527E+03  0.19391347203E+03  0.47000000000E+01 0.  1.
          5   -1    0    0  501    0  0.00000000000E+00 -0.00000000000E+00 -0.39369907946E+03  0.39372713288E+03  0.47000000000E+01 0.  1.
         25    2    1    2    0    0  0.21299920218E+03 -0.10985572718E+03 -0.38988049932E+02  0.27309721328E+03  0.12500031576E+03 0.  0.
         25    2    1    2    0    0 -0.21299920218E+03  0.10985572718E+03 -0.16085452426E+03  0.31454339163E+03  0.12500570514E+03 0.  0.
          5    1    3    3  502    0  0.17230930920E+03 -0.77121001507E+02  0.24870772175E+02  0.19046992471E+03  0.47000000000E+01 0. -1.
         -5    1    3    3    0  502  0.40689892978E+02 -0.32734725675E+02 -0.63858822107E+02  0.82627288570E+02  0.47000000000E+01 0. -1.
          5    1    4    4  503    0 -0.64466444043E+02 -0.63134614784E+01  0.25324312028E+01  0.64994502931E+02  0.47000000000E+01 0.  1.
         -5    1    4    4    0  503 -0.14853275814E+03  0.11616918866E+03 -0.16338695546E+03  0.24954888869E+03  0.47000000000E+01 0.  1.
<mgrwt>
<rscale>  0 0.27030174E+03</rscale>
<asrwt>0</asrwt>
<pdfrwt beam="2">  1        5 0.60575629E-01 0.27030236E+03</pdfrwt>
<pdfrwt beam="1">  1       -5 0.29830618E-01 0.27030236E+03</pdfrwt>
<totfact> 0.23209127E+01</totfact>
</mgrwt>
</event>
<event>
 8    1  0.3759079E-007  0.1325484E+03  0.7546771E-02  0.1223725E+00
         -5   -1    0    0    0  501 -0.00000000000E+00  0.00000000000E+00  0.21150965113E+03  0.21156186453E+03  0.47000000000E+01 0. -1.
          5   -1    0    0  501    0  0.00000000000E+00 -0.00000000000E+00 -0.91747734336E+02  0.91868039904E+02  0.47000000000E+01 0. -1.
         25    2    1    2    0    0 -0.90345360217E+00  0.44070496768E+02  0.10686385660E+03  0.17025539765E+03  0.12499596661E+03 0.  0.
         25    2    1    2    0    0  0.90345360217E+00 -0.44070496768E+02  0.12898060199E+02  0.13317450678E+03  0.12500425747E+03 0.  0.
          5    1    4    4  502    0 -0.22713659066E+02  0.38487103930E+02  0.14327156317E+02  0.47164869185E+02  0.47000000000E+01 0. -1.
         -5    1    4    4    0  502  0.23617112668E+02 -0.82557600698E+02 -0.14290961180E+01  0.86009637597E+02  0.47000000000E+01 0. -1.
          5    1    3    3  503    0  0.37190172403E+02  0.74320673973E+02  0.73869724592E+02  0.11129015102E+03  0.47000000000E+01 0.  1.
         -5    1    3    3    0  503 -0.38093626005E+02 -0.30250177204E+02  0.32994132006E+02  0.58965246629E+02  0.47000000000E+01 0.  1.
<mgrwt>
<rscale>  0 0.13254649E+03</rscale>
<asrwt>0</asrwt>
<pdfrwt beam="2">  1        5 0.14128307E-01 0.13254844E+03</pdfrwt>
<pdfrwt beam="1">  1       -5 0.32553217E-01 0.13254844E+03</pdfrwt>
<totfact> 0.28551442E+02</totfact>
</mgrwt>
</event>
<event>
 8    1  0.3759079E-007  0.1369286E+03  0.7546771E-02  0.1217530E+00
          5   -1    0    0  501    0  0.00000000000E+00  0.00000000000E+00  0.24639617948E+03  0.24644100159E+03  0.47000000000E+01 0. -1.
         -5   -1    0    0    0  501 -0.00000000000E+00 -0.00000000000E+00 -0.79166754516E+02  0.79306147433E+02  0.47000000000E+01 0. -1.
         25    2    1    2    0    0 -0.77400568154E+01 -0.55297946929E+02  0.50856917454E+02  0.14604742750E+03  0.12500261442E+03 0.  0.
         25    2    1    2    0    0  0.77400568154E+01  0.55297946929E+02  0.11637250751E+03  0.17969972152E+03  0.12502662915E+03 0.  0.
          5    1    3    3  502    0  0.51343202300E+02 -0.48204845142E+02  0.49732969784E+02  0.86344020066E+02  0.47000000000E+01 0. -1.
         -5    1    3    3    0  502 -0.59083259116E+02 -0.70931017864E+01  0.11239476702E+01  0.59703407432E+02  0.47000000000E+01 0. -1.
          5    1    4    4  503    0  0.14629840937E+02  0.85538283137E+02  0.37191214893E+02  0.94530982186E+02  0.47000000000E+01 0. -1.
         -5    1    4    4    0  503 -0.68897841219E+01 -0.30240336208E+02  0.79181292621E+02  0.85168739337E+02  0.47000000000E+01 0. -1.
<mgrwt>
<rscale>  0 0.13692307E+03</rscale>
<asrwt>0</asrwt>
<pdfrwt beam="1">  1        5 0.37921275E-01 0.13692856E+03</pdfrwt>
<pdfrwt beam="2">  1       -5 0.12193671E-01 0.13692856E+03</pdfrwt>
<totfact> 0.27656924E+02</totfact>
</mgrwt>
</event>
<event>
 8    1  0.3759079E-007  0.1381573E+03  0.7546771E-02  0.1215830E+00
          5   -1    0    0  501    0  0.00000000000E+00  0.00000000000E+00  0.95465467867E+03  0.95466624822E+03  0.47000000000E+01 0. -1.
         -5   -1    0    0    0  501 -0.00000000000E+00 -0.00000000000E+00 -0.19709340734E+02  0.20261986876E+02  0.47000000000E+01 0. -1.
         25    2    1    2    0    0  0.20027374742E+01 -0.58809311939E+02  0.47376401139E+03  0.49349750608E+03  0.12499961557E+03 0.  0.
         25    2    1    2    0    0 -0.20027374742E+01  0.58809311939E+02  0.46118132654E+03  0.48143072902E+03  0.12499913906E+03 0.  0.
          5    1    4    4  502    0 -0.16802040937E+02  0.36426177449E+02  0.45028154921E+03  0.45208930372E+03  0.47000000000E+01 0. -1.
         -5    1    4    4    0  502  0.14799303463E+02  0.22383134490E+02  0.10899777336E+02  0.29341425299E+02  0.47000000000E+01 0. -1.
          5    1    3    3  503    0 -0.26837667737E+02 -0.57797201227E+02  0.10051824012E+03  0.11910828467E+03  0.47000000000E+01 0.  1.
         -5    1    3    3    0  503  0.28840405211E+02 -0.10121107120E+01  0.37324577127E+03  0.37438922141E+03  0.47000000000E+01 0.  1.
<mgrwt>
<rscale>  0 0.13815723E+03</rscale>
<asrwt>0</asrwt>
<pdfrwt beam="1">  1        5 0.14691335E+00 0.13815734E+03</pdfrwt>
<pdfrwt beam="2">  1       -5 0.30756076E-02 0.13815734E+03</pdfrwt>
<totfact> 0.12436251E+02</totfact>
</mgrwt>
</event>
<event>
 8    1  0.3759079E-007  0.2110508E+03  0.7546771E-02  0.1140739E+00
          5   -1    0    0  501    0  0.00000000000E+00  0.00000000000E+00  0.20682331867E+03  0.20687671485E+03  0.47000000000E+01 0. -1.
         -5   -1    0    0    0  501 -0.00000000000E+00 -0.00000000000E+00 -0.34637051232E+03  0.34640239867E+03  0.47000000000E+01 0. -1.
         25    2    1    2    0    0 -0.64566488653E+02  0.15730798993E+03 -0.23996222055E+03  0.31956893727E+03  0.12501121240E+03 0.  0.
         25    2    1    2    0    0  0.64566488653E+02 -0.15730798993E+03  0.10041502690E+03  0.23371017625E+03  0.12499053445E+03 0.  0.
          5    1    4    4  502    0  0.52863295513E+02 -0.17136890914E+03  0.11205926736E+03  0.21152115836E+03  0.47000000000E+01 0. -1.
         -5    1    4    4    0  502  0.11703193140E+02  0.14060919213E+02 -0.11644240460E+02  0.22189017885E+02  0.47000000000E+01 0. -1.
          5    1    3    3  503    0  0.34258881989E+02  0.20884088219E+02 -0.29880414627E+02  0.50246843823E+02  0.47000000000E+01 0.  1.
         -5    1    3    3    0  503 -0.98825370642E+02  0.13642390171E+03 -0.21008180592E+03  0.26932209345E+03  0.47000000000E+01 0.  1.
<mgrwt>
<rscale>  0 0.21104773E+03</rscale>
<asrwt>0</asrwt>
<pdfrwt beam="1">  1        5 0.31825532E-01 0.21105080E+03</pdfrwt>
<pdfrwt beam="2">  1       -5 0.53294331E-01 0.21105080E+03</pdfrwt>
<totfact> 0.25511996E+01</totfact>
</mgrwt>
</event>
<event>
 8    1  0.3759079E-007  0.1445705E+03  0.7546771E-02  0.1207311E+00
         -5   -1    0    0    0  501 -0.00000000000E+00  0.00000000000E+00  0.10446309664E+03  0.10456877430E+03  0.47000000000E+01 0. -1.
          5   -1    0    0  501    0  0.00000000000E+00 -0.00000000000E+00 -0.20775051066E+03  0.20780366859E+03  0.47000000000E+01 0. -1.
         25    2    1    2    0    0  0.11897181193E+02  0.71652827245E+02 -0.21158133250E+02  0.14611058369E+03  0.12499986197E+03 0.  0.
         25    2    1    2    0    0 -0.11897181193E+02 -0.71652827245E+02 -0.82129280767E+02  0.16626185920E+03  0.12498846544E+03 0.  0.
          5    1    3    3  502    0 -0.11967704178E+02  0.52690992080E+02  0.46700450877E+02  0.71572262098E+02  0.47000000000E+01 0. -1.
         -5    1    3    3    0  502  0.23864885371E+02  0.18961835165E+02 -0.67858584127E+02  0.74538321596E+02  0.47000000000E+01 0. -1.
          5    1    4    4  503    0 -0.23201240509E+02 -0.65105304550E+02 -0.11292539054E+03  0.13248106306E+03  0.47000000000E+01 0.  1.
         -5    1    4    4    0  503  0.11304059316E+02 -0.65475226944E+01  0.30796109772E+02  0.33780796136E+02  0.47000000000E+01 0.  1.
<mgrwt>
<rscale>  0 0.14456806E+03</rscale>
<asrwt>0</asrwt>
<pdfrwt beam="2">  1        5 0.31973835E-01 0.14457052E+03</pdfrwt>
<pdfrwt beam="1">  1       -5 0.16083464E-01 0.14457052E+03</pdfrwt>
<totfact> 0.24094969E+02</totfact>
</mgrwt>
</event>
<event>
 8    1  0.3759079E-007  0.1371324E+03  0.7546771E-02  0.1217241E+00
          5   -1    0    0  501    0  0.00000000000E+00  0.00000000000E+00  0.12427865971E+03  0.12436750081E+03  0.47000000000E+01 0. -1.
         -5   -1    0    0    0  501 -0.00000000000E+00 -0.00000000000E+00 -0.15184383913E+03  0.15191656092E+03  0.47000000000E+01 0. -1.
         25    2    1    2    0    0  0.30115805634E+02  0.47667258105E+02 -0.43420680047E+01  0.13720113278E+03  0.12500467206E+03 0.  0.
         25    2    1    2    0    0 -0.30115805634E+02 -0.47667258105E+02 -0.23223111418E+02  0.13908292895E+03  0.12500247589E+03 0.  0.
          5    1    3    3  502    0 -0.48436264339E+02  0.26115965588E+02 -0.63038111956E+01  0.55587259308E+02  0.47000000000E+01 0.  1.
         -5    1    3    3    0  502  0.78552069973E+02  0.21551292516E+02  0.19617431910E+01  0.81613873469E+02  0.47000000000E+01 0.  1.
          5    1    4    4  503    0 -0.58079007821E+02 -0.60267186402E+02  0.19705529835E+02  0.86114475045E+02  0.47000000000E+01 0.  1.
         -5    1    4    4    0  503  0.27963202187E+02  0.12599928297E+02 -0.42928641254E+02  0.52968453909E+02  0.47000000000E+01 0.  1.
<mgrwt>
<rscale>  0 0.13713191E+03</rscale>
<asrwt>0</asrwt>
<pdfrwt beam="1">  1        5 0.19132222E-01 0.13713241E+03</pdfrwt>
<pdfrwt beam="2">  1       -5 0.23373019E-01 0.13713241E+03</pdfrwt>
<totfact> 0.31574897E+02</totfact>
</mgrwt>
</event>
<event>
 8    1  0.3759079E-007  0.1425654E+03  0.7546771E-02  0.1209919E+00
         -5   -1    0    0    0  501 -0.00000000000E+00  0.00000000000E+00  0.13159843548E+03  0.13168233830E+03  0.47000000000E+01 0. -1.
          5   -1    0    0  501    0  0.00000000000E+00 -0.00000000000E+00 -0.17242329170E+03  0.17248733727E+03  0.47000000000E+01 0. -1.
         25    2    1    2    0    0  0.57704311840E+02 -0.36992854826E+02  0.28906476462E+02  0.14546643481E+03  0.12500656127E+03 0.  0.
         25    2    1    2    0    0 -0.57704311840E+02  0.36992854826E+02 -0.69731332678E+02  0.15870324077E+03  0.12500400378E+03 0.  0.
          5    1    4    4  502    0  0.23682897544E+01  0.43876711247E+02 -0.85318712438E+02  0.96084063602E+02  0.47000000000E+01 0.  1.
         -5    1    4    4    0  502 -0.60072601594E+02 -0.68838564212E+01  0.15587379759E+02  0.62619177169E+02  0.47000000000E+01 0.  1.
          5    1    3    3  503    0  0.32960705647E+02  0.42827162947E+02 -0.64053432206E+01  0.54623185778E+02  0.47000000000E+01 0. -1.
         -5    1    3    3    0  503  0.24743606193E+02 -0.79820017773E+02  0.35311819683E+02  0.90843249028E+02  0.47000000000E+01 0. -1.
<mgrwt>
<rscale>  0 0.14256486E+03</rscale>
<asrwt>0</asrwt>
<pdfrwt beam="2">  1        5 0.26538041E-01 0.14256542E+03</pdfrwt>
<pdfrwt beam="1">  1       -5 0.20257294E-01 0.14256542E+03</pdfrwt>
<totfact> 0.22550649E+02</totfact>
</mgrwt>
</event>
<event>
 8    1  0.3759079E-007  0.2076353E+03  0.7546771E-02  0.1143453E+00
         -5   -1    0    0    0  501 -0.00000000000E+00  0.00000000000E+00  0.54477946520E+03  0.54479973908E+03  0.47000000000E+01 0. -1.
          5   -1    0    0  501    0  0.00000000000E+00 -0.00000000000E+00 -0.80203808926E+02  0.80341402566E+02  0.47000000000E+01 0. -1.
         25    2    1    2    0    0  0.16344546034E+03  0.27796600216E+02  0.26982187940E+03  0.34046477311E+03  0.12500138254E+03 0.  0.
         25    2    1    2    0    0 -0.16344546034E+03 -0.27796600216E+02  0.19475377688E+03  0.28467636854E+03  0.12499812681E+03 0.  0.
          5    1    4    4  502    0  0.99954529384E+01  0.12188207712E+02  0.57660138273E+02  0.59960345499E+02  0.47000000000E+01 0.  1.
         -5    1    4    4    0  502 -0.17344091328E+03 -0.39984807928E+02  0.13709363861E+03  0.22471602304E+03  0.47000000000E+01 0.  1.
          5    1    3    3  503    0  0.36278619984E+02 -0.26316382953E+02  0.15282134294E+03  0.15932715756E+03  0.47000000000E+01 0. -1.
         -5    1    3    3    0  503  0.12716684036E+03  0.54112983169E+02  0.11700053646E+03  0.18113761554E+03  0.47000000000E+01 0. -1.
<mgrwt>
<rscale>  0 0.20763480E+03</rscale>
<asrwt>0</asrwt>
<pdfrwt beam="2">  1        5 0.12351191E-01 0.20763529E+03</pdfrwt>
<pdfrwt beam="1">  1       -5 0.83824368E-01 0.20763529E+03</pdfrwt>
<totfact> 0.54401729E+01</totfact>
</mgrwt>
</event>
<event>
 8    1  0.3759079E-007  0.1267125E+03  0.7546771E-02  0.1232427E+00
          5   -1    0    0  501    0  0.00000000000E+00  0.00000000000E+00  0.12637688477E+04  0.12637775874E+04  0.47000000000E+01 0. -1.
         -5   -1    0    0    0  501 -0.00000000000E+00 -0.00000000000E+00 -0.12411421362E+02  0.13271525166E+02  0.47000000000E+01 0. -1.
         25    2    1    2    0    0 -0.61009547670E+01  0.19765965614E+02  0.55706202123E+03  0.57128558058E+03  0.12498481522E+03 0.  0.
         25    2    1    2    0    0  0.61009547670E+01 -0.19765965614E+02  0.69429540510E+03  0.70576353198E+03  0.12501255330E+03 0.  0.
          5    1    4    4  502    0 -0.25720934930E+01 -0.39772658407E+02  0.67522424419E+03  0.67641581143E+03  0.47000000000E+01 0.  1.
         -5    1    4    4    0  502  0.86730482600E+01  0.20006692793E+02  0.19071160916E+02  0.29347720547E+02  0.47000000000E+01 0.  1.
          5    1    3    3  503    0 -0.30924079407E+02  0.71498870424E+01  0.53362193717E+03  0.53458571006E+03  0.47000000000E+01 0.  1.
         -5    1    3    3    0  503  0.24823124640E+02  0.12616078572E+02  0.23440084061E+02  0.36699870520E+02  0.47000000000E+01 0.  1.
<mgrwt>
<rscale>  0 0.12670564E+03</rscale>
<asrwt>0</asrwt>
<pdfrwt beam="1">  1        5 0.19449287E+00 0.12671248E+03</pdfrwt>
<pdfrwt beam="2">  1       -5 0.19762830E-02 0.12671248E+03</pdfrwt>
<totfact> 0.10984234E+02</totfact>
</mgrwt>
</event>
<event>
 8    1  0.3759079E-007  0.1580451E+03  0.7546771E-02  0.1190923E+00
         -5   -1    0    0    0  501 -0.00000000000E+00  0.00000000000E+00  0.54253415299E+02  0.54456616417E+02  0.47000000000E+01 0.  1.
          5   -1    0    0  501    0  0.00000000000E+00 -0.00000000000E+00 -0.67188177547E+03  0.67189821417E+03  0.47000000000E+01 0.  1.
         25    2    1    2    0    0 -0.96685141877E+02 -0.21471577890E+01 -0.10456450045E+03  0.18950029818E+03  0.12499600517E+03 0.  0.
         25    2    1    2    0    0  0.96685141877E+02  0.21471577890E+01 -0.51306385972E+03  0.53685453241E+03  0.12500255148E+03 0.  0.
          5    1    4    4  502    0 -0.15832449552E+02  0.97350871469E+01 -0.10675578389E+02  0.21943025190E+02  0.47000000000E+01 0.  1.
         -5    1    4    4    0  502  0.11251759143E+03 -0.75879293579E+01 -0.50238828133E+03  0.51491150722E+03  0.47000000000E+01 0.  1.
          5    1    3    3  503    0  0.57526239762E+01  0.36108804527E+02  0.17631388944E+01  0.36907141663E+02  0.47000000000E+01 0. -1.
         -5    1    3    3    0  503 -0.10243776585E+03 -0.38255962316E+02 -0.10632763935E+03  0.15259315651E+03  0.47000000000E+01 0. -1.
<mgrwt>
<rscale>  0 0.15804384E+03</rscale>
<asrwt>0</asrwt>
<pdfrwt beam="2">  1        5 0.10338332E+00 0.15804514E+03</pdfrwt>
<pdfrwt beam="1">  1       -5 0.83635751E-02 0.15804514E+03</pdfrwt>
<totfact> 0.60440124E+01</totfact>
</mgrwt>
</event>
<event>
 8    1  0.3759079E-007  0.1373099E+03  0.7546771E-02  0.1216998E+00
         -5   -1    0    0    0  501 -0.00000000000E+00  0.00000000000E+00  0.37492902530E+03  0.37495848305E+03  0.47000000000E+01 0. -1.
          5   -1    0    0  501    0  0.00000000000E+00 -0.00000000000E+00 -0.52912322457E+02  0.53120653872E+02  0.47000000000E+01 0. -1.
         25    2    1    2    0    0 -0.43997276138E+02 -0.35923994727E+02  0.20986213605E+03  0.25078658493E+03  0.12500200530E+03 0.  0.
         25    2    1    2    0    0  0.43997276138E+02  0.35923994727E+02  0.11215456680E+03  0.17729255199E+03  0.12501083327E+03 0.  0.
          5    1    3    3  502    0 -0.51684112105E+02 -0.10115743973E+02  0.21632852209E+03  0.22269641934E+03  0.47000000000E+01 0.  1.
         -5    1    3    3    0  502  0.76868359673E+01 -0.25808250754E+02 -0.64663860417E+01  0.28090165585E+02  0.47000000000E+01 0.  1.
          5    1    4    4  503    0  0.57724599594E+02 -0.25986575858E+02  0.22439758213E+02  0.67328034813E+02  0.47000000000E+01 0. -1.
         -5    1    4    4    0  503 -0.13727323456E+02  0.61910570585E+02  0.89714808583E+02  0.10996451718E+03  0.47000000000E+01 0. -1.
<mgrwt>
<rscale>  0 0.13730787E+03</rscale>
<asrwt>0</asrwt>
<pdfrwt beam="2">  1        5 0.81586485E-02 0.13730988E+03</pdfrwt>
<pdfrwt beam="1">  1       -5 0.57699682E-01 0.13730988E+03</pdfrwt>
<totfact> 0.23140717E+02</totfact>
</mgrwt>
</event>
<event>
 8    1  0.3759079E-007  0.1353913E+03  0.7546771E-02  0.1219670E+00
          5   -1    0    0  501    0  0.00000000000E+00  0.00000000000E+00  0.61713053164E+03  0.61714842873E+03  0.47000000000E+01 0.  1.
         -5   -1    0    0    0  501 -0.00000000000E+00 -0.00000000000E+00 -0.29749382584E+02  0.30118362574E+02  0.47000000000E+01 0.  1.
         25    2    1    2    0    0  0.39161212047E+02 -0.34217967210E+02  0.32326065109E+03  0.35046862490E+03  0.12500535463E+03 0.  0.
         25    2    1    2    0    0 -0.39161212047E+02  0.34217967210E+02  0.26412049796E+03  0.29679816640E+03  0.12500017730E+03 0.  0.
          5    1    3    3  502    0  0.23079005666E+02 -0.72624708280E+02  0.28007771787E+03  0.29029744539E+03  0.47000000000E+01 0. -1.
         -5    1    3    3    0  502  0.16082206381E+02  0.38406741070E+02  0.43182933227E+02  0.60171179511E+02  0.47000000000E+01 0. -1.
          5    1    4    4  503    0  0.22223201150E+01  0.24576144893E+02  0.25074993181E+03  0.25200504739E+03  0.47000000000E+01 0. -1.
         -5    1    4    4    0  503 -0.41383532162E+02  0.96418223168E+01  0.13370566149E+02  0.44793119013E+02  0.47000000000E+01 0. -1.
<mgrwt>
<rscale>  0 0.13539012E+03</rscale>
<asrwt>0</asrwt>
<pdfrwt beam="1">  1        5 0.94972905E-01 0.13539132E+03</pdfrwt>
<pdfrwt beam="2">  1       -5 0.46065885E-02 0.13539132E+03</pdfrwt>
<totfact> 0.19352437E+02</totfact>
</mgrwt>
</event>
<event>
 8    1  0.3759079E-007  0.1599834E+03  0.7546771E-02  0.1188717E+00
         -5   -1    0    0    0  501 -0.00000000000E+00  0.00000000000E+00  0.22479925852E+02  0.22965998047E+02  0.47000000000E+01 0.  1.
          5   -1    0    0  501    0  0.00000000000E+00 -0.00000000000E+00 -0.14320668698E+04  0.14320745824E+04  0.47000000000E+01 0.  1.
         25    2    1    2    0    0 -0.63221909958E+02 -0.77284762846E+02 -0.36842559193E+03  0.40165952477E+03  0.12499205007E+03 0.  0.
         25    2    1    2    0    0  0.63221909958E+02  0.77284762846E+02 -0.10411613520E+04  0.10533810557E+04  0.12499897231E+03 0.  0.
          5    1    4    4  502    0  0.40538710860E+02 -0.28466229544E+02 -0.40920633884E+03  0.41222036710E+03  0.47000000000E+01 0. -1.
         -5    1    4    4    0  502  0.22683199098E+02  0.10575099239E+03 -0.63195501320E+03  0.64116068861E+03  0.47000000000E+01 0. -1.
          5    1    3    3  503    0  0.12321323990E+02  0.23663324752E+02 -0.12011685215E+03  0.12313373272E+03  0.47000000000E+01 0. -1.
         -5    1    3    3    0  503 -0.75543233948E+02 -0.10094808760E+03 -0.24830873978E+03  0.27852579205E+03  0.47000000000E+01 0. -1.
<mgrwt>
<rscale>  0 0.15998205E+03</rscale>
<asrwt>0</asrwt>
<pdfrwt beam="2">  1        5 0.22035589E+00 0.15998340E+03</pdfrwt>
<pdfrwt beam="1">  1       -5 0.34964347E-02 0.15998340E+03</pdfrwt>
<totfact> 0.31554351E+01</totfact>
</mgrwt>
</event>
<event>
 8    1  0.3759079E-007  0.1546480E+03  0.7546771E-02  0.1194876E+00
          5   -1    0    0  501    0  0.00000000000E+00  0.00000000000E+00  0.22263725033E+03  0.22268685465E+03  0.47000000000E+01 0.  1.
         -5   -1    0    0    0  501 -0.00000000000E+00 -0.00000000000E+00 -0.10815486729E+03  0.10825694120E+03  0.47000000000E+01 0.  1.
         25    2    1    2    0    0  0.88448505402E+02 -0.21620653581E+02  0.42594254635E+02  0.16040376574E+03  0.12499802705E+03 0.  0.
         25    2    1    2    0    0 -0.88448505402E+02  0.21620653581E+02  0.71888128410E+02  0.17054003012E+03  0.12500163238E+03 0.  0.
          5    1    3    3  502    0  0.24040201506E+02 -0.20862008515E+02 -0.42669644688E+02  0.53441026052E+02  0.47000000000E+01 0.  1.
         -5    1    3    3    0  502  0.64408303896E+02 -0.75864506669E+00  0.85263899323E+02  0.10696273969E+03  0.47000000000E+01 0.  1.
          5    1    4    4  503    0 -0.32240220088E+02  0.16740745751E+02 -0.34312700083E+02  0.50190992684E+02  0.47000000000E+01 0.  1.
         -5    1    4    4    0  503 -0.56208285314E+02  0.48799078299E+01  0.10620082849E+03  0.12034903743E+03  0.47000000000E+01 0.  1.
<mgrwt>
<rscale>  0 0.15464726E+03</rscale>
<asrwt>0</asrwt>
<pdfrwt beam="1">  1        5 0.34263552E-01 0.15464798E+03</pdfrwt>
<pdfrwt beam="2">  1       -5 0.16650878E-01 0.15464798E+03</pdfrwt>
<totfact> 0.20149017E+02</totfact>
</mgrwt>
</event>
<event>
 8    1  0.3759079E-007  0.3094105E+03  0.7546771E-02  0.1080629E+00
          5   -1    0    0  501    0  0.00000000000E+00  0.00000000000E+00  0.84799480928E+03  0.84800783403E+03  0.47000000000E+01 0. -1.
         -5   -1    0    0    0  501 -0.00000000000E+00 -0.00000000000E+00 -0.12737890008E+03  0.12746558039E+03  0.47000000000E+01 0. -1.
         25    2    1    2    0    0 -0.40516877854E+02 -0.28012327359E+03  0.19555056119E+03  0.36602409517E+03  0.12499180160E+03 0.  0.
         25    2    1    2    0    0  0.40516877854E+02  0.28012327359E+03  0.52506534802E+03  0.60944931925E+03  0.12499674894E+03 0.  0.
          5    1    4    4  502    0  0.30134495795E+02  0.17237061876E+03  0.43378080558E+03  0.46776874130E+03  0.47000000000E+01 0.  1.
         -5    1    4    4    0  502  0.10382382059E+02  0.10775265482E+03  0.91284542440E+02  0.14168057795E+03  0.47000000000E+01 0.  1.
          5    1    3    3  503    0 -0.33381903864E+02 -0.28830526209E+03  0.20093001328E+03  0.35302866157E+03  0.47000000000E+01 0.  1.
         -5    1    3    3    0  503 -0.71349739891E+01  0.81819884995E+01 -0.53794520929E+01  0.12995433600E+02  0.47000000000E+01 0.  1.
<mgrwt>
<rscale>  0 0.30940999E+03</rscale>
<asrwt>0</asrwt>
<pdfrwt beam="1">  1        5 0.13046841E+00 0.30941049E+03</pdfrwt>
<pdfrwt beam="2">  1       -5 0.19604423E-01 0.30941049E+03</pdfrwt>
<totfact> 0.84101870E+00</totfact>
</mgrwt>
</event>
<event>
 8    1  0.3759079E-007  0.1563533E+03  0.7546771E-02  0.1192878E+00
          5   -1    0    0  501    0  0.00000000000E+00  0.00000000000E+00  0.49357744520E+03  0.49359982213E+03  0.47000000000E+01 0. -1.
         -5   -1    0    0    0  501 -0.00000000000E+00 -0.00000000000E+00 -0.52004822758E+02  0.52216774987E+02  0.47000000000E+01 0. -1.
         25    2    1    2    0    0  0.89678788630E+02 -0.27887016006E+02  0.15975348055E+03  0.22353041608E+03  0.12499880629E+03 0.  0.
         25    2    1    2    0    0 -0.89678788630E+02  0.27887016006E+02  0.28181914189E+03  0.32228618104E+03  0.12500553172E+03 0.  0.
          5    1    4    4  502    0  0.21283950020E+02  0.99928361470E+01  0.13610094045E+03  0.13819703070E+03  0.47000000000E+01 0.  1.
         -5    1    4    4    0  502 -0.11096273865E+03  0.17894179859E+02  0.14571820144E+03  0.18408915034E+03  0.47000000000E+01 0.  1.
          5    1    3    3  503    0 -0.18646531221E+02 -0.13595322932E+02  0.91801483150E+02  0.94774090556E+02  0.47000000000E+01 0. -1.
         -5    1    3    3    0  503  0.10832531985E+03 -0.14291693073E+02  0.67951997401E+02  0.12875632552E+03  0.47000000000E+01 0. -1.
<mgrwt>
<rscale>  0 0.15635195E+03</rscale>
<asrwt>0</asrwt>
<pdfrwt beam="1">  1        5 0.75953012E-01 0.15635330E+03</pdfrwt>
<pdfrwt beam="2">  1       -5 0.80187678E-02 0.15635330E+03</pdfrwt>
<totfact> 0.13465762E+02</totfact>
</mgrwt>
</event>
<event>
 8    1  0.3759079E-007  0.1365466E+03  0.7546771E-02  0.1218067E+00
          5   -1    0    0  501    0  0.00000000000E+00  0.00000000000E+00  0.26059369516E+03  0.26063607570E+03  0.47000000000E+01 0. -1.
         -5   -1    0    0    0  501 -0.00000000000E+00 -0.00000000000E+00 -0.10168622511E+03  0.10179478561E+03  0.47000000000E+01 0. -1.
         25    2    1    2    0    0 -0.51449139020E+02 -0.18984562755E+02 -0.19366753233E+02  0.13787204476E+03  0.12500480818E+03 0.  0.
         25    2    1    2    0    0  0.51449139020E+02  0.18984562755E+02  0.17827422328E+03  0.22455881655E+03  0.12505013345E+03 0.  0.
          5    1    3    3  502    0  0.30052358756E+02  0.28765443951E+02 -0.40015672065E+01  0.42055886302E+02  0.47000000000E+01 0. -1.
         -5    1    3    3    0  502 -0.81501497777E+02 -0.47750006706E+02 -0.15365186027E+02  0.95816158459E+02  0.47000000000E+01 0. -1.
          5    1    4    4  503    0 -0.38170807366E+02 -0.28247604521E+01  0.84793999805E+02  0.93150964620E+02  0.47000000000E+01 0.  1.
         -5    1    4    4    0  503  0.89619946386E+02  0.21809323207E+02  0.93480223470E+02  0.13140785193E+03  0.47000000000E+01 0.  1.
<mgrwt>
<rscale>  0 0.13653618E+03</rscale>
<asrwt>0</asrwt>
<pdfrwt beam="1">  1        5 0.40102949E-01 0.13654656E+03</pdfrwt>
<pdfrwt beam="2">  1       -5 0.15655645E-01 0.13654656E+03</pdfrwt>
<totfact> 0.15739675E+02</totfact>
</mgrwt>
</event>
<event>
 8    1  0.3759079E-007  0.1601700E+03  0.7546771E-02  0.1188505E+00
         -5   -1    0    0    0  501 -0.00000000000E+00  0.00000000000E+00  0.89556039937E+02  0.89679285731E+02  0.47000000000E+01 0.  1.
          5   -1    0    0  501    0  0.00000000000E+00 -0.00000000000E+00 -0.30126573109E+03  0.30130239084E+03  0.47000000000E+01 0.  1.
         25    2    1    2    0    0  0.36915771800E+01 -0.10007511377E+03 -0.14967451737E+03  0.21921882252E+03  0.12500309940E+03 0.  0.
         25    2    1    2    0    0 -0.36915771800E+01  0.10007511377E+03 -0.62035173778E+02  0.17176285405E+03  0.12500183642E+03 0.  0.
          5    1    4    4  502    0 -0.20079947995E+02 -0.24640310804E+02 -0.17056453335E+01  0.32176831013E+02  0.47000000000E+01 0.  1.
         -5    1    4    4    0  502  0.16388370815E+02  0.12471542457E+03 -0.60329528444E+02  0.13958602304E+03  0.47000000000E+01 0.  1.
          5    1    3    3  503    0  0.49073752851E+02 -0.53637338878E+02 -0.22326244210E+02  0.76195462603E+02  0.47000000000E+01 0. -1.
         -5    1    3    3    0  503 -0.45382175671E+02 -0.46437774891E+02 -0.12734827316E+03  0.14302335992E+03  0.47000000000E+01 0. -1.
<mgrwt>
<rscale>  0 0.16016976E+03</rscale>
<asrwt>0</asrwt>
<pdfrwt beam="2">  1        5 0.46360874E-01 0.16017001E+03</pdfrwt>
<pdfrwt beam="1">  1       -5 0.13790153E-01 0.16017001E+03</pdfrwt>
<totfact> 0.15443181E+02</totfact>
</mgrwt>
</event>
<event>
 8    1  0.3759079E-007  0.1428077E+03  0.7546771E-02  0.1209612E+00
          5   -1    0    0  501    0  0.00000000000E+00  0.00000000000E+00  0.79781318077E+03  0.79782702474E+03  0.47000000000E+01 0.  1.
         -5   -1    0    0    0  501 -0.00000000000E+00 -0.00000000000E+00 -0.25521565289E+02  0.25950728213E+02  0.47000000000E+01 0.  1.
         25    2    1    2    0    0 -0.39617476437E+02  0.56556517833E+02  0.35030413195E+03  0.37828087997E+03  0.12496101446E+03 0.  0.
         25    2    1    2    0    0  0.39617476437E+02 -0.56556517833E+02  0.42198748353E+03  0.44549687299E+03  0.12500337372E+03 0.  0.
          5    1    4    4  502    0 -0.21825331879E+02  0.29372949413E+01  0.27077368856E+03  0.27170839742E+03  0.47000000000E+01 0.  1.
         -5    1    4    4    0  502  0.61442808316E+02 -0.59493812774E+02  0.15121379496E+03  0.17378847557E+03  0.47000000000E+01 0.  1.
          5    1    3    3  503    0  0.22534217838E+02  0.38649028928E+02  0.36741790943E+02  0.58082593024E+02  0.47000000000E+01 0. -1.
         -5    1    3    3    0  503 -0.62151694275E+02  0.17907488905E+02  0.31356234101E+03  0.32019828694E+03  0.47000000000E+01 0. -1.
<mgrwt>
<rscale>  0 0.14279839E+03</rscale>
<asrwt>0</asrwt>
<pdfrwt beam="1">  1        5 0.12277457E+00 0.14280766E+03</pdfrwt>
<pdfrwt beam="2">  1       -5 0.39604720E-02 0.14280766E+03</pdfrwt>
<totfact> 0.13357488E+02</totfact>
</mgrwt>
</event>
<event>
 8    1  0.3759079E-007  0.1450947E+03  0.7546771E-02  0.1206635E+00
         -5   -1    0    0    0  501 -0.00000000000E+00  0.00000000000E+00  0.11454749608E+04  0.11454846031E+04  0.47000000000E+01 0.  1.
          5   -1    0    0  501    0  0.00000000000E+00 -0.00000000000E+00 -0.18072380574E+02  0.18673535809E+02  0.47000000000E+01 0.  1.
         25    2    1    2    0    0 -0.78015108442E+01 -0.73243356387E+02  0.55458200275E+03  0.57324834209E+03  0.12500804419E+03 0.  0.
         25    2    1    2    0    0  0.78015108442E+01  0.73243356387E+02  0.57282057751E+03  0.59090979680E+03  0.12500208441E+03 0.  0.
          5    1    4    4  502    0  0.29807946134E+02 -0.15564717090E+02  0.52073043641E+02  0.62164828842E+02  0.47000000000E+01 0.  1.
         -5    1    4    4    0  502 -0.22006435290E+02  0.88808073477E+02  0.52074753387E+03  0.52874496796E+03  0.47000000000E+01 0.  1.
          5    1    3    3  503    0  0.31963884449E+01  0.35346656886E+02  0.13066519235E+03  0.13548094163E+03  0.47000000000E+01 0. -1.
         -5    1    3    3    0  503 -0.10997899289E+02 -0.10859001327E+03  0.42391681040E+03  0.43776740046E+03  0.47000000000E+01 0. -1.
<mgrwt>
<rscale>  0 0.14509339E+03</rscale>
<asrwt>0</asrwt>
<pdfrwt beam="2">  1        5 0.28273499E-02 0.14509467E+03</pdfrwt>
<pdfrwt beam="1">  1       -5 0.17627395E+00 0.14509467E+03</pdfrwt>
<totfact> 0.86674347E+01</totfact>
</mgrwt>
</event>
<event>
 8    1  0.3759079E-007  0.1589437E+03  0.7546771E-02  0.1189898E+00
         -5   -1    0    0    0  501 -0.00000000000E+00  0.00000000000E+00  0.19256613059E+03  0.19262347897E+03  0.47000000000E+01 0. -1.
          5   -1    0    0  501    0  0.00000000000E+00 -0.00000000000E+00 -0.13994966804E+03  0.14002856703E+03  0.47000000000E+01 0. -1.
         25    2    1    2    0    0 -0.33094321652E+02  0.92416197081E+02  0.68199060228E+02  0.17295726971E+03  0.12500847060E+03 0.  0.
         25    2    1    2    0    0  0.33094321652E+02 -0.92416197081E+02 -0.15582597677E+02  0.15969477629E+03  0.12499446633E+03 0.  0.
          5    1    3    3  502    0 -0.44159761220E+02  0.57238176953E+01  0.72629931495E+02  0.85323171231E+02  0.47000000000E+01 0. -1.
         -5    1    3    3    0  502  0.11065439568E+02  0.86692379386E+02 -0.44308712669E+01  0.87634098481E+02  0.47000000000E+01 0. -1.
          5    1    4    4  503    0  0.34177731840E+02 -0.78436927467E+01  0.43755401802E+02  0.56269583760E+02  0.47000000000E+01 0. -1.
         -5    1    4    4    0  503 -0.10834101882E+01 -0.84572504334E+02 -0.59337999479E+02  0.10342519253E+03  0.47000000000E+01 0. -1.
<mgrwt>
<rscale>  0 0.15894096E+03</rscale>
<asrwt>0</asrwt>
<pdfrwt beam="2">  1        5 0.21541199E-01 0.15894372E+03</pdfrwt>
<pdfrwt beam="1">  1       -5 0.29636039E-01 0.15894372E+03</pdfrwt>
<totfact> 0.16793829E+02</totfact>
</mgrwt>
</event>
<event>
 8    1  0.3759079E-007  0.1490959E+03  0.7546771E-02  0.1201612E+00
          5   -1    0    0  501    0  0.00000000000E+00  0.00000000000E+00  0.42020785584E+03  0.42023413963E+03  0.47000000000E+01 0.  1.
         -5   -1    0    0    0  501 -0.00000000000E+00 -0.00000000000E+00 -0.53536844930E+02  0.53742755466E+02  0.47000000000E+01 0.  1.
         25    2    1    2    0    0  0.24621035099E+02 -0.77450747030E+02  0.15456129579E+03  0.21475282669E+03  0.12499907533E+03 0.  0.
         25    2    1    2    0    0 -0.24621035099E+02  0.77450747030E+02  0.21210971513E+03  0.25922406841E+03  0.12490705666E+03 0.  0.
          5    1    4    4  502    0  0.44470877749E+02  0.32806876427E+01  0.89223017601E+02  0.99856190339E+02  0.47000000000E+01 0. -1.
         -5    1    4    4    0  502 -0.69091912849E+02  0.74170059387E+02  0.12288669753E+03  0.15936787807E+03  0.47000000000E+01 0. -1.
          5    1    3    3  503    0 -0.23995254377E+02  0.25009805510E+02  0.28477730685E+02  0.45103589094E+02  0.47000000000E+01 0.  1.
         -5    1    3    3    0  503  0.48616289476E+02 -0.10246055254E+03  0.12608356510E+03  0.16964923760E+03  0.47000000000E+01 0.  1.
<mgrwt>
<rscale>  0 0.14907660E+03</rscale>
<asrwt>0</asrwt>
<pdfrwt beam="1">  1        5 0.64665222E-01 0.14909588E+03</pdfrwt>
<pdfrwt beam="2">  1       -5 0.82542990E-02 0.14909588E+03</pdfrwt>
<totfact> 0.18145079E+02</totfact>
</mgrwt>
</event>
<event>
 8    1  0.3759079E-007  0.1254561E+03  0.7546771E-02  0.1234359E+00
         -5   -1    0    0    0  501 -0.00000000000E+00  0.00000000000E+00  0.15435906801E+03  0.15443060537E+03  0.47000000000E+01 0. -1.
          5   -1    0    0  501    0  0.00000000000E+00 -0.00000000000E+00 -0.13776420034E+03  0.13784435025E+03  0.47000000000E+01 0. -1.
         25    2    1    2    0    0 -0.79922776326E+01  0.71185888148E+01  0.82905192823E+02  0.15037252996E+03  0.12499630379E+03 0.  0.
         25    2    1    2    0    0  0.79922776326E+01 -0.71185888148E+01 -0.66310325161E+02  0.14190242566E+03  0.12499875350E+03 0.  0.
          5    1    3    3  502    0  0.20070699724E+02 -0.42553327010E+02 -0.27346828520E+01  0.47362296368E+02  0.47000000000E+01 0.  1.
         -5    1    3    3    0  502 -0.28062977356E+02  0.49671915824E+02  0.85639875675E+02  0.10301023360E+03  0.47000000000E+01 0.  1.
          5    1    4    4  503    0  0.27063734342E+02 -0.49225282121E+02  0.52142956482E+01  0.56611421070E+02  0.47000000000E+01 0.  1.
         -5    1    4    4    0  503 -0.19071456709E+02  0.42106693306E+02 -0.71524620809E+02  0.85291004591E+02  0.47000000000E+01 0.  1.
<mgrwt>
<rscale>  0 0.12545551E+03</rscale>
<asrwt>0</asrwt>
<pdfrwt beam="2">  1        5 0.21206161E-01 0.12545612E+03</pdfrwt>
<pdfrwt beam="1">  1       -5 0.23759217E-01 0.12545612E+03</pdfrwt>
<totfact> 0.24471345E+02</totfact>
</mgrwt>
</event>
<event>
 8    1  0.3759079E-007  0.1536638E+03  0.7546771E-02  0.1196042E+00
         -5   -1    0    0    0  501 -0.00000000000E+00  0.00000000000E+00  0.29656254721E+03  0.29659978828E+03  0.47000000000E+01 0. -1.
          5   -1    0    0  501    0  0.00000000000E+00 -0.00000000000E+00 -0.79577975717E+02  0.79716649573E+02  0.47000000000E+01 0. -1.
         25    2    1    2    0    0 -0.65512884667E+02 -0.60789175311E+02  0.10294777043E+03  0.18496087966E+03  0.12500008670E+03 0.  0.
         25    2    1    2    0    0  0.65512884667E+02  0.60789175311E+02  0.11403680106E+03  0.19135555819E+03  0.12500118304E+03 0.  0.
          5    1    4    4  502    0 -0.31914610852E+02  0.47251687969E+01  0.55910491086E+02  0.64722041218E+02  0.47000000000E+01 0.  1.
         -5    1    4    4    0  502  0.97427495519E+02  0.56064006514E+02  0.58126309975E+02  0.12663351697E+03  0.47000000000E+01 0.  1.
          5    1    3    3  503    0 -0.85208790346E+02 -0.53664044289E+02  0.24657023338E+02  0.10378066487E+03  0.47000000000E+01 0.  1.
         -5    1    3    3    0  503  0.19695905679E+02 -0.71251310216E+01  0.78290747090E+02  0.81180214785E+02  0.47000000000E+01 0.  1.
<mgrwt>
<rscale>  0 0.15366356E+03</rscale>
<asrwt>0</asrwt>
<pdfrwt beam="2">  1        5 0.12256297E-01 0.15366378E+03</pdfrwt>
<pdfrwt beam="1">  1       -5 0.45638539E-01 0.15366378E+03</pdfrwt>
<totfact> 0.19447408E+02</totfact>
</mgrwt>
</event>
<event>
 8    1  0.3759079E-007  0.1481986E+03  0.7546771E-02  0.1202704E+00
          5   -1    0    0  501    0  0.00000000000E+00  0.00000000000E+00  0.12072101995E+04  0.12072193487E+04  0.47000000000E+01 0.  1.
         -5   -1    0    0    0  501 -0.00000000000E+00 -0.00000000000E+00 -0.18567367753E+02  0.19152993115E+02  0.47000000000E+01 0.  1.
         25    2    1    2    0    0 -0.79336454124E+02  0.65821340438E+01  0.47822923904E+03  0.50066559553E+03  0.12500094411E+03 0.  0.
         25    2    1    2    0    0  0.79336454124E+02 -0.65821340438E+01  0.71041359271E+03  0.72570674625E+03  0.12500084563E+03 0.  0.
          5    1    3    3  502    0 -0.10202838409E+03  0.17296149144E+02  0.45328816565E+03  0.46497440688E+03  0.47000000000E+01 0.  1.
         -5    1    3    3    0  502  0.22691929964E+02 -0.10714015100E+02  0.24941073392E+02  0.35691188647E+02  0.47000000000E+01 0.  1.
          5    1    4    4  503    0  0.44954177460E+02 -0.34227621266E+02  0.11088865000E+03  0.12454232544E+03  0.47000000000E+01 0.  1.
         -5    1    4    4    0  503  0.34382276664E+02  0.27645487222E+02  0.59952494272E+03  0.60116442081E+03  0.47000000000E+01 0.  1.
<mgrwt>
<rscale>  0 0.14819861E+03</rscale>
<asrwt>0</asrwt>
<pdfrwt beam="1">  1        5 0.18577041E+00 0.14819863E+03</pdfrwt>
<pdfrwt beam="2">  1       -5 0.29022698E-02 0.14819863E+03</pdfrwt>
<totfact> 0.71579721E+01</totfact>
</mgrwt>
</event>
<event>
 8    1  0.3759079E-007  0.1609568E+03  0.7546771E-02  0.1187627E+00
         -5   -1    0    0    0  501 -0.00000000000E+00  0.00000000000E+00  0.23785698225E+02  0.24245606613E+02  0.47000000000E+01 0. -1.
          5   -1    0    0  501    0  0.00000000000E+00 -0.00000000000E+00 -0.11827768619E+04  0.11827862001E+04  0.47000000000E+01 0. -1.
         25    2    1    2    0    0 -0.16925519236E+01 -0.10136979719E+03 -0.40006988788E+03  0.43123426903E+03  0.12501351561E+03 0.  0.
         25    2    1    2    0    0  0.16925519236E+01  0.10136979719E+03 -0.75892127583E+03  0.77579753767E+03  0.12498646342E+03 0.  0.
          5    1    3    3  502    0 -0.20276535872E+02 -0.42276197506E+02 -0.29723758325E+02  0.55713612264E+02  0.47000000000E+01 0.  1.
         -5    1    3    3    0  502  0.18583983948E+02 -0.59093599681E+02 -0.37034612955E+03  0.37552065677E+03  0.47000000000E+01 0.  1.
          5    1    4    4  503    0  0.29445954025E+02  0.77925236590E+02 -0.21466365854E+03  0.23030845187E+03  0.47000000000E+01 0.  1.
         -5    1    4    4    0  503 -0.27753402101E+02  0.23444560597E+02 -0.54425761729E+03  0.54548908580E+03  0.47000000000E+01 0.  1.
<mgrwt>
<rscale>  0 0.16095151E+03</rscale>
<asrwt>0</asrwt>
<pdfrwt beam="2">  1        5 0.18200172E+00 0.16095676E+03</pdfrwt>
<pdfrwt beam="1">  1       -5 0.36954350E-02 0.16095676E+03</pdfrwt>
<totfact> 0.52593911E+01</totfact>
</mgrwt>
</event>
<event>
 8    1  0.3759079E-007  0.1911755E+03  0.7546771E-02  0.1157406E+00
         -5   -1    0    0    0  501 -0.00000000000E+00  0.00000000000E+00  0.57137544320E+02  0.57330523902E+02  0.47000000000E+01 0. -1.
          5   -1    0    0  501    0  0.00000000000E+00 -0.00000000000E+00 -0.63972153069E+03  0.63973879578E+03  0.47000000000E+01 0. -1.
         25    2    1    2    0    0  0.13201127474E+03 -0.59125511558E+02 -0.27526525252E+03  0.33513994417E+03  0.12500008062E+03 0.  0.
         25    2    1    2    0    0 -0.13201127474E+03  0.59125511558E+02 -0.30731873385E+03  0.36192937551E+03  0.12500106365E+03 0.  0.
          5    1    3    3  502    0  0.33834338426E+02 -0.28073382019E+02 -0.20661668317E+03  0.21129463078E+03  0.47000000000E+01 0. -1.
         -5    1    3    3    0  502  0.98176936312E+02 -0.31052129539E+02 -0.68648569354E+02  0.12384531338E+03  0.47000000000E+01 0. -1.
          5    1    4    4  503    0 -0.35408063819E+02 -0.21915683010E+02 -0.16721216322E+02  0.45118923087E+02  0.47000000000E+01 0.  1.
         -5    1    4    4    0  503 -0.96603210919E+02  0.81041194568E+02 -0.29059751752E+03  0.31681045243E+03  0.47000000000E+01 0.  1.
<mgrwt>
<rscale>  0 0.19117533E+03</rscale>
<asrwt>0</asrwt>
<pdfrwt beam="2">  1        5 0.98434864E-01 0.19117549E+03</pdfrwt>
<pdfrwt beam="1">  1       -5 0.88065646E-02 0.19117549E+03</pdfrwt>
<totfact> 0.65767687E+01</totfact>
</mgrwt>
</event>
<event>
 8    1  0.3759079E-007  0.1261127E+03  0.7546771E-02  0.1233341E+00
          5   -1    0    0  501    0  0.00000000000E+00  0.00000000000E+00  0.29474946265E+03  0.29478693277E+03  0.47000000000E+01 0. -1.
         -5   -1    0    0    0  501 -0.00000000000E+00 -0.00000000000E+00 -0.57551876264E+02  0.57743471159E+02  0.47000000000E+01 0. -1.
         25    2    1    2    0    0  0.49891262155E+01 -0.15933690163E+02  0.73775448638E+02  0.14610560367E+03  0.12500102695E+03 0.  0.
         25    2    1    2    0    0 -0.49891262155E+01  0.15933690163E+02  0.16342213775E+03  0.20642480026E+03  0.12500251676E+03 0.  0.
          5    1    4    4  502    0 -0.17252223272E+02 -0.11193189606E+02  0.17339914431E+03  0.17467764582E+03  0.47000000000E+01 0. -1.
         -5    1    4    4    0  502  0.12263097056E+02  0.27126879769E+02 -0.99770065627E+01  0.31747154445E+02  0.47000000000E+01 0. -1.
          5    1    3    3  503    0  0.15162236124E+02 -0.34954355161E+01 -0.33657040942E+02  0.37376434805E+02  0.47000000000E+01 0.  1.
         -5    1    3    3    0  503 -0.10173109909E+02 -0.12438254647E+02  0.10743248958E+03  0.10872916886E+03  0.47000000000E+01 0.  1.
<mgrwt>
<rscale>  0 0.12611229E+03</rscale>
<asrwt>0</asrwt>
<pdfrwt beam="1">  1        5 0.45363691E-01 0.12611266E+03</pdfrwt>
<pdfrwt beam="2">  1       -5 0.88717552E-02 0.12611266E+03</pdfrwt>
<totfact> 0.32420907E+02</totfact>
</mgrwt>
</event>
<event>
 8    1  0.3759079E-007  0.1620603E+03  0.7546771E-02  0.1186391E+00
         -5   -1    0    0    0  501 -0.00000000000E+00  0.00000000000E+00  0.13593427656E+03  0.13601550479E+03  0.47000000000E+01 0.  1.
          5   -1    0    0  501    0  0.00000000000E+00 -0.00000000000E+00 -0.19661819724E+03  0.19667436408E+03  0.47000000000E+01 0.  1.
         25    2    1    2    0    0  0.98428712290E+02 -0.30835068628E+02 -0.79013599997E+01  0.16225276032E+03  0.12499805551E+03 0.  0.
         25    2    1    2    0    0 -0.98428712290E+02  0.30835068628E+02 -0.52782560680E+02  0.17043710854E+03  0.12499518549E+03 0.  0.
          5    1    4    4  502    0 -0.70408263759E+02  0.46834597407E+02 -0.88211375167E+02  0.12228712045E+03  0.47000000000E+01 0.  1.
         -5    1    4    4    0  502 -0.28020448530E+02 -0.15999528779E+02  0.35428814488E+02  0.48149988089E+02  0.47000000000E+01 0.  1.
          5    1    3    3  503    0 -0.28795842948E+02 -0.17310732195E+02 -0.40567852565E+01  0.34167375182E+02  0.47000000000E+01 0. -1.
         -5    1    3    3    0  503  0.12722455524E+03 -0.13524336433E+02 -0.38445747432E+01  0.12808538514E+03  0.47000000000E+01 0. -1.
<mgrwt>
<rscale>  0 0.16205970E+03</rscale>
<asrwt>0</asrwt>
<pdfrwt beam="2">  1        5 0.30259522E-01 0.16206026E+03</pdfrwt>
<pdfrwt beam="1">  1       -5 0.20923534E-01 0.16206026E+03</pdfrwt>
<totfact> 0.17131591E+02</totfact>
</mgrwt>
</event>
<event>
 8    1  0.3759079E-007  0.1330493E+03  0.7546771E-02  0.1223002E+00
         -5   -1    0    0    0  501 -0.00000000000E+00  0.00000000000E+00  0.24193190767E+02  0.24645496130E+02  0.47000000000E+01 0.  1.
          5   -1    0    0  501    0  0.00000000000E+00 -0.00000000000E+00 -0.72572545323E+03  0.72574067233E+03  0.47000000000E+01 0.  1.
         25    2    1    2    0    0  0.43059566166E+02 -0.14890576362E+02 -0.36658415661E+03  0.38998212405E+03  0.12500503068E+03 0.  0.
         25    2    1    2    0    0 -0.43059566166E+02  0.14890576362E+02 -0.33494810585E+03  0.36040404441E+03  0.12499994443E+03 0.  0.
          5    1    4    4  502    0 -0.67413956352E+02 -0.35896007342E+02 -0.19111397821E+03  0.20586356531E+03  0.47000000000E+01 0. -1.
         -5    1    4    4    0  502  0.24354390186E+02  0.50786583704E+02 -0.14383412764E+03  0.15454047910E+03  0.47000000000E+01 0. -1.
          5    1    3    3  503    0  0.25024302033E+02  0.17837020007E+02 -0.11874566691E+02  0.33278676492E+02  0.47000000000E+01 0. -1.
         -5    1    3    3    0  503  0.18035264133E+02 -0.32727596369E+02 -0.35470958992E+03  0.35670344756E+03  0.47000000000E+01 0. -1.
<mgrwt>
<rscale>  0 0.13304809E+03</rscale>
<asrwt>0</asrwt>
<pdfrwt beam="2">  1        5 0.11168602E+00 0.13304929E+03</pdfrwt>
<pdfrwt beam="1">  1       -5 0.37579933E-02 0.13304929E+03</pdfrwt>
<totfact> 0.18071227E+02</totfact>
</mgrwt>
</event>
<event>
 8    1  0.3759079E-007  0.1338730E+03  0.7546771E-02  0.1221820E+00
          5   -1    0    0  501    0  0.00000000000E+00  0.00000000000E+00  0.15036012361E+03  0.15043356265E+03  0.47000000000E+01 0.  1.
         -5   -1    0    0    0  501 -0.00000000000E+00 -0.00000000000E+00 -0.14229265796E+03  0.14237025851E+03  0.47000000000E+01 0.  1.
         25    2    1    2    0    0 -0.16920604610E+02  0.44831784685E+02 -0.55111042991E+02  0.14477291040E+03  0.12500309095E+03 0.  0.
         25    2    1    2    0    0  0.16920604610E+02 -0.44831784685E+02  0.63178508638E+02  0.14803091076E+03  0.12500172323E+03 0.  0.
          5    1    3    3  502    0  0.53963851494E+02  0.17085779430E+02 -0.15716722008E+02  0.58933237459E+02  0.47000000000E+01 0.  1.
         -5    1    3    3    0  502 -0.70884456104E+02  0.27746005255E+02 -0.39394320982E+02  0.85839672940E+02  0.47000000000E+01 0.  1.
          5    1    4    4  503    0  0.20803966685E+02 -0.14524325037E+02  0.98073563538E+02  0.10141141411E+03  0.47000000000E+01 0. -1.
         -5    1    4    4    0  503 -0.38833620747E+01 -0.30307459648E+02 -0.34895054900E+02  0.46619496649E+02  0.47000000000E+01 0. -1.
<mgrwt>
<rscale>  0 0.13387264E+03</rscale>
<asrwt>0</asrwt>
<pdfrwt beam="1">  1        5 0.23143945E-01 0.13387296E+03</pdfrwt>
<pdfrwt beam="2">  1       -5 0.21902797E-01 0.13387296E+03</pdfrwt>
<totfact> 0.24774528E+02</totfact>
</mgrwt>
</event>
<event>
 8    1  0.3759079E-007  0.1394318E+03  0.7546771E-02  0.1214102E+00
         -5   -1    0    0    0  501 -0.00000000000E+00  0.00000000000E+00  0.18788479940E+02  0.19367420542E+02  0.47000000000E+01 0.  1.
          5   -1    0    0  501    0  0.00000000000E+00 -0.00000000000E+00 -0.14553940008E+04  0.14554015898E+04  0.47000000000E+01 0.  1.
         25    2    1    2    0    0  0.22738438098E+02  0.57392243386E+02 -0.31426138726E+03  0.34379704859E+03  0.12500113971E+03 0.  0.
         25    2    1    2    0    0 -0.22738438098E+02 -0.57392243386E+02 -0.11223441336E+04  0.11309719618E+04  0.12502126961E+03 0.  0.
          5    1    4    4  502    0  0.48522101706E+02 -0.87280240662E+01 -0.29518535881E+03  0.29931097343E+03  0.47000000000E+01 0. -1.
         -5    1    4    4    0  502 -0.71260539803E+02 -0.48664219320E+02 -0.82715877480E+03  0.83166098832E+03  0.47000000000E+01 0. -1.
          5    1    3    3  503    0 -0.30685692389E+02  0.58337946170E+02 -0.81448756993E+02  0.10488525967E+03  0.47000000000E+01 0. -1.
         -5    1    3    3    0  503  0.53424130487E+02 -0.94570278368E+00 -0.23281263027E+03  0.23891178892E+03  0.47000000000E+01 0. -1.
<mgrwt>
<rscale>  0 0.13942728E+03</rscale>
<asrwt>0</asrwt>
<pdfrwt beam="2">  1        5 0.22395180E+00 0.13943179E+03</pdfrwt>
<pdfrwt beam="1">  1       -5 0.29356542E-02 0.13943179E+03</pdfrwt>
<totfact> 0.38287468E+01</totfact>
</mgrwt>
</event>
<event>
 8    1  0.3759079E-007  0.1265607E+03  0.7546771E-02  0.1232653E+00
          5   -1    0    0  501    0  0.00000000000E+00  0.00000000000E+00  0.24188555063E+03  0.24193120841E+03  0.47000000000E+01 0.  1.
         -5   -1    0    0    0  501 -0.00000000000E+00 -0.00000000000E+00 -0.69978668328E+02  0.70136324547E+02  0.47000000000E+01 0.  1.
         25    2    1    2    0    0 -0.12297456130E+02  0.15528996501E+02  0.49177189933E+02  0.13577177803E+03  0.12499280995E+03 0.  0.
         25    2    1    2    0    0  0.12297456130E+02 -0.15528996501E+02  0.12272969237E+03  0.17629575494E+03  0.12500095463E+03 0.  0.
          5    1    3    3  502    0 -0.42488232829E+02  0.25400065053E+02 -0.24477433224E+02  0.55422450061E+02  0.47000000000E+01 0.  1.
         -5    1    3    3    0  502  0.30190776699E+02 -0.98710685520E+01  0.73654623157E+02  0.80349327965E+02  0.47000000000E+01 0.  1.
          5    1    4    4  503    0 -0.70829314052E+00  0.31433022619E+02 -0.11194822800E+02  0.33703866955E+02  0.47000000000E+01 0. -1.
         -5    1    4    4    0  503  0.13005749270E+02 -0.46962019120E+02  0.13392451517E+03  0.14259188798E+03  0.47000000000E+01 0. -1.
<mgrwt>
<rscale>  0 0.12655871E+03</rscale>
<asrwt>0</asrwt>
<pdfrwt beam="1">  1        5 0.37228801E-01 0.12656072E+03</pdfrwt>
<pdfrwt beam="2">  1       -5 0.10781588E-01 0.12656072E+03</pdfrwt>
<totfact> 0.34682094E+02</totfact>
</mgrwt>
</event>
<event>
 8    1  0.3759079E-007  0.1506169E+03  0.7546771E-02  0.1199733E+00
          5   -1    0    0  501    0  0.00000000000E+00  0.00000000000E+00  0.13475217779E+03  0.13483411815E+03  0.47000000000E+01 0. -1.
         -5   -1    0    0    0  501 -0.00000000000E+00 -0.00000000000E+00 -0.24648336456E+03  0.24652817081E+03  0.47000000000E+01 0. -1.
         25    2    1    2    0    0  0.24281284621E+02  0.80355698746E+02 -0.16335551464E+03  0.22219470202E+03  0.12505535710E+03 0.  0.
         25    2    1    2    0    0 -0.24281284621E+02 -0.80355698746E+02  0.51624327866E+02  0.15916758695E+03  0.12499052125E+03 0.  0.
          5    1    3    3  502    0  0.18351658590E+02 -0.21624889741E+02 -0.94842389732E+02  0.99103925853E+02  0.47000000000E+01 0. -1.
         -5    1    3    3    0  502  0.59296260302E+01  0.10198058849E+03 -0.68513124905E+02  0.12309077617E+03  0.47000000000E+01 0. -1.
          5    1    4    4  503    0 -0.22646108708E+02 -0.15864288738E+02 -0.38870549014E+02  0.47932572197E+02  0.47000000000E+01 0. -1.
         -5    1    4    4    0  503 -0.16351759124E+01 -0.64491410008E+02  0.90494876880E+02  0.11123501475E+03  0.47000000000E+01 0. -1.
<mgrwt>
<rscale>  0 0.15060348E+03</rscale>
<asrwt>0</asrwt>
<pdfrwt beam="1">  1        5 0.20740854E-01 0.15061694E+03</pdfrwt>
<pdfrwt beam="2">  1       -5 0.37930267E-01 0.15061694E+03</pdfrwt>
<totfact> 0.10828390E+02</totfact>
</mgrwt>
</event>
<event>
 8    1  0.3759079E-007  0.1289467E+03  0.7546771E-02  0.1229039E+00
          5   -1    0    0  501    0  0.00000000000E+00  0.00000000000E+00  0.23898268986E+02  0.24356051825E+02  0.47000000000E+01 0. -1.
         -5   -1    0    0    0  501 -0.00000000000E+00 -0.00000000000E+00 -0.69565534518E+03  0.69567122212E+03  0.47000000000E+01 0. -1.
         25    2    1    2    0    0 -0.26109691597E+02  0.17917621553E+02 -0.37237356679E+03  0.39406767963E+03  0.12499802288E+03 0.  0.
         25    2    1    2    0    0  0.26109691597E+02 -0.17917621553E+02 -0.29938350941E+03  0.32595959432E+03  0.12496565234E+03 0.  0.
          5    1    3    3  502    0  0.42902987551E+02  0.18897972317E+02 -0.73595999863E+02  0.87385701887E+02  0.47000000000E+01 0. -1.
         -5    1    3    3    0  502 -0.69012679148E+02 -0.98035076431E+00 -0.29877756693E+03  0.30668197774E+03  0.47000000000E+01 0. -1.
          5    1    4    4  503    0 -0.20018531904E+02  0.41874942622E+02 -0.67568685048E+02  0.82108888911E+02  0.47000000000E+01 0. -1.
         -5    1    4    4    0  503  0.46128223501E+02 -0.59792564175E+02 -0.23181482436E+03  0.24385070540E+03  0.47000000000E+01 0. -1.
<mgrwt>
<rscale>  0 0.12893890E+03</rscale>
<asrwt>0</asrwt>
<pdfrwt beam="1">  1        5 0.37130927E-02 0.12894674E+03</pdfrwt>
<pdfrwt beam="2">  1       -5 0.10706032E+00 0.12894674E+03</pdfrwt>
<totfact> 0.20248640E+02</totfact>
</mgrwt>
</event>
<event>
 8    1  0.3759079E-007  0.1537957E+03  0.7546771E-02  0.1195888E+00
         -5   -1    0    0    0  501 -0.00000000000E+00  0.00000000000E+00  0.75559187602E+03  0.75560649356E+03  0.47000000000E+01 0.  1.
          5   -1    0    0  501    0  0.00000000000E+00 -0.00000000000E+00 -0.32165025384E+02  0.32506597145E+02  0.47000000000E+01 0.  1.
         25    2    1    2    0    0 -0.78053700150E+02  0.43969540322E+02  0.43266003550E+03  0.45917773294E+03  0.12499513401E+03 0.  0.
         25    2    1    2    0    0  0.78053700150E+02 -0.43969540322E+02  0.29076681514E+03  0.32893535776E+03  0.12500971250E+03 0.  0.
          5    1    3    3  502    0 -0.99532665184E+01 -0.11569723689E+02 -0.16383851168E+01  0.16053047262E+02  0.47000000000E+01 0.  1.
         -5    1    3    3    0  502 -0.68100433632E+02  0.55539264011E+02  0.43429842062E+03  0.44312468568E+03  0.47000000000E+01 0.  1.
          5    1    4    4  503    0  0.20742955356E+02  0.24078767913E+02  0.19696451664E+03  0.19956745245E+03  0.47000000000E+01 0. -1.
         -5    1    4    4    0  503  0.57310744794E+02 -0.68048308235E+02  0.93802298497E+02  0.12936790532E+03  0.47000000000E+01 0. -1.
<mgrwt>
<rscale>  0 0.15379277E+03</rscale>
<asrwt>0</asrwt>
<pdfrwt beam="2">  1        5 0.49758651E-02 0.15379574E+03</pdfrwt>
<pdfrwt beam="1">  1       -5 0.11627229E+00 0.15379574E+03</pdfrwt>
<totfact> 0.10771897E+02</totfact>
</mgrwt>
</event>
<event>
 8    1  0.3759079E-007  0.1421852E+03  0.7546771E-02  0.1210419E+00
         -5   -1    0    0    0  501 -0.00000000000E+00  0.00000000000E+00  0.90830263177E+02  0.90951782329E+02  0.47000000000E+01 0. -1.
          5   -1    0    0  501    0  0.00000000000E+00 -0.00000000000E+00 -0.37941025245E+03  0.37943936231E+03  0.47000000000E+01 0. -1.
         25    2    1    2    0    0 -0.43292611366E+02  0.52122395087E+02  0.70362207384E+01  0.14235921294E+03  0.12500257133E+03 0.  0.
         25    2    1    2    0    0  0.43292611366E+02 -0.52122395087E+02 -0.29561621002E+03  0.32803193169E+03  0.12500004127E+03 0.  0.
          5    1    4    4  502    0  0.74439858402E+02 -0.70413195493E+02 -0.18448127523E+03  0.21107994109E+03  0.47000000000E+01 0.  1.
         -5    1    4    4    0  502 -0.31147247036E+02  0.18290800406E+02 -0.11113493479E+03  0.11695199061E+03  0.47000000000E+01 0.  1.
          5    1    3    3  503    0 -0.42600403196E+02 -0.54975026425E+01 -0.46561160724E+02  0.63522032207E+02  0.47000000000E+01 0.  1.
         -5    1    3    3    0  503 -0.69220816950E+00  0.57619897730E+02  0.53597381462E+02  0.78837180734E+02  0.47000000000E+01 0.  1.
<mgrwt>
<rscale>  0 0.14218467E+03</rscale>
<asrwt>0</asrwt>
<pdfrwt beam="2">  1        5 0.58382394E-01 0.14218522E+03</pdfrwt>
<pdfrwt beam="1">  1       -5 0.13985474E-01 0.14218522E+03</pdfrwt>
<totfact> 0.88547295E+01</totfact>
</mgrwt>
</event>
<event>
 8    1  0.3759079E-007  0.1629947E+03  0.7546771E-02  0.1185361E+00
         -5   -1    0    0    0  501 -0.00000000000E+00  0.00000000000E+00  0.11943067396E+03  0.11952311861E+03  0.47000000000E+01 0. -1.
          5   -1    0    0  501    0  0.00000000000E+00 -0.00000000000E+00 -0.29304721937E+03  0.29308490711E+03  0.47000000000E+01 0. -1.
         25    2    1    2    0    0  0.10400059508E+03 -0.11031808267E+02  0.14584309950E+02  0.16364587804E+03  0.12501778566E+03 0.  0.
         25    2    1    2    0    0 -0.10400059508E+03  0.11031808267E+02 -0.18820085536E+03  0.24896214768E+03  0.12499905780E+03 0.  0.
          5    1    4    4  502    0 -0.24589460635E+01 -0.43456464237E+02 -0.29545565327E+02  0.52816106731E+02  0.47000000000E+01 0.  1.
         -5    1    4    4    0  502 -0.10154164902E+03  0.54488272504E+02 -0.15865529003E+03  0.19614604095E+03  0.47000000000E+01 0.  1.
          5    1    3    3  503    0  0.84434156651E+01 -0.46195918479E+02  0.36161689257E+02  0.59456807198E+02  0.47000000000E+01 0. -1.
         -5    1    3    3    0  503  0.95557179416E+02  0.35164110213E+02 -0.21577379307E+02  0.10418907084E+03  0.47000000000E+01 0. -1.
<mgrwt>
<rscale>  0 0.16299111E+03</rscale>
<asrwt>0</asrwt>
<pdfrwt beam="2">  1        5 0.45094198E-01 0.16299470E+03</pdfrwt>
<pdfrwt beam="1">  1       -5 0.18383960E-01 0.16299470E+03</pdfrwt>
<totfact> 0.97302863E+01</totfact>
</mgrwt>
</event>
<event>
 8    1  0.3759079E-007  0.1320718E+03  0.7546771E-02  0.1224417E+00
          5   -1    0    0  501    0  0.00000000000E+00  0.00000000000E+00  0.21580764226E+03  0.21585881603E+03  0.47000000000E+01 0. -1.
         -5   -1    0    0    0  501 -0.00000000000E+00 -0.00000000000E+00 -0.16734081852E+03  0.16740680853E+03  0.47000000000E+01 0. -1.
         25    2    1    2    0    0 -0.31170285058E+02 -0.29052685018E+02 -0.11359873818E+03  0.17420571990E+03  0.12500925706E+03 0.  0.
         25    2    1    2    0    0  0.31170285058E+02  0.29052685018E+02  0.16206556192E+03  0.20905990466E+03  0.12500060879E+03 0.  0.
          5    1    4    4  502    0  0.30065754715E+02  0.67417050719E+02  0.46914977440E+02  0.87590601336E+02  0.47000000000E+01 0. -1.
         -5    1    4    4    0  502  0.11045303437E+01 -0.38364365701E+02  0.11515058448E+03  0.12146930332E+03  0.47000000000E+01 0. -1.
          5    1    3    3  503    0 -0.44381691754E+02  0.41014617472E+02 -0.52534049067E+02  0.80211281755E+02  0.47000000000E+01 0.  1.
         -5    1    3    3    0  503  0.13211406695E+02 -0.70067302490E+02 -0.61064689114E+02  0.93994438142E+02  0.47000000000E+01 0.  1.
<mgrwt>
<rscale>  0 0.13206975E+03</rscale>
<asrwt>0</asrwt>
<pdfrwt beam="1">  1        5 0.33210188E-01 0.13207180E+03</pdfrwt>
<pdfrwt beam="2">  1       -5 0.25753754E-01 0.13207180E+03</pdfrwt>
<totfact> 0.89892327E+01</totfact>
</mgrwt>
</event>
<event>
 8    1  0.3759079E-007  0.1456800E+03  0.7546771E-02  0.1205894E+00
         -5   -1    0    0    0  501 -0.00000000000E+00  0.00000000000E+00  0.39274455356E+03  0.39277267516E+03  0.47000000000E+01 0.  1.
          5   -1    0    0  501    0  0.00000000000E+00 -0.00000000000E+00 -0.58715224051E+02  0.58903035027E+02  0.47000000000E+01 0.  1.
         25    2    1    2    0    0 -0.34246462231E+02 -0.66500521693E+02  0.23159645249E+03  0.27358820834E+03  0.12497380274E+03 0.  0.
         25    2    1    2    0    0  0.34246462231E+02  0.66500521693E+02  0.10243287702E+03  0.17808750185E+03  0.12501009744E+03 0.  0.
          5    1    3    3  502    0  0.17019842938E+02 -0.88076351008E+02  0.14313842313E+03  0.16899058210E+03  0.47000000000E+01 0. -1.
         -5    1    3    3    0  502 -0.51266305169E+02  0.21575829315E+02  0.88458029360E+02  0.10459762624E+03  0.47000000000E+01 0. -1.
          5    1    4    4  503    0  0.19160336345E+02  0.14678819075E+01  0.10905600254E+03  0.11083580133E+03  0.47000000000E+01 0.  1.
         -5    1    4    4    0  503  0.15086125886E+02  0.65032639786E+02 -0.66231255218E+01  0.67251700524E+02  0.47000000000E+01 0.  1.
<mgrwt>
<rscale>  0 0.14567222E+03</rscale>
<asrwt>0</asrwt>
<pdfrwt beam="2">  1        5 0.90497210E-02 0.14568001E+03</pdfrwt>
<pdfrwt beam="1">  1       -5 0.60438853E-01 0.14568001E+03</pdfrwt>
<totfact> 0.17835664E+02</totfact>
</mgrwt>
</event>
<event>
 8    1  0.3759079E-007  0.1282756E+03  0.7546771E-02  0.1230040E+00
          5   -1    0    0  501    0  0.00000000000E+00  0.00000000000E+00  0.53473558352E+03  0.53475623819E+03  0.47000000000E+01 0.  1.
         -5   -1    0    0    0  501 -0.00000000000E+00 -0.00000000000E+00 -0.36198707434E+02  0.36502553607E+02  0.47000000000E+01 0.  1.
         25    2    1    2    0    0 -0.25382993276E+02 -0.13591581065E+02  0.13717583982E+03  0.18780796053E+03  0.12500236631E+03 0.  0.
         25    2    1    2    0    0  0.25382993276E+02  0.13591581065E+02  0.36136103627E+03  0.38345083127E+03  0.12499485608E+03 0.  0.
          5    1    4    4  502    0  0.47476558049E+01 -0.39043649839E+02  0.37124560061E+02  0.54288763001E+02  0.47000000000E+01 0.  1.
         -5    1    4    4    0  502  0.20635337471E+02  0.52635230904E+02  0.32423647621E+03  0.32916206827E+03  0.47000000000E+01 0.  1.
          5    1    3    3  503    0  0.24773404593E+01 -0.19352156978E+02  0.15340988668E+03  0.15471692385E+03  0.47000000000E+01 0.  1.
         -5    1    3    3    0  503 -0.27860333735E+02  0.57605759130E+01 -0.16234046860E+02  0.33091036674E+02  0.47000000000E+01 0.  1.
<mgrwt>
<rscale>  0 0.12827373E+03</rscale>
<asrwt>0</asrwt>
<pdfrwt beam="1">  1        5 0.82291971E-01 0.12827556E+03</pdfrwt>
<pdfrwt beam="2">  1       -5 0.55939938E-02 0.12827556E+03</pdfrwt>
<totfact> 0.19296579E+02</totfact>
</mgrwt>
</event>
<event>
 8    1  0.3759079E-007  0.1357412E+03  0.7546771E-02  0.1219186E+00
         -5   -1    0    0    0  501 -0.00000000000E+00  0.00000000000E+00  0.23408366911E+03  0.23413084834E+03  0.47000000000E+01 0. -1.
          5   -1    0    0  501    0  0.00000000000E+00 -0.00000000000E+00 -0.84362873344E+02  0.84493694432E+02  0.47000000000E+01 0.  1.
         25    2    1    2    0    0 -0.38053177904E+02  0.36708738591E+02  0.11653861481E+03  0.17888647774E+03  0.12499418921E+03 0.  0.
         25    2    1    2    0    0  0.38053177904E+02 -0.36708738591E+02  0.33182180960E+02  0.13973806504E+03  0.12502037374E+03 0.  0.
          5    1    4    4  502    0  0.27351978937E+01 -0.16467684635E+02 -0.46778088651E+02  0.49889332754E+02  0.47000000000E+01 0. -1.
         -5    1    4    4    0  502  0.35317980011E+02 -0.20241053956E+02  0.79960269611E+02  0.89848732287E+02  0.47000000000E+01 0. -1.
          5    1    3    3  503    0  0.96382196559E+01 -0.17624000094E+02 -0.17151494485E+02  0.26828425606E+02  0.47000000000E+01 0. -1.
         -5    1    3    3    0  503 -0.47691397560E+02  0.54332738685E+02  0.13369010929E+03  0.15205805213E+03  0.47000000000E+01 0. -1.
<mgrwt>
<rscale>  0 0.13573516E+03</rscale>
<asrwt>0</asrwt>
<pdfrwt beam="2">  1        5 0.12992596E-01 0.13574119E+03</pdfrwt>
<pdfrwt beam="1">  1       -5 0.36026564E-01 0.13574119E+03</pdfrwt>
<totfact> 0.27317052E+02</totfact>
</mgrwt>
</event>
<event>
 8    1  0.3759079E-007  0.1287788E+03  0.7546771E-02  0.1229280E+00
          5   -1    0    0  501    0  0.00000000000E+00  0.00000000000E+00  0.47247012961E+03  0.47249350617E+03  0.47000000000E+01 0. -1.
         -5   -1    0    0    0  501 -0.00000000000E+00 -0.00000000000E+00 -0.41580150957E+02  0.41844939402E+02  0.47000000000E+01 0. -1.
         25    2    1    2    0    0 -0.27422478453E+02 -0.14369292293E+02  0.11289411274E+03  0.17125728428E+03  0.12500203135E+03 0.  0.
         25    2    1    2    0    0  0.27422478453E+02  0.14369292293E+02  0.31799586592E+03  0.34308116129E+03  0.12499937444E+03 0.  0.
          5    1    4    4  502    0 -0.28225971211E+02  0.31633131078E+02  0.24911477316E+03  0.25274022363E+03  0.47000000000E+01 0. -1.
         -5    1    4    4    0  502  0.55648449663E+02 -0.17263838785E+02  0.68881092758E+02  0.90340937670E+02  0.47000000000E+01 0. -1.
          5    1    3    3  503    0 -0.18650825221E+02  0.14932597680E+02  0.13243726955E+03  0.13465717998E+03  0.47000000000E+01 0. -1.
         -5    1    3    3    0  503 -0.87716532323E+01 -0.29301889973E+02 -0.19543156812E+02  0.36600104297E+02  0.47000000000E+01 0. -1.
<mgrwt>
<rscale>  0 0.12877815E+03</rscale>
<asrwt>0</asrwt>
<pdfrwt beam="1">  1        5 0.72709876E-01 0.12877879E+03</pdfrwt>
<pdfrwt beam="2">  1       -5 0.64191131E-02 0.12877879E+03</pdfrwt>
<totfact> 0.20378218E+02</totfact>
</mgrwt>
</event>
<event>
 8    1  0.3759079E-007  0.1676242E+03  0.7546771E-02  0.1180359E+00
          5   -1    0    0  501    0  0.00000000000E+00  0.00000000000E+00  0.41722997667E+02  0.41986885266E+02  0.47000000000E+01 0.  1.
         -5   -1    0    0    0  501 -0.00000000000E+00 -0.00000000000E+00 -0.96657480330E+03  0.96658623018E+03  0.47000000000E+01 0.  1.
         25    2    1    2    0    0 -0.10623496373E+03  0.34394664677E+02 -0.74126583278E+03  0.75997368949E+03  0.12496444856E+03 0.  0.
         25    2    1    2    0    0  0.10623496373E+03 -0.34394664677E+02 -0.18358597285E+03  0.24859942595E+03  0.12501601769E+03 0.  0.
          5    1    4    4  502    0  0.90906309265E+02 -0.56613532808E+02 -0.19203344083E+03  0.21992721878E+03  0.47000000000E+01 0.  1.
         -5    1    4    4    0  502  0.15328654460E+02  0.22218868131E+02  0.84474679834E+01  0.28672207169E+02  0.47000000000E+01 0.  1.
          5    1    3    3  503    0 -0.61294937187E+02  0.10271152579E+02 -0.10841880808E+03  0.12505716231E+03  0.47000000000E+01 0. -1.
         -5    1    3    3    0  503 -0.44940026539E+02  0.24123512097E+02 -0.63284702470E+03  0.63491652718E+03  0.47000000000E+01 0. -1.
<mgrwt>
<rscale>  0 0.16761456E+03</rscale>
<asrwt>0</asrwt>
<pdfrwt beam="1">  1        5 0.64401015E-02 0.16762418E+03</pdfrwt>
<pdfrwt beam="2">  1       -5 0.14872498E+00 0.16762418E+03</pdfrwt>
<totfact> 0.37494308E+01</totfact>
</mgrwt>
</event>
<event>
 8    1  0.3759079E-007  0.1328220E+03  0.7546771E-02  0.1223328E+00
         -5   -1    0    0    0  501 -0.00000000000E+00  0.00000000000E+00  0.18055374771E+03  0.18061491027E+03  0.47000000000E+01 0.  1.
          5   -1    0    0  501    0  0.00000000000E+00 -0.00000000000E+00 -0.97574151687E+02  0.97687282066E+02  0.47000000000E+01 0.  1.
         25    2    1    2    0    0 -0.19091289653E+02 -0.40637498284E+02  0.41412397319E+02  0.13912775183E+03  0.12500264425E+03 0.  0.
         25    2    1    2    0    0  0.19091289653E+02  0.40637498284E+02  0.41567198704E+02  0.13917444051E+03  0.12500323706E+03 0.  0.
          5    1    4    4  502    0  0.45809657899E+02  0.33979254427E+02  0.75808172447E+02  0.94984648749E+02  0.47000000000E+01 0.  1.
         -5    1    4    4    0  502 -0.26718368246E+02  0.66582438569E+01 -0.34240973742E+02  0.44189791760E+02  0.47000000000E+01 0.  1.
          5    1    3    3  503    0 -0.22699334435E+02  0.35870566431E+02  0.45343081676E+02  0.62289986159E+02  0.47000000000E+01 0.  1.
         -5    1    3    3    0  503  0.36080447823E+01 -0.76508064715E+02 -0.39306843570E+01  0.76837765669E+02  0.47000000000E+01 0.  1.
<mgrwt>
<rscale>  0 0.13282190E+03</rscale>
<asrwt>0</asrwt>
<pdfrwt beam="2">  1        5 0.15024815E-01 0.13282203E+03</pdfrwt>
<pdfrwt beam="1">  1       -5 0.27790906E-01 0.13282203E+03</pdfrwt>
<totfact> 0.34873720E+02</totfact>
</mgrwt>
</event>
<event>
 8    1  0.3759079E-007  0.1357264E+03  0.7546771E-02  0.1219205E+00
         -5   -1    0    0    0  501 -0.00000000000E+00  0.00000000000E+00  0.15561515577E+03  0.15568611597E+03  0.47000000000E+01 0. -1.
          5   -1    0    0  501    0  0.00000000000E+00 -0.00000000000E+00 -0.12798109897E+03  0.12806737169E+03  0.47000000000E+01 0. -1.
         25    2    1    2    0    0 -0.41415797596E+02 -0.32874207214E+02  0.52980211811E+02  0.14570023864E+03  0.12500269959E+03 0.  0.
         25    2    1    2    0    0  0.41415797596E+02  0.32874207214E+02 -0.25346155007E+02  0.13805324902E+03  0.12498115939E+03 0.  0.
          5    1    4    4  502    0  0.74254462074E+02 -0.74837792889E+00  0.15036130235E+02  0.75910871553E+02  0.47000000000E+01 0.  1.
         -5    1    4    4    0  502 -0.32838664479E+02  0.33622585143E+02 -0.40382285242E+02  0.62142377471E+02  0.47000000000E+01 0.  1.
          5    1    3    3  503    0 -0.23634337551E+01 -0.72923385159E+02  0.51709770409E+02  0.89551081947E+02  0.47000000000E+01 0. -1.
         -5    1    3    3    0  503 -0.39052363841E+02  0.40049177945E+02  0.12704414024E+01  0.56149156690E+02  0.47000000000E+01 0. -1.
<mgrwt>
<rscale>  0 0.13572144E+03</rscale>
<asrwt>0</asrwt>
<pdfrwt beam="2">  1        5 0.19701495E-01 0.13572640E+03</pdfrwt>
<pdfrwt beam="1">  1       -5 0.23952888E-01 0.13572640E+03</pdfrwt>
<totfact> 0.28436084E+02</totfact>
</mgrwt>
</event>
<event>
 8    1  0.3759079E-007  0.1294934E+03  0.7546771E-02  0.1228228E+00
          5   -1    0    0  501    0  0.00000000000E+00  0.00000000000E+00  0.42933790367E+03  0.42936362855E+03  0.47000000000E+01 0.  1.
         -5   -1    0    0    0  501 -0.00000000000E+00 -0.00000000000E+00 -0.45588862962E+02  0.45830496683E+02  0.47000000000E+01 0.  1.
         25    2    1    2    0    0  0.32996122026E+02  0.64577650111E+01  0.10100086652E+03  0.16422457024E+03  0.12505233959E+03 0.  0.
         25    2    1    2    0    0 -0.32996122026E+02 -0.64577650111E+01  0.28274817419E+03  0.31096955499E+03  0.12500034931E+03 0.  0.
          5    1    4    4  502    0 -0.44472552845E+02 -0.29312451797E+02  0.39858430914E+02  0.66691920814E+02  0.47000000000E+01 0.  1.
         -5    1    4    4    0  502  0.11476430818E+02  0.22854686786E+02  0.24288974327E+03  0.24427763418E+03  0.47000000000E+01 0.  1.
          5    1    3    3  503    0  0.72021273410E+02 -0.94290660167E+01  0.97515342126E+02  0.12168526229E+03  0.47000000000E+01 0.  1.
         -5    1    3    3    0  503 -0.39025151384E+02  0.15886831028E+02  0.34855243911E+01  0.42539307950E+02  0.47000000000E+01 0.  1.
<mgrwt>
<rscale>  0 0.12948082E+03</rscale>
<asrwt>0</asrwt>
<pdfrwt beam="1">  1        5 0.66072551E-01 0.12949338E+03</pdfrwt>
<pdfrwt beam="2">  1       -5 0.70342373E-02 0.12949338E+03</pdfrwt>
<totfact> 0.21684197E+02</totfact>
</mgrwt>
</event>
<event>
 8    1  0.3759079E-007  0.1328602E+03  0.7546771E-02  0.1223274E+00
         -5   -1    0    0    0  501 -0.00000000000E+00  0.00000000000E+00  0.94157254371E+03  0.94158427401E+03  0.47000000000E+01 0.  1.
          5   -1    0    0  501    0  0.00000000000E+00 -0.00000000000E+00 -0.18509535644E+02  0.19096934565E+02  0.47000000000E+01 0.  1.
         25    2    1    2    0    0 -0.20414082753E+02  0.40127782565E+02  0.49050533269E+03  0.50818039267E+03  0.12499942556E+03 0.  0.
         25    2    1    2    0    0  0.20414082753E+02 -0.40127782565E+02  0.43255767538E+03  0.45250081591E+03  0.12499548857E+03 0.  0.
          5    1    3    3  502    0  0.91069858284E+01 -0.38516167697E+02  0.82908673027E+02  0.91991143204E+02  0.47000000000E+01 0.  1.
         -5    1    3    3    0  502 -0.29521068581E+02  0.78643950263E+02  0.40759665966E+03  0.41618924946E+03  0.47000000000E+01 0.  1.
          5    1    4    4  503    0  0.32533131799E+02  0.39944950079E+02  0.16660202597E+03  0.17444864218E+03  0.47000000000E+01 0.  1.
         -5    1    4    4    0  503 -0.12119049046E+02 -0.80072732644E+02  0.26595564941E+03  0.27805217373E+03  0.47000000000E+01 0.  1.
<mgrwt>
<rscale>  0 0.13285926E+03</rscale>
<asrwt>0</asrwt>
<pdfrwt beam="2">  1        5 0.28937073E-02 0.13286019E+03</pdfrwt>
<pdfrwt beam="1">  1       -5 0.14490342E+00 0.13286019E+03</pdfrwt>
<totfact> 0.14068847E+02</totfact>
</mgrwt>
</event>
<event>
 8    1  0.3759079E-007  0.1349106E+03  0.7546771E-02  0.1220349E+00
          5   -1    0    0  501    0  0.00000000000E+00  0.00000000000E+00  0.58832020465E+03  0.58833897814E+03  0.47000000000E+01 0.  1.
         -5   -1    0    0    0  501 -0.00000000000E+00 -0.00000000000E+00 -0.50220236750E+02  0.50439688532E+02  0.47000000000E+01 0.  1.
         25    2    1    2    0    0 -0.94317895124E+01  0.49862638275E+02  0.70718123678E+02  0.15231526080E+03  0.12499457711E+03 0.  0.
         25    2    1    2    0    0  0.94317895124E+01 -0.49862638275E+02  0.46738184422E+03  0.48646340587E+03  0.12500246235E+03 0.  0.
          5    1    4    4  502    0 -0.36448340492E+02  0.98236869778E+01  0.30563592452E+03  0.30799414720E+03  0.47000000000E+01 0. -1.
         -5    1    4    4    0  502  0.45880130004E+02 -0.59686325252E+02  0.16174591970E+03  0.17846925867E+03  0.47000000000E+01 0. -1.
          5    1    3    3  503    0 -0.10763863692E+01 -0.21842641153E+02  0.76536645444E+02  0.79738370161E+02  0.47000000000E+01 0. -1.
         -5    1    3    3    0  503 -0.83554031433E+01  0.71705279428E+02 -0.58185217655E+01  0.72576890640E+02  0.47000000000E+01 0. -1.
<mgrwt>
<rscale>  0 0.13490873E+03</rscale>
<asrwt>0</asrwt>
<pdfrwt beam="1">  1        5 0.90529124E-01 0.13491055E+03</pdfrwt>
<pdfrwt beam="2">  1       -5 0.77445155E-02 0.13491055E+03</pdfrwt>
<totfact> 0.90547339E+01</totfact>
</mgrwt>
</event>
<event>
 8    1  0.3759079E-007  0.1418043E+03  0.7546771E-02  0.1210922E+00
         -5   -1    0    0    0  501 -0.00000000000E+00  0.00000000000E+00  0.76634329751E+03  0.76635770998E+03  0.47000000000E+01 0.  1.
          5   -1    0    0  501    0  0.00000000000E+00 -0.00000000000E+00 -0.26178682677E+02  0.26597244720E+02  0.47000000000E+01 0.  1.
         25    2    1    2    0    0  0.43464699265E+02  0.50939109699E+02  0.33888046108E+03  0.36735327957E+03  0.12499796849E+03 0.  0.
         25    2    1    2    0    0 -0.43464699265E+02 -0.50939109699E+02  0.40128415375E+03  0.42560167513E+03  0.12499536328E+03 0.  0.
          5    1    3    3  502    0  0.18995409463E+02 -0.36190511254E+02  0.17811955620E+03  0.18280931318E+03  0.47000000000E+01 0. -1.
         -5    1    3    3    0  502  0.24469289802E+02  0.87129620953E+02  0.16076090489E+03  0.18454396639E+03  0.47000000000E+01 0. -1.
          5    1    4    4  503    0 -0.39309211543E+02  0.64936181452E+01  0.30636741572E+02  0.50478521402E+02  0.47000000000E+01 0.  1.
         -5    1    4    4    0  503 -0.41554877215E+01 -0.57432727845E+02  0.37064741218E+03  0.37512315373E+03  0.47000000000E+01 0.  1.
<mgrwt>
<rscale>  0 0.14180375E+03</rscale>
<asrwt>0</asrwt>
<pdfrwt beam="2">  1        5 0.40607954E-02 0.14180432E+03</pdfrwt>
<pdfrwt beam="1">  1       -5 0.11793227E+00 0.14180432E+03</pdfrwt>
<totfact> 0.14177200E+02</totfact>
</mgrwt>
</event>
<event>
 8    1  0.3759079E-007  0.1392296E+03  0.7546771E-02  0.1214370E+00
          5   -1    0    0  501    0  0.00000000000E+00  0.00000000000E+00  0.31308369261E+03  0.31311896873E+03  0.47000000000E+01 0.  1.
         -5   -1    0    0    0  501 -0.00000000000E+00 -0.00000000000E+00 -0.63496546918E+02  0.63670255775E+02  0.47000000000E+01 0.  1.
         25    2    1    2    0    0 -0.41391668973E+02  0.45241346610E+02  0.93938592279E+02  0.16795633570E+03  0.12499928752E+03 0.  0.
         25    2    1    2    0    0  0.41391668973E+02 -0.45241346610E+02  0.15564855342E+03  0.20883288881E+03  0.12499861424E+03 0.  0.
          5    1    3    3  502    0 -0.79089713217E+02  0.17728859833E+02  0.25714981274E+02  0.85163639363E+02  0.47000000000E+01 0.  1.
         -5    1    3    3    0  502  0.37698044244E+02  0.27512486777E+02  0.68223611005E+02  0.82792696339E+02  0.47000000000E+01 0.  1.
          5    1    4    4  503    0  0.18909336945E+02 -0.88006306243E+02  0.92143358901E+02  0.12889981207E+03  0.47000000000E+01 0.  1.
         -5    1    4    4    0  503  0.22482332027E+02  0.42764959634E+02  0.63505194517E+02  0.79933076736E+02  0.47000000000E+01 0.  1.
<mgrwt>
<rscale>  0 0.13922941E+03</rscale>
<asrwt>0</asrwt>
<pdfrwt beam="1">  1        5 0.48182798E-01 0.13922956E+03</pdfrwt>
<pdfrwt beam="2">  1       -5 0.97847752E-02 0.13922956E+03</pdfrwt>
<totfact> 0.24965940E+02</totfact>
</mgrwt>
</event>
<event>
 8    1  0.3759079E-007  0.1386968E+03  0.7546771E-02  0.1215094E+00
         -5   -1    0    0    0  501 -0.00000000000E+00  0.00000000000E+00  0.92929408391E+02  0.93048186139E+02  0.47000000000E+01 0.  1.
          5   -1    0    0  501    0  0.00000000000E+00 -0.00000000000E+00 -0.21775024781E+03  0.21780096515E+03  0.47000000000E+01 0.  1.
         25    2    1    2    0    0 -0.34348291003E+02  0.49316936067E+02 -0.27449269327E+02  0.14138691469E+03  0.12499932792E+03 0.  0.
         25    2    1    2    0    0  0.34348291003E+02 -0.49316936067E+02 -0.97371570094E+02  0.16946223660E+03  0.12499704674E+03 0.  0.
          5    1    3    3  502    0 -0.76340072809E+02  0.12450855876E+02  0.30538940377E+01  0.77551575079E+02  0.47000000000E+01 0. -1.
         -5    1    3    3    0  502  0.41991781806E+02  0.36866080192E+02 -0.30503163365E+02  0.63835339611E+02  0.47000000000E+01 0. -1.
          5    1    4    4  503    0  0.26119979419E+02 -0.90061592637E+02 -0.50396802460E+02  0.10656111623E+03  0.47000000000E+01 0.  1.
         -5    1    4    4    0  503  0.82283115835E+01  0.40744656570E+02 -0.46974767634E+02  0.62901120377E+02  0.47000000000E+01 0.  1.
<mgrwt>
<rscale>  0 0.13869627E+03</rscale>
<asrwt>0</asrwt>
<pdfrwt beam="2">  1        5 0.33513076E-01 0.13869678E+03</pdfrwt>
<pdfrwt beam="1">  1       -5 0.14309870E-01 0.13869678E+03</pdfrwt>
<totfact> 0.26747846E+02</totfact>
</mgrwt>
</event>
<event>
 8    1  0.3759079E-007  0.1370078E+03  0.7546771E-02  0.1217417E+00
         -5   -1    0    0    0  501 -0.00000000000E+00  0.00000000000E+00  0.18070174504E+03  0.18076285752E+03  0.47000000000E+01 0. -1.
          5   -1    0    0  501    0  0.00000000000E+00 -0.00000000000E+00 -0.10543061927E+03  0.10553532811E+03  0.47000000000E+01 0. -1.
         25    2    1    2    0    0  0.55096668825E+02 -0.10529881608E+02  0.55754137191E+02  0.14791774093E+03  0.12499845178E+03 0.  0.
         25    2    1    2    0    0 -0.55096668825E+02  0.10529881608E+02  0.19516988574E+02  0.13838044470E+03  0.12498685255E+03 0.  0.
          5    1    3    3  502    0  0.14479996623E+02 -0.64189333420E+02  0.44366953797E+02  0.79501304494E+02  0.47000000000E+01 0. -1.
         -5    1    3    3    0  502  0.40616672202E+02  0.53659451812E+02  0.11387183394E+02  0.68416436441E+02  0.47000000000E+01 0. -1.
          5    1    4    4  503    0  0.36525153697E+02 -0.47855942870E+01  0.25702650507E+02  0.45163093432E+02  0.47000000000E+01 0.  1.
         -5    1    4    4    0  503 -0.91621822522E+02  0.15315475895E+02 -0.61856619324E+01  0.93217351269E+02  0.47000000000E+01 0.  1.
<mgrwt>
<rscale>  0 0.13700514E+03</rscale>
<asrwt>0</asrwt>
<pdfrwt beam="2">  1        5 0.16232851E-01 0.13700779E+03</pdfrwt>
<pdfrwt beam="1">  1       -5 0.27813024E-01 0.13700779E+03</pdfrwt>
<totfact> 0.30581636E+02</totfact>
</mgrwt>
</event>
<event>
 8    1  0.3759079E-007  0.1350965E+03  0.7546771E-02  0.1220085E+00
          5   -1    0    0  501    0  0.00000000000E+00  0.00000000000E+00  0.18274857357E+03  0.18280900181E+03  0.47000000000E+01 0. -1.
         -5   -1    0    0    0  501 -0.00000000000E+00 -0.00000000000E+00 -0.13403014829E+03  0.13411252980E+03  0.47000000000E+01 0. -1.
         25    2    1    2    0    0  0.44006543824E+02 -0.26208563822E+02 -0.55750019500E+02  0.14614469610E+03  0.12500697104E+03 0.  0.
         25    2    1    2    0    0 -0.44006543824E+02  0.26208563822E+02  0.10446844479E+03  0.17077683551E+03  0.12501042706E+03 0.  0.
          5    1    3    3  502    0  0.54648630361E+02  0.20682604789E+02 -0.74083228195E+02  0.94470406165E+02  0.47000000000E+01 0. -1.
         -5    1    3    3    0  502 -0.10642086537E+02 -0.46891168611E+02  0.18333208695E+02  0.51674289938E+02  0.47000000000E+01 0. -1.
          5    1    4    4  503    0 -0.59217629440E+02 -0.12565440343E+02  0.27724431585E+01  0.60781529831E+02  0.47000000000E+01 0.  1.
         -5    1    4    4    0  503  0.15211085617E+02  0.38774004165E+02  0.10169600163E+03  0.10999530568E+03  0.47000000000E+01 0.  1.
<mgrwt>
<rscale>  0 0.13509573E+03</rscale>
<asrwt>0</asrwt>
<pdfrwt beam="1">  1        5 0.28126151E-01 0.13509653E+03</pdfrwt>
<pdfrwt beam="2">  1       -5 0.20631008E-01 0.13509653E+03</pdfrwt>
<totfact> 0.19122448E+02</totfact>
</mgrwt>
</event>
<event>
 8    1  0.3759079E-007  0.1464470E+03  0.7546771E-02  0.1204909E+00
         -5   -1    0    0    0  501 -0.00000000000E+00  0.00000000000E+00  0.67134734048E+02  0.67299052859E+02  0.47000000000E+01 0. -1.
          5   -1    0    0  501    0  0.00000000000E+00 -0.00000000000E+00 -0.38759770498E+03  0.38762619997E+03  0.47000000000E+01 0. -1.
         25    2    1    2    0    0 -0.71986571730E+02  0.25293990174E+02 -0.64483125946E+02  0.16001495409E+03  0.12499943821E+03 0.  0.
         25    2    1    2    0    0  0.71986571730E+02 -0.25293990174E+02 -0.25597984499E+03  0.29491029874E+03  0.12499820324E+03 0.  0.
          5    1    3    3  502    0  0.15436690481E+02 -0.23451852869E+02 -0.51671384758E+02  0.58994091389E+02  0.47000000000E+01 0. -1.
         -5    1    3    3    0  502 -0.87423262211E+02  0.48745843043E+02 -0.12811741188E+02  0.10102086271E+03  0.47000000000E+01 0. -1.
          5    1    4    4  503    0 -0.16818800694E+02  0.12302258999E+02 -0.36406594149E-01  0.21361389438E+02  0.47000000000E+01 0.  1.
         -5    1    4    4    0  503  0.88805372424E+02 -0.37596249173E+02 -0.25594343839E+03  0.27354890930E+03  0.47000000000E+01 0.  1.
<mgrwt>
<rscale>  0 0.14644670E+03</rscale>
<asrwt>0</asrwt>
<pdfrwt beam="2">  1        5 0.59645247E-01 0.14644696E+03</pdfrwt>
<pdfrwt beam="1">  1       -5 0.10343253E-01 0.14644696E+03</pdfrwt>
<totfact> 0.14571833E+02</totfact>
</mgrwt>
</event>
<event>
 8    1  0.3759079E-007  0.1542908E+03  0.7546771E-02  0.1195298E+00
          5   -1    0    0  501    0  0.00000000000E+00  0.00000000000E+00  0.29307327388E+03  0.29311095828E+03  0.47000000000E+01 0.  1.
         -5   -1    0    0    0  501 -0.00000000000E+00 -0.00000000000E+00 -0.89018562382E+02  0.89142551279E+02  0.47000000000E+01 0.  1.
         25    2    1    2    0    0 -0.75062529643E+02  0.50470735643E+02  0.45134097932E+02  0.16075536571E+03  0.12499408904E+03 0.  0.
         25    2    1    2    0    0  0.75062529643E+02 -0.50470735643E+02  0.15892061357E+03  0.22149814385E+03  0.12499595113E+03 0.  0.
          5    1    3    3  502    0 -0.78899096476E+02 -0.93851865378E+01  0.58925081503E+02  0.99032340077E+02  0.47000000000E+01 0.  1.
         -5    1    3    3    0  502  0.38365668333E+01  0.59855922181E+02 -0.13790983571E+02  0.61723025631E+02  0.47000000000E+01 0.  1.
          5    1    4    4  503    0  0.24457897173E+02 -0.76178670995E+02  0.14029759580E+03  0.16157624837E+03  0.47000000000E+01 0.  1.
         -5    1    4    4    0  503  0.50604632470E+02  0.25707935352E+02  0.18623017765E+02  0.59921895482E+02  0.47000000000E+01 0.  1.
<mgrwt>
<rscale>  0 0.15429047E+03</rscale>
<asrwt>0</asrwt>
<pdfrwt beam="1">  1        5 0.45100633E-01 0.15429085E+03</pdfrwt>
<pdfrwt beam="2">  1       -5 0.13707600E-01 0.15429085E+03</pdfrwt>
<totfact> 0.16340570E+02</totfact>
</mgrwt>
</event>
<event>
 8    1  0.3759079E-007  0.1335226E+03  0.7546771E-02  0.1222321E+00
         -5   -1    0    0    0  501 -0.00000000000E+00  0.00000000000E+00  0.10076496012E+04  0.10076605623E+04  0.47000000000E+01 0. -1.
          5   -1    0    0  501    0  0.00000000000E+00 -0.00000000000E+00 -0.17378224994E+02  0.18002574925E+02  0.47000000000E+01 0. -1.
         25    2    1    2    0    0  0.58669406830E+01  0.46561990595E+02  0.48370055861E+03  0.50179075504E+03  0.12500116592E+03 0.  0.
         25    2    1    2    0    0 -0.58669406830E+01 -0.46561990595E+02  0.50657081763E+03  0.52387238221E+03  0.12500335840E+03 0.  0.
          5    1    4    4  502    0 -0.60219086206E+02 -0.44006917932E+02  0.22601089698E+03  0.23804613570E+03  0.47000000000E+01 0. -1.
         -5    1    4    4    0  502  0.54352145523E+02 -0.25550726625E+01  0.28055992065E+03  0.28582624651E+03  0.47000000000E+01 0. -1.
          5    1    3    3  503    0  0.61683656894E+02  0.40255679085E+02  0.21731415691E+03  0.22950583003E+03  0.47000000000E+01 0. -1.
         -5    1    3    3    0  503 -0.55816716211E+02  0.63063115100E+01  0.26638640170E+03  0.27228492501E+03  0.47000000000E+01 0. -1.
<mgrwt>
<rscale>  0 0.13352207E+03</rscale>
<asrwt>0</asrwt>
<pdfrwt beam="2">  1        5 0.27224419E-02 0.13352258E+03</pdfrwt>
<pdfrwt beam="1">  1       -5 0.15507196E+00 0.13352258E+03</pdfrwt>
<totfact> 0.12922327E+02</totfact>
</mgrwt>
</event>
<event>
 8    1  0.3759079E-007  0.1689989E+03  0.7546771E-02  0.1178896E+00
         -5   -1    0    0    0  501 -0.00000000000E+00  0.00000000000E+00  0.66598546567E+03  0.66600204991E+03  0.47000000000E+01 0. -1.
          5   -1    0    0  501    0  0.00000000000E+00 -0.00000000000E+00 -0.43012764316E+02  0.43268786603E+02  0.47000000000E+01 0. -1.
         25    2    1    2    0    0 -0.36390440863E+02 -0.10775856932E+03  0.33970830582E+03  0.37942373093E+03  0.12499784438E+03 0.  0.
         25    2    1    2    0    0  0.36390440863E+02  0.10775856932E+03  0.28326439553E+03  0.32984710558E+03  0.12499688730E+03 0.  0.
          5    1    3    3  502    0  0.16167121438E+02 -0.10333011993E+03  0.28344114305E+03  0.30215800680E+03  0.47000000000E+01 0.  1.
         -5    1    3    3    0  502 -0.52557562301E+02 -0.44284493941E+01  0.56267162773E+02  0.77265724132E+02  0.47000000000E+01 0.  1.
          5    1    4    4  503    0  0.75410410432E+02  0.32034894275E+02  0.11619162898E+03  0.14225171035E+03  0.47000000000E+01 0. -1.
         -5    1    4    4    0  503 -0.39019969569E+02  0.75723675049E+02  0.16707276655E+03  0.18759539523E+03  0.47000000000E+01 0. -1.
<mgrwt>
<rscale>  0 0.16899874E+03</rscale>
<asrwt>0</asrwt>
<pdfrwt beam="2">  1        5 0.66383178E-02 0.16899892E+03</pdfrwt>
<pdfrwt beam="1">  1       -5 0.10248028E+00 0.16899892E+03</pdfrwt>
<totfact> 0.93493186E+01</totfact>
</mgrwt>
</event>
<event>
 8    1  0.3759079E-007  0.1446974E+03  0.7546771E-02  0.1207147E+00
         -5   -1    0    0    0  501 -0.00000000000E+00  0.00000000000E+00  0.24312590363E+02  0.24762714919E+02  0.47000000000E+01 0.  1.
          5   -1    0    0  501    0  0.00000000000E+00 -0.00000000000E+00 -0.95623487617E+03  0.95624642661E+03  0.47000000000E+01 0.  1.
         25    2    1    2    0    0 -0.45642488514E+02  0.56817756225E+02 -0.30466914870E+03  0.33728420837E+03  0.12500341141E+03 0.  0.
         25    2    1    2    0    0  0.45642488514E+02 -0.56817756225E+02 -0.62725313710E+03  0.64372493316E+03  0.12499518945E+03 0.  0.
          5    1    4    4  502    0 -0.19874615181E+02  0.27444722348E+02 -0.98102364048E+02  0.10389599100E+03  0.47000000000E+01 0. -1.
         -5    1    4    4    0  502  0.65517103695E+02 -0.84262478573E+02 -0.52915077306E+03  0.53982894216E+03  0.47000000000E+01 0. -1.
          5    1    3    3  503    0 -0.59211023403E+02  0.74396043572E+02 -0.12990977408E+03  0.16105699610E+03  0.47000000000E+01 0.  1.
         -5    1    3    3    0  503  0.13568534889E+02 -0.17578287347E+02 -0.17475937462E+03  0.17622721226E+03  0.47000000000E+01 0.  1.
<mgrwt>
<rscale>  0 0.14469566E+03</rscale>
<asrwt>0</asrwt>
<pdfrwt beam="2">  1        5 0.14714854E+00 0.14469743E+03</pdfrwt>
<pdfrwt beam="1">  1       -5 0.37759127E-02 0.14469743E+03</pdfrwt>
<totfact> 0.89967954E+01</totfact>
</mgrwt>
</event>
<event>
 8    1  0.3759079E-007  0.1271971E+03  0.7546771E-02  0.1231676E+00
         -5   -1    0    0    0  501 -0.00000000000E+00  0.00000000000E+00  0.24448531879E+03  0.24453049115E+03  0.47000000000E+01 0.  1.
          5   -1    0    0  501    0  0.00000000000E+00 -0.00000000000E+00 -0.75855747311E+02  0.76001213149E+02  0.47000000000E+01 0.  1.
         25    2    1    2    0    0  0.66447052923E+00  0.23515343520E+02  0.14188786764E+03  0.19055393410E+03  0.12500088767E+03 0.  0.
         25    2    1    2    0    0 -0.66447052923E+00 -0.23515343520E+02  0.26741703841E+02  0.12997777020E+03  0.12500275645E+03 0.  0.
          5    1    3    3  502    0 -0.43994367828E+02 -0.14828561748E+02  0.12469078814E+02  0.48300709835E+02  0.47000000000E+01 0.  1.
         -5    1    3    3    0  502  0.44658838357E+02  0.38343905269E+02  0.12941878882E+03  0.14225322427E+03  0.47000000000E+01 0.  1.
          5    1    4    4  503    0 -0.52962453155E+02 -0.44674179443E+02  0.23339564094E+02  0.73264104480E+02  0.47000000000E+01 0. -1.
         -5    1    4    4    0  503  0.52297982626E+02  0.21158835922E+02  0.34021397471E+01  0.56713665718E+02  0.47000000000E+01 0. -1.
<mgrwt>
<rscale>  0 0.12719664E+03</rscale>
<asrwt>0</asrwt>
<pdfrwt beam="2">  1        5 0.11684779E-01 0.12719710E+03</pdfrwt>
<pdfrwt beam="1">  1       -5 0.37627791E-01 0.12719710E+03</pdfrwt>
<totfact> 0.29517102E+02</totfact>
</mgrwt>
</event>
<event>
 8    1  0.3759079E-007  0.1289913E+03  0.7546771E-02  0.1228962E+00
          5   -1    0    0  501    0  0.00000000000E+00  0.00000000000E+00  0.13997395455E+03  0.14005283986E+03  0.47000000000E+01 0.  1.
         -5   -1    0    0    0  501 -0.00000000000E+00 -0.00000000000E+00 -0.17019862574E+03  0.17026350814E+03  0.47000000000E+01 0.  1.
         25    2    1    2    0    0  0.92610360717E+01 -0.30458628105E+02 -0.10041452201E+03  0.16346483402E+03  0.12499672362E+03 0.  0.
         25    2    1    2    0    0 -0.92610360717E+01  0.30458628105E+02  0.70189850819E+02  0.14685151398E+03  0.12500102873E+03 0.  0.
          5    1    4    4  502    0 -0.29750452002E+02  0.39548498968E+02 -0.20159983153E+02  0.53644087146E+02  0.47000000000E+01 0. -1.
         -5    1    4    4    0  502  0.20489415931E+02 -0.90898708634E+01  0.90349833972E+02  0.93207426830E+02  0.47000000000E+01 0. -1.
          5    1    3    3  503    0 -0.17304615536E+02  0.26791244540E+02  0.12049258801E+02  0.34416495181E+02  0.47000000000E+01 0. -1.
         -5    1    3    3    0  503  0.26565651608E+02 -0.57249872645E+02 -0.11246378081E+03  0.12904833884E+03  0.47000000000E+01 0. -1.
<mgrwt>
<rscale>  0 0.12899024E+03</rscale>
<asrwt>0</asrwt>
<pdfrwt beam="1">  1        5 0.21545514E-01 0.12899129E+03</pdfrwt>
<pdfrwt beam="2">  1       -5 0.26195463E-01 0.12899129E+03</pdfrwt>
<totfact> 0.19905358E+02</totfact>
</mgrwt>
</event>
<event>
 8    1  0.3759079E-007  0.1318024E+03  0.7546771E-02  0.1224806E+00
          5   -1    0    0  501    0  0.00000000000E+00  0.00000000000E+00  0.35036323026E+02  0.35350161685E+02  0.47000000000E+01 0. -1.
         -5   -1    0    0    0  501 -0.00000000000E+00 -0.00000000000E+00 -0.57740005863E+03  0.57741918716E+03  0.47000000000E+01 0. -1.
         25    2    1    2    0    0 -0.17209735714E+02 -0.38083329530E+02 -0.38808869841E+03  0.40985937949E+03  0.12500143252E+03 0.  0.
         25    2    1    2    0    0  0.17209735714E+02  0.38083329530E+02 -0.15427503720E+03  0.20290996936E+03  0.12500061429E+03 0.  0.
          5    1    3    3  502    0 -0.46621654345E+02 -0.57617944529E+02 -0.13329405326E+03  0.15258702704E+03  0.47000000000E+01 0.  1.
         -5    1    3    3    0  502  0.29411918631E+02  0.19534614999E+02 -0.25479464515E+03  0.25727235245E+03  0.47000000000E+01 0.  1.
          5    1    4    4  503    0 -0.49639464148E+01 -0.45059751739E+02 -0.50753742898E+02  0.68213300821E+02  0.47000000000E+01 0. -1.
         -5    1    4    4    0  503  0.22173682129E+02  0.83143081269E+02 -0.10352129430E+03  0.13469666854E+03  0.47000000000E+01 0. -1.
<mgrwt>
<rscale>  0 0.13180221E+03</rscale>
<asrwt>0</asrwt>
<pdfrwt beam="1">  1        5 0.54158168E-02 0.13180240E+03</pdfrwt>
<pdfrwt beam="2">  1       -5 0.88856384E-01 0.13180240E+03</pdfrwt>
<totfact> 0.17178768E+02</totfact>
</mgrwt>
</event>
<event>
 8    1  0.3759079E-007  0.1274093E+03  0.7546771E-02  0.1231364E+00
          5   -1    0    0  501    0  0.00000000000E+00  0.00000000000E+00  0.11556772590E+04  0.11556868161E+04  0.47000000000E+01 0. -1.
         -5   -1    0    0    0  501 -0.00000000000E+00 -0.00000000000E+00 -0.16140802409E+02  0.16811171952E+02  0.47000000000E+01 0. -1.
         25    2    1    2    0    0  0.23007502128E+02  0.88731903320E+01  0.34415626906E+03  0.36698318235E+03  0.12500015973E+03 0.  0.
         25    2    1    2    0    0 -0.23007502128E+02 -0.88731903320E+01  0.79538018755E+03  0.80551480575E+03  0.12496551874E+03 0.  0.
          5    1    4    4  502    0 -0.18504935153E+02  0.12240714412E+00  0.13097782133E+02  0.23153606745E+02  0.47000000000E+01 0. -1.
         -5    1    4    4    0  502 -0.45025669751E+01 -0.89955974762E+01  0.78228240541E+03  0.78236119900E+03  0.47000000000E+01 0. -1.
          5    1    3    3  503    0 -0.51708598660E+02 -0.75314278086E+00  0.14125067283E+03  0.15049315258E+03  0.47000000000E+01 0.  1.
         -5    1    3    3    0  503  0.74716100788E+02  0.96263331129E+01  0.20290559623E+03  0.21649002977E+03  0.47000000000E+01 0.  1.
<mgrwt>
<rscale>  0 0.12740076E+03</rscale>
<asrwt>0</asrwt>
<pdfrwt beam="1">  1        5 0.17784879E+00 0.12740926E+03</pdfrwt>
<pdfrwt beam="2">  1       -5 0.25355026E-02 0.12740926E+03</pdfrwt>
<totfact> 0.96682543E+01</totfact>
</mgrwt>
</event>
<event>
 8    1  0.3759079E-007  0.1363773E+03  0.7546771E-02  0.1218289E+00
          5   -1    0    0  501    0  0.00000000000E+00  0.00000000000E+00  0.24899319821E+02  0.25339023809E+02  0.47000000000E+01 0. -1.
         -5   -1    0    0    0  501 -0.00000000000E+00 -0.00000000000E+00 -0.77497450748E+03  0.77498875943E+03  0.47000000000E+01 0. -1.
         25    2    1    2    0    0  0.30514470071E+02 -0.45215658953E+02 -0.46006553869E+03  0.47985254859E+03  0.12499031883E+03 0.  0.
         25    2    1    2    0    0 -0.30514470071E+02  0.45215658953E+02 -0.29000964896E+03  0.32047523464E+03  0.12499276310E+03 0.  0.
          5    1    3    3  502    0 -0.35524862684E+02 -0.40506555124E+02 -0.99684489390E+02  0.11341024778E+03  0.47000000000E+01 0.  1.
         -5    1    3    3    0  502  0.66039332755E+02 -0.47091038296E+01 -0.36038104930E+03  0.36644230081E+03  0.47000000000E+01 0.  1.
          5    1    4    4  503    0 -0.35295799066E+02 -0.31401195767E+00 -0.10389728928E+02  0.37093510247E+02  0.47000000000E+01 0. -1.
         -5    1    4    4    0  503  0.47813289949E+01  0.45529670911E+02 -0.27961992004E+03  0.28338172440E+03  0.47000000000E+01 0. -1.
<mgrwt>
<rscale>  0 0.13637678E+03</rscale>
<asrwt>0</asrwt>
<pdfrwt beam="1">  1        5 0.38655849E-02 0.13637734E+03</pdfrwt>
<pdfrwt beam="2">  1       -5 0.11926175E+00 0.13637734E+03</pdfrwt>
<totfact> 0.14752807E+02</totfact>
</mgrwt>
</event>
<event>
 8    1  0.3759079E-007  0.1326597E+03  0.7546771E-02  0.1223563E+00
         -5   -1    0    0    0  501 -0.00000000000E+00  0.00000000000E+00  0.27533222968E+02  0.27931494177E+02  0.47000000000E+01 0. -1.
          5   -1    0    0  501    0  0.00000000000E+00 -0.00000000000E+00 -0.66901373972E+03  0.66903024889E+03  0.47000000000E+01 0. -1.
         25    2    1    2    0    0 -0.83257072456E+01  0.43639807925E+02 -0.24123059659E+03  0.27530126285E+03  0.12499933744E+03 0.  0.
         25    2    1    2    0    0  0.83257072456E+01 -0.43639807925E+02 -0.40024992016E+03  0.42166048022E+03  0.12499524692E+03 0.  0.
          5    1    3    3  502    0 -0.11244189609E+02  0.48342739168E+01 -0.23529087612E+03  0.23565586856E+03  0.47000000000E+01 0. -1.
         -5    1    3    3    0  502  0.29184823633E+01  0.38805534009E+02 -0.59397204726E+01  0.39645394288E+02  0.47000000000E+01 0. -1.
          5    1    4    4  503    0 -0.52690773137E+02 -0.85724241861E+01 -0.24999577229E+03  0.25567514583E+03  0.47000000000E+01 0. -1.
         -5    1    4    4    0  503  0.61016480382E+02 -0.35067383739E+02 -0.15025414787E+03  0.16598533439E+03  0.47000000000E+01 0. -1.
<mgrwt>
<rscale>  0 0.13265869E+03</rscale>
<asrwt>0</asrwt>
<pdfrwt beam="2">  1        5 0.10295708E+00 0.13265966E+03</pdfrwt>
<pdfrwt beam="1">  1       -5 0.42677872E-02 0.13265966E+03</pdfrwt>
<totfact> 0.17925384E+02</totfact>
</mgrwt>
</event>
<event>
 8    1  0.3759079E-007  0.1272065E+03  0.7546771E-02  0.1231664E+00
          5   -1    0    0  501    0  0.00000000000E+00  0.00000000000E+00  0.51468668647E+03  0.51470814568E+03  0.47000000000E+01 0. -1.
         -5   -1    0    0    0  501 -0.00000000000E+00 -0.00000000000E+00 -0.66558587022E+02  0.66724324698E+02  0.47000000000E+01 0. -1.
         25    2    1    2    0    0 -0.21537926472E+02  0.95644588175E+01  0.12737888948E+02  0.12784266023E+03  0.12500452317E+03 0.  0.
         25    2    1    2    0    0  0.21537926472E+02 -0.95644588175E+01  0.43539021050E+03  0.45358981014E+03  0.12499487717E+03 0.  0.
          5    1    3    3  502    0 -0.44869700777E+02  0.29272743656E+02 -0.39790195131E+02  0.66899425988E+02  0.47000000000E+01 0.  1.
         -5    1    3    3    0  502  0.23331774304E+02 -0.19708284839E+02  0.52528084079E+02  0.60943234247E+02  0.47000000000E+01 0.  1.
          5    1    4    4  503    0  0.70114039764E+02 -0.20264145577E+02  0.31223907301E+03  0.32068979229E+03  0.47000000000E+01 0. -1.
         -5    1    4    4    0  503 -0.48576113292E+02  0.10699686759E+02  0.12315113750E+03  0.13290001785E+03  0.47000000000E+01 0. -1.
<mgrwt>
<rscale>  0 0.12720412E+03</rscale>
<asrwt>0</asrwt>
<pdfrwt beam="1">  1        5 0.79196964E-01 0.12720649E+03</pdfrwt>
<pdfrwt beam="2">  1       -5 0.10254183E-01 0.12720649E+03</pdfrwt>
<totfact> 0.74754957E+01</totfact>
</mgrwt>
</event>
<event>
 8    1  0.3759079E-007  0.1476751E+03  0.7546771E-02  0.1203367E+00
         -5   -1    0    0    0  501 -0.00000000000E+00  0.00000000000E+00  0.27375825065E+03  0.27379859349E+03  0.47000000000E+01 0. -1.
          5   -1    0    0  501    0  0.00000000000E+00 -0.00000000000E+00 -0.80233404894E+02  0.80370947866E+02  0.47000000000E+01 0. -1.
         25    2    1    2    0    0  0.23797606746E+02  0.74912295672E+02  0.80227986837E+02  0.16804027380E+03  0.12499130217E+03 0.  0.
         25    2    1    2    0    0 -0.23797606746E+02 -0.74912295672E+02  0.11329685891E+03  0.18612926756E+03  0.12501899004E+03 0.  0.
          5    1    3    3  502    0 -0.11656970832E+02  0.98856496295E+02  0.35035085872E+02  0.10563161965E+03  0.47000000000E+01 0. -1.
         -5    1    3    3    0  502  0.35454577578E+02 -0.23944200624E+02  0.45192900965E+02  0.62408654147E+02  0.47000000000E+01 0. -1.
          5    1    4    4  503    0  0.15785742380E+01 -0.84305302026E+02  0.17199755115E+02  0.86184670460E+02  0.47000000000E+01 0.  1.
         -5    1    4    4    0  503 -0.25376180984E+02  0.93930063545E+01  0.96097103800E+02  0.99944597095E+02  0.47000000000E+01 0.  1.
<mgrwt>
<rscale>  0 0.14766921E+03</rscale>
<asrwt>0</asrwt>
<pdfrwt beam="2">  1        5 0.12357284E-01 0.14767507E+03</pdfrwt>
<pdfrwt beam="1">  1       -5 0.42130337E-01 0.14767507E+03</pdfrwt>
<totfact> 0.22337055E+02</totfact>
</mgrwt>
</event>
<event>
 8    1  0.3759079E-007  0.1360226E+03  0.7546771E-02  0.1218784E+00
          5   -1    0    0  501    0  0.00000000000E+00  0.00000000000E+00  0.11666276439E+03  0.11675740060E+03  0.47000000000E+01 0.  1.
         -5   -1    0    0    0  501 -0.00000000000E+00 -0.00000000000E+00 -0.16653688008E+03  0.16660318853E+03  0.47000000000E+01 0.  1.
         25    2    1    2    0    0 -0.22152528511E+02  0.48857470234E+02 -0.56242705711E+02  0.14718894878E+03  0.12499423099E+03 0.  0.
         25    2    1    2    0    0  0.22152528511E+02 -0.48857470234E+02  0.63685900193E+01  0.13617164035E+03  0.12499747910E+03 0.  0.
          5    1    4    4  502    0 -0.25231481918E+02 -0.49170488870E+02  0.47671488402E+02  0.73137032083E+02  0.47000000000E+01 0. -1.
         -5    1    4    4    0  502  0.47384010429E+02  0.31301863622E+00 -0.41302898382E+02  0.63034608270E+02  0.47000000000E+01 0. -1.
          5    1    3    3  503    0 -0.46135811047E+02  0.57988653583E+02  0.11000418301E+02  0.75061949136E+02  0.47000000000E+01 0.  1.
         -5    1    3    3    0  503  0.23983282536E+02 -0.91311833488E+01 -0.67243124012E+02  0.72126999643E+02  0.47000000000E+01 0.  1.
<mgrwt>
<rscale>  0 0.13602189E+03</rscale>
<asrwt>0</asrwt>
<pdfrwt beam="1">  1        5 0.17960498E-01 0.13602263E+03</pdfrwt>
<pdfrwt beam="2">  1       -5 0.25633439E-01 0.13602263E+03</pdfrwt>
<totfact> 0.29668956E+02</totfact>
</mgrwt>
</event>
<event>
 8    1  0.3759079E-007  0.1385591E+03  0.7546771E-02  0.1215284E+00
          5   -1    0    0  501    0  0.00000000000E+00  0.00000000000E+00  0.61995657498E+02  0.62173559884E+02  0.47000000000E+01 0.  1.
         -5   -1    0    0    0  501 -0.00000000000E+00 -0.00000000000E+00 -0.32888709510E+03  0.32892067634E+03  0.47000000000E+01 0.  1.
         25    2    1    2    0    0 -0.33644849023E+02  0.49409858921E+02 -0.18148845649E+03  0.22832968858E+03  0.12499230705E+03 0.  0.
         25    2    1    2    0    0  0.33644849023E+02 -0.49409858921E+02 -0.85402981116E+02  0.16276454765E+03  0.12500127505E+03 0.  0.
          5    1    4    4  502    0  0.73684756378E+01  0.42129615655E+02 -0.30441435919E+02  0.52706450927E+02  0.47000000000E+01 0. -1.
         -5    1    4    4    0  502  0.26276373385E+02 -0.91539474576E+02 -0.54961545197E+02  0.11005809672E+03  0.47000000000E+01 0. -1.
          5    1    3    3  503    0 -0.78354274569E+02  0.48440427269E+02 -0.13632780500E+03  0.16460020581E+03  0.47000000000E+01 0. -1.
         -5    1    3    3    0  503  0.44709425546E+02  0.96943165245E+00 -0.45160651488E+02  0.63729482763E+02  0.47000000000E+01 0. -1.
<mgrwt>
<rscale>  0 0.13855709E+03</rscale>
<asrwt>0</asrwt>
<pdfrwt beam="1">  1        5 0.95540616E-02 0.13855912E+03</pdfrwt>
<pdfrwt beam="2">  1       -5 0.50614281E-01 0.13855912E+03</pdfrwt>
<totfact> 0.23412503E+02</totfact>
</mgrwt>
</event>
<event>
 8    1  0.3759079E-007  0.1442171E+03  0.7546771E-02  0.1207770E+00
         -5   -1    0    0    0  501 -0.00000000000E+00  0.00000000000E+00  0.21969478078E+03  0.21974504932E+03  0.47000000000E+01 0. -1.
          5   -1    0    0  501    0  0.00000000000E+00 -0.00000000000E+00 -0.95015718192E+02  0.95131891096E+02  0.47000000000E+01 0. -1.
         25    2    1    2    0    0  0.29613813687E+02 -0.65507582334E+02  0.73484727043E+02  0.16185974554E+03  0.12502140142E+03 0.  0.
         25    2    1    2    0    0 -0.29613813687E+02  0.65507582334E+02  0.51194335546E+02  0.15301719488E+03  0.12500072253E+03 0.  0.
          5    1    4    4  502    0  0.29948745748E+02  0.22315965757E+02  0.67705432185E+02  0.77466413670E+02  0.47000000000E+01 0. -1.
         -5    1    4    4    0  502 -0.59562559435E+02  0.43191616577E+02 -0.16511096639E+02  0.75550781209E+02  0.47000000000E+01 0. -1.
          5    1    3    3  503    0  0.79502212175E+01  0.27216249425E+02  0.58733566095E+02  0.65388470210E+02  0.47000000000E+01 0.  1.
         -5    1    3    3    0  503  0.21663592470E+02 -0.92723831759E+02  0.14751160948E+02  0.96471275331E+02  0.47000000000E+01 0.  1.
<mgrwt>
<rscale>  0 0.14421262E+03</rscale>
<asrwt>0</asrwt>
<pdfrwt beam="2">  1        5 0.14630606E-01 0.14421710E+03</pdfrwt>
<pdfrwt beam="1">  1       -5 0.33812000E-01 0.14421710E+03</pdfrwt>
<totfact> 0.25583010E+02</totfact>
</mgrwt>
</event>
<event>
 8    1  0.3759079E-007  0.1890744E+03  0.7546771E-02  0.1159304E+00
          5   -1    0    0  501    0  0.00000000000E+00  0.00000000000E+00  0.44372823972E+03  0.44375313038E+03  0.47000000000E+01 0. -1.
         -5   -1    0    0    0  501 -0.00000000000E+00 -0.00000000000E+00 -0.80520824830E+02  0.80657877677E+02  0.47000000000E+01 0. -1.
         25    2    1    2    0    0  0.89860932124E+01 -0.14155033522E+03  0.18876624144E+03  0.26717380304E+03  0.12502759635E+03 0.  0.
         25    2    1    2    0    0 -0.89860932124E+01  0.14155033522E+03  0.17444117344E+03  0.25723720502E+03  0.12499603745E+03 0.  0.
          5    1    4    4  502    0  0.16130771269E+02  0.15699180776E+03  0.13476193546E+03  0.20758010197E+03  0.47000000000E+01 0. -1.
         -5    1    4    4    0  502 -0.25116864481E+02 -0.15441472540E+02  0.39679237987E+02  0.49657103045E+02  0.47000000000E+01 0. -1.
          5    1    3    3  503    0  0.66904830610E+02 -0.70943035070E+02  0.96860787287E+02  0.13752553471E+03  0.47000000000E+01 0.  1.
         -5    1    3    3    0  503 -0.57918737398E+02 -0.70607300155E+02  0.91905454158E+02  0.12964826833E+03  0.47000000000E+01 0.  1.
<mgrwt>
<rscale>  0 0.18906923E+03</rscale>
<asrwt>0</asrwt>
<pdfrwt beam="1">  1        5 0.68278341E-01 0.18907445E+03</pdfrwt>
<pdfrwt beam="2">  1       -5 0.12400276E-01 0.18907445E+03</pdfrwt>
<totfact> 0.84544652E+01</totfact>
</mgrwt>
</event>
<event>
 8    1  0.3759079E-007  0.1362882E+03  0.7546771E-02  0.1218414E+00
          5   -1    0    0  501    0  0.00000000000E+00  0.00000000000E+00  0.19579890978E+03  0.19585531157E+03  0.47000000000E+01 0. -1.
         -5   -1    0    0    0  501 -0.00000000000E+00 -0.00000000000E+00 -0.10631096954E+03  0.10641481215E+03  0.47000000000E+01 0. -1.
         25    2    1    2    0    0 -0.85209940536E+01  0.53629215568E+02 -0.50892140952E+01  0.13638323045E+03  0.12500314134E+03 0.  0.
         25    2    1    2    0    0  0.85209940536E+01 -0.53629215568E+02  0.94577154334E+02  0.16588689327E+03  0.12499969253E+03 0.  0.
          5    1    3    3  502    0 -0.44098788369E+02 -0.16909404265E+02  0.22557567886E+02  0.52550594261E+02  0.47000000000E+01 0.  1.
         -5    1    3    3    0  502  0.35577794316E+02  0.70538619833E+02 -0.27646781981E+02  0.83832636188E+02  0.47000000000E+01 0.  1.
          5    1    4    4  503    0 -0.20022000620E+02  0.30071535376E+02  0.61248151672E+02  0.71264323696E+02  0.47000000000E+01 0. -1.
         -5    1    4    4    0  503  0.28542994674E+02 -0.83700750944E+02  0.33329002663E+02  0.94622569570E+02  0.47000000000E+01 0. -1.
<mgrwt>
<rscale>  0 0.13628745E+03</rscale>
<asrwt>0</asrwt>
<pdfrwt beam="1">  1        5 0.30135235E-01 0.13628824E+03</pdfrwt>
<pdfrwt beam="2">  1       -5 0.16367861E-01 0.13628824E+03</pdfrwt>
<totfact> 0.25710120E+02</totfact>
</mgrwt>
</event>
<event>
 8    1  0.3759079E-007  0.1605269E+03  0.7546771E-02  0.1188103E+00
         -5   -1    0    0    0  501 -0.00000000000E+00  0.00000000000E+00  0.25904432917E+02  0.26327355446E+02  0.47000000000E+01 0.  1.
          5   -1    0    0  501    0  0.00000000000E+00 -0.00000000000E+00 -0.10106514445E+04  0.10106623730E+04  0.47000000000E+01 0.  1.
         25    2    1    2    0    0 -0.10056072952E+03 -0.55712968003E+01 -0.41187407316E+03  0.44205104373E+03  0.12500149379E+03 0.  0.
         25    2    1    2    0    0  0.10056072952E+03  0.55712968003E+01 -0.57287293841E+03  0.59493868474E+03  0.12500054147E+03 0.  0.
          5    1    4    4  502    0  0.52974587891E+01  0.50584999876E+01 -0.37676832638E+03  0.37686882765E+03  0.47000000000E+01 0.  1.
         -5    1    4    4    0  502  0.95263270733E+02  0.51279681274E+00 -0.19610461203E+03  0.21806985709E+03  0.47000000000E+01 0.  1.
          5    1    3    3  503    0 -0.96207733918E+02  0.37334798683E+02 -0.35947510346E+03  0.37402440464E+03  0.47000000000E+01 0.  1.
         -5    1    3    3    0  503 -0.43529956041E+01 -0.42906095483E+02 -0.52398969706E+02  0.68026639095E+02  0.47000000000E+01 0.  1.
<mgrwt>
<rscale>  0 0.16052668E+03</rscale>
<asrwt>0</asrwt>
<pdfrwt beam="2">  1        5 0.15551818E+00 0.16052686E+03</pdfrwt>
<pdfrwt beam="1">  1       -5 0.40186713E-02 0.16052686E+03</pdfrwt>
<totfact> 0.71974892E+01</totfact>
</mgrwt>
</event>
<event>
 8    1  0.3759079E-007  0.1520251E+03  0.7546771E-02  0.1198009E+00
         -5   -1    0    0    0  501 -0.00000000000E+00  0.00000000000E+00  0.15052856882E+03  0.15060192573E+03  0.47000000000E+01 0.  1.
          5   -1    0    0  501    0  0.00000000000E+00 -0.00000000000E+00 -0.22332321528E+03  0.22337266727E+03  0.47000000000E+01 0.  1.
         25    2    1    2    0    0  0.86464034328E+02  0.33122568374E+01  0.68217374488E+02  0.16661974370E+03  0.12498611335E+03 0.  0.
         25    2    1    2    0    0 -0.86464034328E+02 -0.33122568374E+01 -0.14101202094E+03  0.20735484929E+03  0.12499857278E+03 0.  0.
          5    1    4    4  502    0 -0.11781749034E+03 -0.13474227095E+02 -0.10780614773E+03  0.16033331318E+03  0.47000000000E+01 0. -1.
         -5    1    4    4    0  502  0.31353456010E+02  0.10161970258E+02 -0.33205873210E+02  0.47021536118E+02  0.47000000000E+01 0. -1.
          5    1    3    3  503    0  0.79387900088E+02 -0.28661747318E+02 -0.66230076519E+01  0.84793211226E+02  0.47000000000E+01 0.  1.
         -5    1    3    3    0  503  0.70761342402E+01  0.31974004156E+02  0.74840382140E+02  0.81826532472E+02  0.47000000000E+01 0.  1.
<mgrwt>
<rscale>  0 0.15202258E+03</rscale>
<asrwt>0</asrwt>
<pdfrwt beam="2">  1        5 0.34366864E-01 0.15202514E+03</pdfrwt>
<pdfrwt beam="1">  1       -5 0.23167688E-01 0.15202514E+03</pdfrwt>
<totfact> 0.10751980E+02</totfact>
</mgrwt>
</event>
<event>
 8    1  0.3759079E-007  0.1764321E+03  0.7546771E-02  0.1171302E+00
         -5   -1    0    0    0  501 -0.00000000000E+00  0.00000000000E+00  0.93176881030E+03  0.93178066402E+03  0.47000000000E+01 0.  1.
          5   -1    0    0  501    0  0.00000000000E+00 -0.00000000000E+00 -0.34000416482E+02  0.34323728250E+02  0.47000000000E+01 0.  1.
         25    2    1    2    0    0 -0.58082226279E+02 -0.11013060949E+03  0.52123355619E+03  0.55028378013E+03  0.12500208965E+03 0.  0.
         25    2    1    2    0    0  0.58082226279E+02  0.11013060949E+03  0.37653483762E+03  0.41582061214E+03  0.12500400546E+03 0.  0.
          5    1    3    3  502    0 -0.83532994980E+02 -0.11675655651E+03  0.48099280306E+03  0.50198209264E+03  0.47000000000E+01 0. -1.
         -5    1    3    3    0  502  0.25450768701E+02  0.66259470200E+01  0.40240753131E+02  0.48301687486E+02  0.47000000000E+01 0. -1.
          5    1    4    4  503    0  0.19254806555E+02  0.45732942339E+02  0.23992559097E+02  0.55317108406E+02  0.47000000000E+01 0. -1.
         -5    1    4    4    0  503  0.38827419724E+02  0.64397667152E+02  0.35254227852E+03  0.36050350373E+03  0.47000000000E+01 0. -1.
<mgrwt>
<rscale>  0 0.17643179E+03</rscale>
<asrwt>0</asrwt>
<pdfrwt beam="2">  1        5 0.52566151E-02 0.17643213E+03</pdfrwt>
<pdfrwt beam="1">  1       -5 0.14337483E+00 0.17643213E+03</pdfrwt>
<totfact> 0.59111730E+01</totfact>
</mgrwt>
</event>
<event>
 8    1  0.3759079E-007  0.1260052E+03  0.7546771E-02  0.1233513E+00
          5   -1    0    0  501    0  0.00000000000E+00  0.00000000000E+00  0.48644122351E+03  0.48646392870E+03  0.47000000000E+01 0.  1.
         -5   -1    0    0    0  501 -0.00000000000E+00 -0.00000000000E+00 -0.32902014268E+02  0.33236012740E+02  0.47000000000E+01 0.  1.
         25    2    1    2    0    0 -0.15757860779E+02 -0.20559292681E+00  0.19624680121E+03  0.23321688358E+03  0.12501582042E+03 0.  0.
         25    2    1    2    0    0  0.15757860779E+02  0.20559292681E+00  0.25729240802E+03  0.28648305786E+03  0.12499922707E+03 0.  0.
          5    1    4    4  502    0  0.24797448472E+02 -0.43186970441E+02  0.38298461643E+02  0.62999127223E+02  0.47000000000E+01 0. -1.
         -5    1    4    4    0  502 -0.90395876934E+01  0.43392563368E+02  0.21899394638E+03  0.22348393064E+03  0.47000000000E+01 0. -1.
          5    1    3    3  503    0 -0.22640607845E+02  0.28882134370E+02  0.24576559152E+01  0.37079709842E+02  0.47000000000E+01 0. -1.
         -5    1    3    3    0  503  0.68827470663E+01 -0.29087727296E+02  0.19378914530E+03  0.19613717374E+03  0.47000000000E+01 0. -1.
<mgrwt>
<rscale>  0 0.12600107E+03</rscale>
<asrwt>0</asrwt>
<pdfrwt beam="1">  1        5 0.74864546E-01 0.12600519E+03</pdfrwt>
<pdfrwt beam="2">  1       -5 0.50892874E-02 0.12600519E+03</pdfrwt>
<totfact> 0.27900529E+02</totfact>
</mgrwt>
</event>
<event>
 8    1  0.3759079E-007  0.2391676E+03  0.7546771E-02  0.1120349E+00
          5   -1    0    0  501    0  0.00000000000E+00  0.00000000000E+00  0.14838101949E+03  0.14845543757E+03  0.47000000000E+01 0. -1.
         -5   -1    0    0    0  501 -0.00000000000E+00 -0.00000000000E+00 -0.41544716896E+03  0.41547375392E+03  0.47000000000E+01 0. -1.
         25    2    1    2    0    0  0.15390941205E+03  0.13374365333E+03 -0.20946991796E+03  0.31792892827E+03  0.12500273989E+03 0.  0.
         25    2    1    2    0    0 -0.15390941205E+03 -0.13374365333E+03 -0.57596231512E+02  0.24600026322E+03  0.12499332662E+03 0.  0.
          5    1    3    3  502    0  0.11611408561E+03  0.84241680013E+02 -0.21130615904E+03  0.25544377929E+03  0.47000000000E+01 0.  1.
         -5    1    3    3    0  502  0.37795326441E+02  0.49501973312E+02  0.18362410797E+01  0.62485148986E+02  0.47000000000E+01 0.  1.
          5    1    4    4  503    0 -0.12436073990E+03 -0.51091561048E+02 -0.78351235510E+02  0.15568219984E+03  0.47000000000E+01 0.  1.
         -5    1    4    4    0  503 -0.29548672144E+02 -0.82652092277E+02  0.20755003999E+02  0.90318063388E+02  0.47000000000E+01 0.  1.
<mgrwt>
<rscale>  0 0.23916640E+03</rscale>
<asrwt>0</asrwt>
<pdfrwt beam="1">  1        5 0.22835619E-01 0.23916763E+03</pdfrwt>
<pdfrwt beam="2">  1       -5 0.63922718E-01 0.23916763E+03</pdfrwt>
<totfact> 0.33704201E+01</totfact>
</mgrwt>
</event>
<event>
 8    1  0.3759079E-007  0.1324352E+03  0.7546771E-02  0.1223891E+00
          5   -1    0    0  501    0  0.00000000000E+00  0.00000000000E+00  0.18151465411E+03  0.18157549300E+03  0.47000000000E+01 0. -1.
         -5   -1    0    0    0  501 -0.00000000000E+00 -0.00000000000E+00 -0.10650981736E+03  0.10661346628E+03  0.47000000000E+01 0. -1.
         25    2    1    2    0    0 -0.16992283750E+02 -0.40276400333E+02 -0.66738489696E+01  0.13259177531E+03  0.12500044996E+03 0.  0.
         25    2    1    2    0    0  0.16992283750E+02  0.40276400333E+02  0.81678685728E+02  0.15559718397E+03  0.12501259867E+03 0.  0.
          5    1    3    3  502    0 -0.46638840631E+02  0.37945598390E+01 -0.46425101314E+02  0.66082979440E+02  0.47000000000E+01 0. -1.
         -5    1    3    3    0  502  0.29646556880E+02 -0.44070960172E+02  0.39751252344E+02  0.66508795871E+02  0.47000000000E+01 0. -1.
          5    1    4    4  503    0 -0.13615903126E+01 -0.44896375483E+02  0.26632110094E+02  0.52429931792E+02  0.47000000000E+01 0.  1.
         -5    1    4    4    0  503  0.18353874063E+02  0.85172775815E+02  0.55046575634E+02  0.10316725218E+03  0.47000000000E+01 0.  1.
<mgrwt>
<rscale>  0 0.13243231E+03</rscale>
<asrwt>0</asrwt>
<pdfrwt beam="1">  1        5 0.27937984E-01 0.13243518E+03</pdfrwt>
<pdfrwt beam="2">  1       -5 0.16398779E-01 0.13243518E+03</pdfrwt>
<totfact> 0.29413139E+02</totfact>
</mgrwt>
</event>
<event>
 8    1  0.3759079E-007  0.1325302E+03  0.7546771E-02  0.1223751E+00
          5   -1    0    0  501    0  0.00000000000E+00  0.00000000000E+00  0.10021034187E+03  0.10032049949E+03  0.47000000000E+01 0. -1.
         -5   -1    0    0    0  501 -0.00000000000E+00 -0.00000000000E+00 -0.18211330383E+03  0.18217394280E+03  0.47000000000E+01 0. -1.
         25    2    1    2    0    0  0.41684116111E+02 -0.14168998117E+02 -0.68799625799E+02  0.14932394233E+03  0.12500370074E+03 0.  0.
         25    2    1    2    0    0 -0.41684116111E+02  0.14168998117E+02 -0.13103336169E+02  0.13317049995E+03  0.12499743436E+03 0.  0.
          5    1    4    4  502    0 -0.57987531367E+00 -0.51653388042E+02  0.83083581704E+01  0.52531205650E+02  0.47000000000E+01 0. -1.
         -5    1    4    4    0  502 -0.41104240797E+02  0.65822386159E+02 -0.21411694339E+02  0.80639294303E+02  0.47000000000E+01 0. -1.
          5    1    3    3  503    0  0.50252192346E+02  0.43892159210E+02 -0.59879100312E+02  0.89774167387E+02  0.47000000000E+01 0.  1.
         -5    1    3    3    0  503 -0.85680762350E+01 -0.58061157328E+02 -0.89205254867E+01  0.59549774941E+02  0.47000000000E+01 0.  1.
<mgrwt>
<rscale>  0 0.13252871E+03</rscale>
<asrwt>0</asrwt>
<pdfrwt beam="1">  1        5 0.15430114E-01 0.13253019E+03</pdfrwt>
<pdfrwt beam="2">  1       -5 0.28030570E-01 0.13253019E+03</pdfrwt>
<totfact> 0.32657074E+02</totfact>
</mgrwt>
</event>
<event>
 8    1  0.3759079E-007  0.1390285E+03  0.7546771E-02  0.1214646E+00
         -5   -1    0    0    0  501 -0.00000000000E+00  0.00000000000E+00  0.35208331242E+03  0.35211468143E+03  0.47000000000E+01 0.  1.
          5   -1    0    0  501    0  0.00000000000E+00 -0.00000000000E+00 -0.54879030051E+02  0.55079923196E+02  0.47000000000E+01 0.  1.
         25    2    1    2    0    0  0.59980302512E+02  0.10306670000E+02  0.13912678360E+03  0.19668549024E+03  0.12500022408E+03 0.  0.
         25    2    1    2    0    0 -0.59980302512E+02 -0.10306670000E+02  0.15807749876E+03  0.21050911439E+03  0.12498690927E+03 0.  0.
          5    1    3    3  502    0  0.84748309523E+02  0.38715261455E+02  0.65979698695E+02  0.11426529690E+03  0.47000000000E+01 0.  1.
         -5    1    3    3    0  502 -0.24768007011E+02 -0.28408591455E+02  0.73147084906E+02  0.82420193338E+02  0.47000000000E+01 0.  1.
          5    1    4    4  503    0 -0.61434273658E+02  0.21804817980E+02  0.16484190762E+03  0.17732615311E+03  0.47000000000E+01 0. -1.
         -5    1    4    4    0  503  0.14539711456E+01 -0.32111487980E+02 -0.67644088569E+01  0.33182961284E+02  0.47000000000E+01 0. -1.
<mgrwt>
<rscale>  0 0.13902549E+03</rscale>
<asrwt>0</asrwt>
<pdfrwt beam="2">  1        5 0.84607944E-02 0.13902849E+03</pdfrwt>
<pdfrwt beam="1">  1       -5 0.54184527E-01 0.13902849E+03</pdfrwt>
<totfact> 0.25004894E+02</totfact>
</mgrwt>
</event>
<event>
 8    1  0.3759079E-007  0.1251794E+03  0.7546771E-02  0.1234794E+00
         -5   -1    0    0    0  501 -0.00000000000E+00  0.00000000000E+00  0.10561990385E+03  0.10572442522E+03  0.47000000000E+01 0. -1.
          5   -1    0    0  501    0  0.00000000000E+00 -0.00000000000E+00 -0.15288221538E+03  0.15295444348E+03  0.47000000000E+01 0. -1.
         25    2    1    2    0    0  0.54473663581E+01  0.36972067522E+01 -0.84625362180E+00  0.12518227274E+03  0.12500616835E+03 0.  0.
         25    2    1    2    0    0 -0.54473663581E+01 -0.36972067522E+01 -0.46416057911E+02  0.13349659596E+03  0.12499419012E+03 0.  0.
          5    1    3    3  502    0  0.27025316915E+01 -0.59030122419E+02  0.13063844439E+02  0.60701013681E+02  0.47000000000E+01 0. -1.
         -5    1    3    3    0  502  0.27448346666E+01  0.62727329171E+02 -0.13910098061E+02  0.64481259063E+02  0.47000000000E+01 0. -1.
          5    1    4    4  503    0 -0.89821869338E+01 -0.59278131311E-01  0.42814569428E+02  0.43998415327E+02  0.47000000000E+01 0.  1.
         -5    1    4    4    0  503  0.35348205758E+01 -0.36379286209E+01 -0.89230627339E+02  0.89498180632E+02  0.47000000000E+01 0.  1.
<mgrwt>
<rscale>  0 0.12517642E+03</rscale>
<asrwt>0</asrwt>
<pdfrwt beam="2">  1        5 0.23533937E-01 0.12517941E+03</pdfrwt>
<pdfrwt beam="1">  1       -5 0.16262812E-01 0.12517941E+03</pdfrwt>
<totfact> 0.40660663E+02</totfact>
</mgrwt>
</event>
<event>
 8    1  0.3759079E-007  0.1291573E+03  0.7546771E-02  0.1228714E+00
          5   -1    0    0  501    0  0.00000000000E+00  0.00000000000E+00  0.32535370658E+03  0.32538765248E+03  0.47000000000E+01 0.  1.
         -5   -1    0    0    0  501 -0.00000000000E+00 -0.00000000000E+00 -0.54248419641E+02  0.54451639402E+02  0.47000000000E+01 0.  1.
         25    2    1    2    0    0  0.61389222371E+01 -0.31905645310E+02  0.90083834259E+02  0.15746486402E+03  0.12499771853E+03 0.  0.
         25    2    1    2    0    0 -0.61389222371E+01  0.31905645310E+02  0.18102145268E+03  0.22237442786E+03  0.12500385301E+03 0.  0.
          5    1    3    3  502    0 -0.87683617494E+01  0.47168044411E+02  0.39314617767E+02  0.62204804890E+02  0.47000000000E+01 0.  1.
         -5    1    3    3    0  502  0.14907283986E+02 -0.79073689720E+02  0.50769216492E+02  0.95260059128E+02  0.47000000000E+01 0.  1.
          5    1    4    4  503    0  0.54913274964E+02  0.17155777840E+02  0.12658958070E+03  0.13912871890E+03  0.47000000000E+01 0.  1.
         -5    1    4    4    0  503 -0.61052197201E+02  0.14749867470E+02  0.54431871975E+02  0.83245708959E+02  0.47000000000E+01 0.  1.
<mgrwt>
<rscale>  0 0.12915586E+03</rscale>
<asrwt>0</asrwt>
<pdfrwt beam="1">  1        5 0.50072660E-01 0.12915735E+03</pdfrwt>
<pdfrwt beam="2">  1       -5 0.83641543E-02 0.12915735E+03</pdfrwt>
<totfact> 0.29417198E+02</totfact>
</mgrwt>
</event>
<event>
 8    1  0.3759079E-007  0.1451276E+03  0.7546771E-02  0.1206592E+00
          5   -1    0    0  501    0  0.00000000000E+00  0.00000000000E+00  0.23308574994E+02  0.23777713689E+02  0.47000000000E+01 0. -1.
         -5   -1    0    0    0  501 -0.00000000000E+00 -0.00000000000E+00 -0.90936286750E+03  0.90937501329E+03  0.47000000000E+01 0. -1.
         25    2    1    2    0    0  0.29206220925E+02 -0.67701066526E+02 -0.50341847710E+03  0.52392002790E+03  0.12500237920E+03 0.  0.
         25    2    1    2    0    0 -0.29206220925E+02  0.67701066526E+02 -0.38263581541E+03  0.40923269907E+03  0.12499918802E+03 0.  0.
          5    1    3    3  502    0 -0.20092657860E+02 -0.22864646808E+02 -0.21904991177E+02  0.37794518280E+02  0.47000000000E+01 0.  1.
         -5    1    3    3    0  502  0.49298878786E+02 -0.44836419718E+02 -0.48151348592E+03  0.48612550962E+03  0.47000000000E+01 0.  1.
          5    1    4    4  503    0 -0.29944522993E+02  0.10107286165E+03 -0.23197428112E+03  0.25484613970E+03  0.47000000000E+01 0.  1.
         -5    1    4    4    0  503  0.73830206820E+00 -0.33371795126E+02 -0.15066153429E+03  0.15438655937E+03  0.47000000000E+01 0.  1.
<mgrwt>
<rscale>  0 0.14512696E+03</rscale>
<asrwt>0</asrwt>
<pdfrwt beam="1">  1        5 0.36229572E-02 0.14512764E+03</pdfrwt>
<pdfrwt beam="2">  1       -5 0.13993897E+00 0.14512764E+03</pdfrwt>
<totfact> 0.11031078E+02</totfact>
</mgrwt>
</event>
<event>
 8    1  0.3759079E-007  0.1303447E+03  0.7546771E-02  0.1226954E+00
          5   -1    0    0  501    0  0.00000000000E+00  0.00000000000E+00  0.10683889196E+03  0.10694222195E+03  0.47000000000E+01 0.  1.
         -5   -1    0    0    0  501 -0.00000000000E+00 -0.00000000000E+00 -0.16545723289E+03  0.16552397384E+03  0.47000000000E+01 0.  1.
         25    2    1    2    0    0 -0.21520129444E+02 -0.29947378259E+02 -0.56672754302E+02  0.14213211724E+03  0.12501910348E+03 0.  0.
         25    2    1    2    0    0  0.21520129444E+02  0.29947378259E+02 -0.19455866308E+01  0.13033407855E+03  0.12499290095E+03 0.  0.
          5    1    3    3  502    0 -0.38421994959E+02 -0.73355575638E+02 -0.29700495696E+02  0.88099373542E+02  0.47000000000E+01 0. -1.
         -5    1    3    3    0  502  0.16901865516E+02  0.43408197379E+02 -0.26972258606E+02  0.54032743702E+02  0.47000000000E+01 0. -1.
          5    1    4    4  503    0 -0.43339403834E+02 -0.91662564348E+01  0.23410647996E+02  0.50323678535E+02  0.47000000000E+01 0.  1.
         -5    1    4    4    0  503  0.64859533278E+02  0.39113634694E+02 -0.25356234627E+02  0.80010400014E+02  0.47000000000E+01 0.  1.
<mgrwt>
<rscale>  0 0.13033840E+03</rscale>
<asrwt>0</asrwt>
<pdfrwt beam="1">  1        5 0.16449835E-01 0.13034469E+03</pdfrwt>
<pdfrwt beam="2">  1       -5 0.25468041E-01 0.13034469E+03</pdfrwt>
<totfact> 0.34765686E+02</totfact>
</mgrwt>
</event>
<event>
 8    1  0.3759079E-007  0.1663558E+03  0.7546771E-02  0.1181703E+00
         -5   -1    0    0    0  501 -0.00000000000E+00  0.00000000000E+00  0.12991045141E+04  0.12991130161E+04  0.47000000000E+01 0. -1.
          5   -1    0    0  501    0  0.00000000000E+00 -0.00000000000E+00 -0.21904014913E+02  0.22402586219E+02  0.47000000000E+01 0. -1.
         25    2    1    2    0    0 -0.73613340804E+02  0.81424334634E+02  0.76873639207E+03  0.78653029659E+03  0.12500168300E+03 0.  0.
         25    2    1    2    0    0  0.73613340804E+02 -0.81424334634E+02  0.50846410711E+03  0.53498530571E+03  0.12499873152E+03 0.  0.
          5    1    4    4  502    0 -0.23982863600E+02 -0.35962011169E+01  0.20981018324E+03  0.21125935104E+03  0.47000000000E+01 0. -1.
         -5    1    4    4    0  502  0.97596204404E+02 -0.77828133517E+02  0.29865392387E+03  0.32372595467E+03  0.47000000000E+01 0. -1.
          5    1    3    3  503    0  0.28235304526E+02  0.20828038470E+01  0.26269808588E+03  0.26426112998E+03  0.47000000000E+01 0.  1.
         -5    1    3    3    0  503 -0.10184864533E+03  0.79341530787E+02  0.50603830619E+03  0.52226916661E+03  0.47000000000E+01 0.  1.
<mgrwt>
<rscale>  0 0.16635529E+03</rscale>
<asrwt>0</asrwt>
<pdfrwt beam="2">  1        5 0.34088519E-02 0.16635584E+03</pdfrwt>
<pdfrwt beam="1">  1       -5 0.19990137E+00 0.16635584E+03</pdfrwt>
<totfact> 0.45460514E+01</totfact>
</mgrwt>
</event>
<event>
 8    1  0.3759079E-007  0.1329461E+03  0.7546771E-02  0.1223152E+00
          5   -1    0    0  501    0  0.00000000000E+00  0.00000000000E+00  0.22771679136E+02  0.23251653074E+02  0.47000000000E+01 0.  1.
         -5   -1    0    0    0  501 -0.00000000000E+00 -0.00000000000E+00 -0.79410834766E+03  0.79412225622E+03  0.47000000000E+01 0.  1.
         25    2    1    2    0    0 -0.32990530980E+02  0.30997342796E+02 -0.46040401047E+03  0.47921153233E+03  0.12499051748E+03 0.  0.
         25    2    1    2    0    0  0.32990530980E+02 -0.30997342796E+02 -0.31093265805E+03  0.33816237697E+03  0.12500185982E+03 0.  0.
          5    1    4    4  502    0 -0.14643825213E+02  0.42441339323E+02 -0.11324464254E+03  0.12191040958E+03  0.47000000000E+01 0. -1.
         -5    1    4    4    0  502  0.47634356193E+02 -0.73438682119E+02 -0.19768801552E+03  0.21625196739E+03  0.47000000000E+01 0. -1.
          5    1    3    3  503    0  0.41624464930E+02 -0.11313784044E+02 -0.21135830124E+03  0.21576612175E+03  0.47000000000E+01 0. -1.
         -5    1    3    3    0  503 -0.74614995910E+02  0.42311126840E+02 -0.24904570923E+03  0.26344541058E+03  0.47000000000E+01 0. -1.
<mgrwt>
<rscale>  0 0.13294347E+03</rscale>
<asrwt>0</asrwt>
<pdfrwt beam="1">  1        5 0.35413268E-02 0.13294614E+03</pdfrwt>
<pdfrwt beam="2">  1       -5 0.12220848E+00 0.13294614E+03</pdfrwt>
<totfact> 0.15860042E+02</totfact>
</mgrwt>
</event>
<event>
 8    1  0.3759079E-007  0.1345115E+03  0.7546771E-02  0.1220918E+00
          5   -1    0    0  501    0  0.00000000000E+00  0.00000000000E+00  0.60530608743E+02  0.60712804208E+02  0.47000000000E+01 0. -1.
         -5   -1    0    0    0  501 -0.00000000000E+00 -0.00000000000E+00 -0.30088284424E+03  0.30091955064E+03  0.47000000000E+01 0. -1.
         25    2    1    2    0    0 -0.36866380639E+02  0.33256619227E+02 -0.13717045832E+03  0.19210415856E+03  0.12499256120E+03 0.  0.
         25    2    1    2    0    0  0.36866380639E+02 -0.33256619227E+02 -0.10318177717E+03  0.16952819628E+03  0.12501278915E+03 0.  0.
          5    1    4    4  502    0 -0.51543418254E+01  0.44581399172E+02 -0.43795304782E+02  0.62882327507E+02  0.47000000000E+01 0. -1.
         -5    1    4    4    0  502  0.42020722465E+02 -0.77838018399E+02 -0.59386472387E+02  0.10664586878E+03  0.47000000000E+01 0. -1.
          5    1    3    3  503    0 -0.59398634009E+01 -0.47144785626E+02 -0.56703148730E+02  0.74129952549E+02  0.47000000000E+01 0. -1.
         -5    1    3    3    0  503 -0.30926517239E+02  0.80401404853E+02 -0.80467309594E+02  0.11797420601E+03  0.47000000000E+01 0. -1.
<mgrwt>
<rscale>  0 0.13450675E+03</rscale>
<asrwt>0</asrwt>
<pdfrwt beam="1">  1        5 0.93292401E-02 0.13451145E+03</pdfrwt>
<pdfrwt beam="2">  1       -5 0.46306506E-01 0.13451145E+03</pdfrwt>
<totfact> 0.29138530E+02</totfact>
</mgrwt>
</event>
<event>
 8    1  0.3759079E-007  0.1780749E+03  0.7546771E-02  0.1169683E+00
          5   -1    0    0  501    0  0.00000000000E+00  0.00000000000E+00  0.44219642225E+03  0.44222139913E+03  0.47000000000E+01 0.  1.
         -5   -1    0    0    0  501 -0.00000000000E+00 -0.00000000000E+00 -0.91804362435E+02  0.91924593892E+02  0.47000000000E+01 0.  1.
         25    2    1    2    0    0 -0.54748379627E+02 -0.11440208974E+03  0.50026200685E+02  0.18496831020E+03  0.12500172725E+03 0.  0.
         25    2    1    2    0    0  0.54748379627E+02  0.11440208974E+03  0.30036585913E+03  0.34917768282E+03  0.12498072507E+03 0.  0.
          5    1    3    3  502    0 -0.52418745739E+02  0.70523470641E+01 -0.10424137180E+01  0.53109670780E+02  0.47000000000E+01 0.  1.
         -5    1    3    3    0  502 -0.23296338872E+01 -0.12145443680E+03  0.51068614403E+02  0.13185863942E+03  0.47000000000E+01 0.  1.
          5    1    4    4  503    0 -0.19601822963E+02  0.97841577005E+02  0.19472254785E+03  0.21885192779E+03  0.47000000000E+01 0.  1.
         -5    1    4    4    0  503  0.74350202590E+02  0.16560512736E+02  0.10564331128E+03  0.13032575504E+03  0.47000000000E+01 0.  1.
<mgrwt>
<rscale>  0 0.17807117E+03</rscale>
<asrwt>0</asrwt>
<pdfrwt beam="1">  1        5 0.68041387E-01 0.17807486E+03</pdfrwt>
<pdfrwt beam="2">  1       -5 0.14134918E-01 0.17807486E+03</pdfrwt>
<totfact> 0.66204709E+01</totfact>
</mgrwt>
</event>
<event>
 8    1  0.3759079E-007  0.1828531E+03  0.7546771E-02  0.1165074E+00
          5   -1    0    0  501    0  0.00000000000E+00  0.00000000000E+00  0.17708676581E+03  0.17714912539E+03  0.47000000000E+01 0. -1.
         -5   -1    0    0    0  501 -0.00000000000E+00 -0.00000000000E+00 -0.18887745234E+03  0.18893592036E+03  0.47000000000E+01 0. -1.
         25    2    1    2    0    0 -0.99328816718E+02 -0.89106894746E+02 -0.12031371551E+02  0.18323174378E+03  0.12499146173E+03 0.  0.
         25    2    1    2    0    0  0.99328816718E+02  0.89106894746E+02  0.24068502205E+00  0.18285330196E+03  0.12501607732E+03 0.  0.
          5    1    4    4  502    0  0.56077701419E+02 -0.22395239612E+02 -0.14447960390E+02  0.62266274283E+02  0.47000000000E+01 0. -1.
         -5    1    4    4    0  502  0.43251115299E+02  0.11150213436E+03  0.14688645412E+02  0.12058702768E+03  0.47000000000E+01 0. -1.
          5    1    3    3  503    0 -0.89292155883E+02 -0.75757781710E+02 -0.60401765030E+02  0.13184382356E+03  0.47000000000E+01 0. -1.
         -5    1    3    3    0  503 -0.10036660834E+02 -0.13349113036E+02  0.48370393479E+02  0.51387920223E+02  0.47000000000E+01 0. -1.
<mgrwt>
<rscale>  0 0.18284894E+03</rscale>
<asrwt>0</asrwt>
<pdfrwt beam="1">  1        5 0.27253412E-01 0.18285314E+03</pdfrwt>
<pdfrwt beam="2">  1       -5 0.29067364E-01 0.18285314E+03</pdfrwt>
<totfact> 0.11593135E+02</totfact>
</mgrwt>
</event>
<event>
 8    1  0.3759079E-007  0.1313480E+03  0.7546771E-02  0.1225470E+00
         -5   -1    0    0    0  501 -0.00000000000E+00  0.00000000000E+00  0.56921840461E+02  0.57115548859E+02  0.47000000000E+01 0. -1.
          5   -1    0    0  501    0  0.00000000000E+00 -0.00000000000E+00 -0.49576894248E+03  0.49579122051E+03  0.47000000000E+01 0. -1.
         25    2    1    2    0    0 -0.36038867050E+02 -0.18132317555E+02 -0.46789455900E+02  0.13943293583E+03  0.12499883813E+03 0.  0.
         25    2    1    2    0    0  0.36038867050E+02  0.18132317555E+02 -0.39205764612E+03  0.41347383353E+03  0.12499532893E+03 0.  0.
          5    1    4    4  502    0 -0.17724804959E+02  0.21060104693E+02 -0.13391010822E+02  0.30969434792E+02  0.47000000000E+01 0.  1.
         -5    1    4    4    0  502  0.53763672009E+02 -0.29277871384E+01 -0.37866663530E+03  0.38250439874E+03  0.47000000000E+01 0.  1.
          5    1    3    3  503    0  0.32733307238E+02  0.51149001335E+01  0.21402971488E+02  0.39721641389E+02  0.47000000000E+01 0. -1.
         -5    1    3    3    0  503 -0.68772174288E+02 -0.23247217688E+02 -0.68192427389E+02  0.99711294444E+02  0.47000000000E+01 0. -1.
<mgrwt>
<rscale>  0 0.13134714E+03</rscale>
<asrwt>0</asrwt>
<pdfrwt beam="2">  1        5 0.76288756E-01 0.13134797E+03</pdfrwt>
<pdfrwt beam="1">  1       -5 0.87738209E-02 0.13134797E+03</pdfrwt>
<totfact> 0.10794857E+02</totfact>
</mgrwt>
</event>
<event>
 8    1  0.3759079E-007  0.1403816E+03  0.7546771E-02  0.1212819E+00
          5   -1    0    0  501    0  0.00000000000E+00  0.00000000000E+00  0.27760870941E+02  0.28155922209E+02  0.47000000000E+01 0. -1.
         -5   -1    0    0    0  501 -0.00000000000E+00 -0.00000000000E+00 -0.81067964955E+03  0.81069327381E+03  0.47000000000E+01 0. -1.
         25    2    1    2    0    0  0.63430211680E+02 -0.75005900677E+01 -0.54327738867E+03  0.56112148106E+03  0.12500937910E+03 0.  0.
         25    2    1    2    0    0 -0.63430211680E+02  0.75005900677E+01 -0.23964138994E+03  0.27772771495E+03  0.12500014911E+03 0.  0.
          5    1    4    4  502    0 -0.79193139372E+02 -0.17336977293E+02 -0.75419302674E+02  0.11082547235E+03  0.47000000000E+01 0.  1.
         -5    1    4    4    0  502  0.15762927692E+02  0.24837567361E+02 -0.16422208726E+03  0.16690224261E+03  0.47000000000E+01 0.  1.
          5    1    3    3  503    0  0.26983484541E+02  0.58264872406E+02 -0.27770882630E+03  0.28507400092E+03  0.47000000000E+01 0.  1.
         -5    1    3    3    0  503  0.36446727140E+02 -0.65765462474E+02 -0.26556856237E+03  0.27604748014E+03  0.47000000000E+01 0.  1.
<mgrwt>
<rscale>  0 0.14037955E+03</rscale>
<asrwt>0</asrwt>
<pdfrwt beam="1">  1        5 0.43023404E-02 0.14038161E+03</pdfrwt>
<pdfrwt beam="2">  1       -5 0.12475136E+00 0.14038161E+03</pdfrwt>
<totfact> 0.11128575E+02</totfact>
</mgrwt>
</event>
<event>
 8    1  0.3759079E-007  0.1473082E+03  0.7546771E-02  0.1203822E+00
         -5   -1    0    0    0  501 -0.00000000000E+00  0.00000000000E+00  0.38460761042E+03  0.38463632693E+03  0.47000000000E+01 0.  1.
          5   -1    0    0  501    0  0.00000000000E+00 -0.00000000000E+00 -0.82182657285E+02  0.82316943326E+02  0.47000000000E+01 0. -1.
         25    2    1    2    0    0 -0.30195101956E+02 -0.71846176728E+02  0.28210817061E+03  0.31825057941E+03  0.12499917630E+03 0.  0.
         25    2    1    2    0    0  0.30195101956E+02  0.71846176728E+02  0.20316782520E+02  0.14870269084E+03  0.12500440520E+03 0.  0.
          5    1    3    3  502    0 -0.45056443835E+02 -0.49432826872E+02  0.47768947951E+02  0.82326483539E+02  0.47000000000E+01 0. -1.
         -5    1    3    3    0  502  0.14861341878E+02 -0.22413349857E+02  0.23433922266E+03  0.23592409587E+03  0.47000000000E+01 0. -1.
          5    1    4    4  503    0  0.22384520296E+02 -0.65444905448E+01  0.56932466386E+02  0.61703264372E+02  0.47000000000E+01 0.  1.
         -5    1    4    4    0  503  0.78105816600E+01  0.78390667273E+02 -0.36615683866E+02  0.86999426471E+02  0.47000000000E+01 0.  1.
<mgrwt>
<rscale>  0 0.14730713E+03</rscale>
<asrwt>0</asrwt>
<pdfrwt beam="2">  1        5 0.12656024E-01 0.14730824E+03</pdfrwt>
<pdfrwt beam="1">  1       -5 0.59182940E-01 0.14730824E+03</pdfrwt>
<totfact> 0.10395521E+02</totfact>
</mgrwt>
</event>
<event>
 8    1  0.3759079E-007  0.1323829E+03  0.7546771E-02  0.1223963E+00
         -5   -1    0    0    0  501 -0.00000000000E+00  0.00000000000E+00  0.43972968838E+03  0.43975480537E+03  0.47000000000E+01 0.  1.
          5   -1    0    0  501    0  0.00000000000E+00 -0.00000000000E+00 -0.41529704376E+02  0.41794812424E+02  0.47000000000E+01 0.  1.
         25    2    1    2    0    0  0.10707898789E+02 -0.42252612581E+02  0.24960644996E+03  0.28253888268E+03  0.12499959198E+03 0.  0.
         25    2    1    2    0    0 -0.10707898789E+02  0.42252612581E+02  0.14859353404E+03  0.19901073512E+03  0.12500116786E+03 0.  0.
          5    1    4    4  502    0  0.45886667802E+02 -0.16877450517E+02  0.69408061120E+02  0.85029427649E+02  0.47000000000E+01 0.  1.
         -5    1    4    4    0  502 -0.56594566591E+02  0.59130063099E+02  0.79185472924E+02  0.11398130747E+03  0.47000000000E+01 0.  1.
          5    1    3    3  503    0  0.38924457263E+02  0.27108570929E+02  0.48995280838E+02  0.68356532500E+02  0.47000000000E+01 0. -1.
         -5    1    3    3    0  503 -0.28216558473E+02 -0.69361183510E+02  0.20061116912E+03  0.21418235018E+03  0.47000000000E+01 0. -1.
<mgrwt>
<rscale>  0 0.13238254E+03</rscale>
<asrwt>0</asrwt>
<pdfrwt beam="2">  1        5 0.64115102E-02 0.13238291E+03</pdfrwt>
<pdfrwt beam="1">  1       -5 0.67673047E-01 0.13238291E+03</pdfrwt>
<totfact> 0.24237216E+02</totfact>
</mgrwt>
</event>
<event>
 8    1  0.3759079E-007  0.1332012E+03  0.7546771E-02  0.1222783E+00
          5   -1    0    0  501    0  0.00000000000E+00  0.00000000000E+00  0.52274284225E+02  0.52485148292E+02  0.47000000000E+01 0.  1.
         -5   -1    0    0    0  501 -0.00000000000E+00 -0.00000000000E+00 -0.38558435157E+03  0.38561299534E+03  0.47000000000E+01 0.  1.
         25    2    1    2    0    0  0.36565500808E+02 -0.27925199072E+02 -0.24318086841E+03  0.27726958204E+03  0.12499853507E+03 0.  0.
         25    2    1    2    0    0 -0.36565500808E+02  0.27925199072E+02 -0.90129198932E+02  0.16082856159E+03  0.12500280450E+03 0.  0.
          5    1    4    4  502    0  0.93966326743E+01  0.14740642003E+02  0.27977652150E+02  0.33322998846E+02  0.47000000000E+01 0.  1.
         -5    1    4    4    0  502 -0.45962133483E+02  0.13184557068E+02 -0.11810685108E+03  0.12750556275E+03  0.47000000000E+01 0.  1.
          5    1    3    3  503    0 -0.29172945585E+02 -0.52484202140E+02 -0.13990085309E+03  0.15231543233E+03  0.47000000000E+01 0. -1.
         -5    1    3    3    0  503  0.65738446393E+02  0.24559003068E+02 -0.10328001532E+03  0.12495414971E+03  0.47000000000E+01 0. -1.
<mgrwt>
<rscale>  0 0.13320018E+03</rscale>
<asrwt>0</asrwt>
<pdfrwt beam="1">  1        5 0.80606215E-02 0.13320118E+03</pdfrwt>
<pdfrwt beam="2">  1       -5 0.59339091E-01 0.13320118E+03</pdfrwt>
<totfact> 0.22000919E+02</totfact>
</mgrwt>
</event>
<event>
 8    1  0.3759079E-007  0.1432852E+03  0.7546771E-02  0.1208985E+00
          5   -1    0    0  501    0  0.00000000000E+00  0.00000000000E+00  0.11270750703E+04  0.11270848700E+04  0.47000000000E+01 0. -1.
         -5   -1    0    0    0  501 -0.00000000000E+00 -0.00000000000E+00 -0.18014768786E+02  0.18617784358E+02  0.47000000000E+01 0. -1.
         25    2    1    2    0    0 -0.69692311646E+02 -0.64500080808E+01  0.59967976571E+03  0.61655316055E+03  0.12499342977E+03 0.  0.
         25    2    1    2    0    0  0.69692311646E+02  0.64500080808E+01  0.50938053586E+03  0.52914949381E+03  0.12502813918E+03 0.  0.
          5    1    3    3  502    0 -0.14605284153E+02 -0.16363311122E+02  0.51157683185E+03  0.51206837157E+03  0.47000000000E+01 0. -1.
         -5    1    3    3    0  502 -0.55087027493E+02  0.99133030411E+01  0.88102933856E+02  0.10448478899E+03  0.47000000000E+01 0. -1.
          5    1    4    4  503    0  0.10620665086E+03  0.47058632917E+01  0.38151159363E+03  0.39607472011E+03  0.47000000000E+01 0.  1.
         -5    1    4    4    0  503 -0.36514339218E+02  0.17441447891E+01  0.12786894223E+03  0.13307477370E+03  0.47000000000E+01 0.  1.
<mgrwt>
<rscale>  0 0.14327766E+03</rscale>
<asrwt>0</asrwt>
<pdfrwt beam="1">  1        5 0.17344338E+00 0.14328523E+03</pdfrwt>
<pdfrwt beam="2">  1       -5 0.28186413E-02 0.14328523E+03</pdfrwt>
<totfact> 0.90974931E+01</totfact>
</mgrwt>
</event>
<event>
 8    1  0.3759079E-007  0.1659639E+03  0.7546771E-02  0.1182124E+00
         -5   -1    0    0    0  501 -0.00000000000E+00  0.00000000000E+00  0.52367205299E+03  0.52369314401E+03  0.47000000000E+01 0.  1.
          5   -1    0    0  501    0  0.00000000000E+00 -0.00000000000E+00 -0.54388055091E+02  0.54590755047E+02  0.47000000000E+01 0.  1.
         25    2    1    2    0    0 -0.58936656023E+02  0.91897641358E+02  0.28883143917E+03  0.33311802782E+03  0.12500125717E+03 0.  0.
         25    2    1    2    0    0  0.58936656023E+02 -0.91897641358E+02  0.18045255873E+03  0.24516587124E+03  0.12499789022E+03 0.  0.
          5    1    3    3  502    0 -0.49257608211E+02  0.43797999432E+02  0.35453707619E+02  0.74990880145E+02  0.47000000000E+01 0.  1.
         -5    1    3    3    0  502 -0.96790478115E+01  0.48099641926E+02  0.25337773155E+03  0.25812714767E+03  0.47000000000E+01 0.  1.
          5    1    4    4  503    0 -0.31102364039E+02  0.25146498393E+01  0.58748944357E+02  0.66687397428E+02  0.47000000000E+01 0. -1.
         -5    1    4    4    0  503  0.90039020062E+02 -0.94412291197E+02  0.12170361437E+03  0.17847847381E+03  0.47000000000E+01 0. -1.
<mgrwt>
<rscale>  0 0.16596328E+03</rscale>
<asrwt>0</asrwt>
<pdfrwt beam="2">  1        5 0.83846075E-02 0.16596391E+03</pdfrwt>
<pdfrwt beam="1">  1       -5 0.80582148E-01 0.16596391E+03</pdfrwt>
<totfact> 0.11075279E+02</totfact>
</mgrwt>
</event>
<event>
 8    1  0.3759079E-007  0.1311174E+03  0.7546771E-02  0.1225810E+00
         -5   -1    0    0    0  501 -0.00000000000E+00  0.00000000000E+00  0.10664437688E+04  0.10664541256E+04  0.47000000000E+01 0. -1.
          5   -1    0    0  501    0  0.00000000000E+00 -0.00000000000E+00 -0.29261505607E+02  0.29636560367E+02  0.47000000000E+01 0. -1.
         25    2    1    2    0    0 -0.35357926958E+02 -0.17733230860E+02  0.88739153707E+03  0.89702593109E+03  0.12500852172E+03 0.  0.
         25    2    1    2    0    0  0.35357926958E+02  0.17733230860E+02  0.14979072613E+03  0.19906475489E+03  0.12499945812E+03 0.  0.
          5    1    4    4  502    0  0.59360387204E+02 -0.36562220682E+02  0.96567940959E+02  0.11919693273E+03  0.47000000000E+01 0. -1.
         -5    1    4    4    0  502 -0.24002460246E+02  0.54295451542E+02  0.53222785176E+02  0.79867822169E+02  0.47000000000E+01 0. -1.
          5    1    3    3  503    0 -0.76646880981E+02 -0.32357916715E+02  0.47142905856E+03  0.47873711617E+03  0.47000000000E+01 0. -1.
         -5    1    3    3    0  503  0.41288954023E+02  0.14624685855E+02  0.41596247851E+03  0.41828881493E+03  0.47000000000E+01 0. -1.
<mgrwt>
<rscale>  0 0.13111527E+03</rscale>
<asrwt>0</asrwt>
<pdfrwt beam="2">  1        5 0.45314178E-02 0.13111743E+03</pdfrwt>
<pdfrwt beam="1">  1       -5 0.16409789E+00 0.13111743E+03</pdfrwt>
<totfact> 0.47875378E+01</totfact>
</mgrwt>
</event>
<event>
 8    1  0.3759079E-007  0.1360095E+03  0.7546771E-02  0.1218805E+00
         -5   -1    0    0    0  501 -0.00000000000E+00  0.00000000000E+00  0.52805546560E+03  0.52807638155E+03  0.47000000000E+01 0. -1.
          5   -1    0    0  501    0  0.00000000000E+00 -0.00000000000E+00 -0.35811318778E+02  0.36118424005E+02  0.47000000000E+01 0. -1.
         25    2    1    2    0    0 -0.51759585474E+02 -0.13900013745E+02  0.29214916572E+03  0.32225722695E+03  0.12500528079E+03 0.  0.
         25    2    1    2    0    0  0.51759585474E+02  0.13900013745E+02  0.20009498110E+03  0.24193757860E+03  0.12499410148E+03 0.  0.
          5    1    3    3  502    0 -0.90337310588E+02 -0.26997921180E+02  0.21702795671E+03  0.23667053350E+03  0.47000000000E+01 0. -1.
         -5    1    3    3    0  502  0.38577725114E+02  0.13097907435E+02  0.75121209007E+02  0.85586693456E+02  0.47000000000E+01 0. -1.
          5    1    4    4  503    0 -0.10581528497E+02 -0.45454329903E+02  0.95487975871E+02  0.10638659872E+03  0.47000000000E+01 0. -1.
         -5    1    4    4    0  503  0.62341113971E+02  0.59354343648E+02  0.10460700523E+03  0.13555097987E+03  0.47000000000E+01 0. -1.
<mgrwt>
<rscale>  0 0.13600694E+03</rscale>
<asrwt>0</asrwt>
<pdfrwt beam="2">  1        5 0.55346659E-02 0.13600950E+03</pdfrwt>
<pdfrwt beam="1">  1       -5 0.81264538E-01 0.13600950E+03</pdfrwt>
<totfact> 0.20636433E+02</totfact>
</mgrwt>
</event>
<event>
 8    1  0.3759079E-007  0.1408435E+03  0.7546771E-02  0.1212212E+00
         -5   -1    0    0    0  501 -0.00000000000E+00  0.00000000000E+00  0.16736628397E+03  0.16743226395E+03  0.47000000000E+01 0.  1.
          5   -1    0    0  501    0  0.00000000000E+00 -0.00000000000E+00 -0.13142764614E+03  0.13151165792E+03  0.47000000000E+01 0.  1.
         25    2    1    2    0    0 -0.26579508632E+02 -0.59110568968E+02  0.65082042818E+02  0.15511687151E+03  0.12500016755E+03 0.  0.
         25    2    1    2    0    0  0.26579508632E+02  0.59110568968E+02 -0.29143404980E+02  0.14382705036E+03  0.12504540263E+03 0.  0.
          5    1    4    4  502    0  0.72757879709E+02  0.10556843613E+02 -0.15648154641E+02  0.75313416803E+02  0.47000000000E+01 0.  1.
         -5    1    4    4    0  502 -0.46178371077E+02  0.48553725355E+02 -0.13495250339E+02  0.68513633555E+02  0.47000000000E+01 0.  1.
          5    1    3    3  503    0 -0.66343125334E+02  0.32343605384E+01  0.27611586280E+02  0.72085789613E+02  0.47000000000E+01 0. -1.
         -5    1    3    3    0  503  0.39763616702E+02 -0.62344929506E+02  0.37470456538E+02  0.83031081900E+02  0.47000000000E+01 0. -1.
<mgrwt>
<rscale>  0 0.14083343E+03</rscale>
<asrwt>0</asrwt>
<pdfrwt beam="2">  1        5 0.20231176E-01 0.14084347E+03</pdfrwt>
<pdfrwt beam="1">  1       -5 0.25760197E-01 0.14084347E+03</pdfrwt>
<totfact> 0.23841852E+02</totfact>
</mgrwt>
</event>
<event>
 8    1  0.3759079E-007  0.1273210E+03  0.7546771E-02  0.1231494E+00
          5   -1    0    0  501    0  0.00000000000E+00  0.00000000000E+00  0.36499476306E+03  0.36502502251E+03  0.47000000000E+01 0.  1.
         -5   -1    0    0    0  501 -0.00000000000E+00 -0.00000000000E+00 -0.44267244700E+02  0.44516052760E+02  0.47000000000E+01 0.  1.
         25    2    1    2    0    0  0.14905709879E+02 -0.19045235759E+02  0.15621601494E+03  0.20151545293E+03  0.12498053149E+03 0.  0.
         25    2    1    2    0    0 -0.14905709879E+02  0.19045235759E+02  0.16451150342E+03  0.20802562235E+03  0.12500289438E+03 0.  0.
          5    1    4    4  502    0  0.52123418960E+02  0.27948741950E+02  0.70850603449E+02  0.92411476505E+02  0.47000000000E+01 0.  1.
         -5    1    4    4    0  502 -0.67029128839E+02 -0.89035061911E+01  0.93660899970E+02  0.11561414584E+03  0.47000000000E+01 0.  1.
          5    1    3    3  503    0  0.60401423648E+02  0.86318146468E+01  0.38686775331E+02  0.72398872839E+02  0.47000000000E+01 0.  1.
         -5    1    3    3    0  503 -0.45495713769E+02 -0.27677050405E+02  0.11752923961E+03  0.12911658009E+03  0.47000000000E+01 0.  1.
<mgrwt>
<rscale>  0 0.12731546E+03</rscale>
<asrwt>0</asrwt>
<pdfrwt beam="1">  1        5 0.56174508E-01 0.12732095E+03</pdfrwt>
<pdfrwt beam="2">  1       -5 0.68318120E-02 0.12732095E+03</pdfrwt>
<totfact> 0.32319045E+02</totfact>
</mgrwt>
</event>
<event>
 8    1  0.3759079E-007  0.1353092E+03  0.7546771E-02  0.1219785E+00
          5   -1    0    0  501    0  0.00000000000E+00  0.00000000000E+00  0.65890170408E+02  0.66057585154E+02  0.47000000000E+01 0. -1.
         -5   -1    0    0    0  501 -0.00000000000E+00 -0.00000000000E+00 -0.28207901839E+03  0.28211817136E+03  0.47000000000E+01 0. -1.
         25    2    1    2    0    0  0.31594564190E+01  0.51709107808E+02 -0.13070327244E+03  0.18812745110E+03  0.12499911374E+03 0.  0.
         25    2    1    2    0    0 -0.31594564190E+01 -0.51709107808E+02 -0.85485575533E+02  0.16004830542E+03  0.12499544971E+03 0.  0.
          5    1    4    4  502    0 -0.56138637063E+02 -0.42325351918E+02 -0.78667708305E+02  0.10561098577E+03  0.47000000000E+01 0. -1.
         -5    1    4    4    0  502  0.52979180644E+02 -0.93837558902E+01 -0.68178672282E+01  0.54437319643E+02  0.47000000000E+01 0. -1.
          5    1    3    3  503    0  0.25594442798E+02 -0.30080602675E+02 -0.10851673899E+02  0.41228230447E+02  0.47000000000E+01 0. -1.
         -5    1    3    3    0  503 -0.22434986379E+02  0.81789710483E+02 -0.11985159855E+03  0.14689922065E+03  0.47000000000E+01 0. -1.
<mgrwt>
<rscale>  0 0.13530840E+03</rscale>
<asrwt>0</asrwt>
<pdfrwt beam="1">  1        5 0.10152839E-01 0.13530925E+03</pdfrwt>
<pdfrwt beam="2">  1       -5 0.43412661E-01 0.13530925E+03</pdfrwt>
<totfact> 0.28821816E+02</totfact>
</mgrwt>
</event>
<event>
 8    1  0.3759079E-007  0.1764706E+03  0.7546771E-02  0.1171265E+00
         -5   -1    0    0    0  501 -0.00000000000E+00  0.00000000000E+00  0.10251728995E+04  0.10251836732E+04  0.47000000000E+01 0. -1.
          5   -1    0    0  501    0  0.00000000000E+00 -0.00000000000E+00 -0.33117210373E+02  0.33449060120E+02  0.47000000000E+01 0. -1.
         25    2    1    2    0    0  0.12445232073E+03 -0.51800121645E+01  0.65274475719E+03  0.67617865763E+03  0.12500658515E+03 0.  0.
         25    2    1    2    0    0 -0.12445232073E+03  0.51800121645E+01  0.33931093191E+03  0.38245407570E+03  0.12499599532E+03 0.  0.
          5    1    4    4  502    0 -0.88457824265E+02  0.32237499878E+02  0.94449835561E+02  0.13344251388E+03  0.47000000000E+01 0.  1.
         -5    1    4    4    0  502 -0.35994496463E+02 -0.27057487713E+02  0.24486109635E+03  0.24901156183E+03  0.47000000000E+01 0.  1.
          5    1    3    3  503    0  0.16014789983E+02  0.51019544505E+02  0.22490501362E+03  0.23122245256E+03  0.47000000000E+01 0.  1.
         -5    1    3    3    0  503  0.10843753075E+03 -0.56199556670E+02  0.42783974357E+03  0.44495620506E+03  0.47000000000E+01 0.  1.
<mgrwt>
<rscale>  0 0.17646869E+03</rscale>
<asrwt>0</asrwt>
<pdfrwt beam="2">  1        5 0.51213105E-02 0.17647056E+03</pdfrwt>
<pdfrwt beam="1">  1       -5 0.15774528E+00 0.17647056E+03</pdfrwt>
<totfact> 0.47475181E+01</totfact>
</mgrwt>
</event>
<event>
 8    1  0.3759079E-007  0.1482880E+03  0.7546771E-02  0.1202593E+00
          5   -1    0    0  501    0  0.00000000000E+00  0.00000000000E+00  0.95492388309E+02  0.95607982015E+02  0.47000000000E+01 0.  1.
         -5   -1    0    0    0  501 -0.00000000000E+00 -0.00000000000E+00 -0.26080265581E+03  0.26084500240E+03  0.47000000000E+01 0.  1.
         25    2    1    2    0    0  0.33194790868E+02  0.72550441939E+02 -0.14389270707E+03  0.20662627015E+03  0.12499537432E+03 0.  0.
         25    2    1    2    0    0 -0.33194790868E+02 -0.72550441939E+02 -0.21417560429E+02  0.14982671427E+03  0.12499548651E+03 0.  0.
          5    1    4    4  502    0  0.61598310136E+01 -0.79810341814E+02 -0.55114237874E+02  0.97300068833E+02  0.47000000000E+01 0.  1.
         -5    1    4    4    0  502 -0.39354621882E+02  0.72598998756E+01  0.33696677444E+02  0.52526645433E+02  0.47000000000E+01 0.  1.
          5    1    3    3  503    0  0.18785835996E+02 -0.22750190923E+02  0.38898993744E+01  0.30128062305E+02  0.47000000000E+01 0. -1.
         -5    1    3    3    0  503  0.14408954872E+02  0.95300632861E+02 -0.14778260645E+03  0.17649820784E+03  0.47000000000E+01 0. -1.
<mgrwt>
<rscale>  0 0.14828798E+03</rscale>
<asrwt>0</asrwt>
<pdfrwt beam="1">  1        5 0.14703286E-01 0.14828800E+03</pdfrwt>
<pdfrwt beam="2">  1       -5 0.40135635E-01 0.14828800E+03</pdfrwt>
<totfact> 0.18092702E+02</totfact>
</mgrwt>
</event>
<event>
 8    1  0.3759079E-007  0.1541914E+03  0.7546771E-02  0.1195415E+00
         -5   -1    0    0    0  501 -0.00000000000E+00  0.00000000000E+00  0.12343454806E+03  0.12352399627E+03  0.47000000000E+01 0.  1.
          5   -1    0    0  501    0  0.00000000000E+00 -0.00000000000E+00 -0.20533933446E+03  0.20539311643E+03  0.47000000000E+01 0.  1.
         25    2    1    2    0    0 -0.74064240319E+02  0.51616844845E+02  0.27833487443E+00  0.15419144937E+03  0.12500046089E+03 0.  0.
         25    2    1    2    0    0  0.74064240319E+02 -0.51616844845E+02 -0.82183121284E+02  0.17472566333E+03  0.12500072655E+03 0.  0.
          5    1    4    4  502    0 -0.23418841410E+02 -0.74106106408E+01  0.15762335412E+02  0.29561808143E+02  0.47000000000E+01 0. -1.
         -5    1    4    4    0  502  0.97483081729E+02 -0.44206234205E+02 -0.97945456696E+02  0.14516385519E+03  0.47000000000E+01 0. -1.
          5    1    3    3  503    0 -0.10082115300E+03  0.62827583877E+02  0.17437868002E+02  0.12015980787E+03  0.47000000000E+01 0. -1.
         -5    1    3    3    0  503  0.26756912679E+02 -0.11210739032E+02 -0.17159533127E+02  0.34031641496E+02  0.47000000000E+01 0. -1.
<mgrwt>
<rscale>  0 0.15419136E+03</rscale>
<asrwt>0</asrwt>
<pdfrwt beam="2">  1        5 0.31601685E-01 0.15419141E+03</pdfrwt>
<pdfrwt beam="1">  1       -5 0.19000948E-01 0.15419141E+03</pdfrwt>
<totfact> 0.18532789E+02</totfact>
</mgrwt>
</event>
<event>
 8    1  0.3759079E-007  0.1258820E+03  0.7546771E-02  0.1233697E+00
          5   -1    0    0  501    0  0.00000000000E+00  0.00000000000E+00  0.97986102845E+02  0.98098758150E+02  0.47000000000E+01 0. -1.
         -5   -1    0    0    0  501 -0.00000000000E+00 -0.00000000000E+00 -0.16212351539E+03  0.16219162815E+03  0.47000000000E+01 0. -1.
         25    2    1    2    0    0  0.14658225481E+02  0.26581488678E+01 -0.40264599393E+02  0.13216471743E+03  0.12499738093E+03 0.  0.
         25    2    1    2    0    0 -0.14658225481E+02 -0.26581488678E+01 -0.23872813153E+02  0.12812566887E+03  0.12499738592E+03 0.  0.
          5    1    3    3  502    0  0.66808161888E+02 -0.75557044009E+01 -0.40853692671E+02  0.78813281677E+02  0.47000000000E+01 0.  1.
         -5    1    3    3    0  502 -0.52149936407E+02  0.10213853269E+02  0.58909327799E+00  0.53351435752E+02  0.47000000000E+01 0.  1.
          5    1    4    4  503    0 -0.58990234742E+02 -0.93986550707E+00 -0.49076473504E+02  0.76885118155E+02  0.47000000000E+01 0.  1.
         -5    1    4    4    0  503  0.44332009261E+02 -0.17182833607E+01  0.25203660351E+02  0.51240550719E+02  0.47000000000E+01 0.  1.
<mgrwt>
<rscale>  0 0.12588199E+03</rscale>
<asrwt>0</asrwt>
<pdfrwt beam="1">  1        5 0.15088690E-01 0.12588199E+03</pdfrwt>
<pdfrwt beam="2">  1       -5 0.24955985E-01 0.12588199E+03</pdfrwt>
<totfact> 0.41744368E+02</totfact>
</mgrwt>
</event>
<event>
 8    1  0.3759079E-007  0.1295754E+03  0.7546771E-02  0.1228088E+00
          5   -1    0    0  501    0  0.00000000000E+00  0.00000000000E+00  0.20790651314E+03  0.20795963119E+03  0.47000000000E+01 0. -1.
         -5   -1    0    0    0  501 -0.00000000000E+00 -0.00000000000E+00 -0.11140138532E+03  0.11150048722E+03  0.47000000000E+01 0. -1.
         25    2    1    2    0    0 -0.10818197915E+02  0.32366866963E+02 -0.35641034252E+02  0.13438773546E+03  0.12500053054E+03 0.  0.
         25    2    1    2    0    0  0.10818197915E+02 -0.32366866963E+02  0.13214616207E+03  0.18507238296E+03  0.12499812519E+03 0.  0.
          5    1    3    3  502    0  0.34065195015E+00  0.35203903592E+02 -0.80419885028E+02  0.87914041994E+02  0.47000000000E+01 0.  1.
         -5    1    3    3    0  502 -0.11158849865E+02 -0.28370366294E+01  0.44778850776E+02  0.46473693461E+02  0.47000000000E+01 0.  1.
          5    1    4    4  503    0 -0.46148131679E+02  0.60164948258E+01  0.97179086515E+02  0.10785042013E+03  0.47000000000E+01 0.  1.
         -5    1    4    4    0  503  0.56966329593E+02 -0.38383361788E+02  0.34967075559E+02  0.77221962826E+02  0.47000000000E+01 0.  1.
<mgrwt>
<rscale>  0 0.12957480E+03</rscale>
<asrwt>0</asrwt>
<pdfrwt beam="1">  1        5 0.31997326E-01 0.12957538E+03</pdfrwt>
<pdfrwt beam="2">  1       -5 0.17150384E-01 0.12957538E+03</pdfrwt>
<totfact> 0.20609420E+02</totfact>
</mgrwt>
</event>
<event>
 8    1  0.3759079E-007  0.1357744E+03  0.7546771E-02  0.1219131E+00
         -5   -1    0    0    0  501 -0.00000000000E+00  0.00000000000E+00  0.48682762995E+02  0.48909113801E+02  0.47000000000E+01 0.  1.
          5   -1    0    0  501    0  0.00000000000E+00 -0.00000000000E+00 -0.45411426339E+03  0.45413858481E+03  0.47000000000E+01 0.  1.
         25    2    1    2    0    0  0.31029736463E+02 -0.42969665823E+02 -0.99464356299E+02  0.16830810917E+03  0.12500089884E+03 0.  0.
         25    2    1    2    0    0 -0.31029736463E+02  0.42969665823E+02 -0.30596714409E+03  0.33473958944E+03  0.12500185098E+03 0.  0.
          5    1    4    4  502    0 -0.21017135643E+02 -0.28580127675E+02 -0.21749647874E+03  0.22042085190E+03  0.47000000000E+01 0. -1.
         -5    1    4    4    0  502 -0.10012600820E+02  0.71549793498E+02 -0.88470665357E+02  0.11431873754E+03  0.47000000000E+01 0. -1.
          5    1    3    3  503    0  0.76203802820E+02 -0.16237297106E+02 -0.36411472288E+02  0.86131032130E+02  0.47000000000E+01 0.  1.
         -5    1    3    3    0  503 -0.45174066357E+02 -0.26732368717E+02 -0.63052884010E+02  0.82177077038E+02  0.47000000000E+01 0.  1.
<mgrwt>
<rscale>  0 0.13577422E+03</rscale>
<asrwt>0</asrwt>
<pdfrwt beam="2">  1        5 0.69883012E-01 0.13577444E+03</pdfrwt>
<pdfrwt beam="1">  1       -5 0.75089386E-02 0.13577444E+03</pdfrwt>
<totfact> 0.17396052E+02</totfact>
</mgrwt>
</event>
<event>
 8    1  0.3759079E-007  0.1254746E+03  0.7546771E-02  0.1234330E+00
          5   -1    0    0  501    0  0.00000000000E+00  0.00000000000E+00  0.39417295127E+02  0.39696513136E+02  0.47000000000E+01 0. -1.
         -5   -1    0    0    0  501 -0.00000000000E+00 -0.00000000000E+00 -0.40489281807E+03  0.40492009598E+03  0.47000000000E+01 0. -1.
         25    2    1    2    0    0 -0.13386328991E+01 -0.10838618785E+02 -0.21234375439E+03  0.24664382319E+03  0.12499615151E+03 0.  0.
         25    2    1    2    0    0  0.13386328991E+01  0.10838618785E+02 -0.15313176856E+03  0.19797278593E+03  0.12499847131E+03 0.  0.
          5    1    3    3  502    0 -0.46194535525E+02 -0.33643992748E+02 -0.17400132960E+03  0.18320591165E+03  0.47000000000E+01 0.  1.
         -5    1    3    3    0  502  0.44855902626E+02  0.22805373963E+02 -0.38342424792E+02  0.63437911543E+02  0.47000000000E+01 0.  1.
          5    1    4    4  503    0  0.42823879643E+02 -0.21780723510E+02 -0.13266445630E+03  0.14117447556E+03  0.47000000000E+01 0. -1.
         -5    1    4    4    0  503 -0.41485246744E+02  0.32619342295E+02 -0.20467312254E+02  0.56798310363E+02  0.47000000000E+01 0. -1.
<mgrwt>
<rscale>  0 0.12547406E+03</rscale>
<asrwt>0</asrwt>
<pdfrwt beam="1">  1        5 0.60877761E-02 0.12547464E+03</pdfrwt>
<pdfrwt beam="2">  1       -5 0.62314777E-01 0.12547464E+03</pdfrwt>
<totfact> 0.31146158E+02</totfact>
</mgrwt>
</event>
<event>
 8    1  0.3759079E-007  0.1265516E+03  0.7546771E-02  0.1232667E+00
         -5   -1    0    0    0  501 -0.00000000000E+00  0.00000000000E+00  0.12269982212E+02  0.13139347910E+02  0.47000000000E+01 0.  1.
          5   -1    0    0  501    0  0.00000000000E+00 -0.00000000000E+00 -0.12614820374E+04  0.12614907930E+04  0.47000000000E+01 0.  1.
         25    2    1    2    0    0  0.10453195330E+02  0.16754650071E+02 -0.64900110308E+03  0.66122286214E+03  0.12499301588E+03 0.  0.
         25    2    1    2    0    0 -0.10453195330E+02 -0.16754650071E+02 -0.60021095212E+03  0.61340727873E+03  0.12500125985E+03 0.  0.
          5    1    4    4  502    0  0.27224856893E+02  0.33014104734E+02 -0.94582651720E+02  0.10391867951E+03  0.47000000000E+01 0.  1.
         -5    1    4    4    0  502 -0.37678052223E+02 -0.49768754805E+02 -0.50562830040E+03  0.50948859922E+03  0.47000000000E+01 0.  1.
          5    1    3    3  503    0  0.16530057766E+02  0.97398069522E+01 -0.65042305905E+03  0.65072294596E+03  0.47000000000E+01 0. -1.
         -5    1    3    3    0  503 -0.60768624365E+01  0.70148431187E+01  0.14219559672E+01  0.10499916182E+02  0.47000000000E+01 0. -1.
<mgrwt>
<rscale>  0 0.12654954E+03</rscale>
<asrwt>0</asrwt>
<pdfrwt beam="2">  1        5 0.19414161E+00 0.12655158E+03</pdfrwt>
<pdfrwt beam="1">  1       -5 0.19552384E-02 0.12655158E+03</pdfrwt>
<totfact> 0.11229090E+02</totfact>
</mgrwt>
</event>
<event>
 8    1  0.3759079E-007  0.1563835E+03  0.7546771E-02  0.1192842E+00
         -5   -1    0    0    0  501 -0.00000000000E+00  0.00000000000E+00  0.39378294276E+03  0.39381099021E+03  0.47000000000E+01 0.  1.
          5   -1    0    0  501    0  0.00000000000E+00 -0.00000000000E+00 -0.65645666225E+02  0.65813702936E+02  0.47000000000E+01 0.  1.
         25    2    1    2    0    0 -0.93905464890E+02  0.34678306475E+01  0.21825909944E+03  0.26850109374E+03  0.12500216264E+03 0.  0.
         25    2    1    2    0    0  0.93905464890E+02 -0.34678306475E+01  0.10987817709E+03  0.19112359941E+03  0.12499901705E+03 0.  0.
          5    1    4    4  502    0  0.68650947612E+02  0.57540088016E+02  0.55723975070E+02  0.10559860669E+03  0.47000000000E+01 0.  1.
         -5    1    4    4    0  502  0.25254517278E+02 -0.61007918663E+02  0.54154202024E+02  0.85524992718E+02  0.47000000000E+01 0.  1.
          5    1    3    3  503    0 -0.12011477666E+03  0.44571255181E+01  0.13372195894E+03  0.17986405378E+03  0.47000000000E+01 0. -1.
         -5    1    3    3    0  503  0.26209311772E+02 -0.98929487058E+00  0.84537140506E+02  0.88637039960E+02  0.47000000000E+01 0. -1.
<mgrwt>
<rscale>  0 0.15638288E+03</rscale>
<asrwt>0</asrwt>
<pdfrwt beam="2">  1        5 0.10114417E-01 0.15638351E+03</pdfrwt>
<pdfrwt beam="1">  1       -5 0.60597075E-01 0.15638351E+03</pdfrwt>
<totfact> 0.14949813E+02</totfact>
</mgrwt>
</event>
<event>
 8    1  0.3759079E-007  0.1462904E+03  0.7546771E-02  0.1205108E+00
          5   -1    0    0  501    0  0.00000000000E+00  0.00000000000E+00  0.65673800533E+02  0.65841765441E+02  0.47000000000E+01 0. -1.
         -5   -1    0    0    0  501 -0.00000000000E+00 -0.00000000000E+00 -0.32798009758E+03  0.32801377168E+03  0.47000000000E+01 0. -1.
         25    2    1    2    0    0  0.30170609363E+02  0.69745491969E+02 -0.11322534672E+03  0.18498715014E+03  0.12500226900E+03 0.  0.
         25    2    1    2    0    0 -0.30170609363E+02 -0.69745491969E+02 -0.14908095033E+03  0.20886838698E+03  0.12500469596E+03 0.  0.
          5    1    4    4  502    0 -0.12305730445E+02  0.61130210406E+01  0.18779259733E+02  0.23739221220E+02  0.47000000000E+01 0. -1.
         -5    1    4    4    0  502 -0.17864878918E+02 -0.75858513009E+02 -0.16786021006E+03  0.18512916576E+03  0.47000000000E+01 0. -1.
          5    1    3    3  503    0  0.78895862254E+01  0.71529436560E+02 -0.27432852964E+01  0.72168701523E+02  0.47000000000E+01 0. -1.
         -5    1    3    3    0  503  0.22281023138E+02 -0.17839445912E+01 -0.11048206143E+03  0.11281844861E+03  0.47000000000E+01 0. -1.
<mgrwt>
<rscale>  0 0.14628985E+03</rscale>
<asrwt>0</asrwt>
<pdfrwt beam="1">  1        5 0.10119173E-01 0.14629037E+03</pdfrwt>
<pdfrwt beam="2">  1       -5 0.50473986E-01 0.14629037E+03</pdfrwt>
<totfact> 0.21695359E+02</totfact>
</mgrwt>
</event>
<event>
 8    1  0.3759079E-007  0.1425003E+03  0.7546771E-02  0.1210004E+00
         -5   -1    0    0    0  501 -0.00000000000E+00  0.00000000000E+00  0.60127463820E+03  0.60129300723E+03  0.47000000000E+01 0.  1.
          5   -1    0    0  501    0  0.00000000000E+00 -0.00000000000E+00 -0.33726232894E+02  0.34052148026E+02  0.47000000000E+01 0.  1.
         25    2    1    2    0    0  0.63896761565E+02 -0.24456853235E+02  0.26365765705E+03  0.29970268762E+03  0.12500162814E+03 0.  0.
         25    2    1    2    0    0 -0.63896761565E+02  0.24456853235E+02  0.30389074825E+03  0.33564246763E+03  0.12500138158E+03 0.  0.
          5    1    3    3  502    0  0.32787320739E+02  0.66059333738E+01  0.25162501959E+03  0.25388164022E+03  0.47000000000E+01 0.  1.
         -5    1    3    3    0  502  0.31109440826E+02 -0.31062786609E+02  0.12032637458E+02  0.45821047397E+02  0.47000000000E+01 0.  1.
          5    1    4    4  503    0 -0.21181511001E+02 -0.79185880454E+01  0.27224317794E+03  0.27322115288E+03  0.47000000000E+01 0. -1.
         -5    1    4    4    0  503 -0.42715250564E+02  0.32375441281E+02  0.31647570310E+02  0.62421314752E+02  0.47000000000E+01 0. -1.
<mgrwt>
<rscale>  0 0.14250026E+03</rscale>
<asrwt>0</asrwt>
<pdfrwt beam="2">  1        5 0.52151348E-02 0.14250032E+03</pdfrwt>
<pdfrwt beam="1">  1       -5 0.92530270E-01 0.14250032E+03</pdfrwt>
<totfact> 0.17048626E+02</totfact>
</mgrwt>
</event>
<event>
 8    1  0.3759079E-007  0.1849372E+03  0.7546771E-02  0.1163109E+00
         -5   -1    0    0    0  501 -0.00000000000E+00  0.00000000000E+00  0.11706544607E+03  0.11715975702E+03  0.47000000000E+01 0. -1.
          5   -1    0    0  501    0  0.00000000000E+00 -0.00000000000E+00 -0.32092576730E+03  0.32096018152E+03  0.47000000000E+01 0. -1.
         25    2    1    2    0    0  0.12628913367E+03 -0.51252553329E+02 -0.36090430026E+02  0.18842579655E+03  0.12500396857E+03 0.  0.
         25    2    1    2    0    0 -0.12628913367E+03  0.51252553329E+02 -0.16776989120E+03  0.24969414199E+03  0.12499863456E+03 0.  0.
          5    1    4    4  502    0  0.11031936695E+02  0.37849087991E+02 -0.70172692765E+02  0.80626012545E+02  0.47000000000E+01 0.  1.
         -5    1    4    4    0  502 -0.13732107037E+03  0.13403465339E+02 -0.97597198437E+02  0.16906812944E+03  0.47000000000E+01 0.  1.
          5    1    3    3  503    0  0.50460930564E+02 -0.69606975154E+02  0.24513258135E+02  0.89523328400E+02  0.47000000000E+01 0. -1.
         -5    1    3    3    0  503  0.75828203108E+02  0.18354421824E+02 -0.60603688161E+02  0.98902468149E+02  0.47000000000E+01 0. -1.
<mgrwt>
<rscale>  0 0.18493628E+03</rscale>
<asrwt>0</asrwt>
<pdfrwt beam="2">  1        5 0.49383097E-01 0.18493718E+03</pdfrwt>
<pdfrwt beam="1">  1       -5 0.18019971E-01 0.18493718E+03</pdfrwt>
<totfact> 0.86491558E+01</totfact>
</mgrwt>
</event>
<event>
 8    1  0.3759079E-007  0.1656280E+03  0.7546771E-02  0.1182487E+00
         -5   -1    0    0    0  501 -0.00000000000E+00  0.00000000000E+00  0.25526824185E+03  0.25531150639E+03  0.47000000000E+01 0.  1.
          5   -1    0    0  501    0  0.00000000000E+00 -0.00000000000E+00 -0.10801369881E+03  0.10811590600E+03  0.47000000000E+01 0.  1.
         25    2    1    2    0    0 -0.62530098447E+02  0.88866757192E+02  0.87777815820E+02  0.18745024132E+03  0.12500133709E+03 0.  0.
         25    2    1    2    0    0  0.62530098447E+02 -0.88866757192E+02  0.59476727218E+02  0.17597717107E+03  0.12499267944E+03 0.  0.
          5    1    3    3  502    0 -0.15017448653E+02  0.98383119635E+02  0.16285173418E+02  0.10095572726E+03  0.47000000000E+01 0. -1.
         -5    1    3    3    0  502 -0.47512649794E+02 -0.95163624429E+01  0.71492642403E+02  0.86494514059E+02  0.47000000000E+01 0. -1.
          5    1    4    4  503    0  0.29281015781E+02  0.49555656974E+01  0.69597069104E+02  0.75814098586E+02  0.47000000000E+01 0.  1.
         -5    1    4    4    0  503  0.33249082666E+02 -0.93822322890E+02 -0.10120341886E+02  0.10016307249E+03  0.47000000000E+01 0.  1.
<mgrwt>
<rscale>  0 0.16562641E+03</rscale>
<asrwt>0</asrwt>
<pdfrwt beam="2">  1        5 0.16628682E-01 0.16562804E+03</pdfrwt>
<pdfrwt beam="1">  1       -5 0.39283227E-01 0.16562804E+03</pdfrwt>
<totfact> 0.15650149E+02</totfact>
</mgrwt>
</event>
<event>
 8    1  0.3759079E-007  0.1497777E+03  0.7546771E-02  0.1200763E+00
          5   -1    0    0  501    0  0.00000000000E+00  0.00000000000E+00  0.27360609703E+03  0.27364646230E+03  0.47000000000E+01 0. -1.
         -5   -1    0    0    0  501 -0.00000000000E+00 -0.00000000000E+00 -0.10918368778E+03  0.10928480076E+03  0.47000000000E+01 0. -1.
         25    2    1    2    0    0 -0.55862505222E+02 -0.60741090242E+02 -0.13531808238E+02  0.15033492232E+03  0.12492949812E+03 0.  0.
         25    2    1    2    0    0  0.55862505222E+02  0.60741090242E+02  0.17795421749E+03  0.23259634074E+03  0.12499301849E+03 0.  0.
          5    1    4    4  502    0  0.97937758464E+01 -0.34893293024E+02  0.80542611056E+02  0.88445814706E+02  0.47000000000E+01 0.  1.
         -5    1    4    4    0  502  0.46068729376E+02  0.95634383266E+02  0.97411606431E+02  0.14415052604E+03  0.47000000000E+01 0.  1.
          5    1    3    3  503    0 -0.54520979513E+02 -0.13303322870E+02 -0.61018604513E+02  0.83035388258E+02  0.47000000000E+01 0.  1.
         -5    1    3    3    0  503 -0.13415257090E+01 -0.47437767372E+02  0.47486796275E+02  0.67299534062E+02  0.47000000000E+01 0.  1.
<mgrwt>
<rscale>  0 0.14976443E+03</rscale>
<asrwt>0</asrwt>
<pdfrwt beam="1">  1        5 0.42104128E-01 0.14977768E+03</pdfrwt>
<pdfrwt beam="2">  1       -5 0.16808373E-01 0.14977768E+03</pdfrwt>
<totfact> 0.12891222E+02</totfact>
</mgrwt>
</event>
<event>
 8    1  0.3759079E-007  0.1265647E+03  0.7546771E-02  0.1232648E+00
         -5   -1    0    0    0  501 -0.00000000000E+00  0.00000000000E+00  0.27567243253E+02  0.27965029958E+02  0.47000000000E+01 0. -1.
          5   -1    0    0  501    0  0.00000000000E+00 -0.00000000000E+00 -0.60538253786E+03  0.60540078225E+03  0.47000000000E+01 0. -1.
         25    2    1    2    0    0 -0.13466019117E+02 -0.14601793223E+02 -0.21969060294E+03  0.25353438948E+03  0.12498471743E+03 0.  0.
         25    2    1    2    0    0  0.13466019117E+02  0.14601793223E+02 -0.35812469167E+03  0.37983142273E+03  0.12499627544E+03 0.  0.
          5    1    3    3  502    0 -0.58275073714E+02 -0.27503269461E+02 -0.18282755041E+03  0.19390827016E+03  0.47000000000E+01 0.  1.
         -5    1    3    3    0  502  0.44809054598E+02  0.12901476238E+02 -0.36863052532E+02  0.59626119319E+02  0.47000000000E+01 0.  1.
          5    1    4    4  503    0  0.18302258266E+02 -0.41458139120E+02 -0.27859493124E+03  0.28229590091E+03  0.47000000000E+01 0.  1.
         -5    1    4    4    0  503 -0.48362391491E+01  0.56059932342E+02 -0.79529760427E+02  0.97535521821E+02  0.47000000000E+01 0.  1.
<mgrwt>
<rscale>  0 0.12656181E+03</rscale>
<asrwt>0</asrwt>
<pdfrwt beam="2">  1        5 0.93167768E-01 0.12656467E+03</pdfrwt>
<pdfrwt beam="1">  1       -5 0.42731172E-02 0.12656467E+03</pdfrwt>
<totfact> 0.22404149E+02</totfact>
</mgrwt>
</event>
<event>
 8    1  0.3759079E-007  0.1813403E+03  0.7546771E-02  0.1166513E+00
         -5   -1    0    0    0  501 -0.00000000000E+00  0.00000000000E+00  0.84413276963E+03  0.84414585396E+03  0.47000000000E+01 0.  1.
          5   -1    0    0  501    0  0.00000000000E+00 -0.00000000000E+00 -0.40644584004E+02  0.40915427516E+02  0.47000000000E+01 0.  1.
         25    2    1    2    0    0 -0.13030364477E+03 -0.16743594629E+02  0.49566761677E+03  0.52779694046E+03  0.12499534488E+03 0.  0.
         25    2    1    2    0    0  0.13030364477E+03  0.16743594629E+02  0.30782056885E+03  0.35726434102E+03  0.12499967581E+03 0.  0.
          5    1    4    4  502    0  0.52122431667E+02  0.67539735049E+02  0.17708758117E+03  0.19662264645E+03  0.47000000000E+01 0. -1.
         -5    1    4    4    0  502  0.78181213106E+02 -0.50796140420E+02  0.13073298768E+03  0.16064169456E+03  0.47000000000E+01 0. -1.
          5    1    3    3  503    0 -0.14278387540E+03 -0.32839237352E+02  0.47939925364E+03  0.50130966974E+03  0.47000000000E+01 0. -1.
         -5    1    3    3    0  503  0.12480230631E+02  0.16095642723E+02  0.16268363135E+02  0.26487270723E+02  0.47000000000E+01 0. -1.
<mgrwt>
<rscale>  0 0.18133956E+03</rscale>
<asrwt>0</asrwt>
<pdfrwt beam="2">  1        5 0.62748536E-02 0.18134031E+03</pdfrwt>
<pdfrwt beam="1">  1       -5 0.12988842E+00 0.18134031E+03</pdfrwt>
<totfact> 0.57503637E+01</totfact>
</mgrwt>
</event>
<event>
 8    1  0.3759079E-007  0.1402067E+03  0.7546771E-02  0.1213059E+00
          5   -1    0    0  501    0  0.00000000000E+00  0.00000000000E+00  0.12085857253E+03  0.12094992581E+03  0.47000000000E+01 0.  1.
         -5   -1    0    0    0  501 -0.00000000000E+00 -0.00000000000E+00 -0.16418501979E+03  0.16425227768E+03  0.47000000000E+01 0.  1.
         25    2    1    2    0    0 -0.40741617569E+02 -0.48726163158E+02 -0.36361101627E+02  0.14482260355E+03  0.12496934988E+03 0.  0.
         25    2    1    2    0    0  0.40741617569E+02  0.48726163158E+02 -0.69653456290E+01  0.14037959994E+03  0.12499519056E+03 0.  0.
          5    1    4    4  502    0  0.68813563741E+02  0.26165219494E+02 -0.46098733812E+02  0.86989128775E+02  0.47000000000E+01 0. -1.
         -5    1    4    4    0  502 -0.28071946172E+02  0.22560943664E+02  0.39133388183E+02  0.53390471169E+02  0.47000000000E+01 0. -1.
          5    1    3    3  503    0 -0.15373902275E+02 -0.70898988059E+02  0.23132054174E+02  0.76290270082E+02  0.47000000000E+01 0.  1.
         -5    1    3    3    0  503 -0.25367715294E+02  0.22172824901E+02 -0.59493155801E+02  0.68532333467E+02  0.47000000000E+01 0.  1.
<mgrwt>
<rscale>  0 0.14020093E+03</rscale>
<asrwt>0</asrwt>
<pdfrwt beam="1">  1        5 0.18605827E-01 0.14020669E+03</pdfrwt>
<pdfrwt beam="2">  1       -5 0.25271435E-01 0.14020669E+03</pdfrwt>
<totfact> 0.28862906E+02</totfact>
</mgrwt>
</event>
<event>
 8    1  0.3759079E-007  0.1704893E+03  0.7546771E-02  0.1177351E+00
          5   -1    0    0  501    0  0.00000000000E+00  0.00000000000E+00  0.43676862879E+02  0.43929014910E+02  0.47000000000E+01 0.  1.
         -5   -1    0    0    0  501 -0.00000000000E+00 -0.00000000000E+00 -0.69347812297E+03  0.69349404975E+03  0.47000000000E+01 0.  1.
         25    2    1    2    0    0  0.10905400801E+03 -0.39371270634E+02 -0.40206275084E+03  0.43671620505E+03  0.12499485802E+03 0.  0.
         25    2    1    2    0    0 -0.10905400801E+03  0.39371270634E+02 -0.24773850925E+03  0.30070685961E+03  0.12492947144E+03 0.  0.
          5    1    3    3  502    0  0.87861099713E+01 -0.47563694942E+02 -0.46848937426E+02  0.67501212899E+02  0.47000000000E+01 0.  1.
         -5    1    3    3    0  502  0.10026789804E+03  0.81924243083E+01 -0.35521381341E+03  0.36921499215E+03  0.47000000000E+01 0.  1.
          5    1    4    4  503    0  0.24190084871E+02  0.26590702603E+02 -0.59647406572E+02  0.69800635970E+02  0.47000000000E+01 0. -1.
         -5    1    4    4    0  503 -0.13324409288E+03  0.12780568030E+02 -0.18809110268E+03  0.23090622364E+03  0.47000000000E+01 0. -1.
<mgrwt>
<rscale>  0 0.17047728E+03</rscale>
<asrwt>0</asrwt>
<pdfrwt beam="1">  1        5 0.67401393E-02 0.17048926E+03</pdfrwt>
<pdfrwt beam="2">  1       -5 0.10670956E+00 0.17048926E+03</pdfrwt>
<totfact> 0.82630224E+01</totfact>
</mgrwt>
</event>
<event>
 8    1  0.3759079E-007  0.1486460E+03  0.7546771E-02  0.1202148E+00
          5   -1    0    0  501    0  0.00000000000E+00  0.00000000000E+00  0.99134756447E+03  0.99135870581E+03  0.47000000000E+01 0.  1.
         -5   -1    0    0    0  501 -0.00000000000E+00 -0.00000000000E+00 -0.23651306285E+02  0.24113777990E+02  0.47000000000E+01 0.  1.
         25    2    1    2    0    0 -0.35616981207E+02  0.72116542633E+02  0.35222953300E+03  0.38231043647E+03  0.12500504327E+03 0.  0.
         25    2    1    2    0    0  0.35616981207E+02 -0.72116542633E+02  0.61546672519E+03  0.63316204734E+03  0.12500209317E+03 0.  0.
          5    1    3    3  502    0  0.37797070283E+02  0.14299917131E+02  0.42830184598E+02  0.59073012998E+02  0.47000000000E+01 0.  1.
         -5    1    3    3    0  502 -0.73414051491E+02  0.57816625501E+02  0.30939934840E+03  0.32323742347E+03  0.47000000000E+01 0.  1.
          5    1    4    4  503    0  0.80846988250E+02 -0.39693330335E+02  0.32014931885E+03  0.33261009056E+03  0.47000000000E+01 0. -1.
         -5    1    4    4    0  503 -0.45230007043E+02 -0.32423212298E+02  0.29531740635E+03  0.30055195678E+03  0.47000000000E+01 0. -1.
<mgrwt>
<rscale>  0 0.14864535E+03</rscale>
<asrwt>0</asrwt>
<pdfrwt beam="1">  1        5 0.15255143E+00 0.14864598E+03</pdfrwt>
<pdfrwt beam="2">  1       -5 0.36750946E-02 0.14864598E+03</pdfrwt>
<totfact> 0.85913745E+01</totfact>
</mgrwt>
</event>
<event>
 8    1  0.3759079E-007  0.1262711E+03  0.7546771E-02  0.1233097E+00
          5   -1    0    0  501    0  0.00000000000E+00  0.00000000000E+00  0.17758785597E+03  0.17765003965E+03  0.47000000000E+01 0.  1.
         -5   -1    0    0    0  501 -0.00000000000E+00 -0.00000000000E+00 -0.92009160666E+02  0.92129124854E+02  0.47000000000E+01 0.  1.
         25    2    1    2    0    0  0.91803163661E+01 -0.15311542006E+02  0.21177244368E+02  0.12803316035E+03  0.12500117177E+03 0.  0.
         25    2    1    2    0    0 -0.91803163661E+01  0.15311542006E+02  0.64401450938E+02  0.14174600415E+03  0.12500264510E+03 0.  0.
          5    1    4    4  502    0 -0.65782895597E+02  0.16385547829E+02  0.24132055572E+02  0.72113255626E+02  0.47000000000E+01 0. -1.
         -5    1    4    4    0  502  0.56602579231E+02 -0.10740058226E+01  0.40269395366E+02  0.69632748526E+02  0.47000000000E+01 0. -1.
          5    1    3    3  503    0  0.58911289932E+02  0.22802993503E+02  0.81944265725E+01  0.63872961580E+02  0.47000000000E+01 0. -1.
         -5    1    3    3    0  503 -0.49730973566E+02 -0.38114535509E+02  0.12982817795E+02  0.64160198775E+02  0.47000000000E+01 0. -1.
<mgrwt>
<rscale>  0 0.12627070E+03</rscale>
<asrwt>0</asrwt>
<pdfrwt beam="1">  1        5 0.27335220E-01 0.12627107E+03</pdfrwt>
<pdfrwt beam="2">  1       -5 0.14169267E-01 0.12627107E+03</pdfrwt>
<totfact> 0.39287736E+02</totfact>
</mgrwt>
</event>
<event>
 8    1  0.3759079E-007  0.1302976E+03  0.7546771E-02  0.1227015E+00
         -5   -1    0    0    0  501 -0.00000000000E+00  0.00000000000E+00  0.40723886369E+02  0.40994205944E+02  0.47000000000E+01 0. -1.
          5   -1    0    0  501    0  0.00000000000E+00 -0.00000000000E+00 -0.42413173546E+03  0.42415777609E+03  0.47000000000E+01 0. -1.
         25    2    1    2    0    0  0.19709104995E+02  0.31040158719E+02 -0.15801304955E+03  0.20480554068E+03  0.12500098157E+03 0.  0.
         25    2    1    2    0    0 -0.19709104995E+02 -0.31040158719E+02 -0.22539479954E+03  0.26034644136E+03  0.12500205437E+03 0.  0.
          5    1    4    4  502    0  0.51834978721E+02 -0.17587244330E+02 -0.72729524655E+02  0.91147407745E+02  0.47000000000E+01 0. -1.
         -5    1    4    4    0  502 -0.71544083715E+02 -0.13452914390E+02 -0.15266527488E+03  0.16919903361E+03  0.47000000000E+01 0. -1.
          5    1    3    3  503    0  0.68724315302E+02  0.39034581083E+02 -0.82888509414E+02  0.11462689487E+03  0.47000000000E+01 0. -1.
         -5    1    3    3    0  503 -0.49015210307E+02 -0.79944223631E+01 -0.75124540135E+02  0.90178645814E+02  0.47000000000E+01 0. -1.
<mgrwt>
<rscale>  0 0.13029730E+03</rscale>
<asrwt>0</asrwt>
<pdfrwt beam="2">  1        5 0.65273830E-01 0.13029756E+03</pdfrwt>
<pdfrwt beam="1">  1       -5 0.62880105E-02 0.13029756E+03</pdfrwt>
<totfact> 0.26988746E+02</totfact>
</mgrwt>
</event>
<event>
 8    1  0.3759079E-007  0.1340596E+03  0.7546771E-02  0.1221556E+00
         -5   -1    0    0    0  501 -0.00000000000E+00  0.00000000000E+00  0.87383088852E+02  0.87509395023E+02  0.47000000000E+01 0. -1.
          5   -1    0    0  501    0  0.00000000000E+00 -0.00000000000E+00 -0.23818820712E+03  0.23823457350E+03  0.47000000000E+01 0. -1.
         25    2    1    2    0    0 -0.10357192014E+02  0.47305461105E+02 -0.14952783941E+02  0.13488319002E+03  0.12499924450E+03 0.  0.
         25    2    1    2    0    0  0.10357192014E+02 -0.47305461105E+02 -0.13585233433E+03  0.19086077851E+03  0.12500760758E+03 0.  0.
          5    1    4    4  502    0  0.36875622094E+02 -0.75072640416E+02 -0.12537076860E+03  0.15078339585E+03  0.47000000000E+01 0.  1.
         -5    1    4    4    0  502 -0.26518430081E+02  0.27767179311E+02 -0.10481565729E+02  0.40077382661E+02  0.47000000000E+01 0.  1.
          5    1    3    3  503    0 -0.56686593900E+02  0.62141020327E+02 -0.17653385184E+01  0.84261988793E+02  0.47000000000E+01 0. -1.
         -5    1    3    3    0  503  0.46329401886E+02 -0.14835559222E+02 -0.13187445422E+02  0.50621201224E+02  0.47000000000E+01 0. -1.
<mgrwt>
<rscale>  0 0.13405766E+03</rscale>
<asrwt>0</asrwt>
<pdfrwt beam="2">  1        5 0.36657622E-01 0.13405961E+03</pdfrwt>
<pdfrwt beam="1">  1       -5 0.13456835E-01 0.13405961E+03</pdfrwt>
<totfact> 0.24667889E+02</totfact>
</mgrwt>
</event>
<event>
 8    1  0.3759079E-007  0.1508051E+03  0.7546771E-02  0.1199488E+00
         -5   -1    0    0    0  501 -0.00000000000E+00  0.00000000000E+00  0.12527284500E+03  0.12536098155E+03  0.47000000000E+01 0.  1.
          5   -1    0    0  501    0  0.00000000000E+00 -0.00000000000E+00 -0.18288538117E+03  0.18294576422E+03  0.47000000000E+01 0.  1.
         25    2    1    2    0    0  0.77634358537E+02 -0.33008639657E+02 -0.42897302284E+02  0.15678762265E+03  0.12500206460E+03 0.  0.
         25    2    1    2    0    0 -0.77634358537E+02  0.33008639657E+02 -0.14715233879E+02  0.15151912312E+03  0.12499937058E+03 0.  0.
          5    1    3    3  502    0  0.26139659417E+02 -0.32239724010E+02  0.40807987804E+02  0.58395748709E+02  0.47000000000E+01 0. -1.
         -5    1    3    3    0  502  0.51494699120E+02 -0.76891564711E+00 -0.83705290089E+02  0.98391873941E+02  0.47000000000E+01 0. -1.
          5    1    4    4  503    0 -0.49311812801E+02 -0.54401980366E-01  0.51935731347E+02  0.71770941417E+02  0.47000000000E+01 0.  1.
         -5    1    4    4    0  503 -0.28322545736E+02  0.33063041637E+02 -0.66650965226E+02  0.79748181702E+02  0.47000000000E+01 0.  1.
<mgrwt>
<rscale>  0 0.15080455E+03</rscale>
<asrwt>0</asrwt>
<pdfrwt beam="2">  1        5 0.28147637E-01 0.15080511E+03</pdfrwt>
<pdfrwt beam="1">  1       -5 0.19284170E-01 0.15080511E+03</pdfrwt>
<totfact> 0.22468188E+02</totfact>
</mgrwt>
</event>
<event>
 8    1  0.3759079E-007  0.1275293E+03  0.7546771E-02  0.1231169E+00
         -5   -1    0    0    0  501 -0.00000000000E+00  0.00000000000E+00  0.10479501405E+03  0.10490035734E+03  0.47000000000E+01 0. -1.
          5   -1    0    0  501    0  0.00000000000E+00 -0.00000000000E+00 -0.19527954573E+03  0.19533609749E+03  0.47000000000E+01 0. -1.
         25    2    1    2    0    0 -0.22185373023E+02  0.12070742192E+02  0.22928191053E+02  0.12957257971E+03  0.12500183148E+03 0.  0.
         25    2    1    2    0    0  0.22185373023E+02 -0.12070742192E+02 -0.11341272273E+03  0.17066387512E+03  0.12500327596E+03 0.  0.
          5    1    4    4  502    0  0.59884063581E+02  0.33019857031E+02 -0.62557401290E+02  0.92800487528E+02  0.47000000000E+01 0. -1.
         -5    1    4    4    0  502 -0.37698690558E+02 -0.45090599222E+02 -0.50855321444E+02  0.77863387591E+02  0.47000000000E+01 0. -1.
          5    1    3    3  503    0 -0.72231759579E+02 -0.68232093353E+01  0.46773260226E+01  0.72855683761E+02  0.47000000000E+01 0. -1.
         -5    1    3    3    0  503  0.50046386556E+02  0.18893951527E+02  0.18250865031E+02  0.56716895948E+02  0.47000000000E+01 0. -1.
<mgrwt>
<rscale>  0 0.12752891E+03</rscale>
<asrwt>0</asrwt>
<pdfrwt beam="2">  1        5 0.30055460E-01 0.12752926E+03</pdfrwt>
<pdfrwt beam="1">  1       -5 0.16134763E-01 0.12752926E+03</pdfrwt>
<totfact> 0.25914123E+02</totfact>
</mgrwt>
</event>
<event>
 8    1  0.3759079E-007  0.1652683E+03  0.7546771E-02  0.1182875E+00
          5   -1    0    0  501    0  0.00000000000E+00  0.00000000000E+00  0.24890198550E+02  0.25330060874E+02  0.47000000000E+01 0. -1.
         -5   -1    0    0    0  501 -0.00000000000E+00 -0.00000000000E+00 -0.10951928897E+04  0.10952029747E+04  0.47000000000E+01 0. -1.
         25    2    1    2    0    0  0.10527649787E+03 -0.24594300300E+02 -0.48754978352E+03  0.51479937724E+03  0.12500234712E+03 0.  0.
         25    2    1    2    0    0 -0.10527649787E+03  0.24594300300E+02 -0.58275290764E+03  0.60573365828E+03  0.12499717115E+03 0.  0.
          5    1    3    3  502    0  0.87426924107E+02  0.17245039026E+02 -0.15286353659E+03  0.17700341593E+03  0.47000000000E+01 0.  1.
         -5    1    3    3    0  502  0.17849573766E+02 -0.41839339326E+02 -0.33468624693E+03  0.33779596132E+03  0.47000000000E+01 0.  1.
          5    1    4    4  503    0 -0.11797217958E+03  0.16848349685E+01 -0.31066964563E+03  0.33235221158E+03  0.47000000000E+01 0.  1.
         -5    1    4    4    0  503  0.12695681702E+02  0.22909465331E+02 -0.27208326201E+03  0.27338144670E+03  0.47000000000E+01 0.  1.
<mgrwt>
<rscale>  0 0.16526731E+03</rscale>
<asrwt>0</asrwt>
<pdfrwt beam="1">  1        5 0.38638735E-02 0.16526829E+03</pdfrwt>
<pdfrwt beam="2">  1       -5 0.16852579E+00 0.16526829E+03</pdfrwt>
<totfact> 0.61654908E+01</totfact>
</mgrwt>
</event>
<event>
 8    1  0.3759079E-007  0.1330821E+03  0.7546771E-02  0.1222954E+00
          5   -1    0    0  501    0  0.00000000000E+00  0.00000000000E+00  0.35402084598E+03  0.35405204333E+03  0.47000000000E+01 0.  1.
         -5   -1    0    0    0  501 -0.00000000000E+00 -0.00000000000E+00 -0.50093637064E+02  0.50313641036E+02  0.47000000000E+01 0.  1.
         25    2    1    2    0    0  0.25721763031E+02 -0.37735551311E+02  0.13887378874E+03  0.19234334069E+03  0.12499780232E+03 0.  0.
         25    2    1    2    0    0 -0.25721763031E+02  0.37735551311E+02  0.16505342017E+03  0.21202234368E+03  0.12500104712E+03 0.  0.
          5    1    4    4  502    0 -0.20581911672E+02  0.80190763351E+02  0.13861562088E+03  0.16152570683E+03  0.47000000000E+01 0. -1.
         -5    1    4    4    0  502 -0.51398513584E+01 -0.42455212040E+02  0.26437799297E+02  0.50496636849E+02  0.47000000000E+01 0. -1.
          5    1    3    3  503    0  0.58855285651E+02 -0.20454550227E+02  0.16962734731E+02  0.64746873620E+02  0.47000000000E+01 0.  1.
         -5    1    3    3    0  503 -0.33133522620E+02 -0.17281001084E+02  0.12191105401E+03  0.12759646707E+03  0.47000000000E+01 0.  1.
<mgrwt>
<rscale>  0 0.13308133E+03</rscale>
<asrwt>0</asrwt>
<pdfrwt beam="1">  1        5 0.54484067E-01 0.13308209E+03</pdfrwt>
<pdfrwt beam="2">  1       -5 0.77260369E-02 0.13308209E+03</pdfrwt>
<totfact> 0.28452096E+02</totfact>
</mgrwt>
</event>
<event>
 8    1  0.3759079E-007  0.1301331E+03  0.7546771E-02  0.1227259E+00
          5   -1    0    0  501    0  0.00000000000E+00  0.00000000000E+00  0.90682226185E+03  0.90683444166E+03  0.47000000000E+01 0. -1.
         -5   -1    0    0    0  501 -0.00000000000E+00 -0.00000000000E+00 -0.23084396229E+02  0.23557999687E+02  0.47000000000E+01 0. -1.
         25    2    1    2    0    0 -0.26072729937E+02 -0.25100975042E+02  0.23399689940E+03  0.26774777446E+03  0.12499790240E+03 0.  0.
         25    2    1    2    0    0  0.26072729937E+02  0.25100975042E+02  0.64974096622E+03  0.66264466689E+03  0.12499914071E+03 0.  0.
          5    1    4    4  502    0 -0.14299683954E+02 -0.40749032673E+02  0.36499419516E+03  0.36757015265E+03  0.47000000000E+01 0.  1.
         -5    1    4    4    0  502  0.40372413891E+02  0.65850007715E+02  0.28474677106E+03  0.29507451423E+03  0.47000000000E+01 0.  1.
          5    1    3    3  503    0 -0.39371941806E+02 -0.71214152818E+02  0.15698363599E+03  0.17688289157E+03  0.47000000000E+01 0.  1.
         -5    1    3    3    0  503  0.13299211869E+02  0.46113177776E+02  0.77013263411E+02  0.90864882887E+02  0.47000000000E+01 0.  1.
<mgrwt>
<rscale>  0 0.13013283E+03</rscale>
<asrwt>0</asrwt>
<pdfrwt beam="1">  1        5 0.13954848E+00 0.13013313E+03</pdfrwt>
<pdfrwt beam="2">  1       -5 0.35888137E-02 0.13013313E+03</pdfrwt>
<totfact> 0.10906241E+02</totfact>
</mgrwt>
</event>
<event>
 8    1  0.3759079E-007  0.1333970E+03  0.7546771E-02  0.1222506E+00
          5   -1    0    0  501    0  0.00000000000E+00  0.00000000000E+00  0.38320787406E+02  0.38607936327E+02  0.47000000000E+01 0. -1.
         -5   -1    0    0    0  501 -0.00000000000E+00 -0.00000000000E+00 -0.52360817378E+03  0.52362926738E+03  0.47000000000E+01 0. -1.
         25    2    1    2    0    0  0.46303911474E+02  0.50838512903E+01 -0.33881173291E+03  0.36412137098E+03  0.12498433777E+03 0.  0.
         25    2    1    2    0    0 -0.46303911474E+02 -0.50838512903E+01 -0.14647565347E+03  0.19811583272E+03  0.12499947342E+03 0.  0.
          5    1    4    4  502    0 -0.85838062508E+02 -0.14799162535E+02 -0.12329611463E+03  0.15103380440E+03  0.47000000000E+01 0.  1.
         -5    1    4    4    0  502  0.39534151034E+02  0.97153112450E+01 -0.23179538835E+02  0.47082028325E+02  0.47000000000E+01 0.  1.
          5    1    3    3  503    0  0.60910286509E+02  0.21910475517E+02 -0.33475775743E+03  0.34099117012E+03  0.47000000000E+01 0.  1.
         -5    1    3    3    0  503 -0.14606375035E+02 -0.16826624226E+02 -0.40539754732E+01  0.23130200856E+02  0.47000000000E+01 0.  1.
<mgrwt>
<rscale>  0 0.13339348E+03</rscale>
<asrwt>0</asrwt>
<pdfrwt beam="1">  1        5 0.59192171E-02 0.13339702E+03</pdfrwt>
<pdfrwt beam="2">  1       -5 0.80578810E-01 0.13339702E+03</pdfrwt>
<totfact> 0.18685939E+02</totfact>
</mgrwt>
</event>
<event>
 8    1  0.3759079E-007  0.1285147E+03  0.7546771E-02  0.1229681E+00
          5   -1    0    0  501    0  0.00000000000E+00  0.00000000000E+00  0.31785915654E+02  0.32131517766E+02  0.47000000000E+01 0.  1.
         -5   -1    0    0    0  501 -0.00000000000E+00 -0.00000000000E+00 -0.56796653593E+03  0.56798598217E+03  0.47000000000E+01 0.  1.
         25    2    1    2    0    0  0.27391558066E+02 -0.11839181891E+02 -0.35847415761E+03  0.38081039788E+03  0.12498949468E+03 0.  0.
         25    2    1    2    0    0 -0.27391558066E+02  0.11839181891E+02 -0.17770646267E+03  0.21930710205E+03  0.12500221780E+03 0.  0.
          5    1    3    3  502    0  0.56735360941E+02 -0.46790496087E+02 -0.14723266853E+03  0.16464446662E+03  0.47000000000E+01 0. -1.
         -5    1    3    3    0  502 -0.29343802875E+02  0.34951314196E+02 -0.21124148908E+03  0.21616593126E+03  0.47000000000E+01 0. -1.
          5    1    4    4  503    0  0.15631133304E+01 -0.33540475262E+02 -0.15830450930E+03  0.16189445472E+03  0.47000000000E+01 0. -1.
         -5    1    4    4    0  503 -0.28954671396E+02  0.45379657152E+02 -0.19401953365E+02  0.57412647329E+02  0.47000000000E+01 0. -1.
<mgrwt>
<rscale>  0 0.12851157E+03</rscale>
<asrwt>0</asrwt>
<pdfrwt beam="1">  1        5 0.49182220E-02 0.12851466E+03</pdfrwt>
<pdfrwt beam="2">  1       -5 0.87407540E-01 0.12851466E+03</pdfrwt>
<totfact> 0.20776344E+02</totfact>
</mgrwt>
</event>
<event>
 8    1  0.3759079E-007  0.1270538E+03  0.7546771E-02  0.1231894E+00
          5   -1    0    0  501    0  0.00000000000E+00  0.00000000000E+00  0.23062687073E+03  0.23067475697E+03  0.47000000000E+01 0. -1.
         -5   -1    0    0    0  501 -0.00000000000E+00 -0.00000000000E+00 -0.70014988340E+02  0.70172562959E+02  0.47000000000E+01 0. -1.
         25    2    1    2    0    0 -0.22676308428E+02 -0.19464759449E+01  0.73250360628E+02  0.14665684395E+03  0.12499844324E+03 0.  0.
         25    2    1    2    0    0  0.22676308428E+02  0.19464759449E+01  0.87361521765E+02  0.15419047598E+03  0.12499865466E+03 0.  0.
          5    1    3    3  502    0 -0.14284520683E+02 -0.57212811353E+02  0.65725269661E+01  0.59520092614E+02  0.47000000000E+01 0. -1.
         -5    1    3    3    0  502 -0.83917877451E+01  0.55266335408E+02  0.66677833662E+02  0.87136751333E+02  0.47000000000E+01 0. -1.
          5    1    4    4  503    0  0.43195549111E+02 -0.24203991887E+02 -0.10411167865E+02  0.50815067673E+02  0.47000000000E+01 0. -1.
         -5    1    4    4    0  503 -0.20519240683E+02  0.26150467832E+02  0.97772689630E+02  0.10337540831E+03  0.47000000000E+01 0. -1.
<mgrwt>
<rscale>  0 0.12705375E+03</rscale>
<asrwt>0</asrwt>
<pdfrwt beam="1">  1        5 0.35496862E-01 0.12705380E+03</pdfrwt>
<pdfrwt beam="2">  1       -5 0.10787341E-01 0.12705380E+03</pdfrwt>
<totfact> 0.38191070E+02</totfact>
</mgrwt>
</event>
<event>
 8    1  0.3759079E-007  0.1550122E+03  0.7546771E-02  0.1194446E+00
          5   -1    0    0  501    0  0.00000000000E+00  0.00000000000E+00  0.21076310539E+03  0.21081550368E+03  0.47000000000E+01 0.  1.
         -5   -1    0    0    0  501 -0.00000000000E+00 -0.00000000000E+00 -0.20878436679E+03  0.20883726156E+03  0.47000000000E+01 0.  1.
         25    2    1    2    0    0 -0.90291053861E+02  0.15851295363E+02 -0.14042464812E+03  0.20915987374E+03  0.12500013206E+03 0.  0.
         25    2    1    2    0    0  0.90291053861E+02 -0.15851295363E+02  0.14240338671E+03  0.21049289150E+03  0.12499917940E+03 0.  0.
          5    1    3    3  502    0 -0.75518937906E+02 -0.45999398352E+02 -0.10042149397E+03  0.13388659785E+03  0.47000000000E+01 0. -1.
         -5    1    3    3    0  502 -0.14772115955E+02  0.61850693715E+02 -0.40003154144E+02  0.75273275898E+02  0.47000000000E+01 0. -1.
          5    1    4    4  503    0  0.70445379087E+02  0.41269345547E+02  0.12126312687E+03  0.14626190979E+03  0.47000000000E+01 0.  1.
         -5    1    4    4    0  503  0.19845674774E+02 -0.57120640910E+02  0.21140259848E+02  0.64230981712E+02  0.47000000000E+01 0.  1.
<mgrwt>
<rscale>  0 0.15501197E+03</rscale>
<asrwt>0</asrwt>
<pdfrwt beam="1">  1        5 0.32433192E-01 0.15501216E+03</pdfrwt>
<pdfrwt beam="2">  1       -5 0.32128771E-01 0.15501216E+03</pdfrwt>
<totfact> 0.64343629E+01</totfact>
</mgrwt>
</event>
<event>
 8    1  0.3759079E-007  0.1467962E+03  0.7546771E-02  0.1204470E+00
         -5   -1    0    0    0  501 -0.00000000000E+00  0.00000000000E+00  0.14547827731E+03  0.14555417949E+03  0.47000000000E+01 0.  1.
          5   -1    0    0  501    0  0.00000000000E+00 -0.00000000000E+00 -0.18976952901E+03  0.18982772227E+03  0.47000000000E+01 0.  1.
         25    2    1    2    0    0 -0.12057860084E+02 -0.76000904456E+02  0.56532297648E+02  0.15730553584E+03  0.12501040541E+03 0.  0.
         25    2    1    2    0    0  0.12057860084E+02  0.76000904456E+02 -0.10082354935E+03  0.17807636592E+03  0.12499709808E+03 0.  0.
          5    1    4    4  502    0 -0.12933171834E+02 -0.25361243358E+02 -0.58689688409E+02  0.65398999411E+02  0.47000000000E+01 0.  1.
         -5    1    4    4    0  502  0.24991031919E+02  0.10136214781E+03 -0.42133860943E+02  0.11267736651E+03  0.47000000000E+01 0.  1.
          5    1    3    3  503    0 -0.37097556053E+02  0.17900355359E+02  0.41849666304E+02  0.58907859890E+02  0.47000000000E+01 0. -1.
         -5    1    3    3    0  503  0.25039695968E+02 -0.93901259815E+02  0.14682631344E+02  0.98397675949E+02  0.47000000000E+01 0. -1.
<mgrwt>
<rscale>  0 0.14679339E+03</rscale>
<asrwt>0</asrwt>
<pdfrwt beam="2">  1        5 0.29205627E-01 0.14679622E+03</pdfrwt>
<pdfrwt beam="1">  1       -5 0.22391588E-01 0.14679622E+03</pdfrwt>
<totfact> 0.15653481E+02</totfact>
</mgrwt>
</event>
<event>
 8    1  0.3759079E-007  0.1418494E+03  0.7546771E-02  0.1210867E+00
          5   -1    0    0  501    0  0.00000000000E+00  0.00000000000E+00  0.34970661867E+02  0.35285084546E+02  0.47000000000E+01 0. -1.
         -5   -1    0    0    0  501 -0.00000000000E+00 -0.00000000000E+00 -0.70596551327E+03  0.70598115834E+03  0.47000000000E+01 0. -1.
         25    2    1    2    0    0  0.40564007971E+01 -0.66929774249E+02 -0.49664840933E+03  0.51650430260E+03  0.12498401113E+03 0.  0.
         25    2    1    2    0    0 -0.40564007971E+01  0.66929774249E+02 -0.17434644207E+03  0.22476194029E+03  0.12500079548E+03 0.  0.
          5    1    4    4  502    0 -0.12117419488E+02  0.62331449545E+02 -0.19309436922E+03  0.20332133897E+03  0.47000000000E+01 0.  1.
         -5    1    4    4    0  502  0.80610186905E+01  0.45983247035E+01  0.18747927148E+02  0.21440601315E+02  0.47000000000E+01 0.  1.
          5    1    3    3  503    0 -0.12136872631E+02  0.29685813124E+02 -0.52850163577E+02  0.61998233590E+02  0.47000000000E+01 0.  1.
         -5    1    3    3    0  503  0.16193273428E+02 -0.96615587373E+02 -0.44379824576E+03  0.45450606901E+03  0.47000000000E+01 0.  1.
<mgrwt>
<rscale>  0 0.14184569E+03</rscale>
<asrwt>0</asrwt>
<pdfrwt beam="1">  1        5 0.54054922E-02 0.14184938E+03</pdfrwt>
<pdfrwt beam="2">  1       -5 0.10863546E+00 0.14184938E+03</pdfrwt>
<totfact> 0.10843944E+02</totfact>
</mgrwt>
</event>
<event>
 8    1  0.3759079E-007  0.1265440E+03  0.7546771E-02  0.1232679E+00
         -5   -1    0    0    0  501 -0.00000000000E+00  0.00000000000E+00  0.50053271864E+03  0.50055478465E+03  0.47000000000E+01 0.  1.
          5   -1    0    0  501    0  0.00000000000E+00 -0.00000000000E+00 -0.41213819776E+02  0.41480946717E+02  0.47000000000E+01 0.  1.
         25    2    1    2    0    0 -0.19553738617E+02  0.20976549724E+01  0.35870141095E+03  0.38036552167E+03  0.12499791603E+03 0.  0.
         25    2    1    2    0    0  0.19553738617E+02 -0.20976549724E+01  0.10061748792E+03  0.16167020969E+03  0.12500651573E+03 0.  0.
          5    1    4    4  502    0  0.52026084831E+02 -0.42374072117E+02  0.82959393918E+02  0.10680180958E+03  0.47000000000E+01 0.  1.
         -5    1    4    4    0  502 -0.32472346215E+02  0.40276417144E+02  0.17658094003E+02  0.54868400109E+02  0.47000000000E+01 0.  1.
          5    1    3    3  503    0 -0.53251554737E+02 -0.28248835985E+02  0.94001280307E+02  0.11176786441E+03  0.47000000000E+01 0. -1.
         -5    1    3    3    0  503  0.33697816120E+02  0.30346490958E+02  0.26470013064E+03  0.26859765726E+03  0.47000000000E+01 0. -1.
<mgrwt>
<rscale>  0 0.12654185E+03</rscale>
<asrwt>0</asrwt>
<pdfrwt beam="2">  1        5 0.63628328E-02 0.12654398E+03</pdfrwt>
<pdfrwt beam="1">  1       -5 0.77027285E-01 0.12654398E+03</pdfrwt>
<totfact> 0.18023181E+02</totfact>
</mgrwt>
</event>
<event>
 8    1  0.3759079E-007  0.1336245E+03  0.7546771E-02  0.1222179E+00
         -5   -1    0    0    0  501 -0.00000000000E+00  0.00000000000E+00  0.31344851196E+02  0.31695262998E+02  0.47000000000E+01 0.  1.
          5   -1    0    0  501    0  0.00000000000E+00 -0.00000000000E+00 -0.85894750726E+03  0.85896036592E+03  0.47000000000E+01 0.  1.
         25    2    1    2    0    0  0.27364029211E+02  0.38452104442E+02 -0.15380238770E+03  0.20373328099E+03  0.12499888356E+03 0.  0.
         25    2    1    2    0    0 -0.27364029211E+02 -0.38452104442E+02 -0.67380026836E+03  0.68692234792E+03  0.12501262338E+03 0.  0.
          5    1    3    3  502    0  0.23303890595E+02  0.78181680405E+02 -0.59102950579E+02  0.10084986482E+03  0.47000000000E+01 0.  1.
         -5    1    3    3    0  502  0.40601386160E+01 -0.39729575963E+02 -0.94699437122E+02  0.10288341617E+03  0.47000000000E+01 0.  1.
          5    1    4    4  503    0 -0.30126230443E+02 -0.57012582823E+02 -0.15741936641E+03  0.17017923282E+03  0.47000000000E+01 0. -1.
         -5    1    4    4    0  503  0.27622012320E+01  0.18560478381E+02 -0.51638090195E+03  0.51674311511E+03  0.47000000000E+01 0. -1.
<mgrwt>
<rscale>  0 0.13362130E+03</rscale>
<asrwt>0</asrwt>
<pdfrwt beam="2">  1        5 0.13217370E+00 0.13362451E+03</pdfrwt>
<pdfrwt beam="1">  1       -5 0.48502293E-02 0.13362451E+03</pdfrwt>
<totfact> 0.77386208E+01</totfact>
</mgrwt>
</event>
<event>
 8    1  0.3759079E-007  0.1263631E+03  0.7546771E-02  0.1232954E+00
          5   -1    0    0  501    0  0.00000000000E+00  0.00000000000E+00  0.15060650818E+03  0.15067982714E+03  0.47000000000E+01 0. -1.
         -5   -1    0    0    0  501 -0.00000000000E+00 -0.00000000000E+00 -0.10713700166E+03  0.10724004441E+03  0.47000000000E+01 0. -1.
         25    2    1    2    0    0 -0.10271301867E+02  0.15419648328E+02  0.77263159218E+01  0.12659881654E+03  0.12499719675E+03 0.  0.
         25    2    1    2    0    0  0.10271301867E+02 -0.15419648328E+02  0.35743190592E+02  0.13132105501E+03  0.12499751445E+03 0.  0.
          5    1    3    3  502    0  0.14114819050E+02 -0.46363319151E+02  0.29027022986E+02  0.56687243212E+02  0.47000000000E+01 0. -1.
         -5    1    3    3    0  502 -0.24386120916E+02  0.61782967479E+02 -0.21300707064E+02  0.69911573329E+02  0.47000000000E+01 0. -1.
          5    1    4    4  503    0  0.48691886690E+02  0.30550662286E+02 -0.62428303670E+01  0.58011255171E+02  0.47000000000E+01 0. -1.
         -5    1    4    4    0  503 -0.38420584823E+02 -0.45970310614E+02  0.41986020959E+02  0.73309799837E+02  0.47000000000E+01 0. -1.
<mgrwt>
<rscale>  0 0.12636306E+03</rscale>
<asrwt>0</asrwt>
<pdfrwt beam="1">  1        5 0.23183798E-01 0.12636314E+03</pdfrwt>
<pdfrwt beam="2">  1       -5 0.16496182E-01 0.12636314E+03</pdfrwt>
<totfact> 0.40903912E+02</totfact>
</mgrwt>
</event>
<event>
 8    1  0.3759079E-007  0.1356238E+03  0.7546771E-02  0.1219348E+00
          5   -1    0    0  501    0  0.00000000000E+00  0.00000000000E+00  0.22300239429E+03  0.22305191741E+03  0.47000000000E+01 0.  1.
         -5   -1    0    0    0  501 -0.00000000000E+00 -0.00000000000E+00 -0.82594805905E+02  0.82728422942E+02  0.47000000000E+01 0.  1.
         25    2    1    2    0    0 -0.47265478121E+02  0.23121577806E+02  0.61817912239E+02  0.14903167215E+03  0.12498140761E+03 0.  0.
         25    2    1    2    0    0  0.47265478121E+02 -0.23121577806E+02  0.78589676147E+02  0.15674866820E+03  0.12500070001E+03 0.  0.
          5    1    4    4  502    0 -0.56311322383E+01  0.43918631300E+02  0.67107350524E+01  0.45029765606E+02  0.47000000000E+01 0. -1.
         -5    1    4    4    0  502  0.52896610359E+02 -0.67040209107E+02  0.71878941094E+02  0.11171890260E+03  0.47000000000E+01 0. -1.
          5    1    3    3  503    0 -0.75660352534E+02 -0.11780973838E+02  0.56682538344E+01  0.76925284476E+02  0.47000000000E+01 0. -1.
         -5    1    3    3    0  503  0.28394874413E+02  0.34902551644E+02  0.56149658405E+02  0.72106387672E+02  0.47000000000E+01 0. -1.
<mgrwt>
<rscale>  0 0.13561933E+03</rscale>
<asrwt>0</asrwt>
<pdfrwt beam="1">  1        5 0.34322148E-01 0.13562377E+03</pdfrwt>
<pdfrwt beam="2">  1       -5 0.12720981E-01 0.13562377E+03</pdfrwt>
<totfact> 0.31252069E+02</totfact>
</mgrwt>
</event>
<event>
 8    1  0.3759079E-007  0.1557725E+03  0.7546771E-02  0.1193554E+00
          5   -1    0    0  501    0  0.00000000000E+00  0.00000000000E+00  0.17308234289E+03  0.17314614469E+03  0.47000000000E+01 0. -1.
         -5   -1    0    0    0  501 -0.00000000000E+00 -0.00000000000E+00 -0.15201461043E+03  0.15208725056E+03  0.47000000000E+01 0. -1.
         25    2    1    2    0    0 -0.18394894062E+02 -0.91111780025E+02 -0.35040290990E+02  0.15966416354E+03  0.12500037816E+03 0.  0.
         25    2    1    2    0    0  0.18394894062E+02  0.91111780025E+02  0.56108023454E+02  0.16556923171E+03  0.12500132641E+03 0.  0.
          5    1    3    3  502    0 -0.21060163330E+02 -0.70266897781E+01 -0.66081555480E+02  0.69869641644E+02  0.47000000000E+01 0.  1.
         -5    1    3    3    0  502  0.26652692683E+01 -0.84085090247E+02  0.31041264490E+02  0.89794521900E+02  0.47000000000E+01 0.  1.
          5    1    4    4  503    0  0.41095460550E+01  0.11509499229E+03  0.69134497102E+02  0.13440764230E+03  0.47000000000E+01 0. -1.
         -5    1    4    4    0  503  0.14285348007E+02 -0.23983212268E+02 -0.13026473649E+02  0.31161589403E+02  0.47000000000E+01 0. -1.
<mgrwt>
<rscale>  0 0.15577227E+03</rscale>
<asrwt>0</asrwt>
<pdfrwt beam="1">  1        5 0.26638548E-01 0.15577246E+03</pdfrwt>
<pdfrwt beam="2">  1       -5 0.23397359E-01 0.15577246E+03</pdfrwt>
<totfact> 0.17561478E+02</totfact>
</mgrwt>
</event>
<event>
 8    1  0.3759079E-007  0.1558523E+03  0.7546771E-02  0.1193469E+00
          5   -1    0    0  501    0  0.00000000000E+00  0.00000000000E+00  0.26045453696E+03  0.26049694014E+03  0.47000000000E+01 0.  1.
         -5   -1    0    0    0  501 -0.00000000000E+00 -0.00000000000E+00 -0.93222079631E+02  0.93340484950E+02  0.47000000000E+01 0.  1.
         25    2    1    2    0    0 -0.70981786843E+02 -0.60156286875E+02  0.78189302031E+02  0.17434194830E+03  0.12499742026E+03 0.  0.
         25    2    1    2    0    0  0.70981786843E+02  0.60156286875E+02  0.89043155295E+02  0.17949547679E+03  0.12503099523E+03 0.  0.
          5    1    3    3  502    0 -0.39120008368E+02 -0.19883613656E+02 -0.30766307443E+02  0.53799524351E+02  0.47000000000E+01 0.  1.
         -5    1    3    3    0  502 -0.31861778475E+02 -0.40272673218E+02  0.10895560947E+03  0.12054242395E+03  0.47000000000E+01 0.  1.
          5    1    4    4  503    0  0.36690207603E+02  0.65963960459E+02  0.11373488966E+03  0.13658378578E+03  0.47000000000E+01 0. -1.
         -5    1    4    4    0  503  0.34291579240E+02 -0.58076735843E+01 -0.24691734362E+02  0.42911691006E+02  0.47000000000E+01 0. -1.
<mgrwt>
<rscale>  0 0.15584558E+03</rscale>
<asrwt>0</asrwt>
<pdfrwt beam="1">  1        5 0.40082299E-01 0.15585231E+03</pdfrwt>
<pdfrwt beam="2">  1       -5 0.14354228E-01 0.15585231E+03</pdfrwt>
<totfact> 0.19258579E+02</totfact>
</mgrwt>
</event>
<event>
 8    1  0.3759079E-007  0.1375182E+03  0.7546771E-02  0.1216709E+00
         -5   -1    0    0    0  501 -0.00000000000E+00  0.00000000000E+00  0.18901397172E+04  0.18901455607E+04  0.47000000000E+01 0. -1.
          5   -1    0    0  501    0  0.00000000000E+00 -0.00000000000E+00 -0.12987242398E+02  0.13811533771E+02  0.47000000000E+01 0. -1.
         25    2    1    2    0    0  0.43360258980E+02 -0.37492358710E+02  0.14180449904E+04  0.14246974606E+04  0.12500188157E+03 0.  0.
         25    2    1    2    0    0 -0.43360258980E+02  0.37492358710E+02  0.45910748443E+03  0.47925963388E+03  0.12499730152E+03 0.  0.
          5    1    3    3  502    0  0.76208286909E+02 -0.53836149368E+02  0.77886659901E+03  0.78444968164E+03  0.47000000000E+01 0.  1.
         -5    1    3    3    0  502 -0.32848027928E+02  0.16343790658E+02  0.63917839135E+03  0.64024777891E+03  0.47000000000E+01 0.  1.
          5    1    4    4  503    0  0.37019166374E+02  0.24359212779E+02  0.26475775478E+03  0.26848193355E+03  0.47000000000E+01 0.  1.
         -5    1    4    4    0  503 -0.80379425354E+02  0.13133145931E+02  0.19434972965E+03  0.21077770034E+03  0.47000000000E+01 0.  1.
<mgrwt>
<rscale>  0 0.13751717E+03</rscale>
<asrwt>0</asrwt>
<pdfrwt beam="2">  1        5 0.20618969E-02 0.13751821E+03</pdfrwt>
<pdfrwt beam="1">  1       -5 0.29085414E+00 0.13751821E+03</pdfrwt>
<totfact> 0.25302103E+01</totfact>
</mgrwt>
</event>
<event>
 8    1  0.3759079E-007  0.1438448E+03  0.7546771E-02  0.1208250E+00
         -5   -1    0    0    0  501 -0.00000000000E+00  0.00000000000E+00  0.48706013057E+03  0.48708280691E+03  0.47000000000E+01 0.  1.
          5   -1    0    0  501    0  0.00000000000E+00 -0.00000000000E+00 -0.42588816599E+02  0.42847372140E+02  0.47000000000E+01 0.  1.
         25    2    1    2    0    0  0.59510184272E+02  0.39029848324E+02  0.20148496322E+03  0.24755860530E+03  0.12499712622E+03 0.  0.
         25    2    1    2    0    0 -0.59510184272E+02 -0.39029848324E+02  0.24298635075E+03  0.28237157375E+03  0.12500619153E+03 0.  0.
          5    1    3    3  502    0 -0.30189403240E+02  0.42905953885E+02  0.90670918022E+02  0.10486003205E+03  0.47000000000E+01 0.  1.
         -5    1    3    3    0  502  0.89699587512E+02 -0.38761055610E+01  0.11081404520E+03  0.14269857325E+03  0.47000000000E+01 0.  1.
          5    1    4    4  503    0 -0.91516952493E+02 -0.73668782745E+01  0.19920961806E+03  0.21939960213E+03  0.47000000000E+01 0.  1.
         -5    1    4    4    0  503  0.32006768220E+02 -0.31662970050E+02  0.43776732685E+02  0.62971971613E+02  0.47000000000E+01 0.  1.
<mgrwt>
<rscale>  0 0.14384287E+03</rscale>
<asrwt>0</asrwt>
<pdfrwt beam="2">  1        5 0.65737591E-02 0.14384484E+03</pdfrwt>
<pdfrwt beam="1">  1       -5 0.74953958E-01 0.14384484E+03</pdfrwt>
<totfact> 0.18961377E+02</totfact>
</mgrwt>
</event>
<event>
 8    1  0.3759079E-007  0.2965305E+03  0.7546771E-02  0.1086988E+00
         -5   -1    0    0    0  501 -0.00000000000E+00  0.00000000000E+00  0.32325590621E+03  0.32329007238E+03  0.47000000000E+01 0.  1.
          5   -1    0    0  501    0  0.00000000000E+00 -0.00000000000E+00 -0.28434551595E+03  0.28438435689E+03  0.47000000000E+01 0.  1.
         25    2    1    2    0    0 -0.14313687403E+03  0.22763210792E+03  0.82904042520E+02  0.30790163904E+03  0.12500319115E+03 0.  0.
         25    2    1    2    0    0  0.14313687403E+03 -0.22763210792E+03 -0.43993652268E+02  0.29977279022E+03  0.12499497212E+03 0.  0.
          5    1    4    4  502    0  0.53611355798E+02 -0.13577099487E+02 -0.38662444776E+02  0.67641627250E+02  0.47000000000E+01 0.  1.
         -5    1    4    4    0  502  0.89525518236E+02 -0.21405500843E+03 -0.53312074925E+01  0.23213116297E+03  0.47000000000E+01 0.  1.
          5    1    3    3  503    0 -0.46947709176E+01 -0.77419888510E+01 -0.14683909684E+02  0.17879778213E+02  0.47000000000E+01 0. -1.
         -5    1    3    3    0  503 -0.13844210312E+03  0.23537409677E+03  0.97587952204E+02  0.29002186083E+03  0.47000000000E+01 0. -1.
<mgrwt>
<rscale>  0 0.29652964E+03</rscale>
<asrwt>0</asrwt>
<pdfrwt beam="2">  1        5 0.43751080E-01 0.29653050E+03</pdfrwt>
<pdfrwt beam="1">  1       -5 0.49737293E-01 0.29653050E+03</pdfrwt>
<totfact> 0.16652009E+01</totfact>
</mgrwt>
</event>
<event>
 8    1  0.3759079E-007  0.1376217E+03  0.7546771E-02  0.1216578E+00
          5   -1    0    0  501    0  0.00000000000E+00  0.00000000000E+00  0.83904220144E+02  0.84035755235E+02  0.47000000000E+01 0. -1.
         -5   -1    0    0    0  501 -0.00000000000E+00 -0.00000000000E+00 -0.22987518748E+03  0.22992323027E+03  0.47000000000E+01 0. -1.
         25    2    1    2    0    0  0.38769521444E+02  0.42548768082E+02 -0.95043941384E+02  0.16725155029E+03  0.12500502719E+03 0.  0.
         25    2    1    2    0    0 -0.38769521444E+02 -0.42548768082E+02 -0.50927025953E+02  0.14670743522E+03  0.12496413933E+03 0.  0.
          5    1    3    3  502    0  0.26413970374E+02  0.27851866349E+02 -0.12528798397E+03  0.13112052935E+03  0.47000000000E+01 0. -1.
         -5    1    3    3    0  502  0.12355551071E+02  0.14696901733E+02  0.30244042581E+02  0.36131020944E+02  0.47000000000E+01 0. -1.
          5    1    4    4  503    0 -0.40404609354E+00  0.37561848575E+02 -0.43176493049E+02  0.57422602463E+02  0.47000000000E+01 0.  1.
         -5    1    4    4    0  503 -0.38365475351E+02 -0.80110616656E+02 -0.77505329036E+01  0.89284832756E+02  0.47000000000E+01 0.  1.
<mgrwt>
<rscale>  0 0.13761241E+03</rscale>
<asrwt>0</asrwt>
<pdfrwt beam="1">  1        5 0.12922155E-01 0.13762169E+03</pdfrwt>
<pdfrwt beam="2">  1       -5 0.35379227E-01 0.13762169E+03</pdfrwt>
<totfact> 0.28742055E+02</totfact>
</mgrwt>
</event>
<event>
 8    1  0.3759079E-007  0.1317977E+03  0.7546771E-02  0.1224817E+00
         -5   -1    0    0    0  501 -0.00000000000E+00  0.00000000000E+00  0.71106215150E+02  0.71261376867E+02  0.47000000000E+01 0.  1.
          5   -1    0    0  501    0  0.00000000000E+00 -0.00000000000E+00 -0.24712690512E+03  0.24717159472E+03  0.47000000000E+01 0.  1.
         25    2    1    2    0    0  0.41606334207E+02  0.33710178206E+01 -0.69617007666E+02  0.14905422507E+03  0.12501273314E+03 0.  0.
         25    2    1    2    0    0 -0.41606334207E+02 -0.33710178206E+01 -0.10640368231E+03  0.16937874652E+03  0.12499986143E+03 0.  0.
          5    1    3    3  502    0  0.52294321055E+02  0.52883751442E+02 -0.18172753103E+02  0.76705450500E+02  0.47000000000E+01 0.  1.
         -5    1    3    3    0  502 -0.10687986848E+02 -0.49512733621E+02 -0.51444254563E+02  0.72348774565E+02  0.47000000000E+01 0.  1.
          5    1    4    4  503    0 -0.66750934172E+02  0.18269557203E+02 -0.13565644009E+02  0.70679421549E+02  0.47000000000E+01 0.  1.
         -5    1    4    4    0  503  0.25144599965E+02 -0.21640575023E+02 -0.92838038297E+02  0.98699324970E+02  0.47000000000E+01 0.  1.
<mgrwt>
<rscale>  0 0.13179465E+03</rscale>
<asrwt>0</asrwt>
<pdfrwt beam="2">  1        5 0.38034897E-01 0.13179770E+03</pdfrwt>
<pdfrwt beam="1">  1       -5 0.10954791E-01 0.13179770E+03</pdfrwt>
<totfact> 0.32778123E+02</totfact>
</mgrwt>
</event>
<event>
 8    1  0.3759079E-007  0.1327578E+03  0.7546771E-02  0.1223421E+00
          5   -1    0    0  501    0  0.00000000000E+00  0.00000000000E+00  0.48821067933E+02  0.49046780466E+02  0.47000000000E+01 0.  1.
         -5   -1    0    0    0  501 -0.00000000000E+00 -0.00000000000E+00 -0.36360671358E+03  0.36363708854E+03  0.47000000000E+01 0.  1.
         25    2    1    2    0    0 -0.41865825395E+02 -0.15681413829E+02 -0.13662373185E+03  0.19049856581E+03  0.12500002159E+03 0.  0.
         25    2    1    2    0    0  0.41865825395E+02  0.15681413829E+02 -0.17816191380E+03  0.22218530319E+03  0.12500394934E+03 0.  0.
          5    1    3    3  502    0  0.15108663030E+02  0.10555339630E+02  0.16359923119E+02  0.25088323533E+02  0.47000000000E+01 0. -1.
         -5    1    3    3    0  502 -0.56974488425E+02 -0.26236753460E+02 -0.15298365497E+03  0.16541024228E+03  0.47000000000E+01 0. -1.
          5    1    4    4  503    0  0.72899222479E+02  0.93601142111E+01 -0.17517708482E+03  0.19002896995E+03  0.47000000000E+01 0.  1.
         -5    1    4    4    0  503 -0.31033397084E+02  0.63212996182E+01 -0.29848289815E+01  0.32156333240E+02  0.47000000000E+01 0.  1.
<mgrwt>
<rscale>  0 0.13275691E+03</rscale>
<asrwt>0</asrwt>
<pdfrwt beam="1">  1        5 0.75306328E-02 0.13275783E+03</pdfrwt>
<pdfrwt beam="2">  1       -5 0.55959192E-01 0.13275783E+03</pdfrwt>
<totfact> 0.28038520E+02</totfact>
</mgrwt>
</event>
<event>
 8    1  0.3759079E-007  0.1277799E+03  0.7546771E-02  0.1230796E+00
         -5   -1    0    0    0  501 -0.00000000000E+00  0.00000000000E+00  0.33241454361E+03  0.33244776853E+03  0.47000000000E+01 0. -1.
          5   -1    0    0  501    0  0.00000000000E+00 -0.00000000000E+00 -0.67738247772E+02  0.67901106112E+02  0.47000000000E+01 0. -1.
         25    2    1    2    0    0  0.93338651910E+01 -0.24708766409E+02  0.23756055134E+03  0.26974567849E+03  0.12502028369E+03 0.  0.
         25    2    1    2    0    0 -0.93338651910E+01  0.24708766409E+02  0.27115744491E+02  0.13060319615E+03  0.12499714824E+03 0.  0.
          5    1    3    3  502    0  0.27010204148E+02  0.43394280665E+02  0.61609221324E+02  0.80189780363E+02  0.47000000000E+01 0. -1.
         -5    1    3    3    0  502 -0.17676338957E+02 -0.68103047074E+02  0.17595133002E+03  0.18955589813E+03  0.47000000000E+01 0. -1.
          5    1    4    4  503    0 -0.52632002755E+02  0.36544083389E+02 -0.18069017090E+02  0.66739621840E+02  0.47000000000E+01 0.  1.
         -5    1    4    4    0  503  0.43298137564E+02 -0.11835316979E+02  0.45184761581E+02  0.63863574310E+02  0.47000000000E+01 0.  1.
<mgrwt>
<rscale>  0 0.12777429E+03</rscale>
<asrwt>0</asrwt>
<pdfrwt beam="2">  1        5 0.10436352E-01 0.12777995E+03</pdfrwt>
<pdfrwt beam="1">  1       -5 0.51155784E-01 0.12777995E+03</pdfrwt>
<totfact> 0.19080186E+02</totfact>
</mgrwt>
</event>
<event>
 8    1  0.3759079E-007  0.1294145E+03  0.7546771E-02  0.1228328E+00
         -5   -1    0    0    0  501 -0.00000000000E+00  0.00000000000E+00  0.53436609728E+02  0.53642905022E+02  0.47000000000E+01 0.  1.
          5   -1    0    0  501    0  0.00000000000E+00 -0.00000000000E+00 -0.32604283065E+03  0.32607670481E+03  0.47000000000E+01 0.  1.
         25    2    1    2    0    0  0.33083411976E+02 -0.52635805473E+01 -0.97745669311E+02  0.16217995386E+03  0.12500361650E+03 0.  0.
         25    2    1    2    0    0 -0.33083411976E+02  0.52635805473E+01 -0.17486055162E+03  0.21753965597E+03  0.12500028792E+03 0.  0.
          5    1    3    3  502    0  0.66744970407E+02 -0.39620261873E+02 -0.41915262601E+02  0.88338188030E+02  0.47000000000E+01 0. -1.
         -5    1    3    3    0  502 -0.33661558431E+02  0.34356681326E+02 -0.55830406709E+02  0.73841765831E+02  0.47000000000E+01 0. -1.
          5    1    4    4  503    0  0.46882035220E+02  0.13157162143E+02 -0.66325047320E+02  0.82414428616E+02  0.47000000000E+01 0. -1.
         -5    1    4    4    0  503 -0.79965447196E+02 -0.78935815958E+01 -0.10853550430E+03  0.13512522736E+03  0.47000000000E+01 0. -1.
<mgrwt>
<rscale>  0 0.12941373E+03</rscale>
<asrwt>0</asrwt>
<pdfrwt beam="2">  1        5 0.50178909E-01 0.12941453E+03</pdfrwt>
<pdfrwt beam="1">  1       -5 0.82394916E-02 0.12941453E+03</pdfrwt>
<totfact> 0.30072230E+02</totfact>
</mgrwt>
</event>
<event>
 8    1  0.3759079E-007  0.1448215E+03  0.7546771E-02  0.1206987E+00
         -5   -1    0    0    0  501 -0.00000000000E+00  0.00000000000E+00  0.93101460656E+02  0.93220019182E+02  0.47000000000E+01 0. -1.
          5   -1    0    0  501    0  0.00000000000E+00 -0.00000000000E+00 -0.22856991834E+03  0.22861823543E+03  0.47000000000E+01 0. -1.
         25    2    1    2    0    0  0.19594842314E+02 -0.70459155871E+02 -0.47558569961E+02  0.15243061132E+03  0.12499929280E+03 0.  0.
         25    2    1    2    0    0 -0.19594842314E+02  0.70459155871E+02 -0.87909887721E+02  0.16940764329E+03  0.12498940256E+03 0.  0.
          5    1    3    3  502    0  0.69656271704E+02 -0.60527179156E+02 -0.21214238175E+02  0.94803320119E+02  0.47000000000E+01 0. -1.
         -5    1    3    3    0  502 -0.50061429390E+02 -0.99319767152E+01 -0.26344331786E+02  0.57627291202E+02  0.47000000000E+01 0. -1.
          5    1    4    4  503    0  0.44644152858E+02 -0.44910089359E+01 -0.36378348346E+02  0.57954669994E+02  0.47000000000E+01 0. -1.
         -5    1    4    4    0  503 -0.64238995172E+02  0.74950164807E+02 -0.51531539375E+02  0.11145297329E+03  0.47000000000E+01 0. -1.
<mgrwt>
<rscale>  0 0.14481939E+03</rscale>
<asrwt>0</asrwt>
<pdfrwt beam="2">  1        5 0.35177439E-01 0.14482152E+03</pdfrwt>
<pdfrwt beam="1">  1       -5 0.14336138E-01 0.14482152E+03</pdfrwt>
<totfact> 0.24551578E+02</totfact>
</mgrwt>
</event>
<event>
 8    1  0.3759079E-007  0.1273988E+03  0.7546771E-02  0.1231381E+00
          5   -1    0    0  501    0  0.00000000000E+00  0.00000000000E+00  0.85017221856E+01  0.97143852158E+01  0.47000000000E+01 0. -1.
         -5   -1    0    0    0  501 -0.00000000000E+00 -0.00000000000E+00 -0.19024111594E+04  0.19024169652E+04  0.47000000000E+01 0. -1.
         25    2    1    2    0    0 -0.24481556426E+02  0.24044582991E+01 -0.11892465077E+04  0.11960508827E+04  0.12500132017E+03 0.  0.
         25    2    1    2    0    0  0.24481556426E+02 -0.24044582991E+01 -0.70466292957E+03  0.71608046770E+03  0.12496505063E+03 0.  0.
          5    1    4    4  502    0 -0.24146559320E+02 -0.41137330269E+02 -0.13982723091E+03  0.14781434563E+03  0.47000000000E+01 0.  1.
         -5    1    4    4    0  502  0.48628115746E+02  0.38732871969E+02 -0.56483569866E+03  0.56826612207E+03  0.47000000000E+01 0.  1.
          5    1    3    3  503    0  0.48755375038E+02  0.15422573019E+02 -0.57808491104E+03  0.58036126398E+03  0.47000000000E+01 0. -1.
         -5    1    3    3    0  503 -0.73236931464E+02 -0.13018114720E+02 -0.61116159663E+03  0.61568961875E+03  0.47000000000E+01 0. -1.
<mgrwt>
<rscale>  0 0.12738992E+03</rscale>
<asrwt>0</asrwt>
<pdfrwt beam="1">  1        5 0.14016871E-02 0.12739882E+03</pdfrwt>
<pdfrwt beam="2">  1       -5 0.29277205E+00 0.12739882E+03</pdfrwt>
<totfact> 0.44290909E+01</totfact>
</mgrwt>
</event>
<event>
 8    1  0.3759079E-007  0.1486607E+03  0.7546771E-02  0.1202128E+00
          5   -1    0    0  501    0  0.00000000000E+00  0.00000000000E+00  0.21778969643E+03  0.21784040459E+03  0.47000000000E+01 0. -1.
         -5   -1    0    0    0  501 -0.00000000000E+00 -0.00000000000E+00 -0.10595442189E+03  0.10605861359E+03  0.47000000000E+01 0. -1.
         25    2    1    2    0    0  0.35736879976E+02  0.72095924639E+02  0.22208236064E+02  0.15031037232E+03  0.12500022135E+03 0.  0.
         25    2    1    2    0    0 -0.35736879976E+02 -0.72095924639E+02  0.89627038480E+02  0.17358864586E+03  0.12500026002E+03 0.  0.
          5    1    3    3  502    0  0.56754718634E+02  0.98753884075E+02  0.21647260660E+02  0.11603500162E+03  0.47000000000E+01 0.  1.
         -5    1    3    3    0  502 -0.21017838658E+02 -0.26657959436E+02  0.56097540392E+00  0.34275370699E+02  0.47000000000E+01 0.  1.
          5    1    4    4  503    0  0.29272157099E+02  0.91636650661E+01  0.56180722788E+02  0.64180959417E+02  0.47000000000E+01 0. -1.
         -5    1    4    4    0  503 -0.65009037075E+02 -0.81259589705E+02  0.33446315692E+02  0.10940768645E+03  0.47000000000E+01 0. -1.
<mgrwt>
<rscale>  0 0.14866072E+03</rscale>
<asrwt>0</asrwt>
<pdfrwt beam="1">  1        5 0.33518022E-01 0.14866073E+03</pdfrwt>
<pdfrwt beam="2">  1       -5 0.16312596E-01 0.14866073E+03</pdfrwt>
<totfact> 0.21578382E+02</totfact>
</mgrwt>
</event>
<event>
 8    1  0.3759079E-007  0.1479075E+03  0.7546771E-02  0.1203075E+00
         -5   -1    0    0    0  501 -0.00000000000E+00  0.00000000000E+00  0.16423428032E+02  0.17082710216E+02  0.47000000000E+01 0. -1.
          5   -1    0    0  501    0  0.00000000000E+00 -0.00000000000E+00 -0.13608872380E+04  0.13608953540E+04  0.47000000000E+01 0. -1.
         25    2    1    2    0    0  0.43108797299E+02 -0.66243867003E+02 -0.53266351630E+03  0.55281737721E+03  0.12502004889E+03 0.  0.
         25    2    1    2    0    0 -0.43108797299E+02  0.66243867003E+02 -0.81180029365E+03  0.82516068699E+03  0.12499529701E+03 0.  0.
          5    1    4    4  502    0 -0.67290044067E+02  0.24135049739E+02 -0.69357772142E+03  0.69726795159E+03  0.47000000000E+01 0. -1.
         -5    1    4    4    0  502  0.24181246768E+02  0.42108817264E+02 -0.11822257222E+03  0.12789273541E+03  0.47000000000E+01 0. -1.
          5    1    3    3  503    0  0.68045788380E+02  0.65798294427E+01 -0.20299157122E+03  0.21424563346E+03  0.47000000000E+01 0.  1.
         -5    1    3    3    0  503 -0.24936991081E+02 -0.72823696446E+02 -0.32967194509E+03  0.33857174375E+03  0.47000000000E+01 0.  1.
<mgrwt>
<rscale>  0 0.14790228E+03</rscale>
<asrwt>0</asrwt>
<pdfrwt beam="2">  1        5 0.20941852E+00 0.14790751E+03</pdfrwt>
<pdfrwt beam="1">  1       -5 0.25780206E-02 0.14790751E+03</pdfrwt>
<totfact> 0.59736400E+01</totfact>
</mgrwt>
</event>
<event>
 8    1  0.3759079E-007  0.1267527E+03  0.7546771E-02  0.1232357E+00
         -5   -1    0    0    0  501 -0.00000000000E+00  0.00000000000E+00  0.85217340032E+03  0.85218636120E+03  0.47000000000E+01 0. -1.
          5   -1    0    0  501    0  0.00000000000E+00 -0.00000000000E+00 -0.19275087876E+02  0.19839833987E+02  0.47000000000E+01 0. -1.
         25    2    1    2    0    0  0.15635718604E+02 -0.14067439276E+02  0.33293851862E+03  0.35624906398E+03  0.12499187920E+03 0.  0.
         25    2    1    2    0    0 -0.15635718604E+02  0.14067439276E+02  0.49995979383E+03  0.51577713120E+03  0.12499554025E+03 0.  0.
          5    1    4    4  502    0  0.50778564585E+02  0.25973308581E+02  0.18557440674E+03  0.19419841868E+03  0.47000000000E+01 0.  1.
         -5    1    4    4    0  502 -0.66414283188E+02 -0.11905869305E+02  0.31438538709E+03  0.32157871252E+03  0.47000000000E+01 0.  1.
          5    1    3    3  503    0 -0.97116073612E+01  0.53398209432E+02  0.14805653857E+03  0.15776093529E+03  0.47000000000E+01 0.  1.
         -5    1    3    3    0  503  0.25347325965E+02 -0.67465648708E+02  0.18488198004E+03  0.19848812870E+03  0.47000000000E+01 0.  1.
<mgrwt>
<rscale>  0 0.12675182E+03</rscale>
<asrwt>0</asrwt>
<pdfrwt beam="2">  1        5 0.30098378E-02 0.12675273E+03</pdfrwt>
<pdfrwt beam="1">  1       -5 0.13114801E+00 0.12675273E+03</pdfrwt>
<totfact> 0.16924174E+02</totfact>
</mgrwt>
</event>
<event>
 8    1  0.3759079E-007  0.1342333E+03  0.7546771E-02  0.1221312E+00
         -5   -1    0    0    0  501 -0.00000000000E+00  0.00000000000E+00  0.22389179355E+03  0.22394111998E+03  0.47000000000E+01 0.  1.
          5   -1    0    0  501    0  0.00000000000E+00 -0.00000000000E+00 -0.84585727570E+02  0.84716204522E+02  0.47000000000E+01 0.  1.
         25    2    1    2    0    0  0.48617340270E+02 -0.52033475166E+01  0.10417979955E+03  0.16990414142E+03  0.12499306396E+03 0.  0.
         25    2    1    2    0    0 -0.48617340270E+02  0.52033475166E+01  0.35126266434E+02  0.13875318308E+03  0.12501148196E+03 0.  0.
          5    1    4    4  502    0  0.11488338588E+02 -0.37878848302E+02 -0.21688146484E+02  0.45379012441E+02  0.47000000000E+01 0.  1.
         -5    1    4    4    0  502 -0.60105678858E+02  0.43082195819E+02  0.56814412918E+02  0.93374170641E+02  0.47000000000E+01 0.  1.
          5    1    3    3  503    0 -0.33480849553E+02 -0.13683642361E+02 -0.55113380944E+00  0.36477432798E+02  0.47000000000E+01 0.  1.
         -5    1    3    3    0  503  0.82098189823E+02  0.84802948443E+01  0.10473093336E+03  0.13342670863E+03  0.47000000000E+01 0.  1.
<mgrwt>
<rscale>  0 0.13422906E+03</rscale>
<asrwt>0</asrwt>
<pdfrwt beam="2">  1        5 0.13027020E-01 0.13423335E+03</pdfrwt>
<pdfrwt beam="1">  1       -5 0.34458722E-01 0.13423335E+03</pdfrwt>
<totfact> 0.29612973E+02</totfact>
</mgrwt>
</event>
<event>
 8    1  0.3759079E-007  0.1339050E+03  0.7546771E-02  0.1221774E+00
         -5   -1    0    0    0  501 -0.00000000000E+00  0.00000000000E+00  0.25271496119E+03  0.25275866278E+03  0.47000000000E+01 0. -1.
          5   -1    0    0  501    0  0.00000000000E+00 -0.00000000000E+00 -0.70823464976E+02  0.70979244791E+02  0.47000000000E+01 0. -1.
         25    2    1    2    0    0 -0.21955061278E+02  0.42695941092E+02  0.90749665437E+02  0.16175830044E+03  0.12500111153E+03 0.  0.
         25    2    1    2    0    0  0.21955061278E+02 -0.42695941092E+02  0.91141830782E+02  0.16197960713E+03  0.12500236680E+03 0.  0.
          5    1    3    3  502    0 -0.10127825922E+02  0.80328303392E+02  0.91180981823E+02  0.12202979403E+03  0.47000000000E+01 0.  1.
         -5    1    3    3    0  502 -0.11827235356E+02 -0.37632362300E+02 -0.43131638624E+00  0.39728506419E+02  0.47000000000E+01 0.  1.
          5    1    4    4  503    0  0.68389119845E+02 -0.42634522932E+02  0.32478529354E+02  0.87015625768E+02  0.47000000000E+01 0.  1.
         -5    1    4    4    0  503 -0.46434058567E+02 -0.61418160403E-01  0.58663301428E+02  0.74963981362E+02  0.47000000000E+01 0.  1.
<mgrwt>
<rscale>  0 0.13390475E+03</rscale>
<asrwt>0</asrwt>
<pdfrwt beam="2">  1        5 0.10911262E-01 0.13390504E+03</pdfrwt>
<pdfrwt beam="1">  1       -5 0.38894570E-01 0.13390504E+03</pdfrwt>
<totfact> 0.31719997E+02</totfact>
</mgrwt>
</event>
<event>
 8    1  0.3759079E-007  0.1349167E+03  0.7546771E-02  0.1220337E+00
          5   -1    0    0  501    0  0.00000000000E+00  0.00000000000E+00  0.78929321334E+03  0.78930720674E+03  0.47000000000E+01 0.  1.
         -5   -1    0    0    0  501 -0.00000000000E+00 -0.00000000000E+00 -0.23185715247E+02  0.23657290452E+02  0.47000000000E+01 0.  1.
         25    2    1    2    0    0  0.40133030413E+02 -0.31100036264E+02  0.33170805139E+03  0.35809598482E+03  0.12499852239E+03 0.  0.
         25    2    1    2    0    0 -0.40133030413E+02  0.31100036264E+02  0.43439944670E+03  0.45486851238E+03  0.12499844749E+03 0.  0.
          5    1    4    4  502    0  0.34071819606E+02 -0.11761784038E+02  0.23484510588E+03  0.23764162559E+03  0.47000000000E+01 0.  1.
         -5    1    4    4    0  502 -0.74204850019E+02  0.42861820302E+02  0.19955434082E+03  0.21722688679E+03  0.47000000000E+01 0.  1.
          5    1    3    3  503    0  0.17587696290E+02 -0.75344422298E+02  0.14021929065E+03  0.16021750373E+03  0.47000000000E+01 0. -1.
         -5    1    3    3    0  503  0.22545334123E+02  0.44244386034E+02  0.19148876074E+03  0.19787848109E+03  0.47000000000E+01 0. -1.
<mgrwt>
<rscale>  0 0.13491663E+03</rscale>
<asrwt>0</asrwt>
<pdfrwt beam="1">  1        5 0.12146708E+00 0.13491665E+03</pdfrwt>
<pdfrwt beam="2">  1       -5 0.36043844E-02 0.13491665E+03</pdfrwt>
<totfact> 0.15727285E+02</totfact>
</mgrwt>
</event>
<event>
 8    1  0.3759079E-007  0.1530260E+03  0.7546771E-02  0.1196820E+00
         -5   -1    0    0    0  501 -0.00000000000E+00  0.00000000000E+00  0.22555225329E+02  0.23039708975E+02  0.47000000000E+01 0.  1.
          5   -1    0    0  501    0  0.00000000000E+00 -0.00000000000E+00 -0.10930660055E+04  0.10930761101E+04  0.47000000000E+01 0.  1.
         25    2    1    2    0    0  0.14567603121E+02 -0.87016570084E+02 -0.39745655464E+03  0.42589747399E+03  0.12503138405E+03 0.  0.
         25    2    1    2    0    0 -0.14567603121E+02  0.87016570084E+02 -0.67305422558E+03  0.69021834508E+03  0.12496109312E+03 0.  0.
          5    1    4    4  502    0  0.50533761891E+02  0.67512908089E+02 -0.34806593865E+03  0.35816705809E+03  0.47000000000E+01 0.  1.
         -5    1    4    4    0  502 -0.65101365013E+02  0.19503661995E+02 -0.32498828692E+03  0.33205128699E+03  0.47000000000E+01 0.  1.
          5    1    3    3  503    0  0.25739941270E+02 -0.92814718513E+02 -0.40064607698E+03  0.41208795851E+03  0.47000000000E+01 0. -1.
         -5    1    3    3    0  503 -0.11172338149E+02  0.57981484286E+01  0.31895223474E+01  0.13809515478E+02  0.47000000000E+01 0. -1.
<mgrwt>
<rscale>  0 0.15301160E+03</rscale>
<asrwt>0</asrwt>
<pdfrwt beam="2">  1        5 0.16820201E+00 0.15302596E+03</pdfrwt>
<pdfrwt beam="1">  1       -5 0.35080808E-02 0.15302596E+03</pdfrwt>
<totfact> 0.71060763E+01</totfact>
</mgrwt>
</event>
<event>
 8    1  0.3759079E-007  0.1651564E+03  0.7546771E-02  0.1182995E+00
         -5   -1    0    0    0  501 -0.00000000000E+00  0.00000000000E+00  0.17269141333E+03  0.17275535951E+03  0.47000000000E+01 0.  1.
          5   -1    0    0  501    0  0.00000000000E+00 -0.00000000000E+00 -0.18250483649E+03  0.18256534540E+03  0.47000000000E+01 0.  1.
         25    2    1    2    0    0  0.86638820932E+02 -0.64381037334E+02  0.60406988960E+02  0.17585606522E+03  0.12500059240E+03 0.  0.
         25    2    1    2    0    0 -0.86638820932E+02  0.64381037334E+02 -0.70220412116E+02  0.17946463969E+03  0.12500178943E+03 0.  0.
          5    1    3    3  502    0  0.30980877654E+02  0.32529941248E+02  0.43539751478E+02  0.62736048780E+02  0.47000000000E+01 0.  1.
         -5    1    3    3    0  502  0.55657943278E+02 -0.96910978581E+02  0.16867237483E+02  0.11312001644E+03  0.47000000000E+01 0.  1.
          5    1    4    4  503    0 -0.97961226117E+02  0.91619188176E+02 -0.49221366263E+02  0.14295212612E+03  0.47000000000E+01 0.  1.
         -5    1    4    4    0  503  0.11322405185E+02 -0.27238150843E+02 -0.20999045853E+02  0.36512513571E+02  0.47000000000E+01 0.  1.
<mgrwt>
<rscale>  0 0.16515622E+03</rscale>
<asrwt>0</asrwt>
<pdfrwt beam="2">  1        5 0.28087241E-01 0.16515644E+03</pdfrwt>
<pdfrwt beam="1">  1       -5 0.26577483E-01 0.16515644E+03</pdfrwt>
<totfact> 0.12631655E+02</totfact>
</mgrwt>
</event>
<event>
 8    1  0.3759079E-007  0.1361595E+03  0.7546771E-02  0.1218594E+00
          5   -1    0    0  501    0  0.00000000000E+00  0.00000000000E+00  0.11154205145E+03  0.11164102848E+03  0.47000000000E+01 0. -1.
         -5   -1    0    0    0  501 -0.00000000000E+00 -0.00000000000E+00 -0.16715968773E+03  0.16722574922E+03  0.47000000000E+01 0. -1.
         25    2    1    2    0    0  0.53971906017E+02  0.59664708667E+00 -0.39427402704E+02  0.14175303353E+03  0.12500431914E+03 0.  0.
         25    2    1    2    0    0 -0.53971906017E+02 -0.59664708667E+00 -0.16190233574E+02  0.13711374417E+03  0.12499893020E+03 0.  0.
          5    1    3    3  502    0  0.59871532467E+02 -0.54046027432E+02 -0.27234759737E+02  0.85260750753E+02  0.47000000000E+01 0. -1.
         -5    1    3    3    0  502 -0.58996264502E+01  0.54642674518E+02 -0.12192642967E+02  0.56492282776E+02  0.47000000000E+01 0. -1.
          5    1    4    4  503    0 -0.60895909000E+02  0.29746366184E+02 -0.54812003824E+02  0.87290341948E+02  0.47000000000E+01 0.  1.
         -5    1    4    4    0  503  0.69240029834E+01 -0.30343013271E+02  0.38621770250E+02  0.49823402221E+02  0.47000000000E+01 0.  1.
<mgrwt>
<rscale>  0 0.13615824E+03</rscale>
<asrwt>0</asrwt>
<pdfrwt beam="1">  1        5 0.17173011E-01 0.13615947E+03</pdfrwt>
<pdfrwt beam="2">  1       -5 0.25729570E-01 0.13615947E+03</pdfrwt>
<totfact> 0.31999174E+02</totfact>
</mgrwt>
</event>
<event>
 8    1  0.3759079E-007  0.1575417E+03  0.7546771E-02  0.1191504E+00
         -5   -1    0    0    0  501 -0.00000000000E+00  0.00000000000E+00  0.35428510693E+02  0.35738905550E+02  0.47000000000E+01 0.  1.
          5   -1    0    0  501    0  0.00000000000E+00 -0.00000000000E+00 -0.73530849170E+03  0.73532351246E+03  0.47000000000E+01 0.  1.
         25    2    1    2    0    0  0.62271943218E+02 -0.72895334182E+02 -0.26209496396E+03  0.30579356356E+03  0.12499763489E+03 0.  0.
         25    2    1    2    0    0 -0.62271943218E+02  0.72895334182E+02 -0.43778501705E+03  0.46526885444E+03  0.12501144387E+03 0.  0.
          5    1    3    3  502    0  0.63528015434E+02  0.57269406796E+01 -0.18429534715E+03  0.19507811660E+03  0.47000000000E+01 0. -1.
         -5    1    3    3    0  502 -0.12560722164E+01 -0.78622274861E+02 -0.77799616809E+02  0.11071544697E+03  0.47000000000E+01 0. -1.
          5    1    4    4  503    0  0.21136638881E+02  0.60974093394E+02 -0.26758758933E+03  0.27529948335E+03  0.47000000000E+01 0.  1.
         -5    1    4    4    0  503 -0.83408582099E+02  0.11921240788E+02 -0.17019742773E+03  0.18996937110E+03  0.47000000000E+01 0.  1.
<mgrwt>
<rscale>  0 0.15753896E+03</rscale>
<asrwt>0</asrwt>
<pdfrwt beam="2">  1        5 0.11314940E+00 0.15754170E+03</pdfrwt>
<pdfrwt beam="1">  1       -5 0.54755726E-02 0.15754170E+03</pdfrwt>
<totfact> 0.99051412E+01</totfact>
</mgrwt>
</event>
<event>
 8    1  0.3759079E-007  0.1399151E+03  0.7546771E-02  0.1213444E+00
         -5   -1    0    0    0  501 -0.00000000000E+00  0.00000000000E+00  0.80770324843E+02  0.80906955048E+02  0.47000000000E+01 0.  1.
          5   -1    0    0  501    0  0.00000000000E+00 -0.00000000000E+00 -0.29978872077E+03  0.29982556112E+03  0.47000000000E+01 0.  1.
         25    2    1    2    0    0  0.25247409167E+02 -0.57559051349E+02 -0.25954069563E+02  0.14230194300E+03  0.12500301274E+03 0.  0.
         25    2    1    2    0    0 -0.25247409167E+02  0.57559051349E+02 -0.19306432636E+03  0.23843057317E+03  0.12499931217E+03 0.  0.
          5    1    3    3  502    0  0.47159653242E+02  0.22510343506E+02  0.68609628049E+01  0.52914187788E+02  0.47000000000E+01 0. -1.
         -5    1    3    3    0  502 -0.21912244074E+02 -0.80069394855E+02 -0.32815032367E+02  0.89387755213E+02  0.47000000000E+01 0. -1.
          5    1    4    4  503    0 -0.73588128585E+02  0.23078751210E+02 -0.13316496930E+03  0.15395726834E+03  0.47000000000E+01 0.  1.
         -5    1    4    4    0  503  0.48340719418E+02  0.34480300138E+02 -0.59899357061E+02  0.84473304823E+02  0.47000000000E+01 0.  1.
<mgrwt>
<rscale>  0 0.13991425E+03</rscale>
<asrwt>0</asrwt>
<pdfrwt beam="2">  1        5 0.46134685E-01 0.13991508E+03</pdfrwt>
<pdfrwt beam="1">  1       -5 0.12439548E-01 0.13991508E+03</pdfrwt>
<totfact> 0.17954357E+02</totfact>
</mgrwt>
</event>
<event>
 8    1  0.3759079E-007  0.1301439E+03  0.7546771E-02  0.1227244E+00
          5   -1    0    0  501    0  0.00000000000E+00  0.00000000000E+00  0.15474079743E+03  0.15481215840E+03  0.47000000000E+01 0.  1.
         -5   -1    0    0    0  501 -0.00000000000E+00 -0.00000000000E+00 -0.12628401920E+03  0.12637145051E+03  0.47000000000E+01 0.  1.
         25    2    1    2    0    0 -0.35600927306E+02 -0.67698720156E+01 -0.37287439711E+02  0.13537639169E+03  0.12499262808E+03 0.  0.
         25    2    1    2    0    0  0.35600927306E+02  0.67698720156E+01  0.65744217938E+02  0.14580721723E+03  0.12499674080E+03 0.  0.
          5    1    3    3  502    0  0.93135805784E+01  0.20596792992E+02  0.37373044782E+02  0.43929547472E+02  0.47000000000E+01 0. -1.
         -5    1    3    3    0  502 -0.44914507884E+02 -0.27366665008E+02 -0.74660484494E+02  0.91446844215E+02  0.47000000000E+01 0. -1.
          5    1    4    4  503    0  0.66868530523E+02  0.44840738847E+02  0.41454582782E+02  0.90678909722E+02  0.47000000000E+01 0.  1.
         -5    1    4    4    0  503 -0.31267603217E+02 -0.38070866832E+02  0.24289635156E+02  0.55128307504E+02  0.47000000000E+01 0.  1.
<mgrwt>
<rscale>  0 0.13014294E+03</rscale>
<asrwt>0</asrwt>
<pdfrwt beam="1">  1        5 0.23818491E-01 0.13014393E+03</pdfrwt>
<pdfrwt beam="2">  1       -5 0.19440525E-01 0.13014393E+03</pdfrwt>
<totfact> 0.29032093E+02</totfact>
</mgrwt>
</event>
<event>
 8    1  0.3759079E-007  0.1310689E+03  0.7546771E-02  0.1225909E+00
         -5   -1    0    0    0  501 -0.00000000000E+00  0.00000000000E+00  0.93583948634E+03  0.93585128851E+03  0.47000000000E+01 0. -1.
          5   -1    0    0  501    0  0.00000000000E+00 -0.00000000000E+00 -0.18269439522E+02  0.18864316061E+02  0.47000000000E+01 0. -1.
         25    2    1    2    0    0 -0.39148542854E+02 -0.22347293606E+01  0.51247738137E+03  0.52897270186E+03  0.12506578458E+03 0.  0.
         25    2    1    2    0    0  0.39148542854E+02  0.22347293606E+01  0.40509266545E+03  0.42574290271E+03  0.12497739469E+03 0.  0.
          5    1    3    3  502    0 -0.69985227329E+02  0.36172286416E+01  0.47362985693E+03  0.47880930208E+03  0.47000000000E+01 0. -1.
         -5    1    3    3    0  502  0.30836684474E+02 -0.58519580022E+01  0.38847524446E+02  0.50163399779E+02  0.47000000000E+01 0. -1.
          5    1    4    4  503    0 -0.16869286474E+02 -0.50244016142E+02  0.19028165974E+03  0.19758095560E+03  0.47000000000E+01 0. -1.
         -5    1    4    4    0  503  0.56017829329E+02  0.52478745502E+02  0.21481100571E+03  0.22816194711E+03  0.47000000000E+01 0. -1.
<mgrwt>
<rscale>  0 0.13104780E+03</rscale>
<asrwt>0</asrwt>
<pdfrwt beam="2">  1        5 0.28573509E-02 0.13106889E+03</pdfrwt>
<pdfrwt beam="1">  1       -5 0.14402196E+00 0.13106889E+03</pdfrwt>
<totfact> 0.14530427E+02</totfact>
</mgrwt>
</event>
<event>
 8    1  0.3759079E-007  0.1539630E+03  0.7546771E-02  0.1195687E+00
         -5   -1    0    0    0  501 -0.00000000000E+00  0.00000000000E+00  0.37965558024E+03  0.37968467128E+03  0.47000000000E+01 0. -1.
          5   -1    0    0  501    0  0.00000000000E+00 -0.00000000000E+00 -0.64554169320E+02  0.64725039796E+02  0.47000000000E+01 0. -1.
         25    2    1    2    0    0  0.71653485525E+02 -0.54284630813E+02  0.11624593142E+03  0.19291895703E+03  0.12499425698E+03 0.  0.
         25    2    1    2    0    0 -0.71653485525E+02  0.54284630813E+02  0.19885547949E+03  0.25149075405E+03  0.12499221782E+03 0.  0.
          5    1    4    4  502    0  0.31401714030E+02 -0.88981644732E+01  0.43961146471E+02  0.54953774885E+02  0.47000000000E+01 0. -1.
         -5    1    4    4    0  502 -0.10305519955E+03  0.63182795286E+02  0.15489433302E+03  0.19653697916E+03  0.47000000000E+01 0. -1.
          5    1    3    3  503    0  0.95519706133E+02 -0.23276919830E+02  0.38375542596E+02  0.10564374816E+03  0.47000000000E+01 0. -1.
         -5    1    3    3    0  503 -0.23866220607E+02 -0.31007710983E+02  0.77870388827E+02  0.87275208866E+02  0.47000000000E+01 0. -1.
<mgrwt>
<rscale>  0 0.15396259E+03</rscale>
<asrwt>0</asrwt>
<pdfrwt beam="2">  1        5 0.99467925E-02 0.15396301E+03</pdfrwt>
<pdfrwt beam="1">  1       -5 0.58423931E-01 0.15396301E+03</pdfrwt>
<totfact> 0.16591736E+02</totfact>
</mgrwt>
</event>
<event>
 8    1  0.3759079E-007  0.1426737E+03  0.7546771E-02  0.1209781E+00
         -5   -1    0    0    0  501 -0.00000000000E+00  0.00000000000E+00  0.38594307847E+03  0.38597169562E+03  0.47000000000E+01 0. -1.
          5   -1    0    0  501    0  0.00000000000E+00 -0.00000000000E+00 -0.52648803133E+02  0.52858173175E+02  0.47000000000E+01 0. -1.
         25    2    1    2    0    0  0.61209698218E+02 -0.31292239419E+02  0.16012132968E+03  0.21446358584E+03  0.12501983055E+03 0.  0.
         25    2    1    2    0    0 -0.61209698218E+02  0.31292239419E+02  0.17317294566E+03  0.22436628295E+03  0.12500211364E+03 0.  0.
          5    1    4    4  502    0 -0.64803953161E+02  0.77680890708E+00  0.19877521427E+02  0.67951170965E+02  0.47000000000E+01 0.  1.
         -5    1    4    4    0  502  0.35942549433E+01  0.30515430511E+02  0.15329542423E+03  0.15641511199E+03  0.47000000000E+01 0.  1.
          5    1    3    3  503    0  0.38186256050E+02 -0.48123694121E+01 -0.10530063182E+02  0.40178617212E+02  0.47000000000E+01 0.  1.
         -5    1    3    3    0  503  0.23023442169E+02 -0.26479870006E+02  0.17065139286E+03  0.17428496863E+03  0.47000000000E+01 0.  1.
<mgrwt>
<rscale>  0 0.14266984E+03</rscale>
<asrwt>0</asrwt>
<pdfrwt beam="2">  1        5 0.81181226E-02 0.14267372E+03</pdfrwt>
<pdfrwt beam="1">  1       -5 0.59394165E-01 0.14267372E+03</pdfrwt>
<totfact> 0.22195501E+02</totfact>
</mgrwt>
</event>
<event>
 8    1  0.3759079E-007  0.1285826E+03  0.7546771E-02  0.1229577E+00
          5   -1    0    0  501    0  0.00000000000E+00  0.00000000000E+00  0.79629175235E+02  0.79767760082E+02  0.47000000000E+01 0. -1.
         -5   -1    0    0    0  501 -0.00000000000E+00 -0.00000000000E+00 -0.20834776853E+03  0.20840077411E+03  0.47000000000E+01 0. -1.
         25    2    1    2    0    0  0.18241399460E+02 -0.23944183224E+02 -0.54019470573E+02  0.13946895219E+03  0.12500965107E+03 0.  0.
         25    2    1    2    0    0 -0.18241399460E+02  0.23944183224E+02 -0.74699122721E+02  0.14869958200E+03  0.12500213673E+03 0.  0.
          5    1    4    4  502    0  0.38380971601E+02 -0.25619212221E+02 -0.52600130913E+02  0.70130640864E+02  0.47000000000E+01 0. -1.
         -5    1    4    4    0  502 -0.56622371061E+02  0.49563395445E+02 -0.22098991808E+02  0.78568941138E+02  0.47000000000E+01 0. -1.
          5    1    3    3  503    0  0.87547317710E+01  0.42303856814E+01  0.39643847242E+02  0.41088515616E+02  0.47000000000E+01 0. -1.
         -5    1    3    3    0  503  0.94866676885E+01 -0.28174568905E+02 -0.93663317815E+02  0.98380436577E+02  0.47000000000E+01 0. -1.
<mgrwt>
<rscale>  0 0.12858078E+03</rscale>
<asrwt>0</asrwt>
<pdfrwt beam="1">  1        5 0.12265380E-01 0.12858260E+03</pdfrwt>
<pdfrwt beam="2">  1       -5 0.32068240E-01 0.12858260E+03</pdfrwt>
<totfact> 0.37445165E+02</totfact>
</mgrwt>
</event>
<event>
 8    1  0.3759079E-007  0.1629289E+03  0.7546771E-02  0.1185434E+00
         -5   -1    0    0    0  501 -0.00000000000E+00  0.00000000000E+00  0.98742893473E+02  0.98854686340E+02  0.47000000000E+01 0.  1.
          5   -1    0    0  501    0  0.00000000000E+00 -0.00000000000E+00 -0.27825638493E+03  0.27829607570E+03  0.47000000000E+01 0.  1.
         25    2    1    2    0    0 -0.99699875803E+02 -0.31199552370E+02 -0.54489407019E+02  0.17178072128E+03  0.12500417362E+03 0.  0.
         25    2    1    2    0    0  0.99699875803E+02  0.31199552370E+02 -0.12502408443E+03  0.20537004077E+03  0.12502941515E+03 0.  0.
          5    1    3    3  502    0 -0.61190228205E+02 -0.10045427131E+01 -0.91545732413E+02  0.11021780372E+03  0.47000000000E+01 0. -1.
         -5    1    3    3    0  502 -0.38509647598E+02 -0.30195009657E+02  0.37056325394E+02  0.61562917556E+02  0.47000000000E+01 0. -1.
          5    1    4    4  503    0  0.24248866297E+02 -0.34565051053E+02 -0.89479904475E+02  0.99052983679E+02  0.47000000000E+01 0.  1.
         -5    1    4    4    0  503  0.75451009506E+02  0.65764603422E+02 -0.35544179958E+02  0.10631705709E+03  0.47000000000E+01 0.  1.
<mgrwt>
<rscale>  0 0.16292407E+03</rscale>
<asrwt>0</asrwt>
<pdfrwt beam="2">  1        5 0.42820327E-01 0.16292892E+03</pdfrwt>
<pdfrwt beam="1">  1       -5 0.15202867E-01 0.16292892E+03</pdfrwt>
<totfact> 0.15358055E+02</totfact>
</mgrwt>
</event>
<event>
 8    1  0.3759079E-007  0.1347256E+03  0.7546771E-02  0.1220608E+00
          5   -1    0    0  501    0  0.00000000000E+00  0.00000000000E+00  0.16362379573E+03  0.16369128422E+03  0.47000000000E+01 0. -1.
         -5   -1    0    0    0  501 -0.00000000000E+00 -0.00000000000E+00 -0.11325613064E+03  0.11335361100E+03  0.47000000000E+01 0. -1.
         25    2    1    2    0    0  0.49534694274E+02 -0.84615339369E+01  0.47579411912E+01  0.13480962448E+03  0.12500285338E+03 0.  0.
         25    2    1    2    0    0 -0.49534694274E+02  0.84615339369E+01  0.45609723906E+02  0.14223527074E+03  0.12500136733E+03 0.  0.
          5    1    4    4  502    0 -0.20991841654E+02 -0.17952092930E+02  0.83293515861E+02  0.87879661134E+02  0.47000000000E+01 0.  1.
         -5    1    4    4    0  502 -0.28542852620E+02  0.26413626867E+02 -0.37683791956E+02  0.54355609610E+02  0.47000000000E+01 0.  1.
          5    1    3    3  503    0  0.32565334615E+02 -0.17047930276E+02  0.63149521351E+02  0.73219430428E+02  0.47000000000E+01 0. -1.
         -5    1    3    3    0  503  0.16969359659E+02  0.85863963393E+01 -0.58391580160E+02  0.61590194048E+02  0.47000000000E+01 0. -1.
<mgrwt>
<rscale>  0 0.13472529E+03</rscale>
<asrwt>0</asrwt>
<pdfrwt beam="1">  1        5 0.25185581E-01 0.13472564E+03</pdfrwt>
<pdfrwt beam="2">  1       -5 0.17436710E-01 0.13472564E+03</pdfrwt>
<totfact> 0.32301125E+02</totfact>
</mgrwt>
</event>
<event>
 8    1  0.3759079E-007  0.1862415E+03  0.7546771E-02  0.1161896E+00
         -5   -1    0    0    0  501 -0.00000000000E+00  0.00000000000E+00  0.12318795733E+03  0.12327758447E+03  0.47000000000E+01 0.  1.
          5   -1    0    0  501    0  0.00000000000E+00 -0.00000000000E+00 -0.28235922317E+03  0.28239833730E+03  0.47000000000E+01 0.  1.
         25    2    1    2    0    0  0.47112969299E+02 -0.12976888632E+03 -0.67482025203E+02  0.19809022193E+03  0.12500526615E+03 0.  0.
         25    2    1    2    0    0 -0.47112969299E+02  0.12976888632E+03 -0.91689240634E+02  0.20758569984E+03  0.12500124078E+03 0.  0.
          5    1    3    3  502    0  0.23020079545E+02 -0.55397798582E+02 -0.97204409200E+02  0.11432247075E+03  0.47000000000E+01 0. -1.
         -5    1    3    3    0  502  0.24092889754E+02 -0.74371087736E+02  0.29722383996E+02  0.83767751183E+02  0.47000000000E+01 0. -1.
          5    1    4    4  503    0 -0.25382391371E+02 -0.19950843703E+02 -0.45714615028E+01  0.32943743206E+02  0.47000000000E+01 0. -1.
         -5    1    4    4    0  503 -0.21730577929E+02  0.14971973002E+03 -0.87117779131E+02  0.17464195663E+03  0.47000000000E+01 0. -1.
<mgrwt>
<rscale>  0 0.18624087E+03</rscale>
<asrwt>0</asrwt>
<pdfrwt beam="2">  1        5 0.43449783E-01 0.18624154E+03</pdfrwt>
<pdfrwt beam="1">  1       -5 0.18961897E-01 0.18624154E+03</pdfrwt>
<totfact> 0.10320975E+02</totfact>
</mgrwt>
</event>
<event>
 8    1  0.3759079E-007  0.1294961E+03  0.7546771E-02  0.1228208E+00
          5   -1    0    0  501    0  0.00000000000E+00  0.00000000000E+00  0.63206718277E+02  0.63381221473E+02  0.47000000000E+01 0. -1.
         -5   -1    0    0    0  501 -0.00000000000E+00 -0.00000000000E+00 -0.27664568731E+03  0.27668560914E+03  0.47000000000E+01 0. -1.
         25    2    1    2    0    0 -0.17785818645E+02  0.28771383802E+02 -0.14199410474E+03  0.19217588551E+03  0.12500046928E+03 0.  0.
         25    2    1    2    0    0  0.17785818645E+02 -0.28771383802E+02 -0.71444864291E+02  0.14789094510E+03  0.12499294036E+03 0.  0.
          5    1    4    4  502    0 -0.24282450671E+02 -0.37880093868E+02  0.17864315380E+02  0.48639106551E+02  0.47000000000E+01 0. -1.
         -5    1    4    4    0  502  0.42068269316E+02  0.91087100661E+01 -0.89309179672E+02  0.99251838552E+02  0.47000000000E+01 0. -1.
          5    1    3    3  503    0 -0.51438163273E+01  0.22222758936E+02 -0.16394626635E+03  0.16559220425E+03  0.47000000000E+01 0.  1.
         -5    1    3    3    0  503 -0.12642002318E+02  0.65486248663E+01  0.21952161604E+02  0.26583681260E+02  0.47000000000E+01 0.  1.
<mgrwt>
<rscale>  0 0.12949430E+03</rscale>
<asrwt>0</asrwt>
<pdfrwt beam="1">  1        5 0.97406049E-02 0.12949612E+03</pdfrwt>
<pdfrwt beam="2">  1       -5 0.42577369E-01 0.12949612E+03</pdfrwt>
<totfact> 0.31753008E+02</totfact>
</mgrwt>
</event>
<event>
 8    1  0.3759079E-007  0.1417501E+03  0.7546771E-02  0.1210994E+00
         -5   -1    0    0    0  501 -0.00000000000E+00  0.00000000000E+00  0.40334995711E+02  0.40607904144E+02  0.47000000000E+01 0. -1.
          5   -1    0    0  501    0  0.00000000000E+00 -0.00000000000E+00 -0.58915958847E+03  0.58917833521E+03  0.47000000000E+01 0. -1.
         25    2    1    2    0    0  0.65594285953E+02  0.12801995255E+02 -0.14934473420E+03  0.20590270691E+03  0.12500229457E+03 0.  0.
         25    2    1    2    0    0 -0.65594285953E+02 -0.12801995255E+02 -0.39947985856E+03  0.42388353245E+03  0.12500636085E+03 0.  0.
          5    1    3    3  502    0  0.26897555773E+02  0.63027462491E+02 -0.11417970335E+03  0.13324801759E+03  0.47000000000E+01 0. -1.
         -5    1    3    3    0  502  0.38696730179E+02 -0.50225467236E+02 -0.35165030851E+02  0.72654689321E+02  0.47000000000E+01 0. -1.
          5    1    4    4  503    0 -0.55022579935E+02  0.19154211387E+02 -0.38048724441E+03  0.38495064785E+03  0.47000000000E+01 0. -1.
         -5    1    4    4    0  503 -0.10571706018E+02 -0.31956206642E+02 -0.18992614141E+02  0.38932884597E+02  0.47000000000E+01 0. -1.
<mgrwt>
<rscale>  0 0.14174921E+03</rscale>
<asrwt>0</asrwt>
<pdfrwt beam="2">  1        5 0.90662365E-01 0.14175010E+03</pdfrwt>
<pdfrwt beam="1">  1       -5 0.62278194E-02 0.14175010E+03</pdfrwt>
<totfact> 0.13271108E+02</totfact>
</mgrwt>
</event>
<event>
 8    1  0.3759079E-007  0.1429497E+03  0.7546771E-02  0.1209418E+00
         -5   -1    0    0    0  501 -0.00000000000E+00  0.00000000000E+00  0.42867071714E+03  0.42869648207E+03  0.47000000000E+01 0. -1.
          5   -1    0    0  501    0  0.00000000000E+00 -0.00000000000E+00 -0.47529350956E+02  0.47761168351E+02  0.47000000000E+01 0. -1.
         25    2    1    2    0    0 -0.42801965862E+02 -0.54544151699E+02  0.18780117511E+03  0.23601675891E+03  0.12501022498E+03 0.  0.
         25    2    1    2    0    0  0.42801965862E+02  0.54544151699E+02  0.19334019108E+03  0.24044089151E+03  0.12499728019E+03 0.  0.
          5    1    4    4  502    0 -0.23898612653E+01  0.73002787599E+02  0.17206023449E+03  0.18698110259E+03  0.47000000000E+01 0. -1.
         -5    1    4    4    0  502  0.45191827127E+02 -0.18458635899E+02  0.21279956593E+02  0.53459788916E+02  0.47000000000E+01 0. -1.
          5    1    3    3  503    0 -0.30985268874E+02 -0.90628171872E+02  0.16672749445E+03  0.19233746340E+03  0.47000000000E+01 0.  1.
         -5    1    3    3    0  503 -0.11816696987E+02  0.36084020173E+02  0.21073680662E+02  0.43679295509E+02  0.47000000000E+01 0.  1.
<mgrwt>
<rscale>  0 0.14294691E+03</rscale>
<asrwt>0</asrwt>
<pdfrwt beam="2">  1        5 0.73320217E-02 0.14294974E+03</pdfrwt>
<pdfrwt beam="1">  1       -5 0.65969156E-01 0.14294974E+03</pdfrwt>
<totfact> 0.20969574E+02</totfact>
</mgrwt>
</event>
<event>
 8    1  0.3759079E-007  0.1301083E+03  0.7546771E-02  0.1227296E+00
         -5   -1    0    0    0  501 -0.00000000000E+00  0.00000000000E+00  0.44396612435E+02  0.44644699525E+02  0.47000000000E+01 0.  1.
          5   -1    0    0  501    0  0.00000000000E+00 -0.00000000000E+00 -0.39026535615E+03  0.39029365638E+03  0.47000000000E+01 0.  1.
         25    2    1    2    0    0 -0.35954953768E+02  0.31484712265E+01 -0.13760709469E+03  0.18937556173E+03  0.12499887719E+03 0.  0.
         25    2    1    2    0    0  0.35954953768E+02 -0.31484712265E+01 -0.20826164902E+03  0.24556279418E+03  0.12500199942E+03 0.  0.
          5    1    3    3  502    0  0.12314917291E+02 -0.52628629520E+02 -0.74657205621E+02  0.92288776046E+02  0.47000000000E+01 0. -1.
         -5    1    3    3    0  502 -0.48269871059E+02  0.55777100746E+02 -0.62949889073E+02  0.97086785682E+02  0.47000000000E+01 0. -1.
          5    1    4    4  503    0 -0.35414024177E+02 -0.31837449054E+02 -0.48220528179E+02  0.67934421382E+02  0.47000000000E+01 0.  1.
         -5    1    4    4    0  503  0.71368977945E+02  0.28688977828E+02 -0.16004112084E+03  0.17762837279E+03  0.47000000000E+01 0.  1.
<mgrwt>
<rscale>  0 0.13010756E+03</rscale>
<asrwt>0</asrwt>
<pdfrwt beam="2">  1        5 0.60062082E-01 0.13010831E+03</pdfrwt>
<pdfrwt beam="1">  1       -5 0.68515089E-02 0.13010831E+03</pdfrwt>
<totfact> 0.28029624E+02</totfact>
</mgrwt>
</event>
<event>
 8    1  0.3759079E-007  0.1289054E+03  0.7546771E-02  0.1229092E+00
          5   -1    0    0  501    0  0.00000000000E+00  0.00000000000E+00  0.48109575787E+03  0.48111871533E+03  0.47000000000E+01 0. -1.
         -5   -1    0    0    0  501 -0.00000000000E+00 -0.00000000000E+00 -0.41645081728E+02  0.41909459936E+02  0.47000000000E+01 0. -1.
         25    2    1    2    0    0  0.22692508373E+02 -0.21803896911E+02  0.11069885445E+03  0.16990727598E+03  0.12499554472E+03 0.  0.
         25    2    1    2    0    0 -0.22692508373E+02  0.21803896911E+02  0.32875182170E+03  0.35312089929E+03  0.12500499744E+03 0.  0.
          5    1    4    4  502    0 -0.53299041212E+02 -0.39398767794E+01  0.56527646053E+02  0.77934428794E+02  0.47000000000E+01 0.  1.
         -5    1    4    4    0  502  0.30606532838E+02  0.25743773691E+02  0.27222417565E+03  0.27518647049E+03  0.47000000000E+01 0.  1.
          5    1    3    3  503    0  0.37796400974E+02 -0.28176438437E+02 -0.96554423024E+01  0.48350772235E+02  0.47000000000E+01 0.  1.
         -5    1    3    3    0  503 -0.15103892601E+02  0.63725415262E+01  0.12035429675E+03  0.12155650375E+03  0.47000000000E+01 0.  1.
<mgrwt>
<rscale>  0 0.12890314E+03</rscale>
<asrwt>0</asrwt>
<pdfrwt beam="1">  1        5 0.74036837E-01 0.12890543E+03</pdfrwt>
<pdfrwt beam="2">  1       -5 0.64290382E-02 0.12890543E+03</pdfrwt>
<totfact> 0.19514341E+02</totfact>
</mgrwt>
</event>
<event>
 8    1  0.3759079E-007  0.1348744E+03  0.7546771E-02  0.1220401E+00
          5   -1    0    0  501    0  0.00000000000E+00  0.00000000000E+00  0.60365299786E+02  0.60547992686E+02  0.47000000000E+01 0.  1.
         -5   -1    0    0    0  501 -0.00000000000E+00 -0.00000000000E+00 -0.30424116521E+03  0.30427746648E+03  0.47000000000E+01 0.  1.
         25    2    1    2    0    0  0.50591626782E+02 -0.26766650960E+01 -0.14170548933E+03  0.19563116915E+03  0.12499772559E+03 0.  0.
         25    2    1    2    0    0 -0.50591626782E+02  0.26766650960E+01 -0.10217037610E+03  0.16919429001E+03  0.12498497824E+03 0.  0.
          5    1    3    3  502    0  0.84543778698E+02 -0.29449195577E+02 -0.10947267736E+03  0.14149651135E+03  0.47000000000E+01 0.  1.
         -5    1    3    3    0  502 -0.33952151916E+02  0.26772530481E+02 -0.32232811968E+02  0.54134657803E+02  0.47000000000E+01 0.  1.
          5    1    4    4  503    0 -0.67903606645E+02 -0.15660067904E+02 -0.11937547477E+03  0.13830665747E+03  0.47000000000E+01 0.  1.
         -5    1    4    4    0  503  0.17311979864E+02  0.18336733000E+02  0.17205098675E+02  0.30887632547E+02  0.47000000000E+01 0.  1.
<mgrwt>
<rscale>  0 0.13487146E+03</rscale>
<asrwt>0</asrwt>
<pdfrwt beam="1">  1        5 0.93038151E-02 0.13487442E+03</pdfrwt>
<pdfrwt beam="2">  1       -5 0.46823178E-01 0.13487442E+03</pdfrwt>
<totfact> 0.28630829E+02</totfact>
</mgrwt>
</event>
<event>
 8    1  0.3759079E-007  0.1447712E+03  0.7546771E-02  0.1207053E+00
         -5   -1    0    0    0  501 -0.00000000000E+00  0.00000000000E+00  0.13947390040E+03  0.13955306837E+03  0.47000000000E+01 0. -1.
          5   -1    0    0  501    0  0.00000000000E+00 -0.00000000000E+00 -0.16333248419E+03  0.16340009300E+03  0.47000000000E+01 0. -1.
         25    2    1    2    0    0 -0.66621336123E+02  0.29908872949E+02  0.31167854160E+02  0.14808828696E+03  0.12500304994E+03 0.  0.
         25    2    1    2    0    0  0.66621336123E+02 -0.29908872949E+02 -0.55026437954E+02  0.15486487441E+03  0.12498910890E+03 0.  0.
          5    1    3    3  502    0 -0.81118739364E+02  0.47559196459E+02  0.59513879965E+02  0.11138275878E+03  0.47000000000E+01 0. -1.
         -5    1    3    3    0  502  0.14497403241E+02 -0.17650323510E+02 -0.28346025805E+02  0.36705528190E+02  0.47000000000E+01 0. -1.
          5    1    4    4  503    0 -0.33711994924E+02  0.13903631673E+01 -0.32893294694E+02  0.47354942164E+02  0.47000000000E+01 0.  1.
         -5    1    4    4    0  503  0.10033333105E+03 -0.31299236116E+02 -0.22133143260E+02  0.10750993224E+03  0.47000000000E+01 0.  1.
<mgrwt>
<rscale>  0 0.14476821E+03</rscale>
<asrwt>0</asrwt>
<pdfrwt beam="2">  1        5 0.25139365E-01 0.14477122E+03</pdfrwt>
<pdfrwt beam="1">  1       -5 0.21468814E-01 0.14477122E+03</pdfrwt>
<totfact> 0.22558945E+02</totfact>
</mgrwt>
</event>
<event>
 8    1  0.3759079E-007  0.1366378E+03  0.7546771E-02  0.1217932E+00
          5   -1    0    0  501    0  0.00000000000E+00  0.00000000000E+00  0.29382939378E+02  0.29756463608E+02  0.47000000000E+01 0.  1.
         -5   -1    0    0    0  501 -0.00000000000E+00 -0.00000000000E+00 -0.69069354135E+03  0.69070953233E+03  0.47000000000E+01 0.  1.
         25    2    1    2    0    0  0.54168984957E+02 -0.10302349017E+02 -0.43657504678E+03  0.45745275841E+03  0.12499934953E+03 0.  0.
         25    2    1    2    0    0 -0.54168984957E+02  0.10302349017E+02 -0.22473555519E+03  0.26301323753E+03  0.12501790281E+03 0.  0.
          5    1    3    3  502    0  0.40951588323E+02  0.54889421632E+02 -0.25278007189E+03  0.26193460241E+03  0.47000000000E+01 0.  1.
         -5    1    3    3    0  502  0.13217396634E+02 -0.65191770649E+02 -0.18379497489E+03  0.19551815601E+03  0.47000000000E+01 0.  1.
          5    1    4    4  503    0 -0.43968326779E+02 -0.16008577852E+02 -0.12231306758E+02  0.48592007466E+02  0.47000000000E+01 0.  1.
         -5    1    4    4    0  503 -0.10200658177E+02  0.26310926868E+02 -0.21250424843E+03  0.21442123006E+03  0.47000000000E+01 0.  1.
<mgrwt>
<rscale>  0 0.13663357E+03</rscale>
<asrwt>0</asrwt>
<pdfrwt beam="1">  1        5 0.45504154E-02 0.13663782E+03</pdfrwt>
<pdfrwt beam="2">  1       -5 0.10629050E+00 0.13663782E+03</pdfrwt>
<totfact> 0.15054696E+02</totfact>
</mgrwt>
</event>
<event>
 8    1  0.3759079E-007  0.1319080E+03  0.7546771E-02  0.1224653E+00
         -5   -1    0    0    0  501 -0.00000000000E+00  0.00000000000E+00  0.16287583420E+02  0.16952149530E+02  0.47000000000E+01 0. -1.
          5   -1    0    0  501    0  0.00000000000E+00 -0.00000000000E+00 -0.10833941140E+04  0.10834043088E+04  0.47000000000E+01 0. -1.
         25    2    1    2    0    0  0.38489955712E+02  0.17109790873E+02 -0.43168606747E+03  0.45138960757E+03  0.12500198136E+03 0.  0.
         25    2    1    2    0    0 -0.38489955712E+02 -0.17109790873E+02 -0.63542046312E+03  0.64896685073E+03  0.12499834703E+03 0.  0.
          5    1    3    3  502    0  0.61031244670E+02 -0.32648704722E+02 -0.31380018267E+03  0.32137734112E+03  0.47000000000E+01 0. -1.
         -5    1    3    3    0  502 -0.22541288957E+02  0.49758495595E+02 -0.11788588480E+03  0.13001226645E+03  0.47000000000E+01 0. -1.
          5    1    4    4  503    0 -0.74735472491E+02  0.11194183606E+02 -0.50394916094E+03  0.50960528589E+03  0.47000000000E+01 0.  1.
         -5    1    4    4    0  503  0.36245516778E+02 -0.28303974480E+02 -0.13147130218E+03  0.13936156484E+03  0.47000000000E+01 0.  1.
<mgrwt>
<rscale>  0 0.13190713E+03</rscale>
<asrwt>0</asrwt>
<pdfrwt beam="2">  1        5 0.16672787E+00 0.13190799E+03</pdfrwt>
<pdfrwt beam="1">  1       -5 0.25576876E-02 0.13190799E+03</pdfrwt>
<totfact> 0.11612094E+02</totfact>
</mgrwt>
</event>
<event>
 8    1  0.3759079E-007  0.1567583E+03  0.7546771E-02  0.1192407E+00
         -5   -1    0    0    0  501 -0.00000000000E+00  0.00000000000E+00  0.41135695161E+02  0.41403326151E+02  0.47000000000E+01 0.  1.
          5   -1    0    0  501    0  0.00000000000E+00 -0.00000000000E+00 -0.91242899648E+03  0.91244110145E+03  0.47000000000E+01 0.  1.
         25    2    1    2    0    0  0.59256732423E+02  0.73725214056E+02 -0.15444426674E+03  0.22005583573E+03  0.12499908714E+03 0.  0.
         25    2    1    2    0    0 -0.59256732423E+02 -0.73725214056E+02 -0.71684903459E+03  0.73378859188E+03  0.12500556650E+03 0.  0.
          5    1    3    3  502    0  0.39682246312E+01  0.57619188278E+02 -0.15149884073E+03  0.16220267078E+03  0.47000000000E+01 0. -1.
         -5    1    3    3    0  502  0.55288507792E+02  0.16106025778E+02 -0.29454260026E+01  0.57853164949E+02  0.47000000000E+01 0. -1.
          5    1    4    4  503    0  0.31329232663E+02 -0.38906826886E+01 -0.70613054129E+02  0.77491623060E+02  0.47000000000E+01 0. -1.
         -5    1    4    4    0  503 -0.90585965086E+02 -0.69834531367E+02 -0.64623598046E+03  0.65629696882E+03  0.47000000000E+01 0. -1.
<mgrwt>
<rscale>  0 0.15675699E+03</rscale>
<asrwt>0</asrwt>
<pdfrwt beam="2">  1        5 0.14039519E+00 0.15675828E+03</pdfrwt>
<pdfrwt beam="1">  1       -5 0.63500873E-02 0.15675828E+03</pdfrwt>
<totfact> 0.44075602E+01</totfact>
</mgrwt>
</event>
<event>
 8    1  0.3759079E-007  0.1995512E+03  0.7546771E-02  0.1150120E+00
          5   -1    0    0  501    0  0.00000000000E+00  0.00000000000E+00  0.11008977194E+04  0.11009077520E+04  0.47000000000E+01 0. -1.
         -5   -1    0    0    0  501 -0.00000000000E+00 -0.00000000000E+00 -0.42738750382E+02  0.42996404318E+02  0.47000000000E+01 0. -1.
         25    2    1    2    0    0  0.15416413482E+03  0.20673679748E+02  0.30285928924E+03  0.36269055705E+03  0.12500683820E+03 0.  0.
         25    2    1    2    0    0 -0.15416413482E+03 -0.20673679748E+02  0.75529967973E+03  0.78121359930E+03  0.12499239987E+03 0.  0.
          5    1    3    3  502    0 -0.21799784701E+02  0.47890895579E+01  0.34467223493E+02  0.41330926521E+02  0.47000000000E+01 0.  1.
         -5    1    3    3    0  502  0.17596391952E+03  0.15884590190E+02  0.26839206575E+03  0.32135963053E+03  0.47000000000E+01 0.  1.
          5    1    4    4  503    0 -0.12720023996E+03 -0.63697171122E+02  0.45914141378E+03  0.48069757489E+03  0.47000000000E+01 0.  1.
         -5    1    4    4    0  503 -0.26963894859E+02  0.43023491374E+02  0.29615826594E+03  0.30051602440E+03  0.47000000000E+01 0.  1.
<mgrwt>
<rscale>  0 0.19954896E+03</rscale>
<asrwt>0</asrwt>
<pdfrwt beam="1">  1        5 0.16938948E+00 0.19955122E+03</pdfrwt>
<pdfrwt beam="2">  1       -5 0.65957834E-02 0.19955122E+03</pdfrwt>
<totfact> 0.26083233E+01</totfact>
</mgrwt>
</event>
<event>
 8    1  0.3759079E-007  0.1495867E+03  0.7546771E-02  0.1200992E+00
          5   -1    0    0  501    0  0.00000000000E+00  0.00000000000E+00  0.11278666287E+02  0.12218768891E+02  0.47000000000E+01 0. -1.
         -5   -1    0    0    0  501 -0.00000000000E+00 -0.00000000000E+00 -0.19686545369E+04  0.19686601473E+04  0.47000000000E+01 0. -1.
         25    2    1    2    0    0 -0.79583528226E+02  0.20393010413E+02 -0.11591215619E+04  0.11687298344E+04  0.12496886709E+03 0.  0.
         25    2    1    2    0    0  0.79583528226E+02 -0.20393010413E+02 -0.79825430874E+03  0.81214908183E+03  0.12500710723E+03 0.  0.
          5    1    4    4  502    0  0.97821851524E+02 -0.23400881535E+02 -0.77737783388E+03  0.78387186613E+03  0.47000000000E+01 0. -1.
         -5    1    4    4    0  502 -0.18238323298E+02  0.30078711220E+01 -0.20876474850E+02  0.28277215697E+02  0.47000000000E+01 0. -1.
          5    1    3    3  503    0 -0.56945515942E+02 -0.49021405582E+02 -0.51682455278E+03  0.52227923408E+03  0.47000000000E+01 0.  1.
         -5    1    3    3    0  503 -0.22638012284E+02  0.69414415996E+02 -0.64229700908E+03  0.64645060029E+03  0.47000000000E+01 0.  1.
<mgrwt>
<rscale>  0 0.14957874E+03</rscale>
<asrwt>0</asrwt>
<pdfrwt beam="1">  1        5 0.18079282E-02 0.14958673E+03</pdfrwt>
<pdfrwt beam="2">  1       -5 0.30294241E+00 0.14958673E+03</pdfrwt>
<totfact> 0.26655959E+01</totfact>
</mgrwt>
</event>
<event>
 8    1  0.3759079E-007  0.1377947E+03  0.7546771E-02  0.1216335E+00
         -5   -1    0    0    0  501 -0.00000000000E+00  0.00000000000E+00  0.95086605077E+03  0.95087766643E+03  0.47000000000E+01 0. -1.
          5   -1    0    0  501    0  0.00000000000E+00 -0.00000000000E+00 -0.23755573988E+02  0.24216054499E+02  0.47000000000E+01 0. -1.
         25    2    1    2    0    0 -0.57938202239E+02 -0.23537565593E+01  0.66342917969E+03  0.67758810917E+03  0.12499997511E+03 0.  0.
         25    2    1    2    0    0  0.57938202239E+02  0.23537565593E+01  0.26368129710E+03  0.29750561176E+03  0.12497754655E+03 0.  0.
          5    1    3    3  502    0 -0.53018076265E+02  0.31693750790E+02  0.14102055580E+03  0.15402693728E+03  0.47000000000E+01 0.  1.
         -5    1    3    3    0  502 -0.49201259740E+01 -0.34047507349E+02  0.52240862389E+03  0.52356117189E+03  0.47000000000E+01 0.  1.
          5    1    4    4  503    0  0.11955902070E+02 -0.23120818256E+02  0.23680822552E+03  0.23828080389E+03  0.47000000000E+01 0.  1.
         -5    1    4    4    0  503  0.45982300169E+02  0.25474574816E+02  0.26873071584E+02  0.59224807870E+02  0.47000000000E+01 0.  1.
<mgrwt>
<rscale>  0 0.13778958E+03</rscale>
<asrwt>0</asrwt>
<pdfrwt beam="2">  1        5 0.36910180E-02 0.13779466E+03</pdfrwt>
<pdfrwt beam="1">  1       -5 0.14632343E+00 0.13779466E+03</pdfrwt>
<totfact> 0.93405094E+01</totfact>
</mgrwt>
</event>
<event>
 8    1  0.3759079E-007  0.1282102E+03  0.7546771E-02  0.1230136E+00
         -5   -1    0    0    0  501 -0.00000000000E+00  0.00000000000E+00  0.21033590428E+04  0.21033642939E+04  0.47000000000E+01 0. -1.
          5   -1    0    0  501    0  0.00000000000E+00 -0.00000000000E+00 -0.10012646776E+02  0.11060881315E+02  0.47000000000E+01 0. -1.
         25    2    1    2    0    0  0.83861718482E+01  0.27256779513E+02  0.15843745846E+04  0.15895536063E+04  0.12499833259E+03 0.  0.
         25    2    1    2    0    0 -0.83861718482E+01 -0.27256779513E+02  0.50897181141E+03  0.52487156890E+03  0.12499839645E+03 0.  0.
          5    1    3    3  502    0  0.63182702299E+01  0.73235387612E+02  0.12251323739E+04  0.12273445996E+04  0.47000000000E+01 0.  1.
         -5    1    3    3    0  502  0.20679016183E+01 -0.45978608099E+02  0.35924221066E+03  0.36220900671E+03  0.47000000000E+01 0.  1.
          5    1    4    4  503    0 -0.89032615455E+01  0.36995453046E+02  0.36662008054E+03  0.36861945834E+03  0.47000000000E+01 0. -1.
         -5    1    4    4    0  503  0.51708969732E+00 -0.64252232558E+02  0.14235173087E+03  0.15625211056E+03  0.47000000000E+01 0. -1.
<mgrwt>
<rscale>  0 0.12821020E+03</rscale>
<asrwt>0</asrwt>
<pdfrwt beam="2">  1        5 0.16214441E-02 0.12821021E+03</pdfrwt>
<pdfrwt beam="1">  1       -5 0.32367483E+00 0.12821021E+03</pdfrwt>
<totfact> 0.22502461E+01</totfact>
</mgrwt>
</event>
<event>
 8    1  0.3759079E-007  0.1371973E+03  0.7546771E-02  0.1217161E+00
         -5   -1    0    0    0  501 -0.00000000000E+00  0.00000000000E+00  0.23441012293E+03  0.23445723647E+03  0.47000000000E+01 0. -1.
          5   -1    0    0  501    0  0.00000000000E+00 -0.00000000000E+00 -0.82689740611E+02  0.82823204492E+02  0.47000000000E+01 0. -1.
         25    2    1    2    0    0  0.53163581848E+02  0.19215684830E+02  0.10359847731E+03  0.17191783131E+03  0.12500994857E+03 0.  0.
         25    2    1    2    0    0 -0.53163581848E+02 -0.19215684830E+02  0.48121905013E+02  0.14536260966E+03  0.12497584393E+03 0.  0.
          5    1    3    3  502    0  0.41401705834E+02  0.20012437973E+02 -0.18039422180E+02  0.49619650061E+02  0.47000000000E+01 0. -1.
         -5    1    3    3    0  502  0.11761876014E+02 -0.79675314339E+00  0.12163789949E+03  0.12229818124E+03  0.47000000000E+01 0. -1.
          5    1    4    4  503    0 -0.75677166561E+02 -0.54343641819E+02  0.21776493197E+02  0.95794418422E+02  0.47000000000E+01 0. -1.
         -5    1    4    4    0  503  0.22513584712E+02  0.35127956989E+02  0.26345411816E+02  0.49568191238E+02  0.47000000000E+01 0. -1.
<mgrwt>
<rscale>  0 0.13718952E+03</rscale>
<asrwt>0</asrwt>
<pdfrwt beam="2">  1        5 0.12735389E-01 0.13719729E+03</pdfrwt>
<pdfrwt beam="1">  1       -5 0.36076986E-01 0.13719729E+03</pdfrwt>
<totfact> 0.28332146E+02</totfact>
</mgrwt>
</event>
<event>
 8    1  0.3759079E-007  0.1259427E+03  0.7546771E-02  0.1233607E+00
          5   -1    0    0  501    0  0.00000000000E+00  0.00000000000E+00  0.24794554855E+03  0.24799009062E+03  0.47000000000E+01 0. -1.
         -5   -1    0    0    0  501 -0.00000000000E+00 -0.00000000000E+00 -0.69299747531E+02  0.69458944765E+02  0.47000000000E+01 0. -1.
         25    2    1    2    0    0  0.31027208869E+01 -0.14978620879E+02  0.44796616014E+02  0.13366337219E+03  0.12500069719E+03 0.  0.
         25    2    1    2    0    0 -0.31027208869E+01  0.14978620879E+02  0.13384918500E+03  0.18378566320E+03  0.12501031841E+03 0.  0.
          5    1    4    4  502    0 -0.46771433418E+02 -0.24011239855E+02  0.21467163203E+02  0.56982766863E+02  0.47000000000E+01 0. -1.
         -5    1    4    4    0  502  0.43668712531E+02  0.38989860734E+02  0.11238202180E+03  0.12680289633E+03  0.47000000000E+01 0. -1.
          5    1    3    3  503    0 -0.60417659184E+02 -0.85531720483E+01  0.14790288173E+02  0.62962631120E+02  0.47000000000E+01 0.  1.
         -5    1    3    3    0  503  0.63520380071E+02 -0.64254488302E+01  0.30006327841E+02  0.70700741068E+02  0.47000000000E+01 0.  1.
<mgrwt>
<rscale>  0 0.12594032E+03</rscale>
<asrwt>0</asrwt>
<pdfrwt beam="1">  1        5 0.38161141E-01 0.12594271E+03</pdfrwt>
<pdfrwt beam="2">  1       -5 0.10677172E-01 0.12594271E+03</pdfrwt>
<totfact> 0.33496271E+02</totfact>
</mgrwt>
</event>
<event>
 8    1  0.3759079E-007  0.1321388E+03  0.7546771E-02  0.1224319E+00
         -5   -1    0    0    0  501 -0.00000000000E+00  0.00000000000E+00  0.20816961683E+02  0.21340944068E+02  0.47000000000E+01 0.  1.
          5   -1    0    0  501    0  0.00000000000E+00 -0.00000000000E+00 -0.88584656393E+03  0.88585903214E+03  0.47000000000E+01 0.  1.
         25    2    1    2    0    0 -0.30375394151E+02 -0.30219686763E+02 -0.31639128104E+03  0.34287323273E+03  0.12499086753E+03 0.  0.
         25    2    1    2    0    0  0.30375394151E+02  0.30219686763E+02 -0.54863832120E+03  0.56432674347E+03  0.12499908749E+03 0.  0.
          5    1    3    3  502    0 -0.18889700180E+02  0.43298413612E+02 -0.63904052840E+02  0.79607734320E+02  0.47000000000E+01 0. -1.
         -5    1    3    3    0  502 -0.11485693971E+02 -0.73518100376E+02 -0.25248722820E+03  0.26326549841E+03  0.47000000000E+01 0. -1.
          5    1    4    4  503    0 -0.48388256003E+02  0.32266613086E+01 -0.20740011563E+03  0.21304631568E+03  0.47000000000E+01 0.  1.
         -5    1    4    4    0  503  0.78763650154E+02  0.26993025455E+02 -0.34123820557E+03  0.35128042779E+03  0.47000000000E+01 0.  1.
<mgrwt>
<rscale>  0 0.13213687E+03</rscale>
<asrwt>0</asrwt>
<pdfrwt beam="2">  1        5 0.13632532E+00 0.13213881E+03</pdfrwt>
<pdfrwt beam="1">  1       -5 0.32438756E-02 0.13213881E+03</pdfrwt>
<totfact> 0.13743692E+02</totfact>
</mgrwt>
</event>
<event>
 8    1  0.3759079E-007  0.1270573E+03  0.7546771E-02  0.1231889E+00
         -5   -1    0    0    0  501 -0.00000000000E+00  0.00000000000E+00  0.85011643655E+03  0.85012942879E+03  0.47000000000E+01 0.  1.
          5   -1    0    0  501    0  0.00000000000E+00 -0.00000000000E+00 -0.21643977732E+02  0.22148403375E+02  0.47000000000E+01 0.  1.
         25    2    1    2    0    0  0.46285839906E+01  0.22272615855E+02  0.57345035380E+03  0.58735709531E+03  0.12500222371E+03 0.  0.
         25    2    1    2    0    0 -0.46285839906E+01 -0.22272615855E+02  0.25502210501E+03  0.28492073685E+03  0.12500423607E+03 0.  0.
          5    1    4    4  502    0 -0.47763794269E+02  0.31809796162E+02  0.10903893420E+03  0.12330783571E+03  0.47000000000E+01 0.  1.
         -5    1    4    4    0  502  0.43135210278E+02 -0.54082412017E+02  0.14598317081E+03  0.16161290114E+03  0.47000000000E+01 0.  1.
          5    1    3    3  503    0  0.49647980546E+02  0.21203088021E+02  0.48474727921E+03  0.48776685785E+03  0.47000000000E+01 0. -1.
         -5    1    3    3    0  503 -0.45019396556E+02  0.10695278340E+01  0.88703074593E+02  0.99590237465E+02  0.47000000000E+01 0. -1.
<mgrwt>
<rscale>  0 0.12705678E+03</rscale>
<asrwt>0</asrwt>
<pdfrwt beam="2">  1        5 0.33696440E-02 0.12705728E+03</pdfrwt>
<pdfrwt beam="1">  1       -5 0.13082695E+00 0.12705728E+03</pdfrwt>
<totfact> 0.14200455E+02</totfact>
</mgrwt>
</event>
<event>
 8    1  0.3759079E-007  0.1255989E+03  0.7546771E-02  0.1234143E+00
          5   -1    0    0  501    0  0.00000000000E+00  0.00000000000E+00  0.57862491459E+03  0.57864400263E+03  0.47000000000E+01 0. -1.
         -5   -1    0    0    0  501 -0.00000000000E+00 -0.00000000000E+00 -0.27637484353E+02  0.28034274404E+02  0.47000000000E+01 0. -1.
         25    2    1    2    0    0  0.91934276055E+01  0.80558503508E+01  0.23112996074E+03  0.26305159515E+03  0.12500266845E+03 0.  0.
         25    2    1    2    0    0 -0.91934276055E+01 -0.80558503508E+01  0.31985746949E+03  0.34362668189E+03  0.12498431854E+03 0.  0.
          5    1    3    3  502    0 -0.23480411215E+02  0.42648921873E+01 -0.48010492568E+01  0.24792319176E+02  0.47000000000E+01 0.  1.
         -5    1    3    3    0  502  0.32673838820E+02  0.37909581635E+01  0.23593101000E+03  0.23825927597E+03  0.47000000000E+01 0.  1.
          5    1    4    4  503    0  0.59337838254E+01  0.44055811415E+02  0.45015323001E+02  0.63439684857E+02  0.47000000000E+01 0.  1.
         -5    1    4    4    0  503 -0.15127211431E+02 -0.52111661766E+02  0.27484214649E+03  0.28018699703E+03  0.47000000000E+01 0.  1.
<mgrwt>
<rscale>  0 0.12559433E+03</rscale>
<asrwt>0</asrwt>
<pdfrwt beam="1">  1        5 0.89051202E-01 0.12559890E+03</pdfrwt>
<pdfrwt beam="2">  1       -5 0.42839116E-02 0.12559890E+03</pdfrwt>
<totfact> 0.24769724E+02</totfact>
</mgrwt>
</event>
<event>
 8    1  0.3759079E-007  0.1437653E+03  0.7546771E-02  0.1208352E+00
          5   -1    0    0  501    0  0.00000000000E+00  0.00000000000E+00  0.53688869411E+03  0.53690926595E+03  0.47000000000E+01 0.  1.
         -5   -1    0    0    0  501 -0.00000000000E+00 -0.00000000000E+00 -0.63745606492E+02  0.63918638495E+02  0.47000000000E+01 0.  1.
         25    2    1    2    0    0  0.85583845116E+01  0.70499508519E+02  0.47254536813E+02  0.15132872965E+03  0.12499586601E+03 0.  0.
         25    2    1    2    0    0 -0.85583845116E+01 -0.70499508519E+02  0.42588855081E+03  0.44949917480E+03  0.12500009516E+03 0.  0.
          5    1    4    4  502    0 -0.29357168317E+02  0.28507415481E+02  0.97369321128E+02  0.10572317989E+03  0.47000000000E+01 0.  1.
         -5    1    4    4    0  502  0.20798783805E+02 -0.99006924001E+02  0.32851922968E+03  0.34377599491E+03  0.47000000000E+01 0.  1.
          5    1    3    3  503    0  0.17071017687E+02 -0.34225746400E+02  0.10887631600E+02  0.40043125294E+02  0.47000000000E+01 0.  1.
         -5    1    3    3    0  503 -0.85126331758E+01  0.10472525492E+03  0.36366905214E+02  0.11128560435E+03  0.47000000000E+01 0.  1.
<mgrwt>
<rscale>  0 0.14376434E+03</rscale>
<asrwt>0</asrwt>
<pdfrwt beam="1">  1        5 0.82613156E-01 0.14376526E+03</pdfrwt>
<pdfrwt beam="2">  1       -5 0.98219086E-02 0.14376526E+03</pdfrwt>
<totfact> 0.76004972E+01</totfact>
</mgrwt>
</event>
<event>
 8    1  0.3759079E-007  0.1313650E+03  0.7546771E-02  0.1225470E+00
         -5   -1    0    0    0  501 -0.00000000000E+00  0.00000000000E+00  0.12830261595E+03  0.12838867263E+03  0.47000000000E+01 0.  1.
          5   -1    0    0  501    0  0.00000000000E+00 -0.00000000000E+00 -0.13483048957E+03  0.13491238237E+03  0.47000000000E+01 0.  1.
         25    2    1    2    0    0  0.38162663377E+02 -0.12555631385E+02  0.53189410020E+01  0.13140298144E+03  0.12499767854E+03 0.  0.
         25    2    1    2    0    0 -0.38162663377E+02  0.12555631385E+02 -0.11846814625E+02  0.13189807356E+03  0.12507086806E+03 0.  0.
          5    1    4    4  502    0  0.11187428120E+02  0.58974227670E+02 -0.20120721708E+02  0.63482686768E+02  0.47000000000E+01 0. -1.
         -5    1    4    4    0  502 -0.49350091498E+02 -0.46418596285E+02  0.82739070826E+01  0.68415386795E+02  0.47000000000E+01 0. -1.
          5    1    3    3  503    0  0.41452453967E+02  0.97942696245E+01 -0.53309305186E+02  0.68397409869E+02  0.47000000000E+01 0. -1.
         -5    1    3    3    0  503 -0.32897905900E+01 -0.22349901010E+02  0.58628246188E+02  0.63005571566E+02  0.47000000000E+01 0. -1.
<mgrwt>
<rscale>  0 0.13134754E+03</rscale>
<asrwt>0</asrwt>
<pdfrwt beam="2">  1        5 0.20756072E-01 0.13136497E+03</pdfrwt>
<pdfrwt beam="1">  1       -5 0.19751783E-01 0.13136497E+03</pdfrwt>
<totfact> 0.36672453E+02</totfact>
</mgrwt>
</event>
<event>
 8    1  0.3759079E-007  0.1388777E+03  0.7546771E-02  0.1214847E+00
          5   -1    0    0  501    0  0.00000000000E+00  0.00000000000E+00  0.18512901360E+03  0.18518866508E+03  0.47000000000E+01 0.  1.
         -5   -1    0    0    0  501 -0.00000000000E+00 -0.00000000000E+00 -0.10519591634E+03  0.10530085857E+03  0.47000000000E+01 0.  1.
         25    2    1    2    0    0  0.41506575028E+02 -0.44045750298E+02  0.24829624505E+02  0.14107934235E+03  0.12499618673E+03 0.  0.
         25    2    1    2    0    0 -0.41506575028E+02  0.44045750298E+02  0.55103472750E+02  0.14941018130E+03  0.12499674266E+03 0.  0.
          5    1    4    4  502    0 -0.16989497121E+02  0.52851189880E+02  0.89854730091E+02  0.10572536973E+03  0.47000000000E+01 0.  1.
         -5    1    4    4    0  502 -0.24517077907E+02 -0.88054395825E+01 -0.34751257341E+02  0.43684811572E+02  0.47000000000E+01 0.  1.
          5    1    3    3  503    0  0.65122101109E+02 -0.65804685728E+02 -0.10280096831E+02  0.93267974715E+02  0.47000000000E+01 0. -1.
         -5    1    3    3    0  503 -0.23615526081E+02  0.21758935430E+02  0.35109721336E+02  0.47811367639E+02  0.47000000000E+01 0. -1.
<mgrwt>
<rscale>  0 0.13887755E+03</rscale>
<asrwt>0</asrwt>
<pdfrwt beam="1">  1        5 0.28494047E-01 0.13887768E+03</pdfrwt>
<pdfrwt beam="2">  1       -5 0.16196648E-01 0.13887768E+03</pdfrwt>
<totfact> 0.29430738E+02</totfact>
</mgrwt>
</event>
<event>
 8    1  0.3759079E-007  0.1607888E+03  0.7546771E-02  0.1187810E+00
         -5   -1    0    0    0  501 -0.00000000000E+00  0.00000000000E+00  0.15314546322E+03  0.15321756722E+03  0.47000000000E+01 0. -1.
          5   -1    0    0  501    0  0.00000000000E+00 -0.00000000000E+00 -0.19450506014E+03  0.19456183700E+03  0.47000000000E+01 0. -1.
         25    2    1    2    0    0 -0.41480134624E+02  0.92229178369E+02  0.42678713518E+02  0.16635320353E+03  0.12500037130E+03 0.  0.
         25    2    1    2    0    0  0.41480134624E+02 -0.92229178369E+02 -0.84038310432E+02  0.18142620069E+03  0.12500482298E+03 0.  0.
          5    1    3    3  502    0 -0.71249043407E+02  0.67439358465E+02  0.68335756518E+02  0.11965098778E+03  0.47000000000E+01 0.  1.
         -5    1    3    3    0  502  0.29768908783E+02  0.24789819903E+02 -0.25657043001E+02  0.46702215755E+02  0.47000000000E+01 0.  1.
          5    1    4    4  503    0  0.37765065611E+02 -0.11731701016E+03 -0.38699836416E+02  0.12926425798E+03  0.47000000000E+01 0.  1.
         -5    1    4    4    0  503  0.37150690134E+01  0.25087831788E+02 -0.45338474016E+02  0.52161942714E+02  0.47000000000E+01 0.  1.
<mgrwt>
<rscale>  0 0.16078791E+03</rscale>
<asrwt>0</asrwt>
<pdfrwt beam="2">  1        5 0.29933769E-01 0.16078877E+03</pdfrwt>
<pdfrwt beam="1">  1       -5 0.23570754E-01 0.16078877E+03</pdfrwt>
<totfact> 0.13931459E+02</totfact>
</mgrwt>
</event>
<event>
 8    1  0.3759079E-007  0.1445933E+03  0.7546771E-02  0.1207279E+00
         -5   -1    0    0    0  501 -0.00000000000E+00  0.00000000000E+00  0.34627920713E+03  0.34631110189E+03  0.47000000000E+01 0.  1.
          5   -1    0    0  501    0  0.00000000000E+00 -0.00000000000E+00 -0.61805536920E+02  0.61983984979E+02  0.47000000000E+01 0.  1.
         25    2    1    2    0    0  0.47103762357E+01 -0.72520149958E+02  0.17456539667E+03  0.22667169332E+03  0.12500247615E+03 0.  0.
         25    2    1    2    0    0 -0.47103762357E+01  0.72520149958E+02  0.10990827354E+03  0.18162339355E+03  0.12500347474E+03 0.  0.
          5    1    3    3  502    0  0.64350136251E+02 -0.33221496597E+02  0.96742664481E+02  0.12093734329E+03  0.47000000000E+01 0.  1.
         -5    1    3    3    0  502 -0.59639760015E+02 -0.39298653361E+02  0.77822732189E+02  0.10573435003E+03  0.47000000000E+01 0.  1.
          5    1    4    4  503    0  0.53726319900E+02  0.42304939431E+02  0.22538281298E+02  0.72154621987E+02  0.47000000000E+01 0. -1.
         -5    1    4    4    0  503 -0.58436696135E+02  0.30215210527E+02  0.87369992245E+02  0.10946877156E+03  0.47000000000E+01 0. -1.
<mgrwt>
<rscale>  0 0.14459311E+03</rscale>
<asrwt>0</asrwt>
<pdfrwt beam="2">  1        5 0.95247246E-02 0.14459332E+03</pdfrwt>
<pdfrwt beam="1">  1       -5 0.53289903E-01 0.14459332E+03</pdfrwt>
<totfact> 0.21390012E+02</totfact>
</mgrwt>
</event>
<event>
 8    1  0.3759079E-007  0.1269255E+03  0.7546771E-02  0.1232095E+00
          5   -1    0    0  501    0  0.00000000000E+00  0.00000000000E+00  0.36212435807E+03  0.36215485736E+03  0.47000000000E+01 0.  1.
         -5   -1    0    0    0  501 -0.00000000000E+00 -0.00000000000E+00 -0.44523000505E+02  0.44770387244E+02  0.47000000000E+01 0.  1.
         25    2    1    2    0    0  0.18563545272E+02  0.11813538917E+02  0.17228252179E+03  0.21398915307E+03  0.12500370155E+03 0.  0.
         25    2    1    2    0    0 -0.18563545272E+02 -0.11813538917E+02  0.14531883577E+03  0.19293609153E+03  0.12499042552E+03 0.  0.
          5    1    3    3  502    0 -0.38030560502E+01 -0.19986294464E+02 -0.13010941961E+02  0.24602638323E+02  0.47000000000E+01 0.  1.
         -5    1    3    3    0  502  0.22366601322E+02  0.31799833381E+02  0.18529346375E+03  0.18938651475E+03  0.47000000000E+01 0.  1.
          5    1    4    4  503    0  0.10414804815E+02  0.44734834054E+02  0.11176487460E+03  0.12092622020E+03  0.47000000000E+01 0. -1.
         -5    1    4    4    0  503 -0.28978350087E+02 -0.56548372971E+02  0.33553961175E+02  0.72009871337E+02  0.47000000000E+01 0. -1.
<mgrwt>
<rscale>  0 0.12692226E+03</rscale>
<asrwt>0</asrwt>
<pdfrwt beam="1">  1        5 0.55732815E-01 0.12692553E+03</pdfrwt>
<pdfrwt beam="2">  1       -5 0.68710683E-02 0.12692553E+03</pdfrwt>
<totfact> 0.32519733E+02</totfact>
</mgrwt>
</event>
<event>
 8    1  0.3759079E-007  0.1553192E+03  0.7546771E-02  0.1194086E+00
          5   -1    0    0  501    0  0.00000000000E+00  0.00000000000E+00  0.22164982681E+04  0.22165032512E+04  0.47000000000E+01 0.  1.
         -5   -1    0    0    0  501 -0.00000000000E+00 -0.00000000000E+00 -0.13575790266E+02  0.14366352402E+02  0.47000000000E+01 0.  1.
         25    2    1    2    0    0 -0.13928164275E+02 -0.91120236436E+02  0.57677860463E+03  0.59732539542E+03  0.12500871174E+03 0.  0.
         25    2    1    2    0    0  0.13928164275E+02  0.91120236436E+02  0.16261438732E+04  0.16335442081E+04  0.12500356954E+03 0.  0.
          5    1    3    3  502    0 -0.40682231455E+01  0.23857674672E+02  0.24061342938E+03  0.24187321364E+03  0.47000000000E+01 0. -1.
         -5    1    3    3    0  502 -0.98599411293E+01 -0.11497791111E+03  0.33616517525E+03  0.35545218178E+03  0.47000000000E+01 0. -1.
          5    1    4    4  503    0  0.47254056903E+02 -0.57333576731E+01  0.72725557360E+03  0.72882684954E+03  0.47000000000E+01 0.  1.
         -5    1    4    4    0  503 -0.33325892628E+02  0.96853594109E+02  0.89888829959E+03  0.90471735860E+03  0.47000000000E+01 0.  1.
<mgrwt>
<rscale>  0 0.15531821E+03</rscale>
<asrwt>0</asrwt>
<pdfrwt beam="1">  1        5 0.34106064E+00 0.15531925E+03</pdfrwt>
<pdfrwt beam="2">  1       -5 0.21497807E-02 0.15531925E+03</pdfrwt>
<totfact> 0.11601930E+01</totfact>
</mgrwt>
</event>
<event>
 8    1  0.3759079E-007  0.1510826E+03  0.7546771E-02  0.1199149E+00
          5   -1    0    0  501    0  0.00000000000E+00  0.00000000000E+00  0.24128484876E+03  0.24133062019E+03  0.47000000000E+01 0. -1.
         -5   -1    0    0    0  501 -0.00000000000E+00 -0.00000000000E+00 -0.94492680549E+02  0.94609495704E+02  0.47000000000E+01 0. -1.
         25    2    1    2    0    0 -0.58079579489E+02 -0.61868048404E+02  0.72183094801E+02  0.16744056906E+03  0.12500020810E+03 0.  0.
         25    2    1    2    0    0  0.58079579489E+02  0.61868048404E+02  0.74609073409E+02  0.16849954683E+03  0.12499876191E+03 0.  0.
          5    1    3    3  502    0 -0.11074541966E+01  0.27341539438E+02 -0.13783913208E+02  0.30997943431E+02  0.47000000000E+01 0. -1.
         -5    1    3    3    0  502 -0.56972125293E+02 -0.89209587842E+02  0.85967008009E+02  0.13644262563E+03  0.47000000000E+01 0. -1.
          5    1    4    4  503    0 -0.12466876837E+02  0.33122047231E+02  0.84314714419E+02  0.91561750193E+02  0.47000000000E+01 0.  1.
         -5    1    4    4    0  503  0.70546456327E+02  0.28746001172E+02 -0.97056410107E+01  0.76937796635E+02  0.47000000000E+01 0.  1.
<mgrwt>
<rscale>  0 0.15108228E+03</rscale>
<asrwt>0</asrwt>
<pdfrwt beam="1">  1        5 0.37133252E-01 0.15108258E+03</pdfrwt>
<pdfrwt beam="2">  1       -5 0.14549842E-01 0.15108258E+03</pdfrwt>
<totfact> 0.21737103E+02</totfact>
</mgrwt>
</event>
<event>
 8    1  0.3759079E-007  0.1252659E+03  0.7546771E-02  0.1234655E+00
         -5   -1    0    0    0  501 -0.00000000000E+00  0.00000000000E+00  0.27879335493E+02  0.28272731519E+02  0.47000000000E+01 0.  1.
          5   -1    0    0  501    0  0.00000000000E+00 -0.00000000000E+00 -0.55848825221E+03  0.55850802846E+03  0.47000000000E+01 0.  1.
         25    2    1    2    0    0 -0.78965112913E+01  0.20438797096E+01 -0.26520639817E+03  0.29330186173E+03  0.12500006452E+03 0.  0.
         25    2    1    2    0    0  0.78965112913E+01 -0.20438797096E+01 -0.26540251855E+03  0.29347889825E+03  0.12499933812E+03 0.  0.
          5    1    3    3  502    0 -0.61620359581E+02  0.19836024552E+02 -0.17565278556E+03  0.18726058758E+03  0.47000000000E+01 0.  1.
         -5    1    3    3    0  502  0.53723848289E+02 -0.17792144842E+02 -0.89553612611E+02  0.10604127416E+03  0.47000000000E+01 0.  1.
          5    1    4    4  503    0 -0.16397884330E+02 -0.44344827473E+02 -0.37954311395E+02  0.60810970125E+02  0.47000000000E+01 0. -1.
         -5    1    4    4    0  503  0.24294395622E+02  0.42300947763E+02 -0.22744820715E+03  0.23266792812E+03  0.47000000000E+01 0. -1.
<mgrwt>
<rscale>  0 0.12526573E+03</rscale>
<asrwt>0</asrwt>
<pdfrwt beam="2">  1        5 0.85953044E-01 0.12526591E+03</pdfrwt>
<pdfrwt beam="1">  1       -5 0.43209114E-02 0.12526591E+03</pdfrwt>
<totfact> 0.26518028E+02</totfact>
</mgrwt>
</event>
<event>
 8    1  0.3759079E-007  0.1355255E+03  0.7546771E-02  0.1219484E+00
          5   -1    0    0  501    0  0.00000000000E+00  0.00000000000E+00  0.10567897087E+02  0.11565917553E+02  0.47000000000E+01 0. -1.
         -5   -1    0    0    0  501 -0.00000000000E+00 -0.00000000000E+00 -0.18426049859E+04  0.18426109802E+04  0.47000000000E+01 0. -1.
         25    2    1    2    0    0  0.42091543687E+02 -0.31107647476E+02 -0.12090332046E+04  0.12166052945E+04  0.12501107454E+03 0.  0.
         25    2    1    2    0    0 -0.42091543687E+02  0.31107647476E+02 -0.62300388421E+03  0.63757160327E+03  0.12499730306E+03 0.  0.
          5    1    4    4  502    0 -0.11145941070E+02  0.78035677734E+02 -0.34921308357E+03  0.35803025953E+03  0.47000000000E+01 0. -1.
         -5    1    4    4    0  502 -0.30945602617E+02 -0.46928030258E+02 -0.27379080064E+03  0.27954134374E+03  0.47000000000E+01 0. -1.
          5    1    3    3  503    0  0.28955405148E+01 -0.71394042594E+02 -0.86704977734E+03  0.87000166659E+03  0.47000000000E+01 0. -1.
         -5    1    3    3    0  503  0.39196003172E+02  0.40286395118E+02 -0.34198342731E+03  0.34660362786E+03  0.47000000000E+01 0. -1.
<mgrwt>
<rscale>  0 0.13552229E+03</rscale>
<asrwt>0</asrwt>
<pdfrwt beam="1">  1        5 0.17030637E-02 0.13552547E+03</pdfrwt>
<pdfrwt beam="2">  1       -5 0.28355468E+00 0.13552547E+03</pdfrwt>
<totfact> 0.37911636E+01</totfact>
</mgrwt>
</event>
<event>
 8    1  0.3759079E-007  0.1257847E+03  0.7546771E-02  0.1233849E+00
          5   -1    0    0  501    0  0.00000000000E+00  0.00000000000E+00  0.57354870879E+03  0.57356796577E+03  0.47000000000E+01 0. -1.
         -5   -1    0    0    0  501 -0.00000000000E+00 -0.00000000000E+00 -0.27633129746E+02  0.28029981441E+02  0.47000000000E+01 0. -1.
         25    2    1    2    0    0 -0.13117419371E+02  0.49834903810E+01  0.24356284729E+03  0.27412524589E+03  0.12499955194E+03 0.  0.
         25    2    1    2    0    0  0.13117419371E+02 -0.49834903810E+01  0.30235273175E+03  0.32747270132E+03  0.12499717534E+03 0.  0.
          5    1    3    3  502    0  0.32695737073E+02 -0.26205980731E+02  0.25935679441E+02  0.49502667776E+02  0.47000000000E+01 0.  1.
         -5    1    3    3    0  502 -0.45813156444E+02  0.31189471112E+02  0.21762716785E+03  0.22462257811E+03  0.47000000000E+01 0.  1.
          5    1    4    4  503    0  0.13598595867E+02 -0.35244031194E+02  0.19139740452E+02  0.42608487522E+02  0.47000000000E+01 0. -1.
         -5    1    4    4    0  503 -0.48117649572E+00  0.30260540813E+02  0.28321299130E+03  0.28486421380E+03  0.47000000000E+01 0. -1.
<mgrwt>
<rscale>  0 0.12578411E+03</rscale>
<asrwt>0</asrwt>
<pdfrwt beam="1">  1        5 0.88270273E-01 0.12578470E+03</pdfrwt>
<pdfrwt beam="2">  1       -5 0.42832590E-02 0.12578470E+03</pdfrwt>
<totfact> 0.25309548E+02</totfact>
</mgrwt>
</event>
<event>
 8    1  0.3759079E-007  0.1613989E+03  0.7546771E-02  0.1187128E+00
         -5   -1    0    0    0  501 -0.00000000000E+00  0.00000000000E+00  0.14368017876E+03  0.14375703032E+03  0.47000000000E+01 0.  1.
          5   -1    0    0  501    0  0.00000000000E+00 -0.00000000000E+00 -0.19529122191E+03  0.19534777028E+03  0.47000000000E+01 0.  1.
         25    2    1    2    0    0 -0.97490796894E+02 -0.30343771356E+02  0.19819284351E+02  0.16261125139E+03  0.12499766041E+03 0.  0.
         25    2    1    2    0    0  0.97490796894E+02  0.30343771356E+02 -0.71430327503E+02  0.17649354922E+03  0.12498992475E+03 0.  0.
          5    1    4    4  502    0  0.11012157971E+03 -0.17010006238E+02 -0.42248139894E+02  0.11926063036E+03  0.47000000000E+01 0. -1.
         -5    1    4    4    0  502 -0.12630782816E+02  0.47353777594E+02 -0.29182187609E+02  0.57232918854E+02  0.47000000000E+01 0. -1.
          5    1    3    3  503    0  0.29893652541E+02 -0.43524577052E+00  0.69157660383E+01  0.31044125387E+02  0.47000000000E+01 0.  1.
         -5    1    3    3    0  503 -0.12738444944E+03 -0.29908525585E+02  0.12903518313E+02  0.13156712601E+03  0.47000000000E+01 0.  1.
<mgrwt>
<rscale>  0 0.16139743E+03</rscale>
<asrwt>0</asrwt>
<pdfrwt beam="2">  1        5 0.30055065E-01 0.16139893E+03</pdfrwt>
<pdfrwt beam="1">  1       -5 0.22114904E-01 0.16139893E+03</pdfrwt>
<totfact> 0.15619309E+02</totfact>
</mgrwt>
</event>
<event>
 8    1  0.3759079E-007  0.1915686E+03  0.7546771E-02  0.1157065E+00
         -5   -1    0    0    0  501 -0.00000000000E+00  0.00000000000E+00  0.17138899843E+04  0.17138964287E+04  0.47000000000E+01 0. -1.
          5   -1    0    0  501    0  0.00000000000E+00 -0.00000000000E+00 -0.24033369911E+02  0.24488627345E+02  0.47000000000E+01 0. -1.
         25    2    1    2    0    0  0.69183991369E+02  0.12754809437E+03  0.11434364964E+04  0.11593729152E+04  0.12507435443E+03 0.  0.
         25    2    1    2    0    0 -0.69183991369E+02 -0.12754809437E+03  0.54642011798E+03  0.57901214084E+03  0.12500069146E+03 0.  0.
          5    1    4    4  502    0 -0.84570287392E+02 -0.10287299226E+03  0.27067957297E+03  0.30170268025E+03  0.47000000000E+01 0. -1.
         -5    1    4    4    0  502  0.15386296023E+02 -0.24675102106E+02  0.27574054501E+03  0.27730946059E+03  0.47000000000E+01 0. -1.
          5    1    3    3  503    0 -0.21079248121E+01 -0.21521913729E+02  0.74079469751E+02  0.77314254547E+02  0.47000000000E+01 0.  1.
         -5    1    3    3    0  503  0.71291916181E+02  0.14907000810E+03  0.10693570266E+04  0.10820586606E+04  0.47000000000E+01 0.  1.
<mgrwt>
<rscale>  0 0.19155659E+03</rscale>
<asrwt>0</asrwt>
<pdfrwt beam="2">  1        5 0.37329567E-02 0.19156862E+03</pdfrwt>
<pdfrwt beam="1">  1       -5 0.26371092E+00 0.19156862E+03</pdfrwt>
<totfact> 0.15536637E+01</totfact>
</mgrwt>
</event>
<event>
 8    1  0.3759079E-007  0.1491815E+03  0.7546771E-02  0.1201483E+00
         -5   -1    0    0    0  501 -0.00000000000E+00  0.00000000000E+00  0.25607661319E+03  0.25611974119E+03  0.47000000000E+01 0.  1.
          5   -1    0    0  501    0  0.00000000000E+00 -0.00000000000E+00 -0.88340369578E+02  0.88465309004E+02  0.47000000000E+01 0.  1.
         25    2    1    2    0    0  0.59373588418E+02  0.55722453340E+02  0.10664981698E+03  0.18338292604E+03  0.12499959717E+03 0.  0.
         25    2    1    2    0    0 -0.59373588418E+02 -0.55722453340E+02  0.61086426638E+02  0.16120212415E+03  0.12499743399E+03 0.  0.
          5    1    4    4  502    0 -0.35750861152E+02 -0.13039395387E+02 -0.35905906265E+02  0.52530695882E+02  0.47000000000E+01 0. -1.
         -5    1    4    4    0  502 -0.23622727266E+02 -0.42683057953E+02  0.96992332903E+02  0.10867142827E+03  0.47000000000E+01 0. -1.
          5    1    3    3  503    0 -0.35124444711E+02 -0.40265019629E+00  0.44990588662E+02  0.57272435007E+02  0.47000000000E+01 0. -1.
         -5    1    3    3    0  503  0.94498033128E+02  0.56125103536E+02  0.61659228316E+02  0.12611049103E+03  0.47000000000E+01 0. -1.
<mgrwt>
<rscale>  0 0.14918103E+03</rscale>
<asrwt>0</asrwt>
<pdfrwt beam="2">  1        5 0.13603755E-01 0.14918148E+03</pdfrwt>
<pdfrwt beam="1">  1       -5 0.39409329E-01 0.14918148E+03</pdfrwt>
<totfact> 0.21649188E+02</totfact>
</mgrwt>
</event>
<event>
 8    1  0.3759079E-007  0.1342073E+03  0.7546771E-02  0.1221345E+00
         -5   -1    0    0    0  501 -0.00000000000E+00  0.00000000000E+00  0.14150836887E+04  0.14150914939E+04  0.47000000000E+01 0. -1.
          5   -1    0    0  501    0  0.00000000000E+00 -0.00000000000E+00 -0.62247545557E+02  0.62424730099E+02  0.47000000000E+01 0. -1.
         25    2    1    2    0    0  0.13187922940E+02 -0.47038692994E+02  0.13354670187E+04  0.13421936380E+04  0.12500017634E+03 0.  0.
         25    2    1    2    0    0 -0.13187922940E+02  0.47038692994E+02  0.17369124454E+02  0.13532258591E+03  0.12499582322E+03 0.  0.
          5    1    3    3  502    0  0.15190030118E+02 -0.88203111893E+02  0.10356446007E+04  0.10395154424E+04  0.47000000000E+01 0.  1.
         -5    1    3    3    0  502 -0.20021071780E+01  0.41164418900E+02  0.29982241797E+03  0.30267819567E+03  0.47000000000E+01 0.  1.
          5    1    4    4  503    0  0.53347264358E+02  0.23247034467E+01  0.25499872348E+01  0.53664954071E+02  0.47000000000E+01 0. -1.
         -5    1    4    4    0  503 -0.66535187298E+02  0.44713989547E+02  0.14819137219E+02  0.81657631841E+02  0.47000000000E+01 0. -1.
<mgrwt>
<rscale>  0 0.13420630E+03</rscale>
<asrwt>0</asrwt>
<pdfrwt beam="2">  1        5 0.95907759E-02 0.13420732E+03</pdfrwt>
<pdfrwt beam="1">  1       -5 0.21771940E+00 0.13420732E+03</pdfrwt>
<totfact> 0.57646862E+00</totfact>
</mgrwt>
</event>
<event>
 8    1  0.3759079E-007  0.1316218E+03  0.7546771E-02  0.1225087E+00
         -5   -1    0    0    0  501 -0.00000000000E+00  0.00000000000E+00  0.65120809467E+02  0.65290197010E+02  0.47000000000E+01 0. -1.
          5   -1    0    0  501    0  0.00000000000E+00 -0.00000000000E+00 -0.26593421030E+03  0.26597573988E+03  0.47000000000E+01 0. -1.
         25    2    1    2    0    0  0.38864101062E+02 -0.13335353237E+02 -0.92994766031E+02  0.16115929208E+03  0.12504415588E+03 0.  0.
         25    2    1    2    0    0 -0.38864101062E+02  0.13335353237E+02 -0.10781863480E+03  0.17010664481E+03  0.12499265019E+03 0.  0.
          5    1    3    3  502    0  0.63587775722E+02  0.36529405624E+02 -0.67422846682E+02  0.99728295640E+02  0.47000000000E+01 0.  1.
         -5    1    3    3    0  502 -0.24723674659E+02 -0.49864758861E+02 -0.25571919349E+02  0.61430996444E+02  0.47000000000E+01 0.  1.
          5    1    4    4  503    0 -0.69187536682E+02  0.14211031161E+02 -0.11813619124E+03  0.13772116148E+03  0.47000000000E+01 0.  1.
         -5    1    4    4    0  503  0.30323435619E+02 -0.87567792433E+00  0.10317556440E+02  0.32385483329E+02  0.47000000000E+01 0.  1.
<mgrwt>
<rscale>  0 0.13160954E+03</rscale>
<asrwt>0</asrwt>
<pdfrwt beam="2">  1        5 0.40929179E-01 0.13162177E+03</pdfrwt>
<pdfrwt beam="1">  1       -5 0.10034811E-01 0.13162177E+03</pdfrwt>
<totfact> 0.32893970E+02</totfact>
</mgrwt>
</event>
<event>
 8    1  0.3759079E-007  0.1257998E+03  0.7546771E-02  0.1233825E+00
          5   -1    0    0  501    0  0.00000000000E+00  0.00000000000E+00  0.17722701133E+03  0.17728932157E+03  0.47000000000E+01 0. -1.
         -5   -1    0    0    0  501 -0.00000000000E+00 -0.00000000000E+00 -0.11775162463E+03  0.11784538643E+03  0.47000000000E+01 0. -1.
         25    2    1    2    0    0  0.14131810838E+02  0.10466906233E+01 -0.42930663016E+02  0.13292344646E+03  0.12499918861E+03 0.  0.
         25    2    1    2    0    0 -0.14131810838E+02 -0.10466906233E+01  0.10240604971E+03  0.16221126155E+03  0.12499876286E+03 0.  0.
          5    1    4    4  502    0 -0.96556949968E+01  0.47999549797E+02  0.10143118438E+03  0.11272783326E+03  0.47000000000E+01 0. -1.
         -5    1    4    4    0  502 -0.44761158407E+01 -0.49046240420E+02  0.97486532728E+00  0.49483428284E+02  0.47000000000E+01 0. -1.
          5    1    3    3  503    0  0.89495497284E+00 -0.82840829599E+01 -0.86072750665E+02  0.86602744656E+02  0.47000000000E+01 0. -1.
         -5    1    3    3    0  503  0.13236855865E+02  0.93307735833E+01  0.43142087649E+02  0.46320701803E+02  0.47000000000E+01 0. -1.
<mgrwt>
<rscale>  0 0.12579974E+03</rscale>
<asrwt>0</asrwt>
<pdfrwt beam="1">  1        5 0.27277699E-01 0.12579984E+03</pdfrwt>
<pdfrwt beam="2">  1       -5 0.18127640E-01 0.12579984E+03</pdfrwt>
<totfact> 0.25162236E+02</totfact>
</mgrwt>
</event>
<event>
 8    1  0.3759079E-007  0.1262957E+03  0.7546771E-02  0.1233059E+00
         -5   -1    0    0    0  501 -0.00000000000E+00  0.00000000000E+00  0.15619384846E+03  0.15626454587E+03  0.47000000000E+01 0. -1.
          5   -1    0    0  501    0  0.00000000000E+00 -0.00000000000E+00 -0.12273672089E+03  0.12282667729E+03  0.47000000000E+01 0. -1.
         25    2    1    2    0    0  0.17300993636E+02  0.50416706230E+01  0.74087173901E+02  0.14642090035E+03  0.12500171159E+03 0.  0.
         25    2    1    2    0    0 -0.17300993636E+02 -0.50416706230E+01 -0.40630046331E+02  0.13267032281E+03  0.12500348421E+03 0.  0.
          5    1    3    3  502    0 -0.32343648340E+02 -0.52267849591E+01 -0.20548973628E+02  0.38958711299E+02  0.47000000000E+01 0.  1.
         -5    1    3    3    0  502  0.49644641976E+02  0.10268455582E+02  0.94636147530E+02  0.10746218905E+03  0.47000000000E+01 0.  1.
          5    1    4    4  503    0  0.11066517564E+02  0.56774238334E+02 -0.16244379670E+02  0.60264017624E+02  0.47000000000E+01 0.  1.
         -5    1    4    4    0  503 -0.28367511200E+02 -0.61815908957E+02 -0.24385666661E+02  0.72406305184E+02  0.47000000000E+01 0.  1.
<mgrwt>
<rscale>  0 0.12629530E+03</rscale>
<asrwt>0</asrwt>
<pdfrwt beam="2">  1        5 0.18894930E-01 0.12629574E+03</pdfrwt>
<pdfrwt beam="1">  1       -5 0.24042181E-01 0.12629574E+03</pdfrwt>
<totfact> 0.29739180E+02</totfact>
</mgrwt>
</event>
<event>
 8    1  0.3759079E-007  0.1785782E+03  0.7546771E-02  0.1169187E+00
          5   -1    0    0  501    0  0.00000000000E+00  0.00000000000E+00  0.31570983629E+03  0.31574481901E+03  0.47000000000E+01 0. -1.
         -5   -1    0    0    0  501 -0.00000000000E+00 -0.00000000000E+00 -0.12557558742E+03  0.12566351163E+03  0.47000000000E+01 0. -1.
         25    2    1    2    0    0  0.99052567862E+02 -0.80338947244E+02 -0.26865311659E+01  0.17859840819E+03  0.12499766524E+03 0.  0.
         25    2    1    2    0    0 -0.99052567862E+02  0.80338947244E+02  0.19282078003E+03  0.26280992245E+03  0.12499377777E+03 0.  0.
          5    1    4    4  502    0 -0.39987014235E+02  0.89431654884E+02  0.54834868417E+02  0.11236518588E+03  0.47000000000E+01 0. -1.
         -5    1    4    4    0  502 -0.59065553628E+02 -0.90927076401E+01  0.13798591162E+03  0.15044473657E+03  0.47000000000E+01 0. -1.
          5    1    3    3  503    0 -0.23101109427E+02 -0.45521956822E+02 -0.46797688237E+01  0.51477179855E+02  0.47000000000E+01 0. -1.
         -5    1    3    3    0  503  0.12215367729E+03 -0.34816990423E+02  0.19932376578E+01  0.12712122834E+03  0.47000000000E+01 0. -1.
<mgrwt>
<rscale>  0 0.17857752E+03</rscale>
<asrwt>0</asrwt>
<pdfrwt beam="1">  1        5 0.48580198E-01 0.17857820E+03</pdfrwt>
<pdfrwt beam="2">  1       -5 0.19328776E-01 0.17857820E+03</pdfrwt>
<totfact> 0.77815785E+01</totfact>
</mgrwt>
</event>
<event>
 8    1  0.3759079E-007  0.1254344E+03  0.7546771E-02  0.1234396E+00
          5   -1    0    0  501    0  0.00000000000E+00  0.00000000000E+00  0.45133483181E+02  0.45377541847E+02  0.47000000000E+01 0. -1.
         -5   -1    0    0    0  501 -0.00000000000E+00 -0.00000000000E+00 -0.36167138367E+03  0.36170192115E+03  0.47000000000E+01 0. -1.
         25    2    1    2    0    0  0.49461554435E+01 -0.90719774954E+01 -0.19872247989E+03  0.23499874290E+03  0.12500807943E+03 0.  0.
         25    2    1    2    0    0 -0.49461554435E+01  0.90719774954E+01 -0.11781542060E+03  0.17208072010E+03  0.12499814266E+03 0.  0.
          5    1    4    4  502    0  0.55895678032E+02  0.22593913589E+02 -0.41055523064E+02  0.73092118097E+02  0.47000000000E+01 0.  1.
         -5    1    4    4    0  502 -0.60841833475E+02 -0.13521936093E+02 -0.76759897534E+02  0.98988601999E+02  0.47000000000E+01 0.  1.
          5    1    3    3  503    0  0.80784240579E+01 -0.34422571657E+02 -0.20516250603E+03  0.20824004959E+03  0.47000000000E+01 0. -1.
         -5    1    3    3    0  503 -0.31322686143E+01  0.25350594162E+02  0.64400261370E+01  0.26758693310E+02  0.47000000000E+01 0. -1.
<mgrwt>
<rscale>  0 0.12543191E+03</rscale>
<asrwt>0</asrwt>
<pdfrwt beam="1">  1        5 0.69647358E-02 0.12543439E+03</pdfrwt>
<pdfrwt beam="2">  1       -5 0.55662872E-01 0.12543439E+03</pdfrwt>
<totfact> 0.31730782E+02</totfact>
</mgrwt>
</event>
<event>
 8    1  0.3759079E-007  0.1377435E+03  0.7546771E-02  0.1216402E+00
          5   -1    0    0  501    0  0.00000000000E+00  0.00000000000E+00  0.23224240169E+03  0.23228995489E+03  0.47000000000E+01 0. -1.
         -5   -1    0    0    0  501 -0.00000000000E+00 -0.00000000000E+00 -0.82559821579E+02  0.82693495145E+02  0.47000000000E+01 0. -1.
         25    2    1    2    0    0  0.57550350150E+02 -0.57611226688E+01  0.57574059415E+02  0.14928111430E+03  0.12499938173E+03 0.  0.
         25    2    1    2    0    0 -0.57550350150E+02  0.57611226688E+01  0.92108520695E+02  0.16570233574E+03  0.12501220399E+03 0.  0.
          5    1    4    4  502    0 -0.16450627675E+02 -0.35002311539E+02 -0.16681352524E+02  0.42380921249E+02  0.47000000000E+01 0.  1.
         -5    1    4    4    0  502 -0.41099722475E+02  0.40763434207E+02  0.10878987322E+03  0.12332141449E+03  0.47000000000E+01 0.  1.
          5    1    3    3  503    0 -0.15053951436E+02 -0.41611592830E+02  0.51326938228E+02  0.67931514775E+02  0.47000000000E+01 0. -1.
         -5    1    3    3    0  503  0.72604301586E+02  0.35850470162E+02  0.62471211876E+01  0.81349599524E+02  0.47000000000E+01 0. -1.
<mgrwt>
<rscale>  0 0.13774064E+03</rscale>
<asrwt>0</asrwt>
<pdfrwt beam="1">  1        5 0.35743541E-01 0.13774355E+03</pdfrwt>
<pdfrwt beam="2">  1       -5 0.12715451E-01 0.13774355E+03</pdfrwt>
<totfact> 0.28986464E+02</totfact>
</mgrwt>
</event>
<event>
 8    1  0.3759079E-007  0.1394482E+03  0.7546771E-02  0.1214077E+00
          5   -1    0    0  501    0  0.00000000000E+00  0.00000000000E+00  0.23197344604E+03  0.23202105436E+03  0.47000000000E+01 0.  1.
         -5   -1    0    0    0  501 -0.00000000000E+00 -0.00000000000E+00 -0.86561789945E+02  0.86689292756E+02  0.47000000000E+01 0.  1.
         25    2    1    2    0    0 -0.21467737177E+02 -0.57937808135E+02  0.43757198220E+02  0.14614320295E+03  0.12500196007E+03 0.  0.
         25    2    1    2    0    0  0.21467737177E+02  0.57937808135E+02  0.10165445787E+03  0.17256714416E+03  0.12501254772E+03 0.  0.
          5    1    4    4  502    0 -0.22231190625E+02  0.27422499932E+02  0.11247469521E+03  0.11797824546E+03  0.47000000000E+01 0. -1.
         -5    1    4    4    0  502  0.43698927803E+02  0.30515308203E+02 -0.10820237337E+02  0.54588898705E+02  0.47000000000E+01 0. -1.
          5    1    3    3  503    0 -0.41395664732E+02  0.24942790698E+02 -0.32844306114E+01  0.48668484164E+02  0.47000000000E+01 0.  1.
         -5    1    3    3    0  503  0.19927927554E+02 -0.82880598833E+02  0.47041628831E+02  0.97474718787E+02  0.47000000000E+01 0.  1.
<mgrwt>
<rscale>  0 0.13944579E+03</rscale>
<asrwt>0</asrwt>
<pdfrwt beam="1">  1        5 0.35701693E-01 0.13944816E+03</pdfrwt>
<pdfrwt beam="2">  1       -5 0.13330668E-01 0.13944816E+03</pdfrwt>
<totfact> 0.26815490E+02</totfact>
</mgrwt>
</event>
<event>
 8    1  0.3759079E-007  0.1523279E+03  0.7546771E-02  0.1197642E+00
          5   -1    0    0  501    0  0.00000000000E+00  0.00000000000E+00  0.71711724666E+03  0.71713264844E+03  0.47000000000E+01 0.  1.
         -5   -1    0    0    0  501 -0.00000000000E+00 -0.00000000000E+00 -0.35719304667E+02  0.36027194255E+02  0.47000000000E+01 0.  1.
         25    2    1    2    0    0  0.50447944405E+02  0.70945658309E+02  0.22255605687E+03  0.26969426938E+03  0.12500207583E+03 0.  0.
         25    2    1    2    0    0 -0.50447944405E+02 -0.70945658309E+02  0.45884188513E+03  0.48346557331E+03  0.12499921401E+03 0.  0.
          5    1    3    3  502    0 -0.80633064018E+01 -0.31090850072E+02  0.68587278238E+02  0.75881240135E+02  0.47000000000E+01 0.  1.
         -5    1    3    3    0  502  0.58511250807E+02  0.10203650838E+03  0.15396877863E+03  0.19381302925E+03  0.47000000000E+01 0.  1.
          5    1    4    4  503    0 -0.69037886841E+02 -0.95765378353E+02  0.31972114971E+03  0.34085325447E+03  0.47000000000E+01 0. -1.
         -5    1    4    4    0  503  0.18589942436E+02  0.24819720043E+02  0.13912073542E+03  0.14261231885E+03  0.47000000000E+01 0. -1.
<mgrwt>
<rscale>  0 0.15232735E+03</rscale>
<asrwt>0</asrwt>
<pdfrwt beam="1">  1        5 0.11035060E+00 0.15232794E+03</pdfrwt>
<pdfrwt beam="2">  1       -5 0.55201460E-02 0.15232794E+03</pdfrwt>
<totfact> 0.10296137E+02</totfact>
</mgrwt>
</event>
<event>
 8    1  0.3759079E-007  0.1484480E+03  0.7546771E-02  0.1202394E+00
         -5   -1    0    0    0  501 -0.00000000000E+00  0.00000000000E+00  0.10673206548E+04  0.10673310031E+04  0.47000000000E+01 0. -1.
          5   -1    0    0  501    0  0.00000000000E+00 -0.00000000000E+00 -0.21341466304E+02  0.21852875875E+02  0.47000000000E+01 0. -1.
         25    2    1    2    0    0  0.41009806238E+02 -0.68773253310E+02  0.63784685725E+03  0.65489272963E+03  0.12499723775E+03 0.  0.
         25    2    1    2    0    0 -0.41009806238E+02  0.68773253310E+02  0.40813233129E+03  0.43429114938E+03  0.12500095201E+03 0.  0.
          5    1    4    4  502    0 -0.42188874728E+01  0.26333774156E+02  0.53745785033E+01  0.27608744392E+02  0.47000000000E+01 0. -1.
         -5    1    4    4    0  502 -0.36790918766E+02  0.42439479153E+02  0.40275775279E+03  0.40668240499E+03  0.47000000000E+01 0. -1.
          5    1    3    3  503    0  0.12411014756E+02  0.34476705367E+02  0.10362119715E+03  0.11000963139E+03  0.47000000000E+01 0.  1.
         -5    1    3    3    0  503  0.28598791483E+02 -0.10324995868E+03  0.53422566009E+03  0.54488309824E+03  0.47000000000E+01 0.  1.
<mgrwt>
<rscale>  0 0.14844720E+03</rscale>
<asrwt>0</asrwt>
<pdfrwt beam="2">  1        5 0.33234381E-02 0.14844798E+03</pdfrwt>
<pdfrwt beam="1">  1       -5 0.16424329E+00 0.14844798E+03</pdfrwt>
<totfact> 0.82312684E+01</totfact>
</mgrwt>
</event>
<event>
 8    1  0.3759079E-007  0.1606746E+03  0.7546771E-02  0.1187943E+00
          5   -1    0    0  501    0  0.00000000000E+00  0.00000000000E+00  0.78751193139E+03  0.78752595645E+03  0.47000000000E+01 0. -1.
         -5   -1    0    0    0  501 -0.00000000000E+00 -0.00000000000E+00 -0.38429528649E+02  0.38715871063E+02  0.47000000000E+01 0. -1.
         25    2    1    2    0    0  0.65827225109E+02 -0.76498209341E+02  0.21422811213E+03  0.26777477049E+03  0.12499777633E+03 0.  0.
         25    2    1    2    0    0 -0.65827225109E+02  0.76498209341E+02  0.53485429062E+03  0.55846705703E+03  0.12502456557E+03 0.  0.
          5    1    3    3  502    0 -0.25343258267E+02 -0.62206168271E+02  0.76397030935E+02  0.10183557554E+03  0.47000000000E+01 0. -1.
         -5    1    3    3    0  502  0.91170483375E+02 -0.14292041071E+02  0.13783108119E+03  0.16593919495E+03  0.47000000000E+01 0. -1.
          5    1    4    4  503    0  0.96759481323E+01  0.62020228703E+02  0.38360932254E+03  0.38873941797E+03  0.47000000000E+01 0. -1.
         -5    1    4    4    0  503 -0.75503173241E+02  0.14477980638E+02  0.15124496808E+03  0.16972763906E+03  0.47000000000E+01 0. -1.
<mgrwt>
<rscale>  0 0.16066943E+03</rscale>
<asrwt>0</asrwt>
<pdfrwt beam="1">  1        5 0.12117877E+00 0.16067465E+03</pdfrwt>
<pdfrwt beam="2">  1       -5 0.59353410E-02 0.16067465E+03</pdfrwt>
<totfact> 0.73144440E+01</totfact>
</mgrwt>
</event>
<event>
 8    1  0.3759079E-007  0.1463743E+03  0.7546771E-02  0.1205002E+00
          5   -1    0    0  501    0  0.00000000000E+00  0.00000000000E+00  0.68681637882E+03  0.68683246008E+03  0.47000000000E+01 0. -1.
         -5   -1    0    0    0  501 -0.00000000000E+00 -0.00000000000E+00 -0.31262086615E+02  0.31613415815E+02  0.47000000000E+01 0. -1.
         25    2    1    2    0    0 -0.68609274449E+02 -0.33061610341E+02  0.29511447551E+03  0.32941850745E+03  0.12499478699E+03 0.  0.
         25    2    1    2    0    0  0.68609274449E+02  0.33061610341E+02  0.36043981669E+03  0.38902736845E+03  0.12500051729E+03 0.  0.
          5    1    4    4  502    0  0.60242191534E+02 -0.25012790657E+02  0.84348007568E+02  0.10673067843E+03  0.47000000000E+01 0.  1.
         -5    1    4    4    0  502  0.83670829156E+01  0.58074400999E+02  0.27609180913E+03  0.28229669002E+03  0.47000000000E+01 0.  1.
          5    1    3    3  503    0 -0.70106992741E+02 -0.39920968347E+02  0.30551285658E+03  0.31602036276E+03  0.47000000000E+01 0. -1.
         -5    1    3    3    0  503  0.14977182918E+01  0.68593580058E+01 -0.10398381064E+02  0.13398144688E+02  0.47000000000E+01 0. -1.
<mgrwt>
<rscale>  0 0.14637306E+03</rscale>
<asrwt>0</asrwt>
<pdfrwt beam="1">  1        5 0.10569231E+00 0.14637429E+03</pdfrwt>
<pdfrwt beam="2">  1       -5 0.48378144E-02 0.14637429E+03</pdfrwt>
<totfact> 0.14102105E+02</totfact>
</mgrwt>
</event>
<event>
 8    1  0.3759079E-007  0.1262161E+03  0.7546771E-02  0.1233205E+00
         -5   -1    0    0    0  501 -0.00000000000E+00  0.00000000000E+00  0.50791395468E+03  0.50793570003E+03  0.47000000000E+01 0.  1.
          5   -1    0    0  501    0  0.00000000000E+00 -0.00000000000E+00 -0.43393643108E+02  0.43647431335E+02  0.47000000000E+01 0.  1.
         25    2    1    2    0    0 -0.12189295376E+02  0.12228698921E+02  0.37816740094E+03  0.39865400646E+03  0.12496525008E+03 0.  0.
         25    2    1    2    0    0  0.12189295376E+02 -0.12228698921E+02  0.86352910629E+02  0.15292912490E+03  0.12502948481E+03 0.  0.
          5    1    4    4  502    0 -0.46882361697E+02 -0.38771980787E+02  0.46796696266E+02  0.76897614487E+02  0.47000000000E+01 0.  1.
         -5    1    4    4    0  502  0.59071657073E+02  0.26543281866E+02  0.39556214363E+02  0.76031510417E+02  0.47000000000E+01 0.  1.
          5    1    3    3  503    0 -0.16605350566E+02  0.11520665731E+02  0.38707685045E+03  0.38763261158E+03  0.47000000000E+01 0. -1.
         -5    1    3    3    0  503  0.44160551896E+01  0.70803318942E+00 -0.89094495075E+01  0.11021394874E+02  0.47000000000E+01 0. -1.
<mgrwt>
<rscale>  0 0.12620014E+03</rscale>
<asrwt>0</asrwt>
<pdfrwt beam="2">  1        5 0.66971395E-02 0.12621605E+03</pdfrwt>
<pdfrwt beam="1">  1       -5 0.78161808E-01 0.12621605E+03</pdfrwt>
<totfact> 0.15970984E+02</totfact>
</mgrwt>
</event>
<event>
 8    1  0.3759079E-007  0.1553884E+03  0.7546771E-02  0.1194004E+00
          5   -1    0    0  501    0  0.00000000000E+00  0.00000000000E+00  0.89743575879E+02  0.89866564481E+02  0.47000000000E+01 0. -1.
         -5   -1    0    0    0  501 -0.00000000000E+00 -0.00000000000E+00 -0.27503072068E+03  0.27507087689E+03  0.47000000000E+01 0. -1.
         25    2    1    2    0    0 -0.86509928813E+02  0.32176476465E+02 -0.12027342798E+03  0.19649656576E+03  0.12500363776E+03 0.  0.
         25    2    1    2    0    0  0.86509928813E+02 -0.32176476465E+02 -0.65013716814E+02  0.16844087562E+03  0.12500500704E+03 0.  0.
          5    1    3    3  502    0  0.11379225650E+02  0.46038797946E+02 -0.72079115264E+02  0.86409180936E+02  0.47000000000E+01 0. -1.
         -5    1    3    3    0  502 -0.97889154463E+02 -0.13862321481E+02 -0.48194312718E+02  0.11008738482E+03  0.47000000000E+01 0. -1.
          5    1    4    4  503    0  0.78945775772E+02 -0.76305740692E+02 -0.52008499849E+02  0.12158114834E+03  0.47000000000E+01 0.  1.
         -5    1    4    4    0  503  0.75641530404E+01  0.44129264227E+02 -0.13005216965E+02  0.46859727280E+02  0.47000000000E+01 0.  1.
<mgrwt>
<rscale>  0 0.15538809E+03</rscale>
<asrwt>0</asrwt>
<pdfrwt beam="1">  1        5 0.13819254E-01 0.15538837E+03</pdfrwt>
<pdfrwt beam="2">  1       -5 0.42324968E-01 0.15538837E+03</pdfrwt>
<totfact> 0.18418639E+02</totfact>
</mgrwt>
</event>
<event>
 8    1  0.3759079E-007  0.2010377E+03  0.7546771E-02  0.1148867E+00
          5   -1    0    0  501    0  0.00000000000E+00  0.00000000000E+00  0.62687508656E+02  0.62863453147E+02  0.47000000000E+01 0.  1.
         -5   -1    0    0    0  501 -0.00000000000E+00 -0.00000000000E+00 -0.66870445346E+03  0.66872097027E+03  0.47000000000E+01 0.  1.
         25    2    1    2    0    0  0.12491390695E+02 -0.15695459843E+03 -0.37383297023E+03  0.42446114680E+03  0.12500157879E+03 0.  0.
         25    2    1    2    0    0 -0.12491390695E+02  0.15695459843E+03 -0.23218397458E+03  0.30712327662E+03  0.12499811271E+03 0.  0.
          5    1    3    3  502    0 -0.35984509160E+02 -0.27781859810E+02 -0.31964863275E+02  0.55772386700E+02  0.47000000000E+01 0.  1.
         -5    1    3    3    0  502  0.48475899855E+02 -0.12917273862E+03 -0.34186810695E+03  0.36868876010E+03  0.47000000000E+01 0.  1.
          5    1    4    4  503    0 -0.78741826466E+01  0.18094104873E+01 -0.10769078255E+03  0.10809565840E+03  0.47000000000E+01 0. -1.
         -5    1    4    4    0  503 -0.46172080481E+01  0.15514518795E+03 -0.12449319202E+03  0.19902761822E+03  0.47000000000E+01 0. -1.
<mgrwt>
<rscale>  0 0.20103721E+03</rscale>
<asrwt>0</asrwt>
<pdfrwt beam="1">  1        5 0.96590373E-02 0.20103775E+03</pdfrwt>
<pdfrwt beam="2">  1       -5 0.10289241E+00 0.20103775E+03</pdfrwt>
<totfact> 0.50858266E+01</totfact>
</mgrwt>
</event>
<event>
 8    1  0.3759079E-007  0.1718906E+03  0.7546771E-02  0.1175896E+00
         -5   -1    0    0    0  501 -0.00000000000E+00  0.00000000000E+00  0.43634623131E+03  0.43637154305E+03  0.47000000000E+01 0.  1.
          5   -1    0    0  501    0  0.00000000000E+00 -0.00000000000E+00 -0.68084355089E+02  0.68246387508E+02  0.47000000000E+01 0.  1.
         25    2    1    2    0    0  0.11168647566E+03 -0.38052016073E+02  0.20546703966E+03  0.26787220640E+03  0.12496795511E+03 0.  0.
         25    2    1    2    0    0 -0.11168647566E+03  0.38052016073E+02  0.16279483657E+03  0.23674572415E+03  0.12499821727E+03 0.  0.
          5    1    3    3  502    0 -0.35765518601E+01 -0.51912699276E+02  0.89998847811E+02  0.10406537694E+03  0.47000000000E+01 0.  1.
         -5    1    3    3    0  502  0.11526302752E+03  0.13860683203E+02  0.11546819185E+03  0.16380682947E+03  0.47000000000E+01 0.  1.
          5    1    4    4  503    0 -0.10004193470E+03  0.68304474429E+02  0.73822897893E+02  0.14193590166E+03  0.47000000000E+01 0. -1.
         -5    1    4    4    0  503 -0.11644540961E+02 -0.30252458357E+02  0.88971938672E+02  0.94809822497E+02  0.47000000000E+01 0. -1.
<mgrwt>
<rscale>  0 0.17188510E+03</rscale>
<asrwt>0</asrwt>
<pdfrwt beam="2">  1        5 0.10488928E-01 0.17189060E+03</pdfrwt>
<pdfrwt beam="1">  1       -5 0.67144599E-01 0.17189060E+03</pdfrwt>
<totfact> 0.11491926E+02</totfact>
</mgrwt>
</event>
<event>
 8    1  0.3759079E-007  0.1339144E+03  0.7546771E-02  0.1221762E+00
          5   -1    0    0  501    0  0.00000000000E+00  0.00000000000E+00  0.68970040725E+02  0.69129997235E+02  0.47000000000E+01 0.  1.
         -5   -1    0    0    0  501 -0.00000000000E+00 -0.00000000000E+00 -0.35385300139E+03  0.35388421354E+03  0.47000000000E+01 0.  1.
         25    2    1    2    0    0  0.55297984195E+01  0.47714190508E+02 -0.25161384391E+03  0.28502909803E+03  0.12499935052E+03 0.  0.
         25    2    1    2    0    0 -0.55297984195E+01 -0.47714190508E+02 -0.33269116760E+02  0.13798511275E+03  0.12500333821E+03 0.  0.
          5    1    4    4  502    0 -0.54580217175E+02 -0.56335946876E+02 -0.38835178574E+02  0.87652724499E+02  0.47000000000E+01 0. -1.
         -5    1    4    4    0  502  0.49050418756E+02  0.86217563676E+01  0.55660618139E+01  0.50332388252E+02  0.47000000000E+01 0. -1.
          5    1    3    3  503    0  0.47510419041E+02 -0.40162289051E+01 -0.18343549740E+03  0.18958913924E+03  0.47000000000E+01 0. -1.
         -5    1    3    3    0  503 -0.41980620622E+02  0.51730419413E+02 -0.68178346511E+02  0.95439958788E+02  0.47000000000E+01 0. -1.
<mgrwt>
<rscale>  0 0.13391343E+03</rscale>
<asrwt>0</asrwt>
<pdfrwt beam="1">  1        5 0.10625481E-01 0.13391437E+03</pdfrwt>
<pdfrwt beam="2">  1       -5 0.54453628E-01 0.13391437E+03</pdfrwt>
<totfact> 0.16445915E+02</totfact>
</mgrwt>
</event>
<event>
 8    1  0.3759079E-007  0.1338520E+03  0.7546771E-02  0.1221854E+00
         -5   -1    0    0    0  501 -0.00000000000E+00  0.00000000000E+00  0.63162126527E+03  0.63163875178E+03  0.47000000000E+01 0. -1.
          5   -1    0    0  501    0  0.00000000000E+00 -0.00000000000E+00 -0.28381571513E+02  0.28768100416E+02  0.47000000000E+01 0. -1.
         25    2    1    2    0    0 -0.87892801512E+01 -0.47053967556E+02  0.33124324586E+03  0.35726522397E+03  0.12500010010E+03 0.  0.
         25    2    1    2    0    0  0.87892801512E+01  0.47053967556E+02  0.27199644790E+03  0.30314162822E+03  0.12498580631E+03 0.  0.
          5    1    4    4  502    0  0.37055862525E+02  0.55723157554E+02  0.26366684502E+03  0.27206709172E+03  0.47000000000E+01 0.  1.
         -5    1    4    4    0  502 -0.28266582374E+02 -0.86691899980E+01  0.83296028826E+01  0.31074536497E+02  0.47000000000E+01 0.  1.
          5    1    3    3  503    0  0.48050982609E+02 -0.41378402746E+02  0.24919886256E+03  0.25718326587E+03  0.47000000000E+01 0.  1.
         -5    1    3    3    0  503 -0.56840262761E+02 -0.56755648093E+01  0.82044383301E+02  0.10008195810E+03  0.47000000000E+01 0.  1.
<mgrwt>
<rscale>  0 0.13384864E+03</rscale>
<asrwt>0</asrwt>
<pdfrwt beam="2">  1        5 0.43974744E-02 0.13385198E+03</pdfrwt>
<pdfrwt beam="1">  1       -5 0.97203566E-01 0.13385198E+03</pdfrwt>
<totfact> 0.19684737E+02</totfact>
</mgrwt>
</event>
<event>
 8    1  0.3759079E-007  0.1256661E+03  0.7546771E-02  0.1234038E+00
          5   -1    0    0  501    0  0.00000000000E+00  0.00000000000E+00  0.21184190873E+03  0.21189404025E+03  0.47000000000E+01 0.  1.
         -5   -1    0    0    0  501 -0.00000000000E+00 -0.00000000000E+00 -0.81221867753E+02  0.81357739652E+02  0.47000000000E+01 0.  1.
         25    2    1    2    0    0 -0.30276952282E+01 -0.12371004201E+02  0.22874219513E+02  0.12773091637E+03  0.12501899214E+03 0.  0.
         25    2    1    2    0    0  0.30276952282E+01  0.12371004201E+02  0.10774582147E+03  0.16552086354E+03  0.12500314212E+03 0.  0.
          5    1    3    3  502    0  0.48560265122E+01 -0.51046250221E+02 -0.31510720153E+02  0.60368171578E+02  0.47000000000E+01 0. -1.
         -5    1    3    3    0  502 -0.78837217405E+01  0.38675246020E+02  0.54384939666E+02  0.67362744790E+02  0.47000000000E+01 0. -1.
          5    1    4    4  503    0 -0.48785301573E+02  0.43040098024E+02  0.54114858583E+02  0.84752366380E+02  0.47000000000E+01 0.  1.
         -5    1    4    4    0  503  0.51812996801E+02 -0.30669093823E+02  0.53630962882E+02  0.80768497158E+02  0.47000000000E+01 0.  1.
<mgrwt>
<rscale>  0 0.12566211E+03</rscale>
<asrwt>0</asrwt>
<pdfrwt beam="1">  1        5 0.32605524E-01 0.12566605E+03</pdfrwt>
<pdfrwt beam="2">  1       -5 0.12510134E-01 0.12566605E+03</pdfrwt>
<totfact> 0.34689987E+02</totfact>
</mgrwt>
</event>
<event>
 8    1  0.3759079E-007  0.1333571E+03  0.7546771E-02  0.1222562E+00
         -5   -1    0    0    0  501 -0.00000000000E+00  0.00000000000E+00  0.12153150891E+03  0.12162235673E+03  0.47000000000E+01 0. -1.
          5   -1    0    0  501    0  0.00000000000E+00 -0.00000000000E+00 -0.14914735627E+03  0.14922139218E+03  0.47000000000E+01 0. -1.
         25    2    1    2    0    0  0.44507062447E+02  0.13263514827E+02  0.54195569082E+01  0.13346722245E+03  0.12500931341E+03 0.  0.
         25    2    1    2    0    0 -0.44507062447E+02 -0.13263514827E+02 -0.33035404272E+02  0.13737652646E+03  0.12499669057E+03 0.  0.
          5    1    4    4  502    0 -0.52731102958E+02 -0.12140543229E+01  0.37697687293E+02  0.65001913620E+02  0.47000000000E+01 0.  1.
         -5    1    4    4    0  502  0.82240405104E+01 -0.12049460504E+02 -0.70733091565E+02  0.72374612836E+02  0.47000000000E+01 0.  1.
          5    1    3    3  503    0  0.55095423142E+02 -0.46541469559E+02  0.62497383205E+01  0.72544905190E+02  0.47000000000E+01 0. -1.
         -5    1    3    3    0  503 -0.10588360695E+02  0.59804984386E+02 -0.83018141228E+00  0.60922317264E+02  0.47000000000E+01 0. -1.
<mgrwt>
<rscale>  0 0.13335419E+03</rscale>
<asrwt>0</asrwt>
<pdfrwt beam="2">  1        5 0.22958431E-01 0.13335714E+03</pdfrwt>
<pdfrwt beam="1">  1       -5 0.18709839E-01 0.13335714E+03</pdfrwt>
<totfact> 0.33719731E+02</totfact>
</mgrwt>
</event>
<event>
 8    1  0.3759079E-007  0.1551524E+03  0.7546771E-02  0.1194288E+00
         -5   -1    0    0    0  501 -0.00000000000E+00  0.00000000000E+00  0.16944147653E+03  0.16950664875E+03  0.47000000000E+01 0.  1.
          5   -1    0    0  501    0  0.00000000000E+00 -0.00000000000E+00 -0.17233498383E+03  0.17239906221E+03  0.47000000000E+01 0.  1.
         25    2    1    2    0    0 -0.55119855289E+02 -0.73549673546E+02  0.70349834592E+02  0.17033397797E+03  0.12496724330E+03 0.  0.
         25    2    1    2    0    0  0.55119855289E+02  0.73549673546E+02 -0.73243341885E+02  0.17157173299E+03  0.12499807800E+03 0.  0.
          5    1    4    4  502    0 -0.15737252499E+01 -0.27211640330E+02  0.95822293274E+01  0.29272155703E+02  0.47000000000E+01 0.  1.
         -5    1    4    4    0  502  0.56693580539E+02  0.10076131388E+03 -0.82825571213E+02  0.14229957728E+03  0.47000000000E+01 0.  1.
          5    1    3    3  503    0 -0.31505415572E+02  0.51385041025E+01  0.81158931232E+02  0.87337606754E+02  0.47000000000E+01 0. -1.
         -5    1    3    3    0  503 -0.23614439717E+02 -0.78688177649E+02 -0.10809096640E+02  0.82996371216E+02  0.47000000000E+01 0. -1.
<mgrwt>
<rscale>  0 0.15514621E+03</rscale>
<asrwt>0</asrwt>
<pdfrwt beam="2">  1        5 0.26523017E-01 0.15515242E+03</pdfrwt>
<pdfrwt beam="1">  1       -5 0.26077862E-01 0.15515242E+03</pdfrwt>
<totfact> 0.14365826E+02</totfact>
</mgrwt>
</event>
<event>
 8    1  0.3759079E-007  0.1271593E+03  0.7546771E-02  0.1231734E+00
          5   -1    0    0  501    0  0.00000000000E+00  0.00000000000E+00  0.45006674706E+02  0.45251417305E+02  0.47000000000E+01 0. -1.
         -5   -1    0    0    0  501 -0.00000000000E+00 -0.00000000000E+00 -0.41517525484E+03  0.41520185721E+03  0.47000000000E+01 0. -1.
         25    2    1    2    0    0  0.94636592727E+01  0.21340709972E+02 -0.27047156874E+03  0.29887050976E+03  0.12499490132E+03 0.  0.
         25    2    1    2    0    0 -0.94636592727E+01 -0.21340709972E+02 -0.99697011395E+02  0.16158276476E+03  0.12499803614E+03 0.  0.
          5    1    4    4  502    0 -0.39627127293E+02  0.10034091239E+02 -0.10928057893E+03  0.11677040351E+03  0.47000000000E+01 0.  1.
         -5    1    4    4    0  502  0.30163468020E+02 -0.31374801211E+02  0.95835675367E+01  0.44812361250E+02  0.47000000000E+01 0.  1.
          5    1    3    3  503    0 -0.56759054387E+02 -0.13215777829E+01 -0.12480206422E+03  0.13718958436E+03  0.47000000000E+01 0. -1.
         -5    1    3    3    0  503  0.66222713660E+02  0.22662287754E+02 -0.14566950452E+03  0.16168092540E+03  0.47000000000E+01 0. -1.
<mgrwt>
<rscale>  0 0.12715856E+03</rscale>
<asrwt>0</asrwt>
<pdfrwt beam="1">  1        5 0.69449768E-02 0.12715933E+03</pdfrwt>
<pdfrwt beam="2">  1       -5 0.63893986E-01 0.12715933E+03</pdfrwt>
<totfact> 0.23714554E+02</totfact>
</mgrwt>
</event>
<event>
 8    1  0.3759079E-007  0.1251567E+03  0.7546771E-02  0.1234826E+00
          5   -1    0    0  501    0  0.00000000000E+00  0.00000000000E+00  0.10531512172E+03  0.10541994528E+03  0.47000000000E+01 0.  1.
         -5   -1    0    0    0  501 -0.00000000000E+00 -0.00000000000E+00 -0.15535841253E+03  0.15542948994E+03  0.47000000000E+01 0.  1.
         25    2    1    2    0    0 -0.20531065536E+01  0.57855720159E+01 -0.52377938025E+02  0.13567091894E+03  0.12500184704E+03 0.  0.
         25    2    1    2    0    0  0.20531065536E+01 -0.57855720159E+01  0.23346472203E+01  0.12517851628E+03  0.12500608894E+03 0.  0.
          5    1    4    4  502    0 -0.36455048499E+02 -0.50401563357E+02  0.16202321284E+02  0.64450704921E+02  0.47000000000E+01 0.  1.
         -5    1    4    4    0  502  0.38508155053E+02  0.44615991341E+02 -0.13867674064E+02  0.60727811362E+02  0.47000000000E+01 0.  1.
          5    1    3    3  503    0 -0.46455399625E+02 -0.30078901742E+02  0.35058497211E+01  0.55652722005E+02  0.47000000000E+01 0. -1.
         -5    1    3    3    0  503  0.44402293071E+02  0.35864473758E+02 -0.55883787746E+02  0.80018196935E+02  0.47000000000E+01 0. -1.
<mgrwt>
<rscale>  0 0.12515568E+03</rscale>
<asrwt>0</asrwt>
<pdfrwt beam="1">  1        5 0.16215857E-01 0.12515674E+03</pdfrwt>
<pdfrwt beam="2">  1       -5 0.23914825E-01 0.12515674E+03</pdfrwt>
<totfact> 0.39644368E+02</totfact>
</mgrwt>
</event>
<event>
 8    1  0.3759079E-007  0.1497199E+03  0.7546771E-02  0.1200826E+00
          5   -1    0    0  501    0  0.00000000000E+00  0.00000000000E+00  0.43202711277E+03  0.43205267754E+03  0.47000000000E+01 0.  1.
         -5   -1    0    0    0  501 -0.00000000000E+00 -0.00000000000E+00 -0.54382519147E+02  0.54585239660E+02  0.47000000000E+01 0.  1.
         25    2    1    2    0    0  0.36641289735E+02  0.73737817119E+02  0.13530862906E+03  0.20178223756E+03  0.12501118553E+03 0.  0.
         25    2    1    2    0    0 -0.36641289735E+02 -0.73737817119E+02  0.24233596456E+03  0.28485567964E+03  0.12504474686E+03 0.  0.
          5    1    3    3  502    0  0.43958413236E+02  0.45392098259E+02  0.15414161546E+03  0.16665686993E+03  0.47000000000E+01 0.  1.
         -5    1    3    3    0  502 -0.73171235007E+01  0.28345718860E+02 -0.18832986400E+02  0.35125367625E+02  0.47000000000E+01 0.  1.
          5    1    4    4  503    0 -0.72627826078E+01  0.12763983703E+01  0.18654267879E+03  0.18674752533E+03  0.47000000000E+01 0.  1.
         -5    1    4    4    0  503 -0.29378507128E+02 -0.75014215489E+02  0.55793285769E+02  0.98108154317E+02  0.47000000000E+01 0.  1.
<mgrwt>
<rscale>  0 0.14971286E+03</rscale>
<asrwt>0</asrwt>
<pdfrwt beam="1">  1        5 0.66483273E-01 0.14971987E+03</pdfrwt>
<pdfrwt beam="2">  1       -5 0.83841015E-02 0.14971987E+03</pdfrwt>
<totfact> 0.16628252E+02</totfact>
</mgrwt>
</event>
<event>
 8    1  0.3759079E-007  0.1337817E+03  0.7546771E-02  0.1221953E+00
         -5   -1    0    0    0  501 -0.00000000000E+00  0.00000000000E+00  0.15595664188E+02  0.16288484934E+02  0.47000000000E+01 0.  1.
          5   -1    0    0  501    0  0.00000000000E+00 -0.00000000000E+00 -0.11249591591E+04  0.11249689772E+04  0.47000000000E+01 0.  1.
         25    2    1    2    0    0 -0.42266032232E+02 -0.22003369092E+02 -0.52486946142E+03  0.54164858452E+03  0.12499868740E+03 0.  0.
         25    2    1    2    0    0  0.42266032232E+02  0.22003369092E+02 -0.58449403350E+03  0.59960887761E+03  0.12500786047E+03 0.  0.
          5    1    3    3  502    0 -0.22838831302E+02 -0.10478580429E+02 -0.51645893777E+03  0.51709122722E+03  0.47000000000E+01 0.  1.
         -5    1    3    3    0  502 -0.19427200930E+02 -0.11524788662E+02 -0.84105236481E+01  0.24557357303E+02  0.47000000000E+01 0.  1.
          5    1    4    4  503    0  0.37341363704E+02  0.26318995920E+02 -0.62533184121E+02  0.77585798351E+02  0.47000000000E+01 0.  1.
         -5    1    4    4    0  503  0.49246685281E+01 -0.43156268285E+01 -0.52196084938E+03  0.52202307926E+03  0.47000000000E+01 0.  1.
<mgrwt>
<rscale>  0 0.13377951E+03</rscale>
<asrwt>0</asrwt>
<pdfrwt beam="2">  1        5 0.17312463E+00 0.13378165E+03</pdfrwt>
<pdfrwt beam="1">  1       -5 0.24533830E-02 0.13378165E+03</pdfrwt>
<totfact> 0.11193627E+02</totfact>
</mgrwt>
</event>
<event>
 8    1  0.3759079E-007  0.1329407E+03  0.7546771E-02  0.1223157E+00
         -5   -1    0    0    0  501 -0.00000000000E+00  0.00000000000E+00  0.69856180680E+02  0.70014112715E+02  0.47000000000E+01 0. -1.
          5   -1    0    0  501    0  0.00000000000E+00 -0.00000000000E+00 -0.28652524579E+03  0.28656379128E+03  0.47000000000E+01 0. -1.
         25    2    1    2    0    0  0.45252230976E+02  0.33450384037E+00 -0.46940581519E+02  0.14098455349E+03  0.12500139931E+03 0.  0.
         25    2    1    2    0    0 -0.45252230976E+02 -0.33450384037E+00 -0.16972848359E+03  0.21559335050E+03  0.12499943335E+03 0.  0.
          5    1    3    3  502    0  0.59414119742E+02  0.31606302013E+02 -0.71662040180E+02  0.98420190786E+02  0.47000000000E+01 0. -1.
         -5    1    3    3    0  502 -0.14161888766E+02 -0.31271798173E+02  0.24721458661E+02  0.42564362708E+02  0.47000000000E+01 0. -1.
          5    1    4    4  503    0 -0.86011277538E+02  0.31643675879E+01 -0.83366598465E+02  0.11991677458E+03  0.47000000000E+01 0. -1.
         -5    1    4    4    0  503  0.40759046562E+02 -0.34988714283E+01 -0.86361885125E+02  0.95676575922E+02  0.47000000000E+01 0. -1.
<mgrwt>
<rscale>  0 0.13294022E+03</rscale>
<asrwt>0</asrwt>
<pdfrwt beam="2">  1        5 0.44095920E-01 0.13294069E+03</pdfrwt>
<pdfrwt beam="1">  1       -5 0.10762218E-01 0.13294069E+03</pdfrwt>
<totfact> 0.25045225E+02</totfact>
</mgrwt>
</event>
<event>
 8    1  0.3759079E-007  0.1720869E+03  0.7546771E-02  0.1175691E+00
         -5   -1    0    0    0  501 -0.00000000000E+00  0.00000000000E+00  0.15876101928E+03  0.15883057401E+03  0.47000000000E+01 0. -1.
          5   -1    0    0  501    0  0.00000000000E+00 -0.00000000000E+00 -0.25748749469E+03  0.25753038641E+03  0.47000000000E+01 0. -1.
         25    2    1    2    0    0  0.99405526436E+02 -0.64064726824E+02  0.60009558579E+02  0.18224340294E+03  0.12500305150E+03 0.  0.
         25    2    1    2    0    0 -0.99405526436E+02  0.64064726824E+02 -0.15873603400E+03  0.23411755748E+03  0.12501261666E+03 0.  0.
          5    1    3    3  502    0  0.44292891965E+02 -0.77595208504E+02  0.81843668168E+02  0.12125738196E+03  0.47000000000E+01 0. -1.
         -5    1    3    3    0  502  0.55112634471E+02  0.13530481680E+02 -0.21834109588E+02  0.60986020975E+02  0.47000000000E+01 0. -1.
          5    1    4    4  503    0 -0.10638532583E+03  0.34129932069E+01 -0.12485946034E+03  0.16413854182E+03  0.47000000000E+01 0. -1.
         -5    1    4    4    0  503  0.69797993985E+01  0.60651733617E+02 -0.33876573658E+02  0.69979015663E+02  0.47000000000E+01 0. -1.
<mgrwt>
<rscale>  0 0.17208517E+03</rscale>
<asrwt>0</asrwt>
<pdfrwt beam="2">  1        5 0.39622110E-01 0.17208690E+03</pdfrwt>
<pdfrwt beam="1">  1       -5 0.24433422E-01 0.17208690E+03</pdfrwt>
<totfact> 0.75570860E+01</totfact>
</mgrwt>
</event>
<event>
 8    1  0.3759079E-007  0.1295072E+03  0.7546771E-02  0.1228197E+00
          5   -1    0    0  501    0  0.00000000000E+00  0.00000000000E+00  0.24891009359E+03  0.24895446309E+03  0.47000000000E+01 0.  1.
         -5   -1    0    0    0  501 -0.00000000000E+00 -0.00000000000E+00 -0.85528152659E+02  0.85657194078E+02  0.47000000000E+01 0.  1.
         25    2    1    2    0    0 -0.19494700124E+02 -0.27635736630E+02  0.44051704648E+01  0.12956108499E+03  0.12499156750E+03 0.  0.
         25    2    1    2    0    0  0.19494700124E+02  0.27635736630E+02  0.15897677047E+03  0.20505057217E+03  0.12501338460E+03 0.  0.
          5    1    3    3  502    0 -0.16972449863E+02  0.49267083685E+02  0.39942238849E+01  0.52472406211E+02  0.47000000000E+01 0. -1.
         -5    1    3    3    0  502 -0.25222502604E+01 -0.76902820315E+02  0.41094657993E+00  0.77088678779E+02  0.47000000000E+01 0. -1.
          5    1    4    4  503    0 -0.16024717541E+02  0.71175520095E+02  0.91157580661E+02  0.11685264543E+03  0.47000000000E+01 0.  1.
         -5    1    4    4    0  503  0.35519417664E+02 -0.43539783465E+02  0.67819189804E+02  0.88197926739E+02  0.47000000000E+01 0.  1.
<mgrwt>
<rscale>  0 0.12950197E+03</rscale>
<asrwt>0</asrwt>
<pdfrwt beam="1">  1        5 0.38307200E-01 0.12950723E+03</pdfrwt>
<pdfrwt beam="2">  1       -5 0.13171517E-01 0.12950723E+03</pdfrwt>
<totfact> 0.23163633E+02</totfact>
</mgrwt>
</event>
<event>
 8    1  0.3759079E-007  0.1311651E+03  0.7546771E-02  0.1225748E+00
          5   -1    0    0  501    0  0.00000000000E+00  0.00000000000E+00  0.14219878842E+03  0.14227644017E+03  0.47000000000E+01 0.  1.
         -5   -1    0    0    0  501 -0.00000000000E+00 -0.00000000000E+00 -0.13836882047E+03  0.13844862036E+03  0.47000000000E+01 0.  1.
         25    2    1    2    0    0  0.27752754840E+02  0.28299494219E+02 -0.48067222676E+02  0.13966624475E+03  0.12500050101E+03 0.  0.
         25    2    1    2    0    0 -0.27752754840E+02 -0.28299494219E+02  0.51897190619E+02  0.14105881577E+03  0.12503277306E+03 0.  0.
          5    1    4    4  502    0  0.39749344186E+02  0.81709424741E+01 -0.10355869658E+02  0.42143904666E+02  0.47000000000E+01 0.  1.
         -5    1    4    4    0  502 -0.67502099026E+02 -0.36470436693E+02  0.62253060277E+02  0.98914911107E+02  0.47000000000E+01 0.  1.
          5    1    3    3  503    0  0.40672837089E+02  0.19528361621E+02 -0.86634971675E+02  0.97792356049E+02  0.47000000000E+01 0. -1.
         -5    1    3    3    0  503 -0.12920082250E+02  0.87711325984E+01  0.38567748999E+02  0.41873888705E+02  0.47000000000E+01 0. -1.
<mgrwt>
<rscale>  0 0.13115736E+03</rscale>
<asrwt>0</asrwt>
<pdfrwt beam="1">  1        5 0.21888848E-01 0.13116505E+03</pdfrwt>
<pdfrwt beam="2">  1       -5 0.21299622E-01 0.13116505E+03</pdfrwt>
<totfact> 0.28805571E+02</totfact>
</mgrwt>
</event>
<event>
 8    1  0.3759079E-007  0.1436828E+03  0.7546771E-02  0.1208472E+00
         -5   -1    0    0    0  501 -0.00000000000E+00  0.00000000000E+00  0.19329410200E+03  0.19335123446E+03  0.47000000000E+01 0. -1.
          5   -1    0    0  501    0  0.00000000000E+00 -0.00000000000E+00 -0.12343095856E+03  0.12352040937E+03  0.47000000000E+01 0. -1.
         25    2    1    2    0    0 -0.69133004193E+02 -0.15512052641E+02  0.93323416796E+02  0.17133011594E+03  0.12499900983E+03 0.  0.
         25    2    1    2    0    0  0.69133004193E+02  0.15512052641E+02 -0.23460273360E+02  0.14554152790E+03  0.12494781259E+03 0.  0.
          5    1    4    4  502    0  0.88794159332E+02  0.33080807514E+01  0.24320945645E+02  0.92243940326E+02  0.47000000000E+01 0.  1.
         -5    1    4    4    0  502 -0.19661155139E+02  0.12203971890E+02 -0.47781219005E+02  0.53297587571E+02  0.47000000000E+01 0.  1.
          5    1    3    3  503    0 -0.42468639949E+02 -0.37818133593E+01 -0.24819633666E+02  0.49557963101E+02  0.47000000000E+01 0.  1.
         -5    1    3    3    0  503 -0.26664364244E+02 -0.11730239282E+02  0.11814305046E+03  0.12177215284E+03  0.47000000000E+01 0.  1.
<mgrwt>
<rscale>  0 0.14367167E+03</rscale>
<asrwt>0</asrwt>
<pdfrwt beam="2">  1        5 0.19000654E-01 0.14368281E+03</pdfrwt>
<pdfrwt beam="1">  1       -5 0.29748830E-01 0.14368281E+03</pdfrwt>
<totfact> 0.20397091E+02</totfact>
</mgrwt>
</event>
<event>
 8    1  0.3759079E-007  0.1455377E+03  0.7546771E-02  0.1206076E+00
         -5   -1    0    0    0  501 -0.00000000000E+00  0.00000000000E+00  0.28883445630E+03  0.28887269367E+03  0.47000000000E+01 0.  1.
          5   -1    0    0  501    0  0.00000000000E+00 -0.00000000000E+00 -0.73409887739E+02  0.73560190442E+02  0.47000000000E+01 0.  1.
         25    2    1    2    0    0 -0.50854798981E+02 -0.54455365624E+02  0.11743402120E+03  0.18700793415E+03  0.12501848133E+03 0.  0.
         25    2    1    2    0    0  0.50854798981E+02  0.54455365624E+02  0.97990547362E+02  0.17542494996E+03  0.12498067160E+03 0.  0.
          5    1    3    3  502    0 -0.17275727201E+02  0.35959701096E+02  0.78158126090E+01  0.40923438027E+02  0.47000000000E+01 0.  1.
         -5    1    3    3    0  502 -0.33579071780E+02 -0.90415066720E+02  0.10961820859E+03  0.14608449612E+03  0.47000000000E+01 0.  1.
          5    1    4    4  503    0 -0.14764563429E+01  0.51090488545E+02 -0.12678747485E+02  0.52870205040E+02  0.47000000000E+01 0.  1.
         -5    1    4    4    0  503  0.52331255323E+02  0.33648770789E+01  0.11066929485E+03  0.12255474492E+03  0.47000000000E+01 0.  1.
<mgrwt>
<rscale>  0 0.14552957E+03</rscale>
<asrwt>0</asrwt>
<pdfrwt beam="2">  1        5 0.11308332E-01 0.14553769E+03</pdfrwt>
<pdfrwt beam="1">  1       -5 0.44450573E-01 0.14553769E+03</pdfrwt>
<totfact> 0.23276758E+02</totfact>
</mgrwt>
</event>
<event>
 8    1  0.3759079E-007  0.1472123E+03  0.7546771E-02  0.1203941E+00
         -5   -1    0    0    0  501 -0.00000000000E+00  0.00000000000E+00  0.12011929179E+04  0.12012021129E+04  0.47000000000E+01 0.  1.
          5   -1    0    0  501    0  0.00000000000E+00 -0.00000000000E+00 -0.19027881478E+02  0.19599751875E+02  0.47000000000E+01 0.  1.
         25    2    1    2    0    0 -0.41635904257E+02  0.65668272718E+02  0.74828248835E+03  0.76262556579E+03  0.12500080264E+03 0.  0.
         25    2    1    2    0    0  0.41635904257E+02 -0.65668272718E+02  0.43388254809E+03  0.45817629899E+03  0.12500233940E+03 0.  0.
          5    1    4    4  502    0  0.63276463492E+02 -0.64506410228E+01  0.33349776155E+03  0.33954140920E+03  0.47000000000E+01 0. -1.
         -5    1    4    4    0  502 -0.21640559235E+02 -0.59217631695E+02  0.10038478653E+03  0.11863488979E+03  0.47000000000E+01 0. -1.
          5    1    3    3  503    0 -0.25046821254E+02  0.93427050013E+02  0.68073754233E+03  0.68759119284E+03  0.47000000000E+01 0. -1.
         -5    1    3    3    0  503 -0.16589083003E+02 -0.27758777295E+02  0.67544946023E+02  0.75034372957E+02  0.47000000000E+01 0. -1.
<mgrwt>
<rscale>  0 0.14721195E+03</rscale>
<asrwt>0</asrwt>
<pdfrwt beam="2">  1        5 0.29720633E-02 0.14721228E+03</pdfrwt>
<pdfrwt beam="1">  1       -5 0.18484364E+00 0.14721228E+03</pdfrwt>
<totfact> 0.69788741E+01</totfact>
</mgrwt>
</event>
<event>
 8    1  0.3759079E-007  0.1266172E+03  0.7546771E-02  0.1232585E+00
         -5   -1    0    0    0  501 -0.00000000000E+00  0.00000000000E+00  0.18602570389E+03  0.18608506794E+03  0.47000000000E+01 0.  1.
          5   -1    0    0  501    0  0.00000000000E+00 -0.00000000000E+00 -0.93833914075E+02  0.93951548315E+02  0.47000000000E+01 0.  1.
         25    2    1    2    0    0 -0.13180782594E+02  0.15250575982E+02  0.86510290911E+02  0.15334910873E+03  0.12500242245E+03 0.  0.
         25    2    1    2    0    0  0.13180782594E+02 -0.15250575982E+02  0.56814989084E+01  0.12668750752E+03  0.12494451582E+03 0.  0.
          5    1    4    4  502    0 -0.49030934721E+02 -0.25301672372E+02  0.24787531128E+02  0.60668928488E+02  0.47000000000E+01 0.  1.
         -5    1    4    4    0  502  0.62211717316E+02  0.10051096390E+02 -0.19106032219E+02  0.66018579030E+02  0.47000000000E+01 0.  1.
          5    1    3    3  503    0 -0.18925363994E+02  0.35735642700E+02 -0.19488473105E+02  0.45134201504E+02  0.47000000000E+01 0. -1.
         -5    1    3    3    0  503  0.57445813991E+01 -0.20485066718E+02  0.10599876402E+03  0.10821490723E+03  0.47000000000E+01 0. -1.
<mgrwt>
<rscale>  0 0.12660292E+03</rscale>
<asrwt>0</asrwt>
<pdfrwt beam="2">  1        5 0.14449602E-01 0.12661721E+03</pdfrwt>
<pdfrwt beam="1">  1       -5 0.28632954E-01 0.12661721E+03</pdfrwt>
<totfact> 0.34696458E+02</totfact>
</mgrwt>
</event>
<event>
 8    1  0.3759079E-007  0.1542216E+03  0.7546771E-02  0.1195385E+00
          5   -1    0    0  501    0  0.00000000000E+00  0.00000000000E+00  0.14235215534E+03  0.14242972347E+03  0.47000000000E+01 0.  1.
         -5   -1    0    0    0  501 -0.00000000000E+00 -0.00000000000E+00 -0.17179941420E+03  0.17186369227E+03  0.47000000000E+01 0.  1.
         25    2    1    2    0    0  0.51498409173E+02  0.74178654631E+02 -0.41238570127E+02  0.15962172446E+03  0.12499566513E+03 0.  0.
         25    2    1    2    0    0 -0.51498409173E+02 -0.74178654631E+02  0.11791311263E+02  0.15467169128E+03  0.12501895102E+03 0.  0.
          5    1    4    4  502    0 -0.13864812196E+02 -0.39583080112E+02 -0.55695610466E+02  0.69879498235E+02  0.47000000000E+01 0. -1.
         -5    1    4    4    0  502 -0.37633596977E+02 -0.34595574519E+02  0.67486921729E+02  0.84792193050E+02  0.47000000000E+01 0. -1.
          5    1    3    3  503    0  0.69843122253E+02  0.40995092339E+02  0.23493421593E+02  0.84455255491E+02  0.47000000000E+01 0. -1.
         -5    1    3    3    0  503 -0.18344713080E+02  0.33183562292E+02 -0.64731991721E+02  0.75166468964E+02  0.47000000000E+01 0. -1.
<mgrwt>
<rscale>  0 0.15421687E+03</rscale>
<asrwt>0</asrwt>
<pdfrwt beam="1">  1        5 0.21911243E-01 0.15422158E+03</pdfrwt>
<pdfrwt beam="2">  1       -5 0.26441590E-01 0.15422158E+03</pdfrwt>
<totfact> 0.20111784E+02</totfact>
</mgrwt>
</event>
<event>
 8    1  0.3759079E-007  0.1727073E+03  0.7546771E-02  0.1175055E+00
         -5   -1    0    0    0  501 -0.00000000000E+00  0.00000000000E+00  0.34534001939E+03  0.34537200088E+03  0.47000000000E+01 0.  1.
          5   -1    0    0  501    0  0.00000000000E+00 -0.00000000000E+00 -0.97648556604E+02  0.97761600882E+02  0.47000000000E+01 0.  1.
         25    2    1    2    0    0  0.90971429646E+02  0.76981588013E+02  0.19942565367E+03  0.26381508875E+03  0.12500337518E+03 0.  0.
         25    2    1    2    0    0 -0.90971429646E+02 -0.76981588013E+02  0.48265809110E+02  0.17931851301E+03  0.12499429936E+03 0.  0.
          5    1    4    4  502    0 -0.33476851053E+02 -0.99272810072E+02  0.72730452332E+01  0.10512267863E+03  0.47000000000E+01 0.  1.
         -5    1    4    4    0  502 -0.57494578593E+02  0.22291222059E+02  0.40992763877E+02  0.74195834376E+02  0.47000000000E+01 0.  1.
          5    1    3    3  503    0  0.10299547552E+03  0.10521145526E+02  0.10409800633E+03  0.14689195826E+03  0.47000000000E+01 0. -1.
         -5    1    3    3    0  503 -0.12024045876E+02  0.66460442487E+02  0.95327647345E+02  0.11692313049E+03  0.47000000000E+01 0. -1.
<mgrwt>
<rscale>  0 0.17270565E+03</rscale>
<asrwt>0</asrwt>
<pdfrwt beam="2">  1        5 0.15034010E-01 0.17270729E+03</pdfrwt>
<pdfrwt beam="1">  1       -5 0.53140391E-01 0.17270729E+03</pdfrwt>
<totfact> 0.10108778E+02</totfact>
</mgrwt>
</event>
<event>
 8    1  0.3759079E-007  0.1270905E+03  0.7546771E-02  0.1231841E+00
         -5   -1    0    0    0  501 -0.00000000000E+00  0.00000000000E+00  0.43750280341E+02  0.44002011658E+02  0.47000000000E+01 0. -1.
          5   -1    0    0  501    0  0.00000000000E+00 -0.00000000000E+00 -0.42280972856E+03  0.42283585062E+03  0.47000000000E+01 0. -1.
         25    2    1    2    0    0  0.22082483002E+02  0.63299532593E+01 -0.10539467504E+03  0.16510615237E+03  0.12499719861E+03 0.  0.
         25    2    1    2    0    0 -0.22082483002E+02 -0.63299532593E+01 -0.27366477318E+03  0.30173170990E+03  0.12498764865E+03 0.  0.
          5    1    4    4  502    0  0.47286632472E+02  0.12871149605E+02 -0.15730047047E+03  0.16482481644E+03  0.47000000000E+01 0.  1.
         -5    1    4    4    0  502 -0.69369115475E+02 -0.19201102864E+02 -0.11636430271E+03  0.13690689347E+03  0.47000000000E+01 0.  1.
          5    1    3    3  503    0 -0.37110891964E+02  0.43005510803E+02 -0.41768333951E+02  0.70663823721E+02  0.47000000000E+01 0.  1.
         -5    1    3    3    0  503  0.59193374966E+02 -0.36675557544E+02 -0.63626341087E+02  0.94442328652E+02  0.47000000000E+01 0.  1.
<mgrwt>
<rscale>  0 0.12708819E+03</rscale>
<asrwt>0</asrwt>
<pdfrwt beam="2">  1        5 0.65069021E-01 0.12709053E+03</pdfrwt>
<pdfrwt beam="1">  1       -5 0.67521860E-02 0.12709053E+03</pdfrwt>
<totfact> 0.23884187E+02</totfact>
</mgrwt>
</event>
<event>
 8    1  0.3759079E-007  0.1713364E+03  0.7546771E-02  0.1176463E+00
          5   -1    0    0  501    0  0.00000000000E+00  0.00000000000E+00  0.17373706543E+04  0.17373770116E+04  0.47000000000E+01 0.  1.
         -5   -1    0    0    0  501 -0.00000000000E+00 -0.00000000000E+00 -0.33377638397E+02  0.33706924288E+02  0.47000000000E+01 0.  1.
         25    2    1    2    0    0  0.55087377038E+02  0.10341054369E+03  0.22811050103E+03  0.28529030285E+03  0.12501118576E+03 0.  0.
         25    2    1    2    0    0 -0.55087377038E+02 -0.10341054369E+03  0.14758825149E+04  0.14857936330E+04  0.12500065044E+03 0.  0.
          5    1    4    4  502    0  0.39925997381E+02 -0.27075018366E+02  0.49129664762E+03  0.49368170702E+03  0.47000000000E+01 0. -1.
         -5    1    4    4    0  502 -0.95013374418E+02 -0.76335525320E+02  0.98458586723E+03  0.99211192599E+03  0.47000000000E+01 0. -1.
          5    1    3    3  503    0  0.50181572531E+02  0.48774725721E+02  0.21839767534E+03  0.22938351878E+03  0.47000000000E+01 0. -1.
         -5    1    3    3    0  503  0.49058045071E+01  0.54635817966E+02  0.97128256905E+01  0.55906784074E+02  0.47000000000E+01 0. -1.
<mgrwt>
<rscale>  0 0.17133446E+03</rscale>
<asrwt>0</asrwt>
<pdfrwt beam="1">  1        5 0.26731358E+00 0.17133638E+03</pdfrwt>
<pdfrwt beam="2">  1       -5 0.51608406E-02 0.17133638E+03</pdfrwt>
<totfact> 0.84222402E+00</totfact>
</mgrwt>
</event>
<event>
 8    1  0.3759079E-007  0.1413065E+03  0.7546771E-02  0.1211584E+00
         -5   -1    0    0    0  501 -0.00000000000E+00  0.00000000000E+00  0.13331437831E+03  0.13339720186E+03  0.47000000000E+01 0. -1.
          5   -1    0    0  501    0  0.00000000000E+00 -0.00000000000E+00 -0.15176423480E+03  0.15183699471E+03  0.47000000000E+01 0. -1.
         25    2    1    2    0    0 -0.59515591353E+02 -0.28290360037E+02  0.77796036487E+01  0.14151390175E+03  0.12499284808E+03 0.  0.
         25    2    1    2    0    0  0.59515591353E+02  0.28290360037E+02 -0.26229460137E+02  0.14372029482E+03  0.12500035391E+03 0.  0.
          5    1    3    3  502    0  0.35022981278E+02 -0.29044023387E+02 -0.49302230529E+01  0.46006104067E+02  0.47000000000E+01 0. -1.
         -5    1    3    3    0  502 -0.94538572631E+02  0.75366335019E+00  0.12709826702E+02  0.95507797684E+02  0.47000000000E+01 0. -1.
          5    1    4    4  503    0  0.62370520881E+02  0.41740489738E+02  0.33447805998E+02  0.82299429431E+02  0.47000000000E+01 0. -1.
         -5    1    4    4    0  503 -0.28549295277E+01 -0.13450129702E+02 -0.59677266136E+02  0.61420865388E+02  0.47000000000E+01 0. -1.
<mgrwt>
<rscale>  0 0.14130488E+03</rscale>
<asrwt>0</asrwt>
<pdfrwt beam="2">  1        5 0.23360312E-01 0.14130654E+03</pdfrwt>
<pdfrwt beam="1">  1       -5 0.20521872E-01 0.14130654E+03</pdfrwt>
<totfact> 0.28018940E+02</totfact>
</mgrwt>
</event>
<event>
 8    1  0.3759079E-007  0.1281299E+03  0.7546771E-02  0.1230262E+00
         -5   -1    0    0    0  501 -0.00000000000E+00  0.00000000000E+00  0.79978961359E+02  0.80116941155E+02  0.47000000000E+01 0.  1.
          5   -1    0    0  501    0  0.00000000000E+00 -0.00000000000E+00 -0.21135772795E+03  0.21140997886E+03  0.47000000000E+01 0.  1.
         25    2    1    2    0    0  0.36233506987E+01 -0.27866065160E+02 -0.40234630620E+02  0.13428660658E+03  0.12499768377E+03 0.  0.
         25    2    1    2    0    0 -0.36233506987E+01  0.27866065160E+02 -0.91144135967E+02  0.15724031343E+03  0.12501046512E+03 0.  0.
          5    1    4    4  502    0  0.25205307939E+01 -0.47639748215E+02 -0.55650141044E+02  0.73450165988E+02  0.47000000000E+01 0.  1.
         -5    1    4    4    0  502 -0.61438814925E+01  0.75505813376E+02 -0.35493994923E+02  0.83790147445E+02  0.47000000000E+01 0.  1.
          5    1    3    3  503    0 -0.55064428372E+02  0.28025560193E+01  0.24045424827E+01  0.55387881497E+02  0.47000000000E+01 0. -1.
         -5    1    3    3    0  503  0.58687779071E+02 -0.30668621180E+02 -0.42639173103E+02  0.78898725086E+02  0.47000000000E+01 0. -1.
<mgrwt>
<rscale>  0 0.12812675E+03</rscale>
<asrwt>0</asrwt>
<pdfrwt beam="2">  1        5 0.32531206E-01 0.12812987E+03</pdfrwt>
<pdfrwt beam="1">  1       -5 0.12319089E-01 0.12812987E+03</pdfrwt>
<totfact> 0.36069643E+02</totfact>
</mgrwt>
</event>
<event>
 8    1  0.3759079E-007  0.1665037E+03  0.7546771E-02  0.1181548E+00
         -5   -1    0    0    0  501 -0.00000000000E+00  0.00000000000E+00  0.64244025518E+02  0.64415718694E+02  0.47000000000E+01 0.  1.
          5   -1    0    0  501    0  0.00000000000E+00 -0.00000000000E+00 -0.44473729292E+03  0.44476212712E+03  0.47000000000E+01 0.  1.
         25    2    1    2    0    0 -0.10988187933E+03  0.42625545632E+01 -0.14509371680E+03  0.22085215865E+03  0.12502516765E+03 0.  0.
         25    2    1    2    0    0  0.10988187933E+03 -0.42625545632E+01 -0.23539955060E+03  0.28832568716E+03  0.12500622656E+03 0.  0.
          5    1    4    4  502    0  0.85008709100E+02  0.49506240078E+02 -0.18828236040E+03  0.21248455395E+03  0.47000000000E+01 0.  1.
         -5    1    4    4    0  502  0.24873170229E+02 -0.53768794641E+02 -0.47117190195E+02  0.75841133208E+02  0.47000000000E+01 0.  1.
          5    1    3    3  503    0 -0.44528269834E+02 -0.54514974141E+02 -0.98792233145E+02  0.12139458204E+03  0.47000000000E+01 0.  1.
         -5    1    3    3    0  503 -0.65353609495E+02  0.58777528704E+02 -0.46301483659E+02  0.99457576602E+02  0.47000000000E+01 0.  1.
<mgrwt>
<rscale>  0 0.16650017E+03</rscale>
<asrwt>0</asrwt>
<pdfrwt beam="2">  1        5 0.68436238E-01 0.16650372E+03</pdfrwt>
<pdfrwt beam="1">  1       -5 0.98988140E-02 0.16650372E+03</pdfrwt>
<totfact> 0.12073265E+02</totfact>
</mgrwt>
</event>
<event>
 8    1  0.3759079E-007  0.1315493E+03  0.7546771E-02  0.1225203E+00
         -5   -1    0    0    0  501 -0.00000000000E+00  0.00000000000E+00  0.10682476686E+03  0.10692811050E+03  0.47000000000E+01 0. -1.
          5   -1    0    0  501    0  0.00000000000E+00 -0.00000000000E+00 -0.16961084015E+03  0.16967594731E+03  0.47000000000E+01 0. -1.
         25    2    1    2    0    0  0.36632411417E+02 -0.17867184349E+02 -0.15020989480E+01  0.13148018772E+03  0.12499445435E+03 0.  0.
         25    2    1    2    0    0 -0.36632411417E+02  0.17867184349E+02 -0.61283974341E+02  0.14512387008E+03  0.12507614606E+03 0.  0.
          5    1    4    4  502    0 -0.57032795338E+02  0.58653067582E+02 -0.22249028670E+02  0.84911903509E+02  0.47000000000E+01 0.  1.
         -5    1    4    4    0  502  0.20400383920E+02 -0.40785883232E+02 -0.39034945671E+02  0.60211966574E+02  0.47000000000E+01 0.  1.
          5    1    3    3  503    0  0.65131860659E+02 -0.17300965042E+02 -0.43614944120E+02  0.80410422303E+02  0.47000000000E+01 0. -1.
         -5    1    3    3    0  503 -0.28499449241E+02 -0.56621930723E+00  0.42112845172E+02  0.51069765418E+02  0.47000000000E+01 0. -1.
<mgrwt>
<rscale>  0 0.13152985E+03</rscale>
<asrwt>0</asrwt>
<pdfrwt beam="2">  1        5 0.26106933E-01 0.13154928E+03</pdfrwt>
<pdfrwt beam="1">  1       -5 0.16447537E-01 0.13154928E+03</pdfrwt>
<totfact> 0.33269574E+02</totfact>
</mgrwt>
</event>
<event>
 8    1  0.3759079E-007  0.1279614E+03  0.7546771E-02  0.1230529E+00
          5   -1    0    0  501    0  0.00000000000E+00  0.00000000000E+00  0.49364062173E+02  0.49587303156E+02  0.47000000000E+01 0.  1.
         -5   -1    0    0    0  501 -0.00000000000E+00 -0.00000000000E+00 -0.33195099482E+03  0.33198426614E+03  0.47000000000E+01 0.  1.
         25    2    1    2    0    0  0.55689056045E+01  0.26793211644E+02 -0.15342974545E+03  0.19975933700E+03  0.12495686067E+03 0.  0.
         25    2    1    2    0    0 -0.55689056045E+01 -0.26793211644E+02 -0.12915718720E+03  0.18181223230E+03  0.12500087963E+03 0.  0.
          5    1    4    4  502    0  0.25454995678E+02  0.34818057346E+02 -0.10752666242E+02  0.44698587826E+02  0.47000000000E+01 0. -1.
         -5    1    4    4    0  502 -0.31023901282E+02 -0.61611268989E+02 -0.11840452096E+03  0.13711364447E+03  0.47000000000E+01 0. -1.
          5    1    3    3  503    0  0.11734560657E+02 -0.48848406587E+02 -0.76100934170E+02  0.91308865514E+02  0.47000000000E+01 0.  1.
         -5    1    3    3    0  503 -0.61656550523E+01  0.75641618231E+02 -0.77328811279E+02  0.10845047148E+03  0.47000000000E+01 0.  1.
<mgrwt>
<rscale>  0 0.12795061E+03</rscale>
<asrwt>0</asrwt>
<pdfrwt beam="1">  1        5 0.76142030E-02 0.12796136E+03</pdfrwt>
<pdfrwt beam="2">  1       -5 0.51089114E-01 0.12796136E+03</pdfrwt>
<totfact> 0.32996866E+02</totfact>
</mgrwt>
</event>
<event>
 8    1  0.3759079E-007  0.1729959E+03  0.7546771E-02  0.1174759E+00
         -5   -1    0    0    0  501 -0.00000000000E+00  0.00000000000E+00  0.15414548065E+03  0.15421711709E+03  0.47000000000E+01 0.  1.
          5   -1    0    0  501    0  0.00000000000E+00 -0.00000000000E+00 -0.22116718636E+03  0.22121712032E+03  0.47000000000E+01 0.  1.
         25    2    1    2    0    0  0.11549258656E+03 -0.31058076785E+02  0.32254352134E+02  0.17597703059E+03  0.12499772150E+03 0.  0.
         25    2    1    2    0    0 -0.11549258656E+03  0.31058076785E+02 -0.99276057847E+02  0.19945720682E+03  0.12499720000E+03 0.  0.
          5    1    4    4  502    0 -0.73792937954E+02  0.38199179160E+02  0.84224780241E+01  0.83651677308E+02  0.47000000000E+01 0. -1.
         -5    1    4    4    0  502 -0.41699648609E+02 -0.71411023753E+01 -0.10769853587E+03  0.11580552951E+03  0.47000000000E+01 0. -1.
          5    1    3    3  503    0  0.13755825476E+03 -0.56845730685E+01  0.34302396329E+02  0.14196243242E+03  0.47000000000E+01 0.  1.
         -5    1    3    3    0  503 -0.22065668199E+02 -0.25373503717E+02 -0.20480441948E+01  0.34014598174E+02  0.47000000000E+01 0.  1.
<mgrwt>
<rscale>  0 0.17299578E+03</rscale>
<asrwt>0</asrwt>
<pdfrwt beam="2">  1        5 0.34035072E-01 0.17299587E+03</pdfrwt>
<pdfrwt beam="1">  1       -5 0.23724041E-01 0.17299587E+03</pdfrwt>
<totfact> 0.10898106E+02</totfact>
</mgrwt>
</event>
<event>
 8    1  0.3759079E-007  0.1603675E+03  0.7546771E-02  0.1188289E+00
          5   -1    0    0  501    0  0.00000000000E+00  0.00000000000E+00  0.18076616292E+02  0.18677635198E+02  0.47000000000E+01 0.  1.
         -5   -1    0    0    0  501 -0.00000000000E+00 -0.00000000000E+00 -0.15715236454E+04  0.15715306736E+04  0.47000000000E+01 0.  1.
         25    2    1    2    0    0 -0.10039503475E+03 -0.24415106797E+01 -0.10404358014E+04  0.10527223778E+04  0.12503049226E+03 0.  0.
         25    2    1    2    0    0  0.10039503475E+03  0.24415106797E+01 -0.51301122780E+03  0.53748593104E+03  0.12500192896E+03 0.  0.
          5    1    4    4  502    0  0.61739686633E+01  0.85461896410E+01  0.37590716890E+01  0.12139846226E+02  0.47000000000E+01 0.  1.
         -5    1    4    4    0  502  0.94221066086E+02 -0.61046789613E+01 -0.51677029948E+03  0.52534608481E+03  0.47000000000E+01 0.  1.
          5    1    3    3  503    0 -0.23487830255E+02 -0.46785829563E+02 -0.17474240338E+03  0.18247627121E+03  0.47000000000E+01 0.  1.
         -5    1    3    3    0  503 -0.76907204494E+02  0.44344318883E+02 -0.86569339798E+03  0.87024610659E+03  0.47000000000E+01 0.  1.
<mgrwt>
<rscale>  0 0.16036197E+03</rscale>
<asrwt>0</asrwt>
<pdfrwt beam="1">  1        5 0.28277920E-02 0.16036754E+03</pdfrwt>
<pdfrwt beam="2">  1       -5 0.24181954E+00 0.16036754E+03</pdfrwt>
<totfact> 0.32367072E+01</totfact>
</mgrwt>
</event>
<event>
 8    1  0.3759079E-007  0.1313105E+03  0.7546771E-02  0.1225529E+00
          5   -1    0    0  501    0  0.00000000000E+00  0.00000000000E+00  0.13683438468E+03  0.13691507891E+03  0.47000000000E+01 0. -1.
         -5   -1    0    0    0  501 -0.00000000000E+00 -0.00000000000E+00 -0.14710789345E+03  0.14718295525E+03  0.47000000000E+01 0. -1.
         25    2    1    2    0    0  0.24546027201E+02 -0.31841104724E+02 -0.59124415557E+02  0.14400741221E+03  0.12500429935E+03 0.  0.
         25    2    1    2    0    0 -0.24546027201E+02  0.31841104724E+02  0.48850906789E+02  0.14009062194E+03  0.12499043108E+03 0.  0.
          5    1    4    4  502    0 -0.24648483853E+02 -0.14859556478E+02  0.79063843848E+02  0.84270609224E+02  0.47000000000E+01 0.  1.
         -5    1    4    4    0  502  0.10245665189E+00  0.46700661202E+02 -0.30212937059E+02  0.55820012717E+02  0.47000000000E+01 0.  1.
          5    1    3    3  503    0  0.28240529082E+02 -0.32992358213E+01  0.35076136434E+02  0.45396451260E+02  0.47000000000E+01 0.  1.
         -5    1    3    3    0  503 -0.36945018813E+01 -0.28541868902E+02 -0.94200551992E+02  0.98610960953E+02  0.47000000000E+01 0.  1.
<mgrwt>
<rscale>  0 0.13130716E+03</rscale>
<asrwt>0</asrwt>
<pdfrwt beam="1">  1        5 0.21063425E-01 0.13131047E+03</pdfrwt>
<pdfrwt beam="2">  1       -5 0.22643965E-01 0.13131047E+03</pdfrwt>
<totfact> 0.27601599E+02</totfact>
</mgrwt>
</event>
<event>
 8    1  0.3759079E-007  0.1331671E+03  0.7546771E-02  0.1222832E+00
         -5   -1    0    0    0  501 -0.00000000000E+00  0.00000000000E+00  0.29044376270E+03  0.29048178823E+03  0.47000000000E+01 0.  1.
          5   -1    0    0  501    0  0.00000000000E+00 -0.00000000000E+00 -0.63156778794E+02  0.63331419593E+02  0.47000000000E+01 0.  1.
         25    2    1    2    0    0  0.44518491645E+02  0.11201864745E+02  0.80427535138E+02  0.15557009373E+03  0.12500435105E+03 0.  0.
         25    2    1    2    0    0 -0.44518491645E+02 -0.11201864745E+02  0.14685944877E+03  0.19824311409E+03  0.12500102688E+03 0.  0.
          5    1    3    3  502    0 -0.60998307059E+01 -0.35044524610E+02  0.79072438454E+02  0.86832408482E+02  0.47000000000E+01 0. -1.
         -5    1    3    3    0  502  0.50618322351E+02  0.46246389356E+02  0.13550966839E+01  0.68737685247E+02  0.47000000000E+01 0. -1.
          5    1    4    4  503    0  0.39547670487E+02 -0.16991927545E+02  0.24957593929E+02  0.49977148152E+02  0.47000000000E+01 0. -1.
         -5    1    4    4    0  503 -0.84066162131E+02  0.57900628002E+01  0.12190185484E+03  0.14826596594E+03  0.47000000000E+01 0. -1.
<mgrwt>
<rscale>  0 0.13316628E+03</rscale>
<asrwt>0</asrwt>
<pdfrwt beam="2">  1        5 0.97327862E-02 0.13316706E+03</pdfrwt>
<pdfrwt beam="1">  1       -5 0.44700016E-01 0.13316706E+03</pdfrwt>
<totfact> 0.29040364E+02</totfact>
</mgrwt>
</event>
<event>
 8    1  0.3759079E-007  0.1326840E+03  0.7546771E-02  0.1223531E+00
         -5   -1    0    0    0  501 -0.00000000000E+00  0.00000000000E+00  0.68755659876E+02  0.68916113972E+02  0.47000000000E+01 0. -1.
          5   -1    0    0  501    0  0.00000000000E+00 -0.00000000000E+00 -0.45126528099E+03  0.45128975596E+03  0.47000000000E+01 0. -1.
         25    2    1    2    0    0 -0.14383031332E+02 -0.42088571673E+02 -0.19990748216E+02  0.13416832308E+03  0.12499275758E+03 0.  0.
         25    2    1    2    0    0  0.14383031332E+02  0.42088571673E+02 -0.36251887290E+03  0.38603754685E+03  0.12500693944E+03 0.  0.
          5    1    3    3  502    0 -0.58408593393E+02 -0.52590832741E+02  0.10441141208E+02  0.79425857882E+02  0.47000000000E+01 0.  1.
         -5    1    3    3    0  502  0.44025562060E+02  0.10502261068E+02 -0.30431889424E+02  0.54742465200E+02  0.47000000000E+01 0.  1.
          5    1    4    4  503    0 -0.28300273101E+02  0.35660455641E+02 -0.32630204566E+03  0.32949611311E+03  0.47000000000E+01 0. -1.
         -5    1    4    4    0  503  0.42683304433E+02  0.64281160326E+01 -0.36216827240E+02  0.56541433732E+02  0.47000000000E+01 0. -1.
<mgrwt>
<rscale>  0 0.13268070E+03</rscale>
<asrwt>0</asrwt>
<pdfrwt beam="2">  1        5 0.69439651E-01 0.13268404E+03</pdfrwt>
<pdfrwt beam="1">  1       -5 0.10592019E-01 0.13268404E+03</pdfrwt>
<totfact> 0.96639115E+01</totfact>
</mgrwt>
</event>
<event>
 8    1  0.3759079E-007  0.1334021E+03  0.7546771E-02  0.1222494E+00
         -5   -1    0    0    0  501 -0.00000000000E+00  0.00000000000E+00  0.86386857586E+02  0.86514618208E+02  0.47000000000E+01 0. -1.
          5   -1    0    0  501    0  0.00000000000E+00 -0.00000000000E+00 -0.21643517490E+03  0.21648620033E+03  0.47000000000E+01 0. -1.
         25    2    1    2    0    0  0.31174622682E+02  0.34625147075E+02 -0.31292005417E+02  0.13702303279E+03  0.12500145600E+03 0.  0.
         25    2    1    2    0    0 -0.31174622682E+02 -0.34625147075E+02 -0.98756311900E+02  0.16597778576E+03  0.12500023326E+03 0.  0.
          5    1    4    4  502    0  0.15572698967E+02 -0.10725580441E+02 -0.11030711852E+03  0.11201471968E+03  0.47000000000E+01 0.  1.
         -5    1    4    4    0  502 -0.46747321649E+02 -0.23899566634E+02  0.11550806620E+02  0.53963066075E+02  0.47000000000E+01 0.  1.
          5    1    3    3  503    0  0.56359538590E+02  0.64097135451E+02 -0.43759423030E+02  0.96030294527E+02  0.47000000000E+01 0. -1.
         -5    1    3    3    0  503 -0.25184915908E+02 -0.29471988376E+02  0.12467417613E+02  0.40992738260E+02  0.47000000000E+01 0. -1.
<mgrwt>
<rscale>  0 0.13340182E+03</rscale>
<asrwt>0</asrwt>
<pdfrwt beam="2">  1        5 0.33311472E-01 0.13340211E+03</pdfrwt>
<pdfrwt beam="1">  1       -5 0.13304039E-01 0.13340211E+03</pdfrwt>
<totfact> 0.30447515E+02</totfact>
</mgrwt>
</event>
<event>
 8    1  0.3759079E-007  0.1402487E+03  0.7546771E-02  0.1212995E+00
          5   -1    0    0  501    0  0.00000000000E+00  0.00000000000E+00  0.65252744812E+03  0.65254437439E+03  0.47000000000E+01 0.  1.
         -5   -1    0    0    0  501 -0.00000000000E+00 -0.00000000000E+00 -0.30242041404E+02  0.30605082393E+02  0.47000000000E+01 0.  1.
         25    2    1    2    0    0 -0.52343349853E+02  0.36119672068E+02  0.27739565678E+03  0.31083443030E+03  0.12500094271E+03 0.  0.
         25    2    1    2    0    0  0.52343349853E+02 -0.36119672068E+02  0.34488974993E+03  0.37231502648E+03  0.12500032939E+03 0.  0.
          5    1    3    3  502    0 -0.19758040049E+02 -0.46799534678E+02  0.10321091994E+03  0.11513105831E+03  0.47000000000E+01 0.  1.
         -5    1    3    3    0  502 -0.32585309804E+02  0.82919206746E+02  0.17418473684E+03  0.19570337200E+03  0.47000000000E+01 0.  1.
          5    1    4    4  503    0 -0.25340334587E+02 -0.30077702887E+02  0.23018951473E+03  0.23357248010E+03  0.47000000000E+01 0. -1.
         -5    1    4    4    0  503  0.77683684440E+02 -0.60419691803E+01  0.11470023520E+03  0.13874254638E+03  0.47000000000E+01 0. -1.
<mgrwt>
<rscale>  0 0.14024854E+03</rscale>
<asrwt>0</asrwt>
<pdfrwt beam="1">  1        5 0.10041807E+00 0.14024868E+03</pdfrwt>
<pdfrwt beam="2">  1       -5 0.46818500E-02 0.14024868E+03</pdfrwt>
<totfact> 0.16656313E+02</totfact>
</mgrwt>
</event>
<event>
 8    1  0.3759079E-007  0.1448439E+03  0.7546771E-02  0.1206957E+00
          5   -1    0    0  501    0  0.00000000000E+00  0.00000000000E+00  0.99312740475E+02  0.99423892604E+02  0.47000000000E+01 0.  1.
         -5   -1    0    0    0  501 -0.00000000000E+00 -0.00000000000E+00 -0.50447825428E+03  0.50450014771E+03  0.47000000000E+01 0.  1.
         25    2    1    2    0    0  0.70907422248E+02 -0.18080759662E+02 -0.43286717677E+03  0.45645782174E+03  0.12499989559E+03 0.  0.
         25    2    1    2    0    0 -0.70907422248E+02  0.18080759662E+02  0.27701662970E+02  0.14746621858E+03  0.12499650831E+03 0.  0.
          5    1    4    4  502    0 -0.24307073865E+02  0.61547069826E+01 -0.49900878768E+02  0.56043750408E+02  0.47000000000E+01 0.  1.
         -5    1    4    4    0  502 -0.46600348383E+02  0.11926052679E+02  0.77602541738E+02  0.91422468169E+02  0.47000000000E+01 0.  1.
          5    1    3    3  503    0 -0.21422031982E+02  0.14692573994E+02 -0.22575681057E+03  0.22729496850E+03  0.47000000000E+01 0. -1.
         -5    1    3    3    0  503  0.92329454230E+02 -0.32773333655E+02 -0.20711036620E+03  0.22916285324E+03  0.47000000000E+01 0. -1.
<mgrwt>
<rscale>  0 0.14484315E+03</rscale>
<asrwt>0</asrwt>
<pdfrwt beam="1">  1        5 0.15289118E-01 0.14484388E+03</pdfrwt>
<pdfrwt beam="2">  1       -5 0.77622272E-01 0.14484388E+03</pdfrwt>
<totfact> 0.40066644E+01</totfact>
</mgrwt>
</event>
<event>
 8    1  0.3759079E-007  0.1378465E+03  0.7546771E-02  0.1216259E+00
         -5   -1    0    0    0  501 -0.00000000000E+00  0.00000000000E+00  0.26798028776E+03  0.26802150031E+03  0.47000000000E+01 0.  1.
          5   -1    0    0  501    0  0.00000000000E+00 -0.00000000000E+00 -0.73236335783E+02  0.73386993936E+02  0.47000000000E+01 0.  1.
         25    2    1    2    0    0  0.48292645335E+02 -0.32297760041E+02  0.12859946084E+03  0.18851394676E+03  0.12499744757E+03 0.  0.
         25    2    1    2    0    0 -0.48292645335E+02  0.32297760041E+02  0.66144491144E+02  0.15289454749E+03  0.12500529607E+03 0.  0.
          5    1    4    4  502    0 -0.17055224939E+01  0.68230823906E+02  0.64231877550E+02  0.93841239503E+02  0.47000000000E+01 0. -1.
         -5    1    4    4    0  502 -0.46587122842E+02 -0.35933063865E+02  0.19126135933E+01  0.59053307986E+02  0.47000000000E+01 0. -1.
          5    1    3    3  503    0  0.18311181840E+01 -0.67047705480E+02  0.10710928782E+03  0.12646437183E+03  0.47000000000E+01 0.  1.
         -5    1    3    3    0  503  0.46461527151E+02  0.34749945439E+02  0.21490173017E+02  0.62049574935E+02  0.47000000000E+01 0.  1.
<mgrwt>
<rscale>  0 0.13784469E+03</rscale>
<asrwt>0</asrwt>
<pdfrwt beam="2">  1        5 0.11281888E-01 0.13784647E+03</pdfrwt>
<pdfrwt beam="1">  1       -5 0.41242495E-01 0.13784647E+03</pdfrwt>
<totfact> 0.26795203E+02</totfact>
</mgrwt>
</event>
<event>
 8    1  0.3759079E-007  0.1612486E+03  0.7546771E-02  0.1187299E+00
          5   -1    0    0  501    0  0.00000000000E+00  0.00000000000E+00  0.22448870671E+03  0.22453790201E+03  0.47000000000E+01 0. -1.
         -5   -1    0    0    0  501 -0.00000000000E+00 -0.00000000000E+00 -0.15041418107E+03  0.15048759373E+03  0.47000000000E+01 0. -1.
         25    2    1    2    0    0  0.97428517734E+02 -0.29649094238E+02 -0.53004308987E+02  0.16972052248E+03  0.12499685644E+03 0.  0.
         25    2    1    2    0    0 -0.97428517734E+02  0.29649094238E+02  0.12707883462E+03  0.20530497327E+03  0.12501886651E+03 0.  0.
          5    1    4    4  502    0  0.51353926216E+01 -0.37497357782E+02  0.23923817652E+02  0.45020696897E+02  0.47000000000E+01 0. -1.
         -5    1    4    4    0  502 -0.10256391036E+03  0.67146452021E+02  0.10315501697E+03  0.16028427637E+03  0.47000000000E+01 0. -1.
          5    1    3    3  503    0  0.83186127663E+02  0.21879820954E+02 -0.72530207635E+02  0.11261163093E+03  0.47000000000E+01 0.  1.
         -5    1    3    3    0  503  0.14242390072E+02 -0.51528915192E+02  0.19525898648E+02  0.57108891548E+02  0.47000000000E+01 0.  1.
<mgrwt>
<rscale>  0 0.16124431E+03</rscale>
<asrwt>0</asrwt>
<pdfrwt beam="1">  1        5 0.34546156E-01 0.16124857E+03</pdfrwt>
<pdfrwt beam="2">  1       -5 0.23150075E-01 0.16124857E+03</pdfrwt>
<totfact> 0.10854616E+02</totfact>
</mgrwt>
</event>
<event>
 8    1  0.3759079E-007  0.1321138E+03  0.7546771E-02  0.1224356E+00
         -5   -1    0    0    0  501 -0.00000000000E+00  0.00000000000E+00  0.25602375677E+03  0.25606689366E+03  0.47000000000E+01 0.  1.
          5   -1    0    0  501    0  0.00000000000E+00 -0.00000000000E+00 -0.75265030238E+02  0.75411635552E+02  0.47000000000E+01 0.  1.
         25    2    1    2    0    0 -0.35504387455E+02  0.23839891231E+02  0.14166815184E+03  0.19371093984E+03  0.12500064411E+03 0.  0.
         25    2    1    2    0    0  0.35504387455E+02 -0.23839891231E+02  0.39090574693E+02  0.13776758937E+03  0.12499173456E+03 0.  0.
          5    1    3    3  502    0  0.45935452089E+02 -0.27686233825E+01  0.52189008354E+02  0.69738896084E+02  0.47000000000E+01 0.  1.
         -5    1    3    3    0  502 -0.81439839544E+02  0.26608514614E+02  0.89479143483E+02  0.12397204376E+03  0.47000000000E+01 0.  1.
          5    1    4    4  503    0 -0.42874161164E+02 -0.26913711830E+02  0.20111245190E+01  0.50879034993E+02  0.47000000000E+01 0. -1.
         -5    1    4    4    0  503  0.78378548619E+02  0.30738205983E+01  0.37079450174E+02  0.86888554378E+02  0.47000000000E+01 0. -1.
<mgrwt>
<rscale>  0 0.13211172E+03</rscale>
<asrwt>0</asrwt>
<pdfrwt beam="2">  1        5 0.11593831E-01 0.13211383E+03</pdfrwt>
<pdfrwt beam="1">  1       -5 0.39402866E-01 0.13211383E+03</pdfrwt>
<totfact> 0.27630959E+02</totfact>
</mgrwt>
</event>
<event>
 8    1  0.3759079E-007  0.1461566E+03  0.7546771E-02  0.1205279E+00
         -5   -1    0    0    0  501 -0.00000000000E+00  0.00000000000E+00  0.22339408735E+03  0.22344352365E+03  0.47000000000E+01 0. -1.
          5   -1    0    0  501    0  0.00000000000E+00 -0.00000000000E+00 -0.17484610623E+03  0.17490926466E+03  0.47000000000E+01 0. -1.
         25    2    1    2    0    0 -0.22427391270E+02  0.72337266593E+02  0.15839441756E+03  0.21551955587E+03  0.12499687768E+03 0.  0.
         25    2    1    2    0    0  0.22427391270E+02 -0.72337266593E+02 -0.10984643644E+03  0.18283323244E+03  0.12500433300E+03 0.  0.
          5    1    4    4  502    0 -0.11053918321E+02 -0.30223112841E+02  0.22730301252E+02  0.39678486048E+02  0.47000000000E+01 0. -1.
         -5    1    4    4    0  502  0.33481309590E+02 -0.42114153752E+02 -0.13257673769E+03  0.14315474640E+03  0.47000000000E+01 0. -1.
          5    1    3    3  503    0 -0.47751019864E+02  0.63602919240E+02  0.16859549474E+03  0.18647257729E+03  0.47000000000E+01 0.  1.
         -5    1    3    3    0  503  0.25323628594E+02  0.87343473528E+01 -0.10201077181E+02  0.29046978578E+02  0.47000000000E+01 0.  1.
<mgrwt>
<rscale>  0 0.14615500E+03</rscale>
<asrwt>0</asrwt>
<pdfrwt beam="2">  1        5 0.26908062E-01 0.14615660E+03</pdfrwt>
<pdfrwt beam="1">  1       -5 0.34376982E-01 0.14615660E+03</pdfrwt>
<totfact> 0.79637846E+01</totfact>
</mgrwt>
</event>
<event>
 8    1  0.3759079E-007  0.1458776E+03  0.7546771E-02  0.1205634E+00
         -5   -1    0    0    0  501 -0.00000000000E+00  0.00000000000E+00  0.63049275867E+03  0.63051027647E+03  0.47000000000E+01 0. -1.
          5   -1    0    0  501    0  0.00000000000E+00 -0.00000000000E+00 -0.36603550561E+02  0.36904063647E+02  0.47000000000E+01 0. -1.
         25    2    1    2    0    0  0.66022666599E+02  0.35978814327E+02  0.39260029828E+03  0.41882607206E+03  0.12500726714E+03 0.  0.
         25    2    1    2    0    0 -0.66022666599E+02 -0.35978814327E+02  0.20128890982E+03  0.24858826806E+03  0.12500173684E+03 0.  0.
          5    1    3    3  502    0  0.26753960433E+02 -0.60693156659E+01  0.66950125094E+01  0.28627332813E+02  0.47000000000E+01 0.  1.
         -5    1    3    3    0  502  0.39268706167E+02  0.42048129993E+02  0.38590528577E+03  0.39019873924E+03  0.47000000000E+01 0.  1.
          5    1    4    4  503    0  0.95514102309E+01  0.26594915658E+02  0.11279460250E+03  0.11637538971E+03  0.47000000000E+01 0. -1.
         -5    1    4    4    0  503 -0.75574076830E+02 -0.62573729985E+02  0.88494307320E+02  0.13221287835E+03  0.47000000000E+01 0. -1.
<mgrwt>
<rscale>  0 0.14587645E+03</rscale>
<asrwt>0</asrwt>
<pdfrwt beam="2">  1        5 0.56557795E-02 0.14587764E+03</pdfrwt>
<pdfrwt beam="1">  1       -5 0.97023349E-01 0.14587764E+03</pdfrwt>
<totfact> 0.13385583E+02</totfact>
</mgrwt>
</event>
<event>
 8    1  0.3759079E-007  0.1804616E+03  0.7546771E-02  0.1167359E+00
          5   -1    0    0  501    0  0.00000000000E+00  0.00000000000E+00  0.54313387077E+03  0.54315420607E+03  0.47000000000E+01 0.  1.
         -5   -1    0    0    0  501 -0.00000000000E+00 -0.00000000000E+00 -0.63292459419E+02  0.63466726868E+02  0.47000000000E+01 0.  1.
         25    2    1    2    0    0  0.13006292564E+03 -0.49296377949E+01  0.16923768756E+03  0.24740209993E+03  0.12500295279E+03 0.  0.
         25    2    1    2    0    0 -0.13006292564E+03  0.49296377949E+01  0.31060372379E+03  0.35921883301E+03  0.12499132291E+03 0.  0.
          5    1    4    4  502    0 -0.11556660890E+03  0.52226429847E+02  0.25371307448E+03  0.28368231392E+03  0.47000000000E+01 0. -1.
         -5    1    4    4    0  502 -0.14496316734E+02 -0.47296792052E+02  0.56890649307E+02  0.75536519088E+02  0.47000000000E+01 0. -1.
          5    1    3    3  503    0  0.11551040087E+02 -0.61389973398E+01 -0.19825506846E+02  0.24212693719E+02  0.47000000000E+01 0.  1.
         -5    1    3    3    0  503  0.11851188555E+03  0.12093595450E+01  0.18906319440E+03  0.22318940621E+03  0.47000000000E+01 0.  1.
<mgrwt>
<rscale>  0 0.18045963E+03</rscale>
<asrwt>0</asrwt>
<pdfrwt beam="1">  1        5 0.83574025E-01 0.18046164E+03</pdfrwt>
<pdfrwt beam="2">  1       -5 0.97522711E-02 0.18046164E+03</pdfrwt>
<totfact> 0.80131705E+01</totfact>
</mgrwt>
</event>
<event>
 8    1  0.3759079E-007  0.1648476E+03  0.7546771E-02  0.1183331E+00
         -5   -1    0    0    0  501 -0.00000000000E+00  0.00000000000E+00  0.36335775687E+02  0.36638485159E+02  0.47000000000E+01 0.  1.
          5   -1    0    0  501    0  0.00000000000E+00 -0.00000000000E+00 -0.87111865092E+03  0.87113132992E+03  0.47000000000E+01 0.  1.
         25    2    1    2    0    0 -0.52436833436E+02  0.93802155128E+02 -0.24434580707E+03  0.29475345554E+03  0.12500504116E+03 0.  0.
         25    2    1    2    0    0  0.52436833436E+02 -0.93802155128E+02 -0.59043706816E+03  0.61301635954E+03  0.12499863917E+03 0.  0.
          5    1    3    3  502    0 -0.13819063393E+02  0.72691983860E+02 -0.37238161254E+02  0.82969040516E+02  0.47000000000E+01 0. -1.
         -5    1    3    3    0  502 -0.38617770043E+02  0.21110171268E+02 -0.20710764582E+03  0.21178441503E+03  0.47000000000E+01 0. -1.
          5    1    4    4  503    0  0.27520161852E+02 -0.12298720454E+03 -0.44447442819E+03  0.46202036655E+03  0.47000000000E+01 0. -1.
         -5    1    4    4    0  503  0.24916671584E+02  0.29185049413E+02 -0.14596263997E+03  0.15099599299E+03  0.47000000000E+01 0. -1.
<mgrwt>
<rscale>  0 0.16484637E+03</rscale>
<asrwt>0</asrwt>
<pdfrwt beam="2">  1        5 0.13404250E+00 0.16484758E+03</pdfrwt>
<pdfrwt beam="1">  1       -5 0.56143807E-02 0.16484758E+03</pdfrwt>
<totfact> 0.62212702E+01</totfact>
</mgrwt>
</event>
<event>
 8    1  0.3759079E-007  0.1254862E+03  0.7546771E-02  0.1234311E+00
         -5   -1    0    0    0  501 -0.00000000000E+00  0.00000000000E+00  0.12290378083E+04  0.12290467950E+04  0.47000000000E+01 0. -1.
          5   -1    0    0  501    0  0.00000000000E+00 -0.00000000000E+00 -0.14810502558E+02  0.15538371409E+02  0.47000000000E+01 0. -1.
         25    2    1    2    0    0 -0.42670938421E+00  0.11024651392E+02  0.85303250007E+03  0.86221298941E+03  0.12500027163E+03 0.  0.
         25    2    1    2    0    0  0.42670938421E+00 -0.11024651392E+02  0.36119480566E+03  0.38237217697E+03  0.12500027624E+03 0.  0.
          5    1    4    4  502    0 -0.29429838497E+02 -0.57198862768E+02  0.13607275283E+03  0.15058455883E+03  0.47000000000E+01 0.  1.
         -5    1    4    4    0  502  0.29856547882E+02  0.46174211376E+02  0.22512205283E+03  0.23178761813E+03  0.47000000000E+01 0.  1.
          5    1    3    3  503    0 -0.53890303963E+02  0.30218210414E+00  0.63928973311E+03  0.64157439867E+03  0.47000000000E+01 0. -1.
         -5    1    3    3    0  503  0.53463594579E+02  0.10722469288E+02  0.21374276696E+03  0.22063859074E+03  0.47000000000E+01 0. -1.
<mgrwt>
<rscale>  0 0.12548623E+03</rscale>
<asrwt>0</asrwt>
<pdfrwt beam="2">  1        5 0.23352204E-02 0.12548623E+03</pdfrwt>
<pdfrwt beam="1">  1       -5 0.18913940E+00 0.12548623E+03</pdfrwt>
<totfact> 0.91428345E+01</totfact>
</mgrwt>
</event>
<event>
 8    1  0.3759079E-007  0.1520273E+03  0.7546771E-02  0.1198005E+00
         -5   -1    0    0    0  501 -0.00000000000E+00  0.00000000000E+00  0.14570410197E+04  0.14570486001E+04  0.47000000000E+01 0. -1.
          5   -1    0    0  501    0  0.00000000000E+00 -0.00000000000E+00 -0.15616188387E+02  0.16308137225E+02  0.47000000000E+01 0. -1.
         25    2    1    2    0    0  0.84841480007E+02 -0.16983090116E+02  0.78118490272E+03  0.79584052823E+03  0.12500316813E+03 0.  0.
         25    2    1    2    0    0 -0.84841480007E+02  0.16983090116E+02  0.66023992856E+03  0.67751620908E+03  0.12499979290E+03 0.  0.
          5    1    3    3  502    0  0.56141214634E+02 -0.68876535937E+02  0.38064671490E+03  0.39090897245E+03  0.47000000000E+01 0.  1.
         -5    1    3    3    0  502  0.28700265373E+02  0.51893445821E+02  0.40053818783E+03  0.40493155577E+03  0.47000000000E+01 0.  1.
          5    1    4    4  503    0 -0.53069417586E+02 -0.18150147188E+02  0.58992542675E+03  0.59260432842E+03  0.47000000000E+01 0.  1.
         -5    1    4    4    0  503 -0.31772062421E+02  0.35133237304E+02  0.70314501801E+02  0.84911880662E+02  0.47000000000E+01 0.  1.
<mgrwt>
<rscale>  0 0.15202659E+03</rscale>
<asrwt>0</asrwt>
<pdfrwt beam="2">  1        5 0.24562991E-02 0.15202728E+03</pdfrwt>
<pdfrwt beam="1">  1       -5 0.22421409E+00 0.15202728E+03</pdfrwt>
<totfact> 0.51992246E+01</totfact>
</mgrwt>
</event>
<event>
 8    1  0.3759079E-007  0.1304473E+03  0.7546771E-02  0.1226796E+00
          5   -1    0    0  501    0  0.00000000000E+00  0.00000000000E+00  0.15246064426E+03  0.15253307199E+03  0.47000000000E+01 0.  1.
         -5   -1    0    0    0  501 -0.00000000000E+00 -0.00000000000E+00 -0.11182131142E+03  0.11192004149E+03  0.47000000000E+01 0.  1.
         25    2    1    2    0    0 -0.30030807641E+02  0.22083916980E+02  0.12794731925E+02  0.13107327906E+03  0.12500780185E+03 0.  0.
         25    2    1    2    0    0  0.30030807641E+02 -0.22083916980E+02  0.27844600922E+02  0.13337983441E+03  0.12500123851E+03 0.  0.
          5    1    4    4  502    0  0.64991957682E+02  0.25914239797E+02  0.22154640822E+02  0.73541964194E+02  0.47000000000E+01 0. -1.
         -5    1    4    4    0  502 -0.34961150041E+02 -0.47998156776E+02  0.56899600997E+01  0.59837870216E+02  0.47000000000E+01 0. -1.
          5    1    3    3  503    0 -0.20017307493E+02 -0.28801104143E+02  0.54073278626E+02  0.64623568924E+02  0.47000000000E+01 0. -1.
         -5    1    3    3    0  503 -0.10013500148E+02  0.50885021123E+02 -0.41278546701E+02  0.66449710140E+02  0.47000000000E+01 0. -1.
<mgrwt>
<rscale>  0 0.13044573E+03</rscale>
<asrwt>0</asrwt>
<pdfrwt beam="1">  1        5 0.23468650E-01 0.13044730E+03</pdfrwt>
<pdfrwt beam="2">  1       -5 0.17216445E-01 0.13044730E+03</pdfrwt>
<totfact> 0.37399302E+02</totfact>
</mgrwt>
</event>
<event>
 8    1  0.3759079E-007  0.2267286E+03  0.7546771E-02  0.1128965E+00
         -5   -1    0    0    0  501 -0.00000000000E+00  0.00000000000E+00  0.31682540232E+03  0.31686026188E+03  0.47000000000E+01 0.  1.
          5   -1    0    0  501    0  0.00000000000E+00 -0.00000000000E+00 -0.18066283755E+03  0.18072396319E+03  0.47000000000E+01 0.  1.
         25    2    1    2    0    0  0.20012694479E+02 -0.18808637994E+03  0.14765678415E+03  0.27056442589E+03  0.12500235355E+03 0.  0.
         25    2    1    2    0    0 -0.20012694479E+02  0.18808637994E+03 -0.11494219383E+02  0.22701979918E+03  0.12501551056E+03 0.  0.
          5    1    3    3  502    0  0.56467924101E+02 -0.17977043742E+03  0.12982576797E+03  0.22887301425E+03  0.47000000000E+01 0. -1.
         -5    1    3    3    0  502 -0.36455229621E+02 -0.83159425206E+01  0.17831016186E+02  0.41691411645E+02  0.47000000000E+01 0. -1.
          5    1    4    4  503    0 -0.36349409774E+01  0.20133030896E+03 -0.22717830306E+02  0.20269508114E+03  0.47000000000E+01 0.  1.
         -5    1    4    4    0  503 -0.16377753502E+02 -0.13243929021E+02  0.11223610923E+02  0.24324718042E+02  0.47000000000E+01 0.  1.
<mgrwt>
<rscale>  0 0.22672682E+03</rscale>
<asrwt>0</asrwt>
<pdfrwt beam="2">  1        5 0.27801667E-01 0.22672863E+03</pdfrwt>
<pdfrwt beam="1">  1       -5 0.48749752E-01 0.22672863E+03</pdfrwt>
<totfact> 0.41067646E+01</totfact>
</mgrwt>
</event>
<event>
 8    1  0.3759079E-007  0.1261656E+03  0.7546771E-02  0.1233267E+00
         -5   -1    0    0    0  501 -0.00000000000E+00  0.00000000000E+00  0.31211291171E+03  0.31214829754E+03  0.47000000000E+01 0. -1.
          5   -1    0    0  501    0  0.00000000000E+00 -0.00000000000E+00 -0.59303286926E+02  0.59489241382E+02  0.47000000000E+01 0. -1.
         25    2    1    2    0    0  0.16402245998E+02 -0.42908169552E+01  0.19645388810E+03  0.23347780633E+03  0.12502124266E+03 0.  0.
         25    2    1    2    0    0 -0.16402245998E+02  0.42908169552E+01  0.56355736683E+02  0.13815973258E+03  0.12499879146E+03 0.  0.
          5    1    4    4  502    0 -0.64287298939E+02  0.29474744493E+02  0.23428416364E+02  0.74649836310E+02  0.47000000000E+01 0.  1.
         -5    1    4    4    0  502  0.47885052941E+02 -0.25183927537E+02  0.32927320319E+02  0.63509896274E+02  0.47000000000E+01 0.  1.
          5    1    3    3  503    0  0.38744344129E+02  0.29781728556E+02  0.21176973481E+02  0.53466155309E+02  0.47000000000E+01 0. -1.
         -5    1    3    3    0  503 -0.22342098131E+02 -0.34072545511E+02  0.17527691462E+03  0.18001165102E+03  0.47000000000E+01 0. -1.
<mgrwt>
<rscale>  0 0.12616003E+03</rscale>
<asrwt>0</asrwt>
<pdfrwt beam="2">  1        5 0.91406086E-02 0.12616559E+03</pdfrwt>
<pdfrwt beam="1">  1       -5 0.48034398E-01 0.12616559E+03</pdfrwt>
<totfact> 0.27322047E+02</totfact>
</mgrwt>
</event>
<event>
 8    1  0.3759079E-007  0.1330077E+03  0.7546771E-02  0.1223074E+00
          5   -1    0    0  501    0  0.00000000000E+00  0.00000000000E+00  0.12018874120E+04  0.12018966017E+04  0.47000000000E+01 0.  1.
         -5   -1    0    0    0  501 -0.00000000000E+00 -0.00000000000E+00 -0.35865116055E+02  0.36171764535E+02  0.47000000000E+01 0.  1.
         25    2    1    2    0    0  0.43718271409E+02 -0.12833641815E+02  0.10685688577E+03  0.17058421567E+03  0.12491833725E+03 0.  0.
         25    2    1    2    0    0 -0.43718271409E+02  0.12833641815E+02  0.10591654102E+04  0.10674841505E+04  0.12496021744E+03 0.  0.
          5    1    4    4  502    0 -0.41924350814E+02  0.27287224383E+02  0.15001689489E+03  0.15820683474E+03  0.47000000000E+01 0. -1.
         -5    1    4    4    0  502 -0.17939205943E+01 -0.14453582567E+02  0.90914851527E+03  0.90927731580E+03  0.47000000000E+01 0. -1.
          5    1    3    3  503    0  0.25175149817E+02  0.55826684513E+02  0.44035861775E+02  0.75575485405E+02  0.47000000000E+01 0. -1.
         -5    1    3    3    0  503  0.18543121592E+02 -0.68660326328E+02  0.62821023997E+02  0.95008730261E+02  0.47000000000E+01 0. -1.
<mgrwt>
<rscale>  0 0.13299785E+03</rscale>
<asrwt>0</asrwt>
<pdfrwt beam="1">  1        5 0.18493006E+00 0.13300769E+03</pdfrwt>
<pdfrwt beam="2">  1       -5 0.55420052E-02 0.13300769E+03</pdfrwt>
<totfact> 0.24344531E+01</totfact>
</mgrwt>
</event>
<event>
 8    1  0.3759079E-007  0.2224717E+03  0.7546771E-02  0.1132055E+00
         -5   -1    0    0    0  501 -0.00000000000E+00  0.00000000000E+00  0.59115366957E+03  0.59117235308E+03  0.47000000000E+01 0. -1.
          5   -1    0    0  501    0  0.00000000000E+00 -0.00000000000E+00 -0.83662086022E+02  0.83794001203E+02  0.47000000000E+01 0. -1.
         25    2    1    2    0    0  0.18206708385E+03 -0.26704095829E+02  0.25990167674E+03  0.34210837997E+03  0.12501092080E+03 0.  0.
         25    2    1    2    0    0 -0.18206708385E+03  0.26704095829E+02  0.24758990681E+03  0.33285797432E+03  0.12502854615E+03 0.  0.
          5    1    3    3  502    0  0.22236507686E+02  0.17592692006E+02 -0.53519737502E+01  0.29235230615E+02  0.47000000000E+01 0. -1.
         -5    1    3    3    0  502  0.15983057617E+03 -0.44296787836E+02  0.26525365049E+03  0.31287314936E+03  0.47000000000E+01 0. -1.
          5    1    4    4  503    0 -0.25535850206E+02 -0.24523008731E+02  0.11784747719E+03  0.12314047053E+03  0.47000000000E+01 0. -1.
         -5    1    4    4    0  503 -0.15653123365E+03  0.51227104560E+02  0.12974242962E+03  0.20971750378E+03  0.47000000000E+01 0. -1.
<mgrwt>
<rscale>  0 0.22246925E+03</rscale>
<asrwt>0</asrwt>
<pdfrwt beam="2">  1        5 0.12882675E-01 0.22247173E+03</pdfrwt>
<pdfrwt beam="1">  1       -5 0.90958302E-01 0.22247173E+03</pdfrwt>
<totfact> 0.42261462E+01</totfact>
</mgrwt>
</event>
<event>
 8    1  0.3759079E-007  0.1280380E+03  0.7546771E-02  0.1230400E+00
         -5   -1    0    0    0  501 -0.00000000000E+00  0.00000000000E+00  0.38956267996E+03  0.38959103123E+03  0.47000000000E+01 0.  1.
          5   -1    0    0  501    0  0.00000000000E+00 -0.00000000000E+00 -0.43413378048E+02  0.43667051578E+02  0.47000000000E+01 0.  1.
         25    2    1    2    0    0 -0.18555194465E+02  0.20562946274E+02  0.21314704914E+03  0.24864712132E+03  0.12500638538E+03 0.  0.
         25    2    1    2    0    0  0.18555194465E+02 -0.20562946274E+02  0.13300225278E+03  0.18461096149E+03  0.12499791141E+03 0.  0.
          5    1    3    3  502    0 -0.14579274068E+02 -0.50013584919E+02  0.58071907795E+02  0.78155936331E+02  0.47000000000E+01 0.  1.
         -5    1    3    3    0  502 -0.39759203974E+01  0.70576531193E+02  0.15507514134E+03  0.17049118499E+03  0.47000000000E+01 0.  1.
          5    1    4    4  503    0  0.58494525388E+02 -0.43421634582E+02  0.11227732572E+03  0.13392287228E+03  0.47000000000E+01 0.  1.
         -5    1    4    4    0  503 -0.39939330922E+02  0.22858688308E+02  0.20724927057E+02  0.50688089204E+02  0.47000000000E+01 0.  1.
<mgrwt>
<rscale>  0 0.12803592E+03</rscale>
<asrwt>0</asrwt>
<pdfrwt beam="2">  1        5 0.67006758E-02 0.12803799E+03</pdfrwt>
<pdfrwt beam="1">  1       -5 0.59954411E-01 0.12803799E+03</pdfrwt>
<totfact> 0.29051055E+02</totfact>
</mgrwt>
</event>
