<event>
 8    1  0.3674342E-007  0.1421016E+03  0.7546771E-02  0.1210533E+00
          5   -1    0    0  501    0  0.00000000000E+00  0.00000000000E+00  0.14078662183E+03  0.14086505204E+03  0.47000000000E+01 0.  1.
         -5   -1    0    0    0  501 -0.00000000000E+00 -0.00000000000E+00 -0.15746514481E+03  0.15753527170E+03  0.47000000000E+01 0.  1.
         25    2    1    2    0    0 -0.54004002038E+02  0.40623681525E+02 -0.53129678849E+02  0.15170900814E+03  0.12500457847E+03 0.  0.
         25    2    1    2    0    0  0.54004002038E+02 -0.40623681525E+02  0.36451155877E+02  0.14669131560E+03  0.12499175802E+03 0.  0.
          5    1    4    4  502    0  0.11132690045E+02  0.43629352786E+02  0.23957951644E+02  0.51220412524E+02  0.47000000000E+01 0.  1.
         -5    1    4    4    0  502  0.42871311993E+02 -0.84253034312E+02  0.12493204233E+02  0.95470903079E+02  0.47000000000E+01 0.  1.
          5    1    3    3  503    0 -0.31602875955E+01  0.75570418617E+02 -0.47816561622E+02  0.89606858850E+02  0.47000000000E+01 0.  1.
         -5    1    3    3    0  503 -0.50843714443E+02 -0.34946737092E+02 -0.53131172271E+01  0.62102149289E+02  0.47000000000E+01 0.  1.
<mgrwt>
<rscale>  0 0.14209877E+03</rscale>
<asrwt>0</asrwt>
<pdfrwt beam="1">  1        5 0.21670908E-01 0.14210158E+03</pdfrwt>
<pdfrwt beam="2">  1       -5 0.24236834E-01 0.14210158E+03</pdfrwt>
<totfact> 0.23623405E+02</totfact>
</mgrwt>
</event>
<event>
 8    1  0.3674342E-007  0.1547783E+03  0.7546771E-02  0.1194722E+00
          5   -1    0    0  501    0  0.00000000000E+00  0.00000000000E+00  0.16621908938E+03  0.16628552455E+03  0.47000000000E+01 0.  1.
         -5   -1    0    0    0  501 -0.00000000000E+00 -0.00000000000E+00 -0.15858813805E+03  0.15865776858E+03  0.47000000000E+01 0.  1.
         25    2    1    2    0    0  0.89281284072E+02 -0.18974676776E+02 -0.45457397654E+02  0.16131549322E+03  0.12500050923E+03 0.  0.
         25    2    1    2    0    0 -0.89281284072E+02  0.18974676776E+02  0.53088348982E+02  0.16362779991E+03  0.12499799222E+03 0.  0.
          5    1    4    4  502    0 -0.10598193219E+03 -0.18549280244E+02  0.17559439898E+02  0.10911768728E+03  0.47000000000E+01 0. -1.
         -5    1    4    4    0  502  0.16700648115E+02  0.37523957020E+02  0.35528909084E+02  0.54510112627E+02  0.47000000000E+01 0. -1.
          5    1    3    3  503    0  0.98522590802E+02 -0.56300325751E+02 -0.46100081714E+02  0.12257134703E+03  0.47000000000E+01 0. -1.
         -5    1    3    3    0  503 -0.92413067308E+01  0.37325648975E+02  0.64268406065E+00  0.38744146194E+02  0.47000000000E+01 0. -1.
<mgrwt>
<rscale>  0 0.15477776E+03</rscale>
<asrwt>0</asrwt>
<pdfrwt beam="1">  1        5 0.25582634E-01 0.15477827E+03</pdfrwt>
<pdfrwt beam="2">  1       -5 0.24408642E-01 0.15477827E+03</pdfrwt>
<totfact> 0.17477305E+02</totfact>
</mgrwt>
</event>
<event>
 8    1  0.3674342E-007  0.1756399E+03  0.7546771E-02  0.1172091E+00
          5   -1    0    0  501    0  0.00000000000E+00  0.00000000000E+00  0.31043223666E+03  0.31046781405E+03  0.47000000000E+01 0. -1.
         -5   -1    0    0    0  501 -0.00000000000E+00 -0.00000000000E+00 -0.10406504750E+03  0.10417112897E+03  0.47000000000E+01 0. -1.
         25    2    1    2    0    0 -0.70572291460E+02  0.10121188116E+03  0.58750757818E+02  0.18520536987E+03  0.12500033710E+03 0.  0.
         25    2    1    2    0    0  0.70572291460E+02 -0.10121188116E+03  0.14761643134E+03  0.22943357314E+03  0.12499944189E+03 0.  0.
          5    1    4    4  502    0  0.87614450749E+02 -0.11425037811E+03  0.95385150797E+02  0.17277111411E+03  0.47000000000E+01 0. -1.
         -5    1    4    4    0  502 -0.17042159288E+02  0.13038496953E+02  0.52231280545E+02  0.56662459031E+02  0.47000000000E+01 0. -1.
          5    1    3    3  503    0 -0.10500275686E+03  0.59537762710E+02  0.47423685427E+02  0.12977449702E+03  0.47000000000E+01 0. -1.
         -5    1    3    3    0  503  0.34430465402E+02  0.41674118453E+02  0.11327072391E+02  0.55430872855E+02  0.47000000000E+01 0. -1.
<mgrwt>
<rscale>  0 0.17563975E+03</rscale>
<asrwt>0</asrwt>
<pdfrwt beam="1">  1        5 0.47769702E-01 0.17563991E+03</pdfrwt>
<pdfrwt beam="2">  1       -5 0.16020904E-01 0.17563991E+03</pdfrwt>
<totfact> 0.11353306E+02</totfact>
</mgrwt>
</event>
<event>
 8    1  0.3674342E-007  0.1436888E+03  0.7546771E-02  0.1208450E+00
         -5   -1    0    0    0  501 -0.00000000000E+00  0.00000000000E+00  0.17247900300E+03  0.17254302789E+03  0.47000000000E+01 0. -1.
          5   -1    0    0  501    0  0.00000000000E+00 -0.00000000000E+00 -0.12851482260E+03  0.12860073727E+03  0.47000000000E+01 0. -1.
         25    2    1    2    0    0  0.62088367924E+02 -0.34159944911E+02  0.61681855494E+02  0.15636671180E+03  0.12499611992E+03 0.  0.
         25    2    1    2    0    0 -0.62088367924E+02  0.34159944911E+02 -0.17717675097E+02  0.14477705336E+03  0.12499844760E+03 0.  0.
          5    1    4    4  502    0 -0.78293666575E+02  0.36355184105E+02  0.32035122726E+02  0.92195101416E+02  0.47000000000E+01 0. -1.
         -5    1    4    4    0  502  0.16205298651E+02 -0.21952391935E+01 -0.49752797823E+02  0.52581951948E+02  0.47000000000E+01 0. -1.
          5    1    3    3  503    0  0.23983289256E+02  0.37874089001E+02 -0.11738417492E+02  0.46578162548E+02  0.47000000000E+01 0.  1.
         -5    1    3    3    0  503  0.38105078669E+02 -0.72034033912E+02  0.73420272986E+02  0.10978854925E+03  0.47000000000E+01 0.  1.
<mgrwt>
<rscale>  0 0.14368832E+03</rscale>
<asrwt>0</asrwt>
<pdfrwt beam="2">  1        5 0.19783045E-01 0.14368883E+03</pdfrwt>
<pdfrwt beam="1">  1       -5 0.26546765E-01 0.14368883E+03</pdfrwt>
<totfact> 0.23618050E+02</totfact>
</mgrwt>
</event>
<event>
 8    1  0.3674342E-007  0.1470016E+03  0.7546771E-02  0.1204207E+00
          5   -1    0    0  501    0  0.00000000000E+00  0.00000000000E+00  0.54268334190E+03  0.54270369409E+03  0.47000000000E+01 0. -1.
         -5   -1    0    0    0  501 -0.00000000000E+00 -0.00000000000E+00 -0.40518952008E+02  0.40790629706E+02  0.47000000000E+01 0. -1.
         25    2    1    2    0    0  0.20174414054E+02  0.74683137995E+02  0.20875072447E+03  0.25531615945E+03  0.12499959290E+03 0.  0.
         25    2    1    2    0    0 -0.20174414054E+02 -0.74683137995E+02  0.29341366542E+03  0.32817816435E+03  0.12499900165E+03 0.  0.
          5    1    3    3  502    0  0.62517985806E+02  0.26670636054E+02  0.51304927641E+02  0.85288375392E+02  0.47000000000E+01 0. -1.
         -5    1    3    3    0  502 -0.42343571752E+02  0.48012501941E+02  0.15744579683E+03  0.17002778406E+03  0.47000000000E+01 0. -1.
          5    1    4    4  503    0 -0.28951263140E+02 -0.13229655549E+02  0.25051829468E+03  0.25257613782E+03  0.47000000000E+01 0. -1.
         -5    1    4    4    0  503  0.87768490861E+01 -0.61453482446E+02  0.42895370736E+02  0.75602026529E+02  0.47000000000E+01 0. -1.
<mgrwt>
<rscale>  0 0.14700149E+03</rscale>
<asrwt>0</asrwt>
<pdfrwt beam="1">  1        5 0.83512214E-01 0.14700162E+03</pdfrwt>
<pdfrwt beam="2">  1       -5 0.62561483E-02 0.14700162E+03</pdfrwt>
<totfact> 0.16172042E+02</totfact>
</mgrwt>
</event>
<event>
 8    1  0.3674342E-007  0.1282238E+03  0.7546771E-02  0.1230127E+00
         -5   -1    0    0    0  501 -0.00000000000E+00  0.00000000000E+00  0.21727060218E+03  0.21732143146E+03  0.47000000000E+01 0. -1.
          5   -1    0    0  501    0  0.00000000000E+00 -0.00000000000E+00 -0.75899269446E+02  0.76044652030E+02  0.47000000000E+01 0. -1.
         25    2    1    2    0    0 -0.21075178734E+02 -0.19088563320E+02  0.81037343992E+02  0.15168519881E+03  0.12503124413E+03 0.  0.
         25    2    1    2    0    0  0.21075178734E+02  0.19088563320E+02  0.60333988742E+02  0.14168088468E+03  0.12499898591E+03 0.  0.
          5    1    4    4  502    0  0.24820002226E+02  0.69401405334E+02  0.18923896461E+02  0.76241664659E+02  0.47000000000E+01 0.  1.
         -5    1    4    4    0  502 -0.37448234919E+01 -0.50312842013E+02  0.41410092281E+02  0.65439220023E+02  0.47000000000E+01 0.  1.
          5    1    3    3  503    0 -0.55526697969E+02 -0.52130862629E+02  0.30982976052E+02  0.82358216535E+02  0.47000000000E+01 0. -1.
         -5    1    3    3    0  503  0.34451519235E+02  0.33042299309E+02  0.50054367939E+02  0.69326982273E+02  0.47000000000E+01 0. -1.
<mgrwt>
<rscale>  0 0.12821596E+03</rscale>
<asrwt>0</asrwt>
<pdfrwt beam="2">  1        5 0.11691904E-01 0.12822382E+03</pdfrwt>
<pdfrwt beam="1">  1       -5 0.33441340E-01 0.12822382E+03</pdfrwt>
<totfact> 0.37466018E+02</totfact>
</mgrwt>
</event>
<event>
 8    1  0.3674342E-007  0.1644990E+03  0.7546771E-02  0.1183710E+00
         -5   -1    0    0    0  501 -0.00000000000E+00  0.00000000000E+00  0.39813877319E+03  0.39816651381E+03  0.47000000000E+01 0. -1.
          5   -1    0    0  501    0  0.00000000000E+00 -0.00000000000E+00 -0.71784279379E+02  0.71937978607E+02  0.47000000000E+01 0. -1.
         25    2    1    2    0    0 -0.34314089622E+01  0.10687554786E+03  0.21810913217E+03  0.27318574163E+03  0.12499879437E+03 0.  0.
         25    2    1    2    0    0  0.34314089622E+01 -0.10687554786E+03  0.10824536164E+03  0.19691875079E+03  0.12500311515E+03 0.  0.
          5    1    3    3  502    0  0.46122938319E+02  0.10409142515E+03  0.13984206477E+03  0.18038914410E+03  0.47000000000E+01 0.  1.
         -5    1    3    3    0  502 -0.49554347281E+02  0.27841227134E+01  0.78267067401E+02  0.92796597530E+02  0.47000000000E+01 0.  1.
          5    1    4    4  503    0  0.12780439096E+02 -0.79571333932E+02 -0.40983238732E+01  0.80832067064E+02  0.47000000000E+01 0. -1.
         -5    1    4    4    0  503 -0.93490301337E+01 -0.27304213932E+02  0.11234368552E+03  0.11608668373E+03  0.47000000000E+01 0. -1.
<mgrwt>
<rscale>  0 0.16449823E+03</rscale>
<asrwt>0</asrwt>
<pdfrwt beam="2">  1        5 0.11057692E-01 0.16449905E+03</pdfrwt>
<pdfrwt beam="1">  1       -5 0.61266076E-01 0.16449905E+03</pdfrwt>
<totfact> 0.12671895E+02</totfact>
</mgrwt>
</event>
<event>
 8    1  0.3674342E-007  0.1296613E+03  0.7546771E-02  0.1227960E+00
         -5   -1    0    0    0  501 -0.00000000000E+00  0.00000000000E+00  0.63023253776E+02  0.63198263556E+02  0.47000000000E+01 0. -1.
          5   -1    0    0  501    0  0.00000000000E+00 -0.00000000000E+00 -0.26619097058E+03  0.26623246012E+03  0.47000000000E+01 0. -1.
         25    2    1    2    0    0 -0.47124089566E+00  0.34446567587E+02 -0.10181455771E+03  0.16485832948E+03  0.12500110620E+03 0.  0.
         25    2    1    2    0    0  0.47124089566E+00 -0.34446567587E+02 -0.10135315910E+03  0.16457239419E+03  0.12499928793E+03 0.  0.
          5    1    4    4  502    0  0.20816204434E+02 -0.41006502898E+02 -0.12444658431E+03  0.13275499988E+03  0.47000000000E+01 0.  1.
         -5    1    4    4    0  502 -0.20344963538E+02  0.65599353111E+01  0.23093425210E+02  0.31817394309E+02  0.47000000000E+01 0.  1.
          5    1    3    3  503    0 -0.57887606587E+02  0.13862059141E+02 -0.20561978473E+02  0.63150745354E+02  0.47000000000E+01 0. -1.
         -5    1    3    3    0  503  0.57416365691E+02  0.20584508446E+02 -0.81252579233E+02  0.10170758413E+03  0.47000000000E+01 0. -1.
<mgrwt>
<rscale>  0 0.12966091E+03</rscale>
<asrwt>0</asrwt>
<pdfrwt beam="2">  1        5 0.40969110E-01 0.12966135E+03</pdfrwt>
<pdfrwt beam="1">  1       -5 0.97125391E-02 0.12966135E+03</pdfrwt>
<totfact> 0.34558700E+02</totfact>
</mgrwt>
</event>
<event>
 8    1  0.3674342E-007  0.1270485E+03  0.7546771E-02  0.1231904E+00
         -5   -1    0    0    0  501 -0.00000000000E+00  0.00000000000E+00  0.17662080606E+03  0.17668333010E+03  0.47000000000E+01 0.  1.
          5   -1    0    0  501    0  0.00000000000E+00 -0.00000000000E+00 -0.95971050328E+02  0.96086068194E+02  0.47000000000E+01 0.  1.
         25    2    1    2    0    0  0.18392248475E+02  0.13290672901E+02  0.70552141271E+02  0.14532023406E+03  0.12500179598E+03 0.  0.
         25    2    1    2    0    0 -0.18392248475E+02 -0.13290672901E+02  0.10097614466E+02  0.12744916424E+03  0.12500564330E+03 0.  0.
          5    1    4    4  502    0 -0.45650380916E+02 -0.58153672167E+02  0.99400275976E+01  0.74744237323E+02  0.47000000000E+01 0.  1.
         -5    1    4    4    0  502  0.27258132441E+02  0.44862999266E+02  0.15758686821E+00  0.52704926913E+02  0.47000000000E+01 0.  1.
          5    1    3    3  503    0 -0.13730460472E+02  0.60377246135E+02  0.61531970864E+02  0.87419739385E+02  0.47000000000E+01 0.  1.
         -5    1    3    3    0  503  0.32122708947E+02 -0.47086573235E+02  0.90201704071E+01  0.57900494672E+02  0.47000000000E+01 0.  1.
<mgrwt>
<rscale>  0 0.12704758E+03</rscale>
<asrwt>0</asrwt>
<pdfrwt beam="2">  1        5 0.14778434E-01 0.12704852E+03</pdfrwt>
<pdfrwt beam="1">  1       -5 0.27186089E-01 0.12704852E+03</pdfrwt>
<totfact> 0.36890330E+02</totfact>
</mgrwt>
</event>
<event>
 8    1  0.3674342E-007  0.1451379E+03  0.7546771E-02  0.1206579E+00
         -5   -1    0    0    0  501 -0.00000000000E+00  0.00000000000E+00  0.32483630905E+02  0.32821887161E+02  0.47000000000E+01 0.  1.
          5   -1    0    0  501    0  0.00000000000E+00 -0.00000000000E+00 -0.65815695048E+03  0.65817373198E+03  0.47000000000E+01 0.  1.
         25    2    1    2    0    0  0.20351476784E+02 -0.70888635851E+02 -0.26356425037E+03  0.30088281680E+03  0.12499989628E+03 0.  0.
         25    2    1    2    0    0 -0.20351476784E+02  0.70888635851E+02 -0.36210906920E+03  0.39011280234E+03  0.12500255697E+03 0.  0.
          5    1    4    4  502    0 -0.38335207764E+02  0.13237853073E+02 -0.25588018904E+02  0.48183665486E+02  0.47000000000E+01 0.  1.
         -5    1    4    4    0  502  0.17983730979E+02  0.57650782778E+02 -0.33652105030E+03  0.34192913685E+03  0.47000000000E+01 0.  1.
          5    1    3    3  503    0  0.35595639531E+02 -0.84962435279E+02 -0.10039951088E+03  0.13633714368E+03  0.47000000000E+01 0. -1.
         -5    1    3    3    0  503 -0.15244162747E+02  0.14073799428E+02 -0.16316473949E+03  0.16454567312E+03  0.47000000000E+01 0. -1.
<mgrwt>
<rscale>  0 0.14513736E+03</rscale>
<asrwt>0</asrwt>
<pdfrwt beam="2">  1        5 0.10128222E+00 0.14513794E+03</pdfrwt>
<pdfrwt beam="1">  1       -5 0.50247928E-02 0.14513794E+03</pdfrwt>
<totfact> 0.14666536E+02</totfact>
</mgrwt>
</event>
<event>
 8    1  0.3674342E-007  0.1535672E+03  0.7546771E-02  0.1196172E+00
          5   -1    0    0  501    0  0.00000000000E+00  0.00000000000E+00  0.43552807299E+02  0.43805673418E+02  0.47000000000E+01 0. -1.
         -5   -1    0    0    0  501 -0.00000000000E+00 -0.00000000000E+00 -0.55270869339E+03  0.55272867643E+03  0.47000000000E+01 0. -1.
         25    2    1    2    0    0  0.78156615219E+01  0.88784210685E+02 -0.30068725834E+03  0.33760956483E+03  0.12499468110E+03 0.  0.
         25    2    1    2    0    0 -0.78156615219E+01 -0.88784210685E+02 -0.20846862775E+03  0.25892478502E+03  0.12505660682E+03 0.  0.
          5    1    4    4  502    0 -0.24626542428E+02 -0.11273120493E+03 -0.19441292307E+03  0.22612665879E+03  0.47000000000E+01 0. -1.
         -5    1    4    4    0  502  0.16810880906E+02  0.23946994246E+02 -0.14055704680E+02  0.32798126232E+02  0.47000000000E+01 0. -1.
          5    1    3    3  503    0 -0.33258362136E+02  0.97635746346E+02 -0.25626525033E+03  0.27628395926E+03  0.47000000000E+01 0. -1.
         -5    1    3    3    0  503  0.41074023658E+02 -0.88515356613E+01 -0.44422008006E+02  0.61325605568E+02  0.47000000000E+01 0. -1.
<mgrwt>
<rscale>  0 0.15355456E+03</rscale>
<asrwt>0</asrwt>
<pdfrwt beam="1">  1        5 0.67214207E-02 0.15356717E+03</pdfrwt>
<pdfrwt beam="2">  1       -5 0.85053090E-01 0.15356717E+03</pdfrwt>
<totfact> 0.13916599E+02</totfact>
</mgrwt>
</event>
<event>
 8    1  0.3674342E-007  0.1675527E+03  0.7546771E-02  0.1180428E+00
         -5   -1    0    0    0  501 -0.00000000000E+00  0.00000000000E+00  0.11006398527E+03  0.11016429029E+03  0.47000000000E+01 0.  1.
          5   -1    0    0  501    0  0.00000000000E+00 -0.00000000000E+00 -0.26555963289E+03  0.26560122105E+03  0.47000000000E+01 0.  1.
         25    2    1    2    0    0  0.10851614887E+03 -0.25842685063E+02 -0.39953485343E+02  0.17223687825E+03  0.12500264917E+03 0.  0.
         25    2    1    2    0    0 -0.10851614887E+03  0.25842685063E+02 -0.11554216228E+03  0.20352863309E+03  0.12502125533E+03 0.  0.
          5    1    3    3  502    0  0.73426934398E+02  0.45939905390E+02 -0.28955928730E+02  0.91446844729E+02  0.47000000000E+01 0.  1.
         -5    1    3    3    0  502  0.35089214477E+02 -0.71782590453E+02 -0.10997556613E+02  0.80790033520E+02  0.47000000000E+01 0.  1.
          5    1    4    4  503    0 -0.15995119775E+02 -0.42261270842E+02 -0.80703600735E+01  0.46141950344E+02  0.47000000000E+01 0.  1.
         -5    1    4    4    0  503 -0.92521029100E+02  0.68103955906E+02 -0.10747180220E+03  0.15738668274E+03  0.47000000000E+01 0.  1.
<mgrwt>
<rscale>  0 0.16754925E+03</rscale>
<asrwt>0</asrwt>
<pdfrwt beam="2">  1        5 0.40866243E-01 0.16755272E+03</pdfrwt>
<pdfrwt beam="1">  1       -5 0.16943836E-01 0.16755272E+03</pdfrwt>
<totfact> 0.13990259E+02</totfact>
</mgrwt>
</event>
<event>
 8    1  0.3674342E-007  0.1383848E+03  0.7546771E-02  0.1215519E+00
         -5   -1    0    0    0  501 -0.00000000000E+00  0.00000000000E+00  0.67600849019E+02  0.67764037572E+02  0.47000000000E+01 0. -1.
          5   -1    0    0  501    0  0.00000000000E+00 -0.00000000000E+00 -0.29922170902E+03  0.29925861917E+03  0.47000000000E+01 0. -1.
         25    2    1    2    0    0  0.26945482400E+02  0.52905280270E+02 -0.72781134319E+02  0.15635680769E+03  0.12500132038E+03 0.  0.
         25    2    1    2    0    0 -0.26945482400E+02 -0.52905280270E+02 -0.15883972568E+03  0.21066584905E+03  0.12500005520E+03 0.  0.
          5    1    3    3  502    0 -0.16231813693E+02 -0.31649316515E+02  0.12078075396E+01  0.35898465297E+02  0.47000000000E+01 0.  1.
         -5    1    3    3    0  502  0.43177296094E+02  0.84554596785E+02 -0.73988941859E+02  0.12045834240E+03  0.47000000000E+01 0.  1.
          5    1    4    4  503    0 -0.38721888276E+02  0.76748712815E+01 -0.14064299958E+03  0.14615345227E+03  0.47000000000E+01 0. -1.
         -5    1    4    4    0  503  0.11776405875E+02 -0.60580151551E+02 -0.18196726104E+02  0.64512396780E+02  0.47000000000E+01 0. -1.
<mgrwt>
<rscale>  0 0.13838453E+03</rscale>
<asrwt>0</asrwt>
<pdfrwt beam="2">  1        5 0.46049501E-01 0.13838482E+03</pdfrwt>
<pdfrwt beam="1">  1       -5 0.10415523E-01 0.13838482E+03</pdfrwt>
<totfact> 0.24566751E+02</totfact>
</mgrwt>
</event>
<event>
 8    1  0.3674342E-007  0.1276611E+03  0.7546771E-02  0.1230968E+00
         -5   -1    0    0    0  501 -0.00000000000E+00  0.00000000000E+00  0.28426872853E+02  0.28812794036E+02  0.47000000000E+01 0.  1.
          5   -1    0    0  501    0  0.00000000000E+00 -0.00000000000E+00 -0.57019019853E+03  0.57020956893E+03  0.47000000000E+01 0.  1.
         25    2    1    2    0    0 -0.25924738342E+02 -0.74391627352E+00 -0.28431043446E+03  0.31165649378E+03  0.12499880600E+03 0.  0.
         25    2    1    2    0    0  0.25924738342E+02  0.74391627352E+00 -0.25745289121E+03  0.28736586918E+03  0.12499802442E+03 0.  0.
          5    1    3    3  502    0 -0.69720450110E+02 -0.22735936534E+02 -0.21028142423E+03  0.22275150134E+03  0.47000000000E+01 0.  1.
         -5    1    3    3    0  502  0.43795711768E+02  0.21992020261E+02 -0.74029010231E+02  0.88904992437E+02  0.47000000000E+01 0.  1.
          5    1    4    4  503    0 -0.66650773285E+01 -0.42418683506E+02 -0.21260596153E+03  0.21694965509E+03  0.47000000000E+01 0. -1.
         -5    1    4    4    0  503  0.32589815671E+02  0.43162599780E+02 -0.44846929682E+02  0.70416214092E+02  0.47000000000E+01 0. -1.
<mgrwt>
<rscale>  0 0.12766087E+03</rscale>
<asrwt>0</asrwt>
<pdfrwt beam="2">  1        5 0.87752737E-01 0.12766106E+03</pdfrwt>
<pdfrwt beam="1">  1       -5 0.44045418E-02 0.12766106E+03</pdfrwt>
<totfact> 0.24640709E+02</totfact>
</mgrwt>
</event>
<event>
 8    1  0.3674342E-007  0.1288648E+03  0.7546771E-02  0.1229157E+00
         -5   -1    0    0    0  501 -0.00000000000E+00  0.00000000000E+00  0.28311311685E+03  0.28315212684E+03  0.47000000000E+01 0. -1.
          5   -1    0    0  501    0  0.00000000000E+00 -0.00000000000E+00 -0.62899417566E+02  0.63074770948E+02  0.47000000000E+01 0. -1.
         25    2    1    2    0    0 -0.38737819560E+01 -0.31066927056E+02  0.15576920563E+03  0.20216377304E+03  0.12500394220E+03 0.  0.
         25    2    1    2    0    0  0.38737819560E+01  0.31066927056E+02  0.64444493663E+02  0.14406312475E+03  0.12498372296E+03 0.  0.
          5    1    4    4  502    0  0.30001885490E+02  0.71066832142E+02  0.55703781853E+02  0.95265991184E+02  0.47000000000E+01 0. -1.
         -5    1    4    4    0  502 -0.26128103534E+02 -0.39999905086E+02  0.87407118102E+01  0.48797133564E+02  0.47000000000E+01 0. -1.
          5    1    3    3  503    0 -0.19484507225E+01  0.42444619561E+02  0.18943432902E+02  0.46757735617E+02  0.47000000000E+01 0.  1.
         -5    1    3    3    0  503 -0.19253312336E+01 -0.73511546618E+02  0.13682577272E+03  0.15540603742E+03  0.47000000000E+01 0.  1.
<mgrwt>
<rscale>  0 0.12885993E+03</rscale>
<asrwt>0</asrwt>
<pdfrwt beam="2">  1        5 0.96933232E-02 0.12886484E+03</pdfrwt>
<pdfrwt beam="1">  1       -5 0.43572353E-01 0.12886484E+03</pdfrwt>
<totfact> 0.30475870E+02</totfact>
</mgrwt>
</event>
<event>
 8    1  0.3674342E-007  0.1378550E+03  0.7546771E-02  0.1216246E+00
          5   -1    0    0  501    0  0.00000000000E+00  0.00000000000E+00  0.29462316309E+03  0.29466064928E+03  0.47000000000E+01 0. -1.
         -5   -1    0    0    0  501 -0.00000000000E+00 -0.00000000000E+00 -0.65147301046E+02  0.65316619888E+02  0.47000000000E+01 0. -1.
         25    2    1    2    0    0 -0.23343082357E+02 -0.53230169612E+02  0.95163520253E+02  0.16751148391E+03  0.12500260479E+03 0.  0.
         25    2    1    2    0    0  0.23343082357E+02  0.53230169612E+02  0.13431234179E+03  0.19246578525E+03  0.12499969153E+03 0.  0.
          5    1    3    3  502    0  0.17294956350E+02 -0.49044198826E+02 -0.11262408195E+02  0.53417045893E+02  0.47000000000E+01 0. -1.
         -5    1    3    3    0  502 -0.40638038707E+02 -0.41859707865E+01  0.10642592845E+03  0.11409443802E+03  0.47000000000E+01 0. -1.
          5    1    4    4  503    0 -0.92644116731E+01 -0.38347677321E+02  0.29861169389E+02  0.49700634975E+02  0.47000000000E+01 0.  1.
         -5    1    4    4    0  503  0.32607494030E+02  0.91577846934E+02  0.10445117241E+03  0.14276515027E+03  0.47000000000E+01 0.  1.
<mgrwt>
<rscale>  0 0.13785434E+03</rscale>
<asrwt>0</asrwt>
<pdfrwt beam="1">  1        5 0.45342549E-01 0.13785500E+03</pdfrwt>
<pdfrwt beam="2">  1       -5 0.10038570E-01 0.13785500E+03</pdfrwt>
<totfact> 0.27027632E+02</totfact>
</mgrwt>
</event>
<event>
 8    1  0.3674342E-007  0.1257885E+03  0.7546771E-02  0.1233843E+00
         -5   -1    0    0    0  501 -0.00000000000E+00  0.00000000000E+00  0.75162120160E+01  0.88647302875E+01  0.47000000000E+01 0.  1.
          5   -1    0    0  501    0  0.00000000000E+00 -0.00000000000E+00 -0.20798453850E+04  0.20798506955E+04  0.47000000000E+01 0.  1.
         25    2    1    2    0    0 -0.25929987912E+01 -0.13798527238E+02 -0.75637433770E+03  0.76676260692E+03  0.12500253457E+03 0.  0.
         25    2    1    2    0    0  0.25929987912E+01  0.13798527238E+02 -0.13159548353E+04  0.13219528188E+04  0.12500001503E+03 0.  0.
          5    1    4    4  502    0  0.32831973836E+02  0.31030326080E+02 -0.18645843648E+03  0.19191054733E+03  0.47000000000E+01 0. -1.
         -5    1    4    4    0  502 -0.30238975045E+02 -0.17231798842E+02 -0.11294963988E+04  0.11300422715E+04  0.47000000000E+01 0. -1.
          5    1    3    3  503    0  0.51919969667E+02 -0.38795581081E+02 -0.35373232743E+03  0.35965181750E+03  0.47000000000E+01 0.  1.
         -5    1    3    3    0  503 -0.54512968458E+02  0.24997053843E+02 -0.40264201027E+03  0.40711078942E+03  0.47000000000E+01 0.  1.
<mgrwt>
<rscale>  0 0.12578791E+03</rscale>
<asrwt>0</asrwt>
<pdfrwt beam="2">  1        5 0.32007993E+00 0.12578854E+03</pdfrwt>
<pdfrwt beam="1">  1       -5 0.12604826E-02 0.12578854E+03</pdfrwt>
<totfact> 0.34987111E+01</totfact>
</mgrwt>
</event>
<event>
 8    1  0.3674342E-007  0.1275617E+03  0.7546771E-02  0.1231119E+00
         -5   -1    0    0    0  501 -0.00000000000E+00  0.00000000000E+00  0.13407340370E+03  0.13415575865E+03  0.47000000000E+01 0. -1.
          5   -1    0    0  501    0  0.00000000000E+00 -0.00000000000E+00 -0.12224363267E+03  0.12233395166E+03  0.47000000000E+01 0. -1.
         25    2    1    2    0    0  0.25428575767E+02 -0.55303760109E+00  0.17752834685E+02  0.12879106717E+03  0.12500023011E+03 0.  0.
         25    2    1    2    0    0 -0.25428575767E+02  0.55303760109E+00 -0.59230636623E+01  0.12769864315E+03  0.12499976985E+03 0.  0.
          5    1    4    4  502    0 -0.18278341471E+02  0.26145403569E+01 -0.65120443721E+02  0.67850540002E+02  0.47000000000E+01 0. -1.
         -5    1    4    4    0  502 -0.71502342968E+01 -0.20615027558E+01  0.59197380058E+02  0.59848103144E+02  0.47000000000E+01 0. -1.
          5    1    3    3  503    0 -0.19053555978E+01  0.54387887638E+02  0.35000606423E+02  0.64875304636E+02  0.47000000000E+01 0. -1.
         -5    1    3    3    0  503  0.27333931365E+02 -0.54940925239E+02 -0.17247771737E+02  0.63915762531E+02  0.47000000000E+01 0. -1.
<mgrwt>
<rscale>  0 0.12756154E+03</rscale>
<asrwt>0</asrwt>
<pdfrwt beam="2">  1        5 0.18819995E-01 0.12756166E+03</pdfrwt>
<pdfrwt beam="1">  1       -5 0.20639960E-01 0.12756166E+03</pdfrwt>
<totfact> 0.40101025E+02</totfact>
</mgrwt>
</event>
<event>
 8    1  0.3674342E-007  0.1487219E+03  0.7546771E-02  0.1202054E+00
         -5   -1    0    0    0  501 -0.00000000000E+00  0.00000000000E+00  0.71417412994E+02  0.71571900064E+02  0.47000000000E+01 0.  1.
          5   -1    0    0  501    0  0.00000000000E+00 -0.00000000000E+00 -0.37346042472E+03  0.37348999831E+03  0.47000000000E+01 0.  1.
         25    2    1    2    0    0 -0.39572670117E+02 -0.70188149636E+02 -0.58721922177E+02  0.15988941018E+03  0.12499594703E+03 0.  0.
         25    2    1    2    0    0  0.39572670117E+02  0.70188149636E+02 -0.24332108955E+03  0.28517248819E+03  0.12500329128E+03 0.  0.
          5    1    4    4  502    0  0.82074570995E+02  0.51251701822E+02 -0.12646819651E+03  0.15930871562E+03  0.47000000000E+01 0. -1.
         -5    1    4    4    0  502 -0.42501900877E+02  0.18936447814E+02 -0.11685289304E+03  0.12586377257E+03  0.47000000000E+01 0. -1.
          5    1    3    3  503    0  0.28849615975E+01  0.23845594197E+02  0.18708088368E+02  0.30806134720E+02  0.47000000000E+01 0.  1.
         -5    1    3    3    0  503 -0.42457631715E+02 -0.94033743832E+02 -0.77430010545E+02  0.12908327546E+03  0.47000000000E+01 0.  1.
<mgrwt>
<rscale>  0 0.14872033E+03</rscale>
<asrwt>0</asrwt>
<pdfrwt beam="2">  1        5 0.57469607E-01 0.14872187E+03</pdfrwt>
<pdfrwt beam="1">  1       -5 0.11001453E-01 0.14872187E+03</pdfrwt>
<totfact> 0.14250202E+02</totfact>
</mgrwt>
</event>
<event>
 8    1  0.3674342E-007  0.1617795E+03  0.7546771E-02  0.1186702E+00
         -5   -1    0    0    0  501 -0.00000000000E+00  0.00000000000E+00  0.59453468413E+03  0.59455326140E+03  0.47000000000E+01 0. -1.
          5   -1    0    0  501    0  0.00000000000E+00 -0.00000000000E+00 -0.55404762678E+02  0.55603756414E+02  0.47000000000E+01 0. -1.
         25    2    1    2    0    0 -0.53516418007E+02  0.87656232388E+02  0.41752076458E+03  0.44776783665E+03  0.12499929843E+03 0.  0.
         25    2    1    2    0    0  0.53516418007E+02 -0.87656232388E+02  0.12160915687E+03  0.20238918116E+03  0.12499988617E+03 0.  0.
          5    1    4    4  502    0 -0.60328626395E+01 -0.33816057425E+02  0.11679003538E+03  0.12182743343E+03  0.47000000000E+01 0. -1.
         -5    1    4    4    0  502  0.59549280647E+02 -0.53840174963E+02  0.48191214905E+01  0.80561747731E+02  0.47000000000E+01 0. -1.
          5    1    3    3  503    0 -0.66527392490E+02  0.11396967061E+03  0.34146224979E+03  0.36610591063E+03  0.47000000000E+01 0.  1.
         -5    1    3    3    0  503  0.13010974483E+02 -0.26313438221E+02  0.76058514797E+02  0.81661926019E+02  0.47000000000E+01 0.  1.
<mgrwt>
<rscale>  0 0.16177935E+03</rscale>
<asrwt>0</asrwt>
<pdfrwt beam="2">  1        5 0.85405465E-02 0.16177946E+03</pdfrwt>
<pdfrwt beam="1">  1       -5 0.91483605E-01 0.16177946E+03</pdfrwt>
<totfact> 0.78963580E+01</totfact>
</mgrwt>
</event>
<event>
 8    1  0.3674342E-007  0.1651730E+03  0.7546771E-02  0.1182978E+00
         -5   -1    0    0    0  501 -0.00000000000E+00  0.00000000000E+00  0.17362662016E+03  0.17369022203E+03  0.47000000000E+01 0.  1.
          5   -1    0    0  501    0  0.00000000000E+00 -0.00000000000E+00 -0.15726028232E+03  0.15733050052E+03  0.47000000000E+01 0.  1.
         25    2    1    2    0    0 -0.93711861835E+02  0.53615373091E+02  0.14884328376E+02  0.16584223424E+03  0.12500232856E+03 0.  0.
         25    2    1    2    0    0  0.93711861835E+02 -0.53615373091E+02  0.14820094655E+01  0.16517848831E+03  0.12500086148E+03 0.  0.
          5    1    3    3  502    0 -0.97166761540E+02  0.28766801769E+02 -0.37030714479E+02  0.10799200085E+03  0.47000000000E+01 0.  1.
         -5    1    3    3    0  502  0.34548997054E+01  0.24848571322E+02  0.51915042855E+02  0.57850233390E+02  0.47000000000E+01 0.  1.
          5    1    4    4  503    0  0.85980696510E+02 -0.72456714479E+02 -0.39422843040E+02  0.11924305514E+03  0.47000000000E+01 0.  1.
         -5    1    4    4    0  503  0.77311653242E+01  0.18841341388E+02  0.40904852505E+02  0.45935433176E+02  0.47000000000E+01 0.  1.
<mgrwt>
<rscale>  0 0.16517267E+03</rscale>
<asrwt>0</asrwt>
<pdfrwt beam="2">  1        5 0.24204183E-01 0.16517295E+03</pdfrwt>
<pdfrwt beam="1">  1       -5 0.26722082E-01 0.16517295E+03</pdfrwt>
<totfact> 0.16664748E+02</totfact>
</mgrwt>
</event>
<event>
 8    1  0.3674342E-007  0.1255981E+03  0.7546771E-02  0.1234142E+00
         -5   -1    0    0    0  501 -0.00000000000E+00  0.00000000000E+00  0.25052092928E+03  0.25056501354E+03  0.47000000000E+01 0.  1.
          5   -1    0    0  501    0  0.00000000000E+00 -0.00000000000E+00 -0.64796685860E+02  0.64966918492E+02  0.47000000000E+01 0.  1.
         25    2    1    2    0    0  0.44970039271E+01  0.11326000394E+02  0.12034043312E+03  0.17394456995E+03  0.12500556884E+03 0.  0.
         25    2    1    2    0    0 -0.44970039271E+01 -0.11326000394E+02  0.65383810298E+02  0.14158736208E+03  0.12499374833E+03 0.  0.
          5    1    4    4  502    0 -0.23674222190E+02  0.52919594224E+02  0.34434037522E+02  0.67592493586E+02  0.47000000000E+01 0. -1.
         -5    1    4    4    0  502  0.19177218263E+02 -0.64245594618E+02  0.30949772776E+02  0.73994868491E+02  0.47000000000E+01 0. -1.
          5    1    3    3  503    0 -0.42307157400E+02  0.27695670290E+02  0.84672907145E+01  0.51485247714E+02  0.47000000000E+01 0.  1.
         -5    1    3    3    0  503  0.46804161327E+02 -0.16369669896E+02  0.11187314241E+03  0.12245932224E+03  0.47000000000E+01 0.  1.
<mgrwt>
<rscale>  0 0.12559520E+03</rscale>
<asrwt>0</asrwt>
<pdfrwt beam="2">  1        5 0.99852069E-02 0.12559814E+03</pdfrwt>
<pdfrwt beam="1">  1       -5 0.38558167E-01 0.12559814E+03</pdfrwt>
<totfact> 0.36836113E+02</totfact>
</mgrwt>
</event>
<event>
 8    1  0.3674342E-007  0.1276218E+03  0.7546771E-02  0.1231030E+00
         -5   -1    0    0    0  501 -0.00000000000E+00  0.00000000000E+00  0.13908597871E+03  0.13916536737E+03  0.47000000000E+01 0. -1.
          5   -1    0    0  501    0  0.00000000000E+00 -0.00000000000E+00 -0.13997120691E+03  0.14005009376E+03  0.47000000000E+01 0. -1.
         25    2    1    2    0    0  0.66195018825E+01  0.24878191645E+02  0.56157513698E+02  0.13942566651E+03  0.12499243142E+03 0.  0.
         25    2    1    2    0    0 -0.66195018825E+01 -0.24878191645E+02 -0.57042741893E+02  0.13978979462E+03  0.12499828020E+03 0.  0.
          5    1    4    4  502    0  0.25370519299E+02  0.20650654738E+02 -0.74319495659E+02  0.81336278656E+02  0.47000000000E+01 0. -1.
         -5    1    4    4    0  502 -0.31990021182E+02 -0.45528846382E+02  0.17276753767E+02  0.58453515966E+02  0.47000000000E+01 0. -1.
          5    1    3    3  503    0  0.11156849437E+02 -0.50392380288E+02  0.27034002320E+02  0.58453353727E+02  0.47000000000E+01 0.  1.
         -5    1    3    3    0  503 -0.45373475542E+01  0.75270571933E+02  0.29123511378E+02  0.80972312780E+02  0.47000000000E+01 0.  1.
<mgrwt>
<rscale>  0 0.12762032E+03</rscale>
<asrwt>0</asrwt>
<pdfrwt beam="2">  1        5 0.21546207E-01 0.12762175E+03</pdfrwt>
<pdfrwt beam="1">  1       -5 0.21410018E-01 0.12762175E+03</pdfrwt>
<totfact> 0.29095411E+02</totfact>
</mgrwt>
</event>
<event>
 8    1  0.3674342E-007  0.1255834E+03  0.7546771E-02  0.1234178E+00
         -5   -1    0    0    0  501 -0.00000000000E+00  0.00000000000E+00  0.23908745535E+02  0.24366331547E+02  0.47000000000E+01 0.  1.
          5   -1    0    0  501    0  0.00000000000E+00 -0.00000000000E+00 -0.81941034243E+03  0.81942382152E+03  0.47000000000E+01 0.  1.
         25    2    1    2    0    0  0.47341334651E+01  0.10641254598E+02 -0.20755690492E+03  0.24259236483E+03  0.12504214640E+03 0.  0.
         25    2    1    2    0    0 -0.47341334651E+01 -0.10641254598E+02 -0.58794469197E+03  0.60119778823E+03  0.12499668573E+03 0.  0.
          5    1    4    4  502    0 -0.21819295320E+02  0.37370968748E+02 -0.83510669024E+02  0.94174268217E+02  0.47000000000E+01 0. -1.
         -5    1    4    4    0  502  0.17085161855E+02 -0.48012223346E+02 -0.50443402294E+03  0.50702352002E+03  0.47000000000E+01 0. -1.
          5    1    3    3  503    0  0.49555983481E+02  0.34005183651E+02 -0.16721717807E+03  0.17775213826E+03  0.47000000000E+01 0.  1.
         -5    1    3    3    0  503 -0.44821850016E+02 -0.23363929053E+02 -0.40339726852E+02  0.64840226574E+02  0.47000000000E+01 0.  1.
<mgrwt>
<rscale>  0 0.12557207E+03</rscale>
<asrwt>0</asrwt>
<pdfrwt beam="2">  1        5 0.12609934E+00 0.12558339E+03</pdfrwt>
<pdfrwt beam="1">  1       -5 0.37145050E-02 0.12558339E+03</pdfrwt>
<totfact> 0.13278009E+02</totfact>
</mgrwt>
</event>
<event>
 8    1  0.3674342E-007  0.1332605E+03  0.7546771E-02  0.1222699E+00
         -5   -1    0    0    0  501 -0.00000000000E+00  0.00000000000E+00  0.83537077771E+02  0.83669190043E+02  0.47000000000E+01 0.  1.
          5   -1    0    0  501    0  0.00000000000E+00 -0.00000000000E+00 -0.30203701665E+03  0.30207358280E+03  0.47000000000E+01 0.  1.
         25    2    1    2    0    0 -0.42122143304E+02  0.18968899882E+02 -0.41199959080E+01  0.13332414447E+03  0.12499703601E+03 0.  0.
         25    2    1    2    0    0  0.42122143304E+02 -0.18968899882E+02 -0.21437994297E+03  0.25241862838E+03  0.12498923908E+03 0.  0.
          5    1    4    4  502    0  0.32226102637E+02 -0.52924710748E+02 -0.20681076210E+03  0.21594519679E+03  0.47000000000E+01 0.  1.
         -5    1    4    4    0  502  0.98960406663E+01  0.33955810866E+02 -0.75691808727E+01  0.36473431584E+02  0.47000000000E+01 0.  1.
          5    1    3    3  503    0 -0.40232192197E+02 -0.29274924050E+02 -0.46980823544E+02  0.68592552423E+02  0.47000000000E+01 0. -1.
         -5    1    3    3    0  503 -0.18899511070E+01  0.48243823932E+02  0.42860827636E+02  0.64731592043E+02  0.47000000000E+01 0. -1.
<mgrwt>
<rscale>  0 0.13325864E+03</rscale>
<asrwt>0</asrwt>
<pdfrwt beam="2">  1        5 0.46480208E-01 0.13326047E+03</pdfrwt>
<pdfrwt beam="1">  1       -5 0.12864834E-01 0.13326047E+03</pdfrwt>
<totfact> 0.16382028E+02</totfact>
</mgrwt>
</event>
<event>
 8    1  0.3674342E-007  0.1258176E+03  0.7546771E-02  0.1233798E+00
         -5   -1    0    0    0  501 -0.00000000000E+00  0.00000000000E+00  0.91649602043E+03  0.91650807169E+03  0.47000000000E+01 0. -1.
          5   -1    0    0  501    0  0.00000000000E+00 -0.00000000000E+00 -0.19528909610E+02  0.20086520619E+02  0.47000000000E+01 0. -1.
         25    2    1    2    0    0  0.70378988847E+01  0.12452351107E+02  0.61638491324E+03  0.62909492869E+03  0.12500189985E+03 0.  0.
         25    2    1    2    0    0 -0.70378988847E+01 -0.12452351107E+02  0.28058219758E+03  0.30749966361E+03  0.12500032182E+03 0.  0.
          5    1    4    4  502    0  0.51416070350E+02  0.24591106847E+01  0.62119143626E+02  0.80811741229E+02  0.47000000000E+01 0.  1.
         -5    1    4    4    0  502 -0.58453969235E+02 -0.14911461792E+02  0.21846305396E+03  0.22668792239E+03  0.47000000000E+01 0.  1.
          5    1    3    3  503    0  0.62318023442E+02 -0.65895326920E+01  0.23642261639E+03  0.24463176721E+03  0.47000000000E+01 0. -1.
         -5    1    3    3    0  503 -0.55280124557E+02  0.19041883799E+02  0.37996229685E+03  0.38446316148E+03  0.47000000000E+01 0. -1.
<mgrwt>
<rscale>  0 0.12581721E+03</rscale>
<asrwt>0</asrwt>
<pdfrwt beam="2">  1        5 0.30482671E-02 0.12581760E+03</pdfrwt>
<pdfrwt beam="1">  1       -5 0.14104324E+00 0.12581760E+03</pdfrwt>
<totfact> 0.13656791E+02</totfact>
</mgrwt>
</event>
<event>
 8    1  0.3674342E-007  0.1258596E+03  0.7546771E-02  0.1233734E+00
          5   -1    0    0  501    0  0.00000000000E+00  0.00000000000E+00  0.75855647378E+02  0.76001113407E+02  0.47000000000E+01 0.  1.
         -5   -1    0    0    0  501 -0.00000000000E+00 -0.00000000000E+00 -0.22083086625E+03  0.22088087624E+03  0.47000000000E+01 0.  1.
         25    2    1    2    0    0  0.13633389171E+02 -0.52296942311E+01 -0.10762917533E+03  0.16560401707E+03  0.12500972797E+03 0.  0.
         25    2    1    2    0    0 -0.13633389171E+02  0.52296942311E+01 -0.37346043540E+02  0.13127797257E+03  0.12500384039E+03 0.  0.
          5    1    4    4  502    0  0.33354471471E+02  0.28861153197E+02  0.23919960553E+02  0.50395847486E+02  0.47000000000E+01 0.  1.
         -5    1    4    4    0  502 -0.46987860643E+02 -0.23631458966E+02 -0.61266004093E+02  0.80882125084E+02  0.47000000000E+01 0.  1.
          5    1    3    3  503    0  0.52403554068E+02 -0.27852835613E+01 -0.11434654089E+03  0.12590119816E+03  0.47000000000E+01 0.  1.
         -5    1    3    3    0  503 -0.38770164896E+02 -0.24444106698E+01  0.67173655653E+01  0.39702818915E+02  0.47000000000E+01 0.  1.
<mgrwt>
<rscale>  0 0.12585819E+03</rscale>
<asrwt>0</asrwt>
<pdfrwt beam="1">  1        5 0.11685136E-01 0.12585965E+03</pdfrwt>
<pdfrwt beam="2">  1       -5 0.33989016E-01 0.12585965E+03</pdfrwt>
<totfact> 0.36061922E+02</totfact>
</mgrwt>
</event>
<event>
 8    1  0.3674342E-007  0.1942289E+03  0.7546771E-02  0.1154702E+00
          5   -1    0    0  501    0  0.00000000000E+00  0.00000000000E+00  0.48773937918E+02  0.48999867551E+02  0.47000000000E+01 0. -1.
         -5   -1    0    0    0  501 -0.00000000000E+00 -0.00000000000E+00 -0.82173394635E+03  0.82174738733E+03  0.47000000000E+01 0. -1.
         25    2    1    2    0    0  0.53600452582E+02  0.13865865795E+03 -0.49417918893E+03  0.53097829525E+03  0.12500258919E+03 0.  0.
         25    2    1    2    0    0 -0.53600452582E+02 -0.13865865795E+03 -0.27878081950E+03  0.33976895963E+03  0.12499987468E+03 0.  0.
          5    1    3    3  502    0 -0.23380267648E+02 -0.10693048950E+02 -0.65351590860E+02  0.70383937366E+02  0.47000000000E+01 0.  1.
         -5    1    3    3    0  502  0.76980720230E+02  0.14935170690E+03 -0.42882759807E+03  0.46059435788E+03  0.47000000000E+01 0.  1.
          5    1    4    4  503    0  0.11397931664E+02  0.17830949290E+02 -0.15554787260E+02  0.26681398118E+02  0.47000000000E+01 0.  1.
         -5    1    4    4    0  503 -0.64998384246E+02 -0.15648960724E+03 -0.26322603224E+03  0.31308756152E+03  0.47000000000E+01 0.  1.
<mgrwt>
<rscale>  0 0.19422850E+03</rscale>
<asrwt>0</asrwt>
<pdfrwt beam="1">  1        5 0.75220965E-02 0.19422894E+03</pdfrwt>
<pdfrwt beam="2">  1       -5 0.12643901E+00 0.19422894E+03</pdfrwt>
<totfact> 0.46125626E+01</totfact>
</mgrwt>
</event>
<event>
 8    1  0.3674342E-007  0.1286220E+03  0.7546771E-02  0.1229516E+00
         -5   -1    0    0    0  501 -0.00000000000E+00  0.00000000000E+00  0.18084605657E+03  0.18090712030E+03  0.47000000000E+01 0.  1.
          5   -1    0    0  501    0  0.00000000000E+00 -0.00000000000E+00 -0.95660487044E+02  0.95775877869E+02  0.47000000000E+01 0.  1.
         25    2    1    2    0    0  0.30297314154E+02 -0.79756358666E+00  0.71965631062E+02  0.14738615200E+03  0.12500024958E+03 0.  0.
         25    2    1    2    0    0 -0.30297314154E+02  0.79756358666E+00  0.13219938463E+02  0.12929684617E+03  0.12499737719E+03 0.  0.
          5    1    4    4  502    0 -0.52756427524E+02  0.32277730489E+02 -0.31849845731E+02  0.69725140400E+02  0.47000000000E+01 0.  1.
         -5    1    4    4    0  502  0.22459113370E+02 -0.31480166902E+02  0.45069784194E+02  0.59571705774E+02  0.47000000000E+01 0.  1.
          5    1    3    3  503    0 -0.55502887642E+01 -0.16246795146E+01 -0.34318338340E+02  0.35118138266E+02  0.47000000000E+01 0.  1.
         -5    1    3    3    0  503  0.35847602919E+02  0.82711592798E+00  0.10628396940E+03  0.11226801373E+03  0.47000000000E+01 0.  1.
<mgrwt>
<rscale>  0 0.12862133E+03</rscale>
<asrwt>0</asrwt>
<pdfrwt beam="2">  1        5 0.14730572E-01 0.12862203E+03</pdfrwt>
<pdfrwt beam="1">  1       -5 0.27836043E-01 0.12862203E+03</pdfrwt>
<totfact> 0.35608119E+02</totfact>
</mgrwt>
</event>
<event>
 8    1  0.3674342E-007  0.1301403E+03  0.7546771E-02  0.1227255E+00
         -5   -1    0    0    0  501 -0.00000000000E+00  0.00000000000E+00  0.40875790514E+03  0.40878492513E+03  0.47000000000E+01 0.  1.
          5   -1    0    0  501    0  0.00000000000E+00 -0.00000000000E+00 -0.43912280765E+02  0.44163088683E+02  0.47000000000E+01 0.  1.
         25    2    1    2    0    0 -0.68157444786E+01  0.35517869909E+02  0.23784796724E+03  0.27112389229E+03  0.12501414319E+03 0.  0.
         25    2    1    2    0    0  0.68157444786E+01 -0.35517869909E+02  0.12699765713E+03  0.18182412152E+03  0.12499453105E+03 0.  0.
          5    1    4    4  502    0  0.32012773989E+02 -0.93739891413E+01  0.13921051994E+03  0.14322830807E+03  0.47000000000E+01 0. -1.
         -5    1    4    4    0  502 -0.25197029510E+02 -0.26143880768E+02 -0.12212862806E+02  0.38595813447E+02  0.47000000000E+01 0. -1.
          5    1    3    3  503    0 -0.24698043830E+02 -0.31392662150E+02  0.25271004271E+02  0.47499539605E+02  0.47000000000E+01 0.  1.
         -5    1    3    3    0  503  0.17882299351E+02  0.66910532059E+02  0.21257696297E+03  0.22362435269E+03  0.47000000000E+01 0.  1.
<mgrwt>
<rscale>  0 0.13013564E+03</rscale>
<asrwt>0</asrwt>
<pdfrwt beam="2">  1        5 0.67771067E-02 0.13014035E+03</pdfrwt>
<pdfrwt beam="1">  1       -5 0.62907205E-01 0.13014035E+03</pdfrwt>
<totfact> 0.25796064E+02</totfact>
</mgrwt>
</event>
<event>
 8    1  0.3674342E-007  0.1524244E+03  0.7546771E-02  0.1197526E+00
         -5   -1    0    0    0  501 -0.00000000000E+00  0.00000000000E+00  0.44129936243E+03  0.44132439009E+03  0.47000000000E+01 0.  1.
          5   -1    0    0  501    0  0.00000000000E+00 -0.00000000000E+00 -0.53593122562E+02  0.53798817700E+02  0.47000000000E+01 0.  1.
         25    2    1    2    0    0 -0.39215954091E+02  0.77911517779E+02  0.22888595935E+03  0.27499452635E+03  0.12500044590E+03 0.  0.
         25    2    1    2    0    0  0.39215954091E+02 -0.77911517779E+02  0.15882028052E+03  0.22012868144E+03  0.12499863691E+03 0.  0.
          5    1    4    4  502    0 -0.22911206133E+02 -0.82455021714E+02  0.65686611977E+02  0.10798414219E+03  0.47000000000E+01 0.  1.
         -5    1    4    4    0  502  0.62127160224E+02  0.45435039349E+01  0.93133668548E+02  0.11214453925E+03  0.47000000000E+01 0.  1.
          5    1    3    3  503    0 -0.67733416176E+02  0.28702633597E+02  0.54966873183E+02  0.91951639408E+02  0.47000000000E+01 0.  1.
         -5    1    3    3    0  503  0.28517462085E+02  0.49208884183E+02  0.17391908616E+03  0.18304288694E+03  0.47000000000E+01 0.  1.
<mgrwt>
<rscale>  0 0.15242406E+03</rscale>
<asrwt>0</asrwt>
<pdfrwt beam="2">  1        5 0.82628438E-02 0.15242443E+03</pdfrwt>
<pdfrwt beam="1">  1       -5 0.67909956E-01 0.15242443E+03</pdfrwt>
<totfact> 0.16353584E+02</totfact>
</mgrwt>
</event>
<event>
 8    1  0.3674342E-007  0.1271116E+03  0.7546771E-02  0.1231806E+00
         -5   -1    0    0    0  501 -0.00000000000E+00  0.00000000000E+00  0.52087648257E+02  0.52299264823E+02  0.47000000000E+01 0.  1.
          5   -1    0    0  501    0  0.00000000000E+00 -0.00000000000E+00 -0.42009177527E+03  0.42011806632E+03  0.47000000000E+01 0.  1.
         25    2    1    2    0    0  0.13649343011E+02  0.18593927321E+02 -0.62751291563E+02  0.14175711956E+03  0.12500127062E+03 0.  0.
         25    2    1    2    0    0 -0.13649343011E+02 -0.18593927321E+02 -0.30525283545E+03  0.33066021158E+03  0.12499937310E+03 0.  0.
          5    1    4    4  502    0  0.20357102142E+02 -0.63487813587E+02 -0.20442237034E+03  0.21507140577E+03  0.47000000000E+01 0. -1.
         -5    1    4    4    0  502 -0.34006445153E+02  0.44893886266E+02 -0.10083046510E+03  0.11558880581E+03  0.47000000000E+01 0. -1.
          5    1    3    3  503    0  0.62694793064E+02  0.27026031478E+02 -0.10130959137E+02  0.69179258364E+02  0.47000000000E+01 0. -1.
         -5    1    3    3    0  503 -0.49045450054E+02 -0.84321041572E+01 -0.52620332426E+02  0.72577861198E+02  0.47000000000E+01 0. -1.
<mgrwt>
<rscale>  0 0.12711112E+03</rscale>
<asrwt>0</asrwt>
<pdfrwt beam="2">  1        5 0.64647802E-01 0.12711159E+03</pdfrwt>
<pdfrwt beam="1">  1       -5 0.80317852E-02 0.12711159E+03</pdfrwt>
<totfact> 0.18034864E+02</totfact>
</mgrwt>
</event>
<event>
 8    1  0.3674342E-007  0.1384602E+03  0.7546771E-02  0.1215420E+00
          5   -1    0    0  501    0  0.00000000000E+00  0.00000000000E+00  0.59944689535E+02  0.60128660417E+02  0.47000000000E+01 0. -1.
         -5   -1    0    0    0  501 -0.00000000000E+00 -0.00000000000E+00 -0.35862885329E+03  0.35865964983E+03  0.47000000000E+01 0. -1.
         25    2    1    2    0    0 -0.60527429844E+01 -0.59216732254E+02 -0.21884939127E+03  0.25897156248E+03  0.12501182760E+03 0.  0.
         25    2    1    2    0    0  0.60527429844E+01  0.59216732254E+02 -0.79834772485E+02  0.15981674776E+03  0.12499817955E+03 0.  0.
          5    1    3    3  502    0  0.58530856849E+02 -0.22453638044E+02 -0.11679937338E+03  0.13264317052E+03  0.47000000000E+01 0.  1.
         -5    1    3    3    0  502 -0.64583599834E+02 -0.36763094210E+02 -0.10205001789E+03  0.12632839196E+03  0.47000000000E+01 0.  1.
          5    1    4    4  503    0  0.17181558295E+02  0.25157061308E+02  0.30711790077E+02  0.43513075378E+02  0.47000000000E+01 0. -1.
         -5    1    4    4    0  503 -0.11128815311E+02  0.34059670946E+02 -0.11054656256E+03  0.11630367238E+03  0.47000000000E+01 0. -1.
<mgrwt>
<rscale>  0 0.13845707E+03</rscale>
<asrwt>0</asrwt>
<pdfrwt beam="1">  1        5 0.92387807E-02 0.13846015E+03</pdfrwt>
<pdfrwt beam="2">  1       -5 0.55190189E-01 0.13846015E+03</pdfrwt>
<totfact> 0.20616667E+02</totfact>
</mgrwt>
</event>
<event>
 8    1  0.3674342E-007  0.1362903E+03  0.7546771E-02  0.1218417E+00
         -5   -1    0    0    0  501 -0.00000000000E+00  0.00000000000E+00  0.15599432903E+04  0.15599503707E+04  0.47000000000E+01 0.  1.
          5   -1    0    0  501    0  0.00000000000E+00 -0.00000000000E+00 -0.11435404487E+02  0.12363594776E+02  0.47000000000E+01 0.  1.
         25    2    1    2    0    0  0.10155774292E+02  0.53360340888E+02  0.78107050488E+03  0.79287211325E+03  0.12499835459E+03 0.  0.
         25    2    1    2    0    0 -0.10155774292E+02 -0.53360340888E+02  0.76743738096E+03  0.77944185222E+03  0.12497600395E+03 0.  0.
          5    1    3    3  502    0  0.46240173415E+02  0.38304057893E+02  0.70158860595E+03  0.70416902551E+03  0.47000000000E+01 0.  1.
         -5    1    3    3    0  502 -0.36084399123E+02  0.15056282996E+02  0.79481898924E+02  0.88703087738E+02  0.47000000000E+01 0.  1.
          5    1    4    4  503    0  0.42551444927E+02 -0.49672459839E+02  0.60544429223E+03  0.60898510632E+03  0.47000000000E+01 0. -1.
         -5    1    4    4    0  503 -0.52707219218E+02 -0.36878810499E+01  0.16199308874E+03  0.17045674590E+03  0.47000000000E+01 0. -1.
<mgrwt>
<rscale>  0 0.13628521E+03</rscale>
<asrwt>0</asrwt>
<pdfrwt beam="2">  1        5 0.18312365E-02 0.13629033E+03</pdfrwt>
<pdfrwt beam="1">  1       -5 0.24006327E+00 0.13629033E+03</pdfrwt>
<totfact> 0.63668416E+01</totfact>
</mgrwt>
</event>
<event>
 8    1  0.3674342E-007  0.1381058E+03  0.7546771E-02  0.1215901E+00
         -5   -1    0    0    0  501 -0.00000000000E+00  0.00000000000E+00  0.49985796548E+03  0.49988006127E+03  0.47000000000E+01 0. -1.
          5   -1    0    0  501    0  0.00000000000E+00 -0.00000000000E+00 -0.41654618619E+02  0.41918936679E+02  0.47000000000E+01 0. -1.
         25    2    1    2    0    0  0.38198425990E+02 -0.44599144207E+02  0.30917316773E+03  0.33861631924E+03  0.12499904239E+03 0.  0.
         25    2    1    2    0    0 -0.38198425990E+02  0.44599144207E+02  0.14903017913E+03  0.20318267870E+03  0.12500001289E+03 0.  0.
          5    1    3    3  502    0  0.56716757343E+02 -0.44400558387E+02  0.76569208671E+02  0.10522895925E+03  0.47000000000E+01 0.  1.
         -5    1    3    3    0  502 -0.18518331352E+02 -0.19858582010E+00  0.23260395906E+03  0.23338735999E+03  0.47000000000E+01 0.  1.
          5    1    4    4  503    0  0.43829299987E+02  0.33056925050E+02  0.61819627632E+02  0.82810169615E+02  0.47000000000E+01 0.  1.
         -5    1    4    4    0  503 -0.82027725978E+02  0.11542219157E+02  0.87210551495E+02  0.12037250909E+03  0.47000000000E+01 0.  1.
<mgrwt>
<rscale>  0 0.13810556E+03</rscale>
<asrwt>0</asrwt>
<pdfrwt beam="2">  1        5 0.64304351E-02 0.13810578E+03</pdfrwt>
<pdfrwt beam="1">  1       -5 0.76923252E-01 0.13810578E+03</pdfrwt>
<totfact> 0.18299330E+02</totfact>
</mgrwt>
</event>
<event>
 8    1  0.3674342E-007  0.1523792E+03  0.7546771E-02  0.1197592E+00
          5   -1    0    0  501    0  0.00000000000E+00  0.00000000000E+00  0.16802462860E+02  0.17447428411E+02  0.47000000000E+01 0.  1.
         -5   -1    0    0    0  501 -0.00000000000E+00 -0.00000000000E+00 -0.18328934150E+04  0.18328994409E+04  0.47000000000E+01 0.  1.
         25    2    1    2    0    0 -0.47258944344E+02 -0.73219265994E+02 -0.13805250526E+04  0.13889092241E+04  0.12499977241E+03 0.  0.
         25    2    1    2    0    0  0.47258944344E+02  0.73219265994E+02 -0.43556589945E+03  0.46143764524E+03  0.12495030591E+03 0.  0.
          5    1    3    3  502    0  0.17657974346E+02 -0.66137189710E+02 -0.10326368250E+04  0.10349139260E+04  0.47000000000E+01 0.  1.
         -5    1    3    3    0  502 -0.64916918690E+02 -0.70820762843E+01 -0.34788822768E+03  0.35399529813E+03  0.47000000000E+01 0.  1.
          5    1    4    4  503    0  0.61887042406E+01 -0.49964153247E+01 -0.29632661650E+03  0.29647060204E+03  0.47000000000E+01 0.  1.
         -5    1    4    4    0  503  0.41070240103E+02  0.78215681319E+02 -0.13923928295E+03  0.16496704320E+03  0.47000000000E+01 0.  1.
<mgrwt>
<rscale>  0 0.15236903E+03</rscale>
<asrwt>0</asrwt>
<pdfrwt beam="1">  1        5 0.26350720E-02 0.15237917E+03</pdfrwt>
<pdfrwt beam="2">  1       -5 0.28203352E+00 0.15237917E+03</pdfrwt>
<totfact> 0.19918295E+01</totfact>
</mgrwt>
</event>
<event>
 8    1  0.3674342E-007  0.1270329E+03  0.7546771E-02  0.1231927E+00
         -5   -1    0    0    0  501 -0.00000000000E+00  0.00000000000E+00  0.36771983788E+03  0.36774987311E+03  0.47000000000E+01 0. -1.
          5   -1    0    0  501    0  0.00000000000E+00 -0.00000000000E+00 -0.49704568320E+02  0.49926286782E+02  0.47000000000E+01 0. -1.
         25    2    1    2    0    0  0.20622722579E+02  0.92374989279E+01  0.23123831909E+03  0.26383339832E+03  0.12500509501E+03 0.  0.
         25    2    1    2    0    0 -0.20622722579E+02 -0.92374989279E+01  0.86776950467E+02  0.15384276157E+03  0.12500691214E+03 0.  0.
          5    1    3    3  502    0  0.37935498515E+02  0.61063558447E+02  0.12497418588E+03  0.14425150728E+03  0.47000000000E+01 0. -1.
         -5    1    3    3    0  502 -0.17312775936E+02 -0.51826059519E+02  0.10626413322E+03  0.11958189104E+03  0.47000000000E+01 0. -1.
          5    1    4    4  503    0 -0.38057193936E+02 -0.57720615637E+02  0.25968107009E+02  0.74003054406E+02  0.47000000000E+01 0. -1.
         -5    1    4    4    0  503  0.17434471357E+02  0.48483116709E+02  0.60808843458E+02  0.79839707163E+02  0.47000000000E+01 0. -1.
<mgrwt>
<rscale>  0 0.12703245E+03</rscale>
<asrwt>0</asrwt>
<pdfrwt beam="2">  1        5 0.76662224E-02 0.12703289E+03</pdfrwt>
<pdfrwt beam="1">  1       -5 0.56591648E-01 0.12703289E+03</pdfrwt>
<totfact> 0.26126971E+02</totfact>
</mgrwt>
</event>
<event>
 8    1  0.3674342E-007  0.1267626E+03  0.7546771E-02  0.1232340E+00
         -5   -1    0    0    0  501 -0.00000000000E+00  0.00000000000E+00  0.17687598282E+03  0.17693841669E+03  0.47000000000E+01 0.  1.
          5   -1    0    0  501    0  0.00000000000E+00 -0.00000000000E+00 -0.91589820814E+02  0.91710333533E+02  0.47000000000E+01 0.  1.
         25    2    1    2    0    0  0.17759450802E+02 -0.11313518798E+02  0.29477881064E+02  0.13014487865E+03  0.12500140065E+03 0.  0.
         25    2    1    2    0    0 -0.17759450802E+02  0.11313518798E+02  0.55808280946E+02  0.13850387158E+03  0.12500145767E+03 0.  0.
          5    1    4    4  502    0  0.35391433315E+02  0.17735344748E+02  0.72064459466E+02  0.82355766790E+02  0.47000000000E+01 0. -1.
         -5    1    4    4    0  502 -0.53150884117E+02 -0.64218259508E+01 -0.16256178521E+02  0.56148104786E+02  0.47000000000E+01 0. -1.
          5    1    3    3  503    0 -0.53442246331E+02  0.27642253783E+01  0.80313601092E+01  0.54316732045E+02  0.47000000000E+01 0.  1.
         -5    1    3    3    0  503  0.71201697133E+02 -0.14077744176E+02  0.21446520955E+02  0.75828146600E+02  0.47000000000E+01 0.  1.
<mgrwt>
<rscale>  0 0.12676259E+03</rscale>
<asrwt>0</asrwt>
<pdfrwt beam="2">  1        5 0.14104815E-01 0.12676261E+03</pdfrwt>
<pdfrwt beam="1">  1       -5 0.27225762E-01 0.12676261E+03</pdfrwt>
<totfact> 0.39977315E+02</totfact>
</mgrwt>
</event>
<event>
 8    1  0.3674342E-007  0.1474377E+03  0.7546771E-02  0.1203659E+00
         -5   -1    0    0    0  501 -0.00000000000E+00  0.00000000000E+00  0.49880529322E+03  0.49882743563E+03  0.47000000000E+01 0.  1.
          5   -1    0    0  501    0  0.00000000000E+00 -0.00000000000E+00 -0.44101140623E+02  0.44350880536E+02  0.47000000000E+01 0.  1.
         25    2    1    2    0    0 -0.70841626493E+02  0.33061750273E+02  0.26078792485E+03  0.29957746957E+03  0.12499881259E+03 0.  0.
         25    2    1    2    0    0  0.70841626493E+02 -0.33061750273E+02  0.19391622774E+03  0.24360084660E+03  0.12500501473E+03 0.  0.
          5    1    3    3  502    0 -0.52995899050E+02 -0.16442800685E+02  0.23362751919E+03  0.24017251869E+03  0.47000000000E+01 0. -1.
         -5    1    3    3    0  502 -0.17845727443E+02  0.49504550958E+02  0.27160405664E+02  0.59404950882E+02  0.47000000000E+01 0. -1.
          5    1    4    4  503    0  0.57866484182E+02 -0.33561734312E+02  0.21196476850E+02  0.70329941223E+02  0.47000000000E+01 0. -1.
         -5    1    4    4    0  503  0.12975142311E+02  0.49998403881E+00  0.17271975089E+03  0.17327090538E+03  0.47000000000E+01 0. -1.
<mgrwt>
<rscale>  0 0.14743636E+03</rscale>
<asrwt>0</asrwt>
<pdfrwt beam="2">  1        5 0.68057050E-02 0.14743768E+03</pdfrwt>
<pdfrwt beam="1">  1       -5 0.76760188E-01 0.14743768E+03</pdfrwt>
<totfact> 0.17066839E+02</totfact>
</mgrwt>
</event>
<event>
 8    1  0.3674342E-007  0.1511662E+03  0.7546771E-02  0.1199053E+00
          5   -1    0    0  501    0  0.00000000000E+00  0.00000000000E+00  0.11353447603E+03  0.11363171762E+03  0.47000000000E+01 0. -1.
         -5   -1    0    0    0  501 -0.00000000000E+00 -0.00000000000E+00 -0.23809765064E+03  0.23814403466E+03  0.47000000000E+01 0. -1.
         25    2    1    2    0    0 -0.76776525797E+02  0.36420696742E+02 -0.13165117274E+03  0.20044343540E+03  0.12499774976E+03 0.  0.
         25    2    1    2    0    0  0.76776525797E+02 -0.36420696742E+02  0.70879981292E+01  0.15133231687E+03  0.12502051171E+03 0.  0.
          5    1    3    3  502    0 -0.24788192694E+02  0.34392787756E+02  0.14646159615E+02  0.45098983781E+02  0.47000000000E+01 0.  1.
         -5    1    3    3    0  502 -0.51988333103E+02  0.20279089863E+01 -0.14629733236E+03  0.15534445162E+03  0.47000000000E+01 0.  1.
          5    1    4    4  503    0 -0.23339348216E+02 -0.28020166895E+02 -0.26468212495E+02  0.45304648775E+02  0.47000000000E+01 0. -1.
         -5    1    4    4    0  503  0.10011587401E+03 -0.84005298470E+01  0.33556210624E+02  0.10602766810E+03  0.47000000000E+01 0. -1.
<mgrwt>
<rscale>  0 0.15116153E+03</rscale>
<asrwt>0</asrwt>
<pdfrwt beam="1">  1        5 0.17477891E-01 0.15116623E+03</pdfrwt>
<pdfrwt beam="2">  1       -5 0.36641456E-01 0.15116623E+03</pdfrwt>
<totfact> 0.15984815E+02</totfact>
</mgrwt>
</event>
<event>
 8    1  0.3674342E-007  0.1315700E+03  0.7546771E-02  0.1225146E+00
          5   -1    0    0  501    0  0.00000000000E+00  0.00000000000E+00  0.25469708515E+03  0.25474044669E+03  0.47000000000E+01 0.  1.
         -5   -1    0    0    0  501 -0.00000000000E+00 -0.00000000000E+00 -0.69449698868E+02  0.69608553159E+02  0.47000000000E+01 0.  1.
         25    2    1    2    0    0  0.34675552790E+02  0.21983624655E+02  0.67918578516E+02  0.14806312482E+03  0.12499632759E+03 0.  0.
         25    2    1    2    0    0 -0.34675552790E+02 -0.21983624655E+02  0.11732880776E+03  0.17628587503E+03  0.12499994756E+03 0.  0.
          5    1    4    4  502    0 -0.14447248661E+02  0.22520737227E+02  0.12380413886E+03  0.12674960118E+03  0.47000000000E+01 0. -1.
         -5    1    4    4    0  502 -0.20228304129E+02 -0.44504361882E+02 -0.64753310986E+01  0.49536273854E+02  0.47000000000E+01 0. -1.
          5    1    3    3  503    0  0.20038944069E+02 -0.48299607000E+02  0.52971517090E+02  0.74582055071E+02  0.47000000000E+01 0.  1.
         -5    1    3    3    0  503  0.14636608721E+02  0.70283231655E+02  0.14947061425E+02  0.73481069753E+02  0.47000000000E+01 0.  1.
<mgrwt>
<rscale>  0 0.13156912E+03</rscale>
<asrwt>0</asrwt>
<pdfrwt beam="1">  1        5 0.39199722E-01 0.13156998E+03</pdfrwt>
<pdfrwt beam="2">  1       -5 0.10700124E-01 0.13156998E+03</pdfrwt>
<totfact> 0.32108481E+02</totfact>
</mgrwt>
</event>
<event>
 8    1  0.3674342E-007  0.1919205E+03  0.7546771E-02  0.1156741E+00
          5   -1    0    0  501    0  0.00000000000E+00  0.00000000000E+00  0.27951939050E+03  0.27955890196E+03  0.47000000000E+01 0.  1.
         -5   -1    0    0    0  501 -0.00000000000E+00 -0.00000000000E+00 -0.14280695005E+03  0.14288427129E+03  0.47000000000E+01 0.  1.
         25    2    1    2    0    0  0.14549163451E+03 -0.62981418383E+01  0.94290087017E+01  0.19215085206E+03  0.12500224574E+03 0.  0.
         25    2    1    2    0    0 -0.14549163451E+03  0.62981418383E+01  0.12728343175E+03  0.23029232120E+03  0.12500399553E+03 0.  0.
          5    1    4    4  502    0  0.16649690893E+01  0.45401523712E+01 -0.20558320158E+02  0.21636072503E+02  0.47000000000E+01 0.  1.
         -5    1    4    4    0  502 -0.14715660360E+03  0.17579894670E+01  0.14784175191E+03  0.20865624869E+03  0.47000000000E+01 0.  1.
          5    1    3    3  503    0 -0.13690767677E+02  0.24424965792E+02  0.95731978378E+01  0.29962513085E+02  0.47000000000E+01 0.  1.
         -5    1    3    3    0  503  0.15918240219E+03 -0.30723107630E+02 -0.14418913615E+00  0.16218833898E+03  0.47000000000E+01 0.  1.
<mgrwt>
<rscale>  0 0.19192022E+03</rscale>
<asrwt>0</asrwt>
<pdfrwt beam="1">  1        5 0.43011970E-01 0.19192051E+03</pdfrwt>
<pdfrwt beam="2">  1       -5 0.21979287E-01 0.19192051E+03</pdfrwt>
<totfact> 0.80530455E+01</totfact>
</mgrwt>
</event>
<event>
 8    1  0.3674342E-007  0.1559623E+03  0.7546771E-02  0.1193333E+00
          5   -1    0    0  501    0  0.00000000000E+00  0.00000000000E+00  0.60483009787E+03  0.60484835892E+03  0.47000000000E+01 0. -1.
         -5   -1    0    0    0  501 -0.00000000000E+00 -0.00000000000E+00 -0.45233559450E+02  0.45477081047E+02  0.47000000000E+01 0. -1.
         25    2    1    2    0    0 -0.84619367829E+02  0.39216370477E+02  0.17015545547E+03  0.23081549760E+03  0.12499821513E+03 0.  0.
         25    2    1    2    0    0  0.84619367829E+02 -0.39216370477E+02  0.38944108295E+03  0.41950994236E+03  0.12500349404E+03 0.  0.
          5    1    3    3  502    0 -0.53764015935E+02  0.72889388133E+02  0.15980901118E+03  0.18375103364E+03  0.47000000000E+01 0.  1.
         -5    1    3    3    0  502 -0.30855351895E+02 -0.33673017656E+02  0.10346444290E+02  0.47064463962E+02  0.47000000000E+01 0.  1.
          5    1    4    4  503    0  0.27672576890E+02  0.38804701322E+02  0.63567688593E+02  0.79589681426E+02  0.47000000000E+01 0.  1.
         -5    1    4    4    0  503  0.56946790939E+02 -0.78021071799E+02  0.32587339436E+03  0.33992026094E+03  0.47000000000E+01 0.  1.
<mgrwt>
<rscale>  0 0.15596123E+03</rscale>
<asrwt>0</asrwt>
<pdfrwt beam="1">  1        5 0.93070912E-01 0.15596229E+03</pdfrwt>
<pdfrwt beam="2">  1       -5 0.69791469E-02 0.15596229E+03</pdfrwt>
<totfact> 0.10594275E+02</totfact>
</mgrwt>
</event>
<event>
 8    1  0.3674342E-007  0.1318804E+03  0.7546771E-02  0.1224701E+00
          5   -1    0    0  501    0  0.00000000000E+00  0.00000000000E+00  0.50310722304E+03  0.50312917614E+03  0.47000000000E+01 0. -1.
         -5   -1    0    0    0  501 -0.00000000000E+00 -0.00000000000E+00 -0.39463393038E+02  0.39742287177E+02  0.47000000000E+01 0. -1.
         25    2    1    2    0    0 -0.20724389785E+02  0.36534398831E+02  0.13478711031E+03  0.18855637837E+03  0.12498671964E+03 0.  0.
         25    2    1    2    0    0  0.20724389785E+02 -0.36534398831E+02  0.32885671969E+03  0.35431508495E+03  0.12501269817E+03 0.  0.
          5    1    3    3  502    0 -0.22197012220E+02 -0.35214149449E+02  0.77885564555E+01  0.42608629227E+02  0.47000000000E+01 0. -1.
         -5    1    3    3    0  502  0.14726224351E+01  0.71748548280E+02  0.12699855386E+03  0.14594774914E+03  0.47000000000E+01 0. -1.
          5    1    4    4  503    0  0.30509112032E+02 -0.80695273819E+02  0.21717339529E+03  0.23372827547E+03  0.47000000000E+01 0.  1.
         -5    1    4    4    0  503 -0.97847222469E+01  0.44160874988E+02  0.11168332440E+03  0.12058680947E+03  0.47000000000E+01 0.  1.
<mgrwt>
<rscale>  0 0.13187423E+03</rscale>
<asrwt>0</asrwt>
<pdfrwt beam="1">  1        5 0.77424254E-01 0.13188039E+03</pdfrwt>
<pdfrwt beam="2">  1       -5 0.60944333E-02 0.13188039E+03</pdfrwt>
<totfact> 0.19432778E+02</totfact>
</mgrwt>
</event>
<event>
 8    1  0.3674342E-007  0.1571304E+03  0.7546771E-02  0.1191982E+00
          5   -1    0    0  501    0  0.00000000000E+00  0.00000000000E+00  0.38497027348E+02  0.38782871408E+02  0.47000000000E+01 0.  1.
         -5   -1    0    0    0  501 -0.00000000000E+00 -0.00000000000E+00 -0.65764137026E+03  0.65765816492E+03  0.47000000000E+01 0.  1.
         25    2    1    2    0    0  0.94650293230E+02 -0.10312808201E+02 -0.36881665608E+03  0.40088406686E+03  0.12496910513E+03 0.  0.
         25    2    1    2    0    0 -0.94650293230E+02  0.10312808201E+02 -0.25032768683E+03  0.29555696946E+03  0.12499975753E+03 0.  0.
          5    1    4    4  502    0 -0.64068792038E+02  0.60229067232E+02 -0.19879353144E+03  0.21742425991E+03  0.47000000000E+01 0.  1.
         -5    1    4    4    0  502 -0.30581501192E+02 -0.49916259031E+02 -0.51534155385E+02  0.78132709553E+02  0.47000000000E+01 0.  1.
          5    1    3    3  503    0  0.49327570354E+02 -0.30588221333E+02 -0.33639704670E+03  0.34139992898E+03  0.47000000000E+01 0.  1.
         -5    1    3    3    0  503  0.45322722877E+02  0.20275413132E+02 -0.32419609387E+02  0.59484137881E+02  0.47000000000E+01 0.  1.
<mgrwt>
<rscale>  0 0.15712433E+03</rscale>
<asrwt>0</asrwt>
<pdfrwt beam="1">  1        5 0.59459000E-02 0.15713043E+03</pdfrwt>
<pdfrwt beam="2">  1       -5 0.10119887E+00 0.15713043E+03</pdfrwt>
<totfact> 0.11370613E+02</totfact>
</mgrwt>
</event>
<event>
 8    1  0.3674342E-007  0.1263104E+03  0.7546771E-02  0.1233038E+00
          5   -1    0    0  501    0  0.00000000000E+00  0.00000000000E+00  0.23700267760E+03  0.23704927587E+03  0.47000000000E+01 0.  1.
         -5   -1    0    0    0  501 -0.00000000000E+00 -0.00000000000E+00 -0.73660819958E+02  0.73810611682E+02  0.47000000000E+01 0.  1.
         25    2    1    2    0    0 -0.12412730353E+02 -0.13136524144E+02  0.35625377620E+02  0.13123825303E+03  0.12501066909E+03 0.  0.
         25    2    1    2    0    0  0.12412730353E+02  0.13136524144E+02  0.12771648002E+03  0.17962163452E+03  0.12500315267E+03 0.  0.
          5    1    4    4  502    0  0.58194944726E+02  0.15290794362E+02  0.11799433920E+03  0.13253382235E+03  0.47000000000E+01 0. -1.
         -5    1    4    4    0  502 -0.45782214373E+02 -0.21542702181E+01  0.97221408275E+01  0.47087812174E+02  0.47000000000E+01 0. -1.
          5    1    3    3  503    0  0.34496837608E+02 -0.87186573811E+01  0.65897593917E+02  0.75037521785E+02  0.47000000000E+01 0.  1.
         -5    1    3    3    0  503 -0.46909567961E+02 -0.44178667633E+01 -0.30272216297E+02  0.56200731246E+02  0.47000000000E+01 0.  1.
<mgrwt>
<rscale>  0 0.12630852E+03</rscale>
<asrwt>0</asrwt>
<pdfrwt beam="1">  1        5 0.36477057E-01 0.12631038E+03</pdfrwt>
<pdfrwt beam="2">  1       -5 0.11347541E-01 0.12631038E+03</pdfrwt>
<totfact> 0.33007350E+02</totfact>
</mgrwt>
</event>
<event>
 8    1  0.3674342E-007  0.1412915E+03  0.7546771E-02  0.1211602E+00
         -5   -1    0    0    0  501 -0.00000000000E+00  0.00000000000E+00  0.49307506621E+02  0.49531002505E+02  0.47000000000E+01 0. -1.
          5   -1    0    0  501    0  0.00000000000E+00 -0.00000000000E+00 -0.63170960454E+03  0.63172708860E+03  0.47000000000E+01 0. -1.
         25    2    1    2    0    0 -0.15043717536E+02  0.64119349023E+02 -0.86604481837E+02  0.16572155075E+03  0.12500276697E+03 0.  0.
         25    2    1    2    0    0  0.15043717536E+02 -0.64119349023E+02 -0.49579761609E+03  0.51553654036E+03  0.12500017589E+03 0.  0.
          5    1    4    4  502    0  0.27188468391E+02 -0.48059171802E+01 -0.40698622840E+03  0.40794875875E+03  0.47000000000E+01 0.  1.
         -5    1    4    4    0  502 -0.12144750855E+02 -0.59313431843E+02 -0.88811387684E+02  0.10758778161E+03  0.47000000000E+01 0.  1.
          5    1    3    3  503    0 -0.34952849493E+02 -0.24644498956E+02 -0.53835962784E+02  0.68916281860E+02  0.47000000000E+01 0. -1.
         -5    1    3    3    0  503  0.19909131957E+02  0.88763847979E+02 -0.32768519053E+02  0.96805268887E+02  0.47000000000E+01 0. -1.
<mgrwt>
<rscale>  0 0.14129096E+03</rscale>
<asrwt>0</asrwt>
<pdfrwt beam="2">  1        5 0.97204624E-01 0.14129153E+03</pdfrwt>
<pdfrwt beam="1">  1       -5 0.76043076E-02 0.14129153E+03</pdfrwt>
<totfact> 0.79941324E+01</totfact>
</mgrwt>
</event>
<event>
 8    1  0.3674342E-007  0.1740416E+03  0.7546771E-02  0.1173698E+00
          5   -1    0    0  501    0  0.00000000000E+00  0.00000000000E+00  0.42051657691E+03  0.42054284140E+03  0.47000000000E+01 0.  1.
         -5   -1    0    0    0  501 -0.00000000000E+00 -0.00000000000E+00 -0.80954808095E+02  0.81091127466E+02  0.47000000000E+01 0.  1.
         25    2    1    2    0    0  0.82474809038E+01  0.12081804857E+03  0.86107590721E+02  0.19417744614E+03  0.12500136642E+03 0.  0.
         25    2    1    2    0    0 -0.82474809038E+01 -0.12081804857E+03  0.25345417809E+03  0.30745652273E+03  0.12500188467E+03 0.  0.
          5    1    3    3  502    0  0.11826025093E+02 -0.15366186313E+02  0.48997619566E+02  0.52903981650E+02  0.47000000000E+01 0. -1.
         -5    1    3    3    0  502 -0.35785441894E+01  0.13618423489E+03  0.37109971155E+02  0.14127346449E+03  0.47000000000E+01 0. -1.
          5    1    4    4  503    0  0.78749094262E+01 -0.12198277612E+03  0.26157573913E+03  0.28876594184E+03  0.47000000000E+01 0.  1.
         -5    1    4    4    0  503 -0.16122390330E+02  0.11647275411E+01 -0.81215610350E+01  0.18690580886E+02  0.47000000000E+01 0.  1.
<mgrwt>
<rscale>  0 0.17404155E+03</rscale>
<asrwt>0</asrwt>
<pdfrwt beam="1">  1        5 0.64707364E-01 0.17404164E+03</pdfrwt>
<pdfrwt beam="2">  1       -5 0.12467092E-01 0.17404164E+03</pdfrwt>
<totfact> 0.92240132E+01</totfact>
</mgrwt>
</event>
<event>
 8    1  0.3674342E-007  0.1352884E+03  0.7546771E-02  0.1219813E+00
         -5   -1    0    0    0  501 -0.00000000000E+00  0.00000000000E+00  0.16248549521E+03  0.16255345630E+03  0.47000000000E+01 0.  1.
          5   -1    0    0  501    0  0.00000000000E+00 -0.00000000000E+00 -0.13623741296E+03  0.13631846056E+03  0.47000000000E+01 0.  1.
         25    2    1    2    0    0 -0.11927095130E+01 -0.51731499788E+02  0.75460951319E+02  0.15491063883E+03  0.12500152088E+03 0.  0.
         25    2    1    2    0    0  0.11927095130E+01  0.51731499788E+02 -0.49212869066E+02  0.14396127803E+03  0.12500148985E+03 0.  0.
          5    1    4    4  502    0  0.10147877451E+01 -0.32166031815E+02  0.17259079024E+02  0.36819141837E+02  0.47000000000E+01 0.  1.
         -5    1    4    4    0  502  0.17792176795E+00  0.83897531603E+02 -0.66471948090E+02  0.10714213619E+03  0.47000000000E+01 0.  1.
          5    1    3    3  503    0 -0.27192710098E+02 -0.80567724159E+02  0.20743220208E+02  0.87652568948E+02  0.47000000000E+01 0. -1.
         -5    1    3    3    0  503  0.26000000585E+02  0.28836224371E+02  0.54717731110E+02  0.67258069882E+02  0.47000000000E+01 0. -1.
<mgrwt>
<rscale>  0 0.13528839E+03</rscale>
<asrwt>0</asrwt>
<pdfrwt beam="2">  1        5 0.20971064E-01 0.13528840E+03</pdfrwt>
<pdfrwt beam="1">  1       -5 0.25009230E-01 0.13528840E+03</pdfrwt>
<totfact> 0.23274885E+02</totfact>
</mgrwt>
</event>
<event>
 8    1  0.3674342E-007  0.1403663E+03  0.7546771E-02  0.1212838E+00
          5   -1    0    0  501    0  0.00000000000E+00  0.00000000000E+00  0.82545030050E+02  0.82678727529E+02  0.47000000000E+01 0. -1.
         -5   -1    0    0    0  501 -0.00000000000E+00 -0.00000000000E+00 -0.25123191553E+03  0.25127587505E+03  0.47000000000E+01 0. -1.
         25    2    1    2    0    0 -0.15156181654E+02  0.62028396851E+02 -0.12216257888E+03  0.18608169519E+03  0.12500187898E+03 0.  0.
         25    2    1    2    0    0  0.15156181654E+02 -0.62028396851E+02 -0.46524306603E+02  0.14787290739E+03  0.12499861510E+03 0.  0.
          5    1    4    4  502    0 -0.24884843416E+02 -0.80274285057E+02 -0.57920210434E+02  0.10217659737E+03  0.47000000000E+01 0. -1.
         -5    1    4    4    0  502  0.40041025070E+02  0.18245888206E+02  0.11395903832E+02  0.45696310017E+02  0.47000000000E+01 0. -1.
          5    1    3    3  503    0  0.46625712189E+02  0.36048921331E+02 -0.98439602727E+02  0.11482999239E+03  0.47000000000E+01 0. -1.
         -5    1    3    3    0  503 -0.61781893843E+02  0.25979475520E+02 -0.23722976152E+02  0.71251702805E+02  0.47000000000E+01 0. -1.
<mgrwt>
<rscale>  0 0.14036559E+03</rscale>
<asrwt>0</asrwt>
<pdfrwt beam="1">  1        5 0.12712901E-01 0.14036631E+03</pdfrwt>
<pdfrwt beam="2">  1       -5 0.38664729E-01 0.14036631E+03</pdfrwt>
<totfact> 0.24895427E+02</totfact>
</mgrwt>
</event>
<event>
 8    1  0.3674342E-007  0.1347380E+03  0.7546771E-02  0.1220590E+00
          5   -1    0    0  501    0  0.00000000000E+00  0.00000000000E+00  0.24113458479E+03  0.24118038473E+03  0.47000000000E+01 0. -1.
         -5   -1    0    0    0  501 -0.00000000000E+00 -0.00000000000E+00 -0.83961107232E+02  0.84092553342E+02  0.47000000000E+01 0. -1.
         25    2    1    2    0    0  0.42948927718E+02  0.26170095691E+02  0.25989667392E+02  0.13722101155E+03  0.12499863559E+03 0.  0.
         25    2    1    2    0    0 -0.42948927718E+02 -0.26170095691E+02  0.13118381016E+03  0.18805192652E+03  0.12499940288E+03 0.  0.
          5    1    4    4  502    0  0.12219482017E+02 -0.33767834940E+02  0.12693828532E+03  0.13200379047E+03  0.47000000000E+01 0. -1.
         -5    1    4    4    0  502 -0.55168409735E+02  0.75977392497E+01  0.42455248414E+01  0.56048136058E+02  0.47000000000E+01 0. -1.
          5    1    3    3  503    0  0.30268764961E+02  0.71390243552E+02 -0.93681762170E+01  0.78247157982E+02  0.47000000000E+01 0.  1.
         -5    1    3    3    0  503  0.12680162757E+02 -0.45220147861E+02  0.35357843609E+02  0.58973853569E+02  0.47000000000E+01 0.  1.
<mgrwt>
<rscale>  0 0.13473785E+03</rscale>
<asrwt>0</asrwt>
<pdfrwt beam="1">  1        5 0.37111262E-01 0.13473802E+03</pdfrwt>
<pdfrwt beam="2">  1       -5 0.12930728E-01 0.13473802E+03</pdfrwt>
<totfact> 0.25885272E+02</totfact>
</mgrwt>
</event>
<event>
 8    1  0.3674342E-007  0.1290987E+03  0.7546771E-02  0.1228799E+00
         -5   -1    0    0    0  501 -0.00000000000E+00  0.00000000000E+00  0.19689846806E+03  0.19695455497E+03  0.47000000000E+01 0.  1.
          5   -1    0    0  501    0  0.00000000000E+00 -0.00000000000E+00 -0.84556001395E+02  0.84686524146E+02  0.47000000000E+01 0.  1.
         25    2    1    2    0    0  0.18069380817E+02  0.26744668214E+02  0.59404447889E+02  0.14211034532E+03  0.12499872806E+03 0.  0.
         25    2    1    2    0    0 -0.18069380817E+02 -0.26744668214E+02  0.52938018776E+02  0.13953073380E+03  0.12499844816E+03 0.  0.
          5    1    3    3  502    0  0.50085063001E+02 -0.25108699290E+02 -0.92324831797E+00  0.56230798530E+02  0.47000000000E+01 0.  1.
         -5    1    3    3    0  502 -0.32015682184E+02  0.51853367504E+02  0.60327696207E+02  0.85879546790E+02  0.47000000000E+01 0.  1.
          5    1    4    4  503    0  0.42547844643E+01  0.45076658113E+02 -0.30930035726E+01  0.45625266778E+02  0.47000000000E+01 0. -1.
         -5    1    4    4    0  503 -0.22324165282E+02 -0.71821326327E+02  0.56031022348E+02  0.93905467020E+02  0.47000000000E+01 0. -1.
<mgrwt>
<rscale>  0 0.12909858E+03</rscale>
<asrwt>0</asrwt>
<pdfrwt beam="2">  1        5 0.13022970E-01 0.12909865E+03</pdfrwt>
<pdfrwt beam="1">  1       -5 0.30306426E-01 0.12909865E+03</pdfrwt>
<totfact> 0.37678294E+02</totfact>
</mgrwt>
</event>
<event>
 8    1  0.3674342E-007  0.1518599E+03  0.7546771E-02  0.1198208E+00
         -5   -1    0    0    0  501 -0.00000000000E+00  0.00000000000E+00  0.16899586404E+03  0.16906120804E+03  0.47000000000E+01 0. -1.
          5   -1    0    0  501    0  0.00000000000E+00 -0.00000000000E+00 -0.13940988007E+03  0.13948908438E+03  0.47000000000E+01 0. -1.
         25    2    1    2    0    0  0.81250581625E+02 -0.28871725545E+02  0.37733126083E+02  0.15647749431E+03  0.12500473539E+03 0.  0.
         25    2    1    2    0    0 -0.81250581625E+02  0.28871725545E+02 -0.81471421161E+01  0.15207279812E+03  0.12499810579E+03 0.  0.
          5    1    3    3  502    0  0.97573300547E+02 -0.45624726223E+02 -0.45678095335E+01  0.10791255491E+03  0.47000000000E+01 0. -1.
         -5    1    3    3    0  502 -0.16322718922E+02  0.16753000679E+02  0.42300935617E+02  0.48564939399E+02  0.47000000000E+01 0. -1.
          5    1    4    4  503    0  0.11368299518E+02  0.51554273482E+02 -0.18278786153E+02  0.56065010224E+02  0.47000000000E+01 0. -1.
         -5    1    4    4    0  503 -0.92618881143E+02 -0.22682547937E+02  0.10131644037E+02  0.96007787892E+02  0.47000000000E+01 0. -1.
<mgrwt>
<rscale>  0 0.15185850E+03</rscale>
<asrwt>0</asrwt>
<pdfrwt beam="2">  1        5 0.21458793E-01 0.15185986E+03</pdfrwt>
<pdfrwt beam="1">  1       -5 0.26010483E-01 0.15185986E+03</pdfrwt>
<totfact> 0.21484912E+02</totfact>
</mgrwt>
</event>
<event>
 8    1  0.3674342E-007  0.1327697E+03  0.7546771E-02  0.1223406E+00
         -5   -1    0    0    0  501 -0.00000000000E+00  0.00000000000E+00  0.22869316166E+03  0.22874145272E+03  0.47000000000E+01 0.  1.
          5   -1    0    0  501    0  0.00000000000E+00 -0.00000000000E+00 -0.81327319287E+02  0.81463015304E+02  0.47000000000E+01 0.  1.
         25    2    1    2    0    0  0.23691314064E+02 -0.37966292311E+02  0.10963742413E+03  0.17218636834E+03  0.12500025183E+03 0.  0.
         25    2    1    2    0    0 -0.23691314064E+02  0.37966292311E+02  0.37728418249E+02  0.13801809968E+03  0.12499137803E+03 0.  0.
          5    1    3    3  502    0 -0.51242192829E+02 -0.21755380217E+02  0.43021429207E+02  0.70512355409E+02  0.47000000000E+01 0. -1.
         -5    1    3    3    0  502  0.74933506892E+02 -0.16210912094E+02  0.66615994920E+02  0.10167401293E+03  0.47000000000E+01 0. -1.
          5    1    4    4  503    0 -0.13593417388E+01  0.51834837144E+02  0.75529286143E+02  0.91735822975E+02  0.47000000000E+01 0. -1.
         -5    1    4    4    0  503 -0.22331972325E+02 -0.13868544834E+02 -0.37800867893E+02  0.46282276707E+02  0.47000000000E+01 0. -1.
<mgrwt>
<rscale>  0 0.13276756E+03</rscale>
<asrwt>0</asrwt>
<pdfrwt beam="2">  1        5 0.12526048E-01 0.13276965E+03</pdfrwt>
<pdfrwt beam="1">  1       -5 0.35197716E-01 0.13276965E+03</pdfrwt>
<totfact> 0.30320242E+02</totfact>
</mgrwt>
</event>
<event>
 8    1  0.3674342E-007  0.1328861E+03  0.7546771E-02  0.1223236E+00
         -5   -1    0    0    0  501 -0.00000000000E+00  0.00000000000E+00  0.19003964289E+03  0.19009775346E+03  0.47000000000E+01 0.  1.
          5   -1    0    0  501    0  0.00000000000E+00 -0.00000000000E+00 -0.12413229545E+03  0.12422124123E+03  0.47000000000E+01 0.  1.
         25    2    1    2    0    0 -0.41233168754E+02  0.18250083544E+02  0.11187501787E+03  0.17370876481E+03  0.12500190237E+03 0.  0.
         25    2    1    2    0    0  0.41233168754E+02 -0.18250083544E+02 -0.45967670428E+02  0.14061022988E+03  0.12499988107E+03 0.  0.
          5    1    4    4  502    0  0.56606460467E+02 -0.49477553121E+02  0.84933911912E+01  0.75805984746E+02  0.47000000000E+01 0. -1.
         -5    1    4    4    0  502 -0.15373291713E+02  0.31227469577E+02 -0.54461061619E+02  0.64804245130E+02  0.47000000000E+01 0. -1.
          5    1    3    3  503    0  0.12449972667E+02 -0.23457315650E+02 -0.14138601002E+02  0.30450574957E+02  0.47000000000E+01 0.  1.
         -5    1    3    3    0  503 -0.53683141421E+02  0.41707399195E+02  0.12601361887E+03  0.14325818986E+03  0.47000000000E+01 0.  1.
<mgrwt>
<rscale>  0 0.13288562E+03</rscale>
<asrwt>0</asrwt>
<pdfrwt beam="2">  1        5 0.19108588E-01 0.13288610E+03</pdfrwt>
<pdfrwt beam="1">  1       -5 0.29248180E-01 0.13288610E+03</pdfrwt>
<totfact> 0.20326686E+02</totfact>
</mgrwt>
</event>
<event>
 8    1  0.3674342E-007  0.1255928E+03  0.7546771E-02  0.1234146E+00
         -5   -1    0    0    0  501 -0.00000000000E+00  0.00000000000E+00  0.12617596992E+04  0.12617684528E+04  0.47000000000E+01 0.  1.
          5   -1    0    0  501    0  0.00000000000E+00 -0.00000000000E+00 -0.12320962591E+02  0.13186967778E+02  0.47000000000E+01 0.  1.
         25    2    1    2    0    0 -0.11436751230E+01 -0.12142014429E+02  0.71597669968E+03  0.72690865336E+03  0.12499927733E+03 0.  0.
         25    2    1    2    0    0  0.11436751230E+01  0.12142014429E+02  0.53346203690E+03  0.54804676721E+03  0.12499911091E+03 0.  0.
          5    1    4    4  502    0  0.17195424323E+02 -0.39991258731E+02  0.79198772010E+02  0.90495960575E+02  0.47000000000E+01 0. -1.
         -5    1    4    4    0  502 -0.16051749200E+02  0.52133273160E+02  0.45426326489E+03  0.45755080663E+03  0.47000000000E+01 0. -1.
          5    1    3    3  503    0 -0.49223567079E+02  0.30419114579E+02  0.25955745376E+03  0.26597075759E+03  0.47000000000E+01 0. -1.
         -5    1    3    3    0  503  0.48079891956E+02 -0.42561129008E+02  0.45641924592E+03  0.46093789577E+03  0.47000000000E+01 0. -1.
<mgrwt>
<rscale>  0 0.12559278E+03</rscale>
<asrwt>0</asrwt>
<pdfrwt beam="2">  1        5 0.19628220E-02 0.12559282E+03</pdfrwt>
<pdfrwt beam="1">  1       -5 0.19418415E+00 0.12559282E+03</pdfrwt>
<totfact> 0.11125992E+02</totfact>
</mgrwt>
</event>
<event>
 8    1  0.3674342E-007  0.1279432E+03  0.7546771E-02  0.1230542E+00
          5   -1    0    0  501    0  0.00000000000E+00  0.00000000000E+00  0.53579422107E+02  0.53785169641E+02  0.47000000000E+01 0.  1.
         -5   -1    0    0    0  501 -0.00000000000E+00 -0.00000000000E+00 -0.30469779432E+03  0.30473404120E+03  0.47000000000E+01 0.  1.
         25    2    1    2    0    0  0.40178747668E+01 -0.26972495406E+02 -0.12533236688E+03  0.17910237983E+03  0.12500320575E+03 0.  0.
         25    2    1    2    0    0 -0.40178747668E+01  0.26972495406E+02 -0.12578600534E+03  0.17941683101E+03  0.12499848513E+03 0.  0.
          5    1    4    4  502    0  0.47067169809E+01  0.32392310620E+02  0.16310636943E+02  0.36871965631E+02  0.47000000000E+01 0. -1.
         -5    1    4    4    0  502 -0.87245917476E+01 -0.54198152135E+01 -0.14209664228E+03  0.14254486538E+03  0.47000000000E+01 0. -1.
          5    1    3    3  503    0  0.58112270166E+02  0.81014394514E+01 -0.83296363153E+02  0.10199531058E+03  0.47000000000E+01 0.  1.
         -5    1    3    3    0  503 -0.54094395399E+02 -0.35073934858E+02 -0.42036003728E+02  0.77107069257E+02  0.47000000000E+01 0.  1.
<mgrwt>
<rscale>  0 0.12794204E+03</rscale>
<asrwt>0</asrwt>
<pdfrwt beam="1">  1        5 0.82616032E-02 0.12794319E+03</pdfrwt>
<pdfrwt beam="2">  1       -5 0.46895198E-01 0.12794319E+03</pdfrwt>
<totfact> 0.34376371E+02</totfact>
</mgrwt>
</event>
<event>
 8    1  0.3674342E-007  0.1542302E+03  0.7546771E-02  0.1195370E+00
          5   -1    0    0  501    0  0.00000000000E+00  0.00000000000E+00  0.14726828975E+03  0.14734326984E+03  0.47000000000E+01 0.  1.
         -5   -1    0    0    0  501 -0.00000000000E+00 -0.00000000000E+00 -0.19278382236E+03  0.19284110600E+03  0.47000000000E+01 0.  1.
         25    2    1    2    0    0  0.39006890021E+02 -0.81497748508E+02 -0.91394910639E+02  0.17927482896E+03  0.12499205626E+03 0.  0.
         25    2    1    2    0    0 -0.39006890021E+02  0.81497748508E+02  0.45879378032E+02  0.16090954687E+03  0.12499417772E+03 0.  0.
          5    1    4    4  502    0  0.70829557555E+01  0.94691563854E+02  0.10085371830E+01  0.95077692834E+02  0.47000000000E+01 0. -1.
         -5    1    4    4    0  502 -0.46089845777E+02 -0.13193815346E+02  0.44870840849E+02  0.65831854034E+02  0.47000000000E+01 0. -1.
          5    1    3    3  503    0  0.43081812190E+02  0.10874717984E+02 -0.71916548693E+02  0.84666297950E+02  0.47000000000E+01 0. -1.
         -5    1    3    3    0  503 -0.40749221685E+01 -0.92372466492E+02 -0.19478361947E+02  0.94608531014E+02  0.47000000000E+01 0. -1.
<mgrwt>
<rscale>  0 0.15422980E+03</rscale>
<asrwt>0</asrwt>
<pdfrwt beam="1">  1        5 0.22666834E-01 0.15423023E+03</pdfrwt>
<pdfrwt beam="2">  1       -5 0.29669224E-01 0.15423023E+03</pdfrwt>
<totfact> 0.15069987E+02</totfact>
</mgrwt>
</event>
<event>
 8    1  0.3674342E-007  0.1262683E+03  0.7546771E-02  0.1233124E+00
          5   -1    0    0  501    0  0.00000000000E+00  0.00000000000E+00  0.75580510133E+02  0.75726504686E+02  0.47000000000E+01 0. -1.
         -5   -1    0    0    0  501 -0.00000000000E+00 -0.00000000000E+00 -0.21570138578E+03  0.21575258475E+03  0.47000000000E+01 0. -1.
         25    2    1    2    0    0 -0.17626460252E+02  0.30029642473E+01 -0.92730219503E+02  0.15661040617E+03  0.12493284523E+03 0.  0.
         25    2    1    2    0    0  0.17626460252E+02 -0.30029642473E+01 -0.47390656141E+02  0.13486868326E+03  0.12499591009E+03 0.  0.
          5    1    4    4  502    0  0.62206214688E+02  0.31229486757E+02 -0.23512673498E+02  0.73619493369E+02  0.47000000000E+01 0. -1.
         -5    1    4    4    0  502 -0.44579754436E+02 -0.34232451004E+02 -0.23877982643E+02  0.61249189892E+02  0.47000000000E+01 0. -1.
          5    1    3    3  503    0  0.40913897728E+02  0.34792086712E+02 -0.19071788213E+02  0.57186182166E+02  0.47000000000E+01 0. -1.
         -5    1    3    3    0  503 -0.58540357980E+02 -0.31789122465E+02 -0.73658431289E+02  0.99424224008E+02  0.47000000000E+01 0. -1.
<mgrwt>
<rscale>  0 0.12625271E+03</rscale>
<asrwt>0</asrwt>
<pdfrwt beam="1">  1        5 0.11642940E-01 0.12626832E+03</pdfrwt>
<pdfrwt beam="2">  1       -5 0.33199997E-01 0.12626832E+03</pdfrwt>
<totfact> 0.38075015E+02</totfact>
</mgrwt>
</event>
<event>
 8    1  0.3674342E-007  0.1270127E+03  0.7546771E-02  0.1231973E+00
         -5   -1    0    0    0  501 -0.00000000000E+00  0.00000000000E+00  0.24338966094E+03  0.24343503661E+03  0.47000000000E+01 0.  1.
          5   -1    0    0  501    0  0.00000000000E+00 -0.00000000000E+00 -0.76997406701E+02  0.77140719718E+02  0.47000000000E+01 0.  1.
         25    2    1    2    0    0 -0.21799352990E+02 -0.56364554453E+01  0.14333802507E+03  0.19148770038E+03  0.12495906748E+03 0.  0.
         25    2    1    2    0    0  0.21799352990E+02  0.56364554453E+01  0.23054229170E+02  0.12908805595E+03  0.12500098914E+03 0.  0.
          5    1    3    3  502    0  0.18442566935E+02  0.33297053604E+02  0.89548630678E+00  0.38362924153E+02  0.47000000000E+01 0. -1.
         -5    1    3    3    0  502 -0.40241919925E+02 -0.38933509049E+02  0.14244253876E+03  0.15312477623E+03  0.47000000000E+01 0. -1.
          5    1    4    4  503    0  0.84051107665E+01 -0.85713123599E+01 -0.50873117241E+02  0.52481209403E+02  0.47000000000E+01 0. -1.
         -5    1    4    4    0  503  0.13394242224E+02  0.14207767805E+02  0.73927346411E+02  0.76606846549E+02  0.47000000000E+01 0. -1.
<mgrwt>
<rscale>  0 0.12700240E+03</rscale>
<asrwt>0</asrwt>
<pdfrwt beam="2">  1        5 0.11860269E-01 0.12701271E+03</pdfrwt>
<pdfrwt beam="1">  1       -5 0.37459077E-01 0.12701271E+03</pdfrwt>
<totfact> 0.28996925E+02</totfact>
</mgrwt>
</event>
<event>
 8    1  0.3674342E-007  0.1346739E+03  0.7546771E-02  0.1220686E+00
          5   -1    0    0  501    0  0.00000000000E+00  0.00000000000E+00  0.43634495132E+02  0.43886890588E+02  0.47000000000E+01 0. -1.
         -5   -1    0    0    0  501 -0.00000000000E+00 -0.00000000000E+00 -0.41908060315E+03  0.41910695763E+03  0.47000000000E+01 0. -1.
         25    2    1    2    0    0 -0.10681596658E+02  0.48920919564E+02 -0.16262392443E+03  0.21114828569E+03  0.12501881807E+03 0.  0.
         25    2    1    2    0    0  0.10681596658E+02 -0.48920919564E+02 -0.21282218358E+03  0.25184556253E+03  0.12500221064E+03 0.  0.
          5    1    4    4  502    0  0.29031830866E+02 -0.58671542245E+01  0.37513306860E+01  0.30223057159E+02  0.47000000000E+01 0. -1.
         -5    1    4    4    0  502 -0.18350234208E+02 -0.43053765340E+02 -0.21657351427E+03  0.22162250537E+03  0.47000000000E+01 0. -1.
          5    1    3    3  503    0  0.49558478858E+02  0.46256681273E+02 -0.11732357777E+03  0.13558257738E+03  0.47000000000E+01 0. -1.
         -5    1    3    3    0  503 -0.60240075516E+02  0.26642382919E+01 -0.45300346669E+02  0.75565708309E+02  0.47000000000E+01 0. -1.
<mgrwt>
<rscale>  0 0.13467004E+03</rscale>
<asrwt>0</asrwt>
<pdfrwt beam="1">  1        5 0.67344418E-02 0.13467389E+03</pdfrwt>
<pdfrwt beam="2">  1       -5 0.64495378E-01 0.13467389E+03</pdfrwt>
<totfact> 0.24972133E+02</totfact>
</mgrwt>
</event>
<event>
 8    1  0.3674342E-007  0.1272023E+03  0.7546771E-02  0.1231699E+00
          5   -1    0    0  501    0  0.00000000000E+00  0.00000000000E+00  0.22759306936E+02  0.23239536403E+02  0.47000000000E+01 0.  1.
         -5   -1    0    0    0  501 -0.00000000000E+00 -0.00000000000E+00 -0.81245960687E+03  0.81247320128E+03  0.47000000000E+01 0.  1.
         25    2    1    2    0    0  0.19132733964E+02  0.13708110082E+02 -0.54858953624E+03  0.56314376842E+03  0.12500580327E+03 0.  0.
         25    2    1    2    0    0 -0.19132733964E+02 -0.13708110082E+02 -0.24111076370E+03  0.27256896926E+03  0.12492185094E+03 0.  0.
          5    1    3    3  502    0  0.13500301990E+02 -0.43782401033E+02 -0.41468603022E+03  0.41723584512E+03  0.47000000000E+01 0. -1.
         -5    1    3    3    0  502  0.56324319742E+01  0.57490511114E+02 -0.13390350602E+03  0.14590792330E+03  0.47000000000E+01 0. -1.
          5    1    4    4  503    0  0.19065028420E+02  0.49228685571E+02 -0.11085661988E+03  0.12287481012E+03  0.47000000000E+01 0. -1.
         -5    1    4    4    0  503 -0.38197762384E+02 -0.62936795653E+02 -0.13025414382E+03  0.14969415914E+03  0.47000000000E+01 0. -1.
<mgrwt>
<rscale>  0 0.12718167E+03</rscale>
<asrwt>0</asrwt>
<pdfrwt beam="1">  1        5 0.35394189E-02 0.12720230E+03</pdfrwt>
<pdfrwt beam="2">  1       -5 0.12503175E+00 0.12720230E+03</pdfrwt>
<totfact> 0.14746411E+02</totfact>
</mgrwt>
</event>
<event>
 8    1  0.3674342E-007  0.1372995E+03  0.7546771E-02  0.1217024E+00
          5   -1    0    0  501    0  0.00000000000E+00  0.00000000000E+00  0.53041715810E+02  0.53249540994E+02  0.47000000000E+01 0. -1.
         -5   -1    0    0    0  501 -0.00000000000E+00 -0.00000000000E+00 -0.38575262036E+03  0.38578125164E+03  0.47000000000E+01 0. -1.
         25    2    1    2    0    0 -0.54230387114E+02 -0.16921065993E+02 -0.22896878408E+03  0.26697913853E+03  0.12499559577E+03 0.  0.
         25    2    1    2    0    0  0.54230387114E+02  0.16921065993E+02 -0.10374212047E+03  0.17205165410E+03  0.12494833636E+03 0.  0.
          5    1    3    3  502    0  0.19850298754E+02  0.30796081751E+02 -0.12633816664E+03  0.13162771503E+03  0.47000000000E+01 0. -1.
         -5    1    3    3    0  502 -0.74080685869E+02 -0.47717147745E+02 -0.10263061744E+03  0.13535142350E+03  0.47000000000E+01 0. -1.
          5    1    4    4  503    0 -0.25263606702E+02  0.39896365313E+02 -0.65214377999E+02  0.80653424519E+02  0.47000000000E+01 0.  1.
         -5    1    4    4    0  503  0.79493993816E+02 -0.22975299320E+02 -0.38527742466E+02  0.91398229585E+02  0.47000000000E+01 0.  1.
<mgrwt>
<rscale>  0 0.13728876E+03</rscale>
<asrwt>0</asrwt>
<pdfrwt beam="1">  1        5 0.81784532E-02 0.13729951E+03</pdfrwt>
<pdfrwt beam="2">  1       -5 0.59364744E-01 0.13729951E+03</pdfrwt>
<totfact> 0.21659157E+02</totfact>
</mgrwt>
</event>
<event>
 8    1  0.3674342E-007  0.1305859E+03  0.7546771E-02  0.1226590E+00
          5   -1    0    0  501    0  0.00000000000E+00  0.00000000000E+00  0.57481705129E+02  0.57673533137E+02  0.47000000000E+01 0.  1.
         -5   -1    0    0    0  501 -0.00000000000E+00 -0.00000000000E+00 -0.30688381693E+03  0.30691980564E+03  0.47000000000E+01 0.  1.
         25    2    1    2    0    0 -0.35688310423E+02  0.12400821559E+02 -0.90309365548E+02  0.15877019568E+03  0.12499903061E+03 0.  0.
         25    2    1    2    0    0  0.35688310423E+02 -0.12400821559E+02 -0.15909274625E+03  0.20582314310E+03  0.12500091379E+03 0.  0.
          5    1    3    3  502    0  0.40435635239E+02 -0.72878180970E+01 -0.34275938222E+01  0.41496882885E+02  0.47000000000E+01 0.  1.
         -5    1    3    3    0  502 -0.76123945662E+02  0.19688639656E+02 -0.86881771726E+02  0.11727331279E+03  0.47000000000E+01 0.  1.
          5    1    4    4  503    0  0.28482608065E+02  0.46361603909E+02 -0.12716318448E+03  0.13839516887E+03  0.47000000000E+01 0. -1.
         -5    1    4    4    0  503  0.72057023581E+01 -0.58762425468E+02 -0.31929561766E+02  0.67427974224E+02  0.47000000000E+01 0. -1.
<mgrwt>
<rscale>  0 0.13058540E+03</rscale>
<asrwt>0</asrwt>
<pdfrwt beam="1">  1        5 0.88608638E-02 0.13058585E+03</pdfrwt>
<pdfrwt beam="2">  1       -5 0.47230419E-01 0.13058585E+03</pdfrwt>
<totfact> 0.30246125E+02</totfact>
</mgrwt>
</event>
<event>
 8    1  0.3674342E-007  0.1324933E+03  0.7546771E-02  0.1223823E+00
         -5   -1    0    0    0  501 -0.00000000000E+00  0.00000000000E+00  0.24110864297E+03  0.24115444784E+03  0.47000000000E+01 0. -1.
          5   -1    0    0  501    0  0.00000000000E+00 -0.00000000000E+00 -0.77129640457E+02  0.77272708229E+02  0.47000000000E+01 0. -1.
         25    2    1    2    0    0 -0.17474336664E+02  0.40108247877E+02  0.12034188584E+03  0.17898786877E+03  0.12506183947E+03 0.  0.
         25    2    1    2    0    0  0.17474336664E+02 -0.40108247877E+02  0.43637116672E+02  0.13943928729E+03  0.12500037160E+03 0.  0.
          5    1    4    4  502    0  0.60836244633E+02  0.11745089345E+02  0.73336513301E+01  0.62568907827E+02  0.47000000000E+01 0.  1.
         -5    1    4    4    0  502 -0.43361907969E+02 -0.51853337222E+02  0.36303465342E+02  0.76870379468E+02  0.47000000000E+01 0.  1.
          5    1    3    3  503    0 -0.20902937891E+02  0.84746608709E+02  0.82063364133E+02  0.11989748218E+03  0.47000000000E+01 0. -1.
         -5    1    3    3    0  503  0.34286012264E+01 -0.44638360831E+02  0.38278521704E+02  0.59090386595E+02  0.47000000000E+01 0. -1.
<mgrwt>
<rscale>  0 0.13247884E+03</rscale>
<asrwt>0</asrwt>
<pdfrwt beam="2">  1        5 0.11880627E-01 0.13249335E+03</pdfrwt>
<pdfrwt beam="1">  1       -5 0.37108165E-01 0.13249335E+03</pdfrwt>
<totfact> 0.29920441E+02</totfact>
</mgrwt>
</event>
<event>
 8    1  0.3674342E-007  0.1322040E+03  0.7546771E-02  0.1224222E+00
          5   -1    0    0  501    0  0.00000000000E+00  0.00000000000E+00  0.40716539167E+02  0.40986907199E+02  0.47000000000E+01 0. -1.
         -5   -1    0    0    0  501 -0.00000000000E+00 -0.00000000000E+00 -0.42884052005E+03  0.42886627478E+03  0.47000000000E+01 0. -1.
         25    2    1    2    0    0 -0.78401965582E+01  0.42318312098E+02 -0.18117184582E+03  0.22427916268E+03  0.12500238747E+03 0.  0.
         25    2    1    2    0    0  0.78401965582E+01 -0.42318312098E+02 -0.20695213506E+03  0.24557401929E+03  0.12500041810E+03 0.  0.
          5    1    3    3  502    0  0.80092736628E+01 -0.37203851721E+02 -0.10927273716E+03  0.11580542359E+03  0.47000000000E+01 0. -1.
         -5    1    3    3    0  502 -0.15849470221E+02  0.79522163819E+02 -0.71899108666E+02  0.10847373909E+03  0.47000000000E+01 0. -1.
          5    1    4    4  503    0 -0.43017234114E+02 -0.81848541732E+01 -0.19229093535E+02  0.48055408716E+02  0.47000000000E+01 0.  1.
         -5    1    4    4    0  503  0.50857430673E+02 -0.34133457925E+02 -0.18772304153E+03  0.19751861058E+03  0.47000000000E+01 0.  1.
<mgrwt>
<rscale>  0 0.13220356E+03</rscale>
<asrwt>0</asrwt>
<pdfrwt beam="1">  1        5 0.62868619E-02 0.13220403E+03</pdfrwt>
<pdfrwt beam="2">  1       -5 0.65998240E-01 0.13220403E+03</pdfrwt>
<totfact> 0.26480484E+02</totfact>
</mgrwt>
</event>
<event>
 8    1  0.3674342E-007  0.1445391E+03  0.7546771E-02  0.1207349E+00
          5   -1    0    0  501    0  0.00000000000E+00  0.00000000000E+00  0.15518108266E+03  0.15525224126E+03  0.47000000000E+01 0. -1.
         -5   -1    0    0    0  501 -0.00000000000E+00 -0.00000000000E+00 -0.22054847963E+03  0.22059855364E+03  0.47000000000E+01 0. -1.
         25    2    1    2    0    0  0.44440529315E+02 -0.57369614016E+02 -0.15004250533E+03  0.20833533409E+03  0.12499849907E+03 0.  0.
         25    2    1    2    0    0 -0.44440529315E+02  0.57369614016E+02  0.84675108355E+02  0.16751546081E+03  0.12500128950E+03 0.  0.
          5    1    3    3  502    0 -0.40184405811E+02 -0.30026568442E+02 -0.29237196954E+02  0.58251909570E+02  0.47000000000E+01 0. -1.
         -5    1    3    3    0  502  0.84624935126E+02 -0.27343045573E+02 -0.12080530837E+03  0.15008342452E+03  0.47000000000E+01 0. -1.
          5    1    4    4  503    0  0.34981389235E+02 -0.23563915438E+01 -0.21937971464E+01  0.35442247669E+02  0.47000000000E+01 0. -1.
         -5    1    4    4    0  503 -0.79421918550E+02  0.59726005560E+02  0.86868905501E+02  0.13207321314E+03  0.47000000000E+01 0. -1.
<mgrwt>
<rscale>  0 0.14453851E+03</rscale>
<asrwt>0</asrwt>
<pdfrwt beam="1">  1        5 0.23883338E-01 0.14453911E+03</pdfrwt>
<pdfrwt beam="2">  1       -5 0.33939861E-01 0.14453911E+03</pdfrwt>
<totfact> 0.10237667E+02</totfact>
</mgrwt>
</event>
<event>
 8    1  0.3674342E-007  0.1353991E+03  0.7546771E-02  0.1219662E+00
         -5   -1    0    0    0  501 -0.00000000000E+00  0.00000000000E+00  0.49787242445E+02  0.50008594365E+02  0.47000000000E+01 0. -1.
          5   -1    0    0  501    0  0.00000000000E+00 -0.00000000000E+00 -0.37725517299E+03  0.37728444912E+03  0.47000000000E+01 0. -1.
         25    2    1    2    0    0 -0.45941479087E+02  0.24435492940E+02 -0.12876667187E+03  0.18685225906E+03  0.12500079246E+03 0.  0.
         25    2    1    2    0    0  0.45941479087E+02 -0.24435492940E+02 -0.19870125868E+03  0.24044078442E+03  0.12498747056E+03 0.  0.
          5    1    3    3  502    0 -0.80868102290E+02  0.10798262260E+02 -0.12436057359E+03  0.14880824809E+03  0.47000000000E+01 0. -1.
         -5    1    3    3    0  502  0.34926623203E+02  0.13637230679E+02 -0.44060982794E+01  0.38044010974E+02  0.47000000000E+01 0. -1.
          5    1    4    4  503    0 -0.22969653490E+02  0.24425163126E+02 -0.12806125802E+02  0.36197795972E+02  0.47000000000E+01 0. -1.
         -5    1    4    4    0  503  0.68911132577E+02 -0.48860656066E+02 -0.18589513287E+03  0.20424298845E+03  0.47000000000E+01 0. -1.
<mgrwt>
<rscale>  0 0.13539601E+03</rscale>
<asrwt>0</asrwt>
<pdfrwt beam="2">  1        5 0.58058534E-01 0.13539908E+03</pdfrwt>
<pdfrwt beam="1">  1       -5 0.76788551E-02 0.13539908E+03</pdfrwt>
<totfact> 0.25209039E+02</totfact>
</mgrwt>
</event>
<event>
 8    1  0.3674342E-007  0.1321908E+03  0.7546771E-02  0.1224270E+00
         -5   -1    0    0    0  501 -0.00000000000E+00  0.00000000000E+00  0.64326838336E+02  0.64498311065E+02  0.47000000000E+01 0. -1.
          5   -1    0    0  501    0  0.00000000000E+00 -0.00000000000E+00 -0.28928864261E+03  0.28932681995E+03  0.47000000000E+01 0. -1.
         25    2    1    2    0    0  0.11945100192E+02 -0.41325935764E+02 -0.67965505647E+02  0.14863955225E+03  0.12499555252E+03 0.  0.
         25    2    1    2    0    0 -0.11945100192E+02  0.41325935764E+02 -0.15699629862E+03  0.20518557876E+03  0.12491103060E+03 0.  0.
          5    1    4    4  502    0  0.73238757091E+01 -0.42689453266E+02 -0.35803621163E+02  0.56391647112E+02  0.47000000000E+01 0.  1.
         -5    1    4    4    0  502 -0.19268975901E+02  0.84015389031E+02 -0.12119267746E+03  0.14879393165E+03  0.47000000000E+01 0.  1.
          5    1    3    3  503    0 -0.34376245570E+02 -0.69564408421E+02 -0.40179668183E+02  0.87506736391E+02  0.47000000000E+01 0.  1.
         -5    1    3    3    0  503  0.46321345762E+02  0.28238472657E+02 -0.27785837464E+02  0.61132815859E+02  0.47000000000E+01 0.  1.
<mgrwt>
<rscale>  0 0.13217081E+03</rscale>
<asrwt>0</asrwt>
<pdfrwt beam="2">  1        5 0.44522071E-01 0.13219080E+03</pdfrwt>
<pdfrwt beam="1">  1       -5 0.99125638E-02 0.13219080E+03</pdfrwt>
<totfact> 0.28290554E+02</totfact>
</mgrwt>
</event>
<event>
 8    1  0.3674342E-007  0.1581076E+03  0.7546771E-02  0.1190851E+00
         -5   -1    0    0    0  501 -0.00000000000E+00  0.00000000000E+00  0.10490267830E+04  0.10490373118E+04  0.47000000000E+01 0. -1.
          5   -1    0    0  501    0  0.00000000000E+00 -0.00000000000E+00 -0.24299177614E+02  0.24749546111E+02  0.47000000000E+01 0. -1.
         25    2    1    2    0    0  0.29773716559E+02  0.92110258534E+02  0.42130796412E+03  0.44999740684E+03  0.12500596631E+03 0.  0.
         25    2    1    2    0    0 -0.29773716559E+02 -0.92110258534E+02  0.60341964131E+03  0.62378945106E+03  0.12500896693E+03 0.  0.
          5    1    3    3  502    0  0.39487303915E+02 -0.10334823775E+02  0.50267473411E+02  0.64922758999E+02  0.47000000000E+01 0.  1.
         -5    1    3    3    0  502 -0.97135873562E+01  0.10244508231E+03  0.37104049071E+03  0.38507464784E+03  0.47000000000E+01 0.  1.
          5    1    4    4  503    0 -0.40099359211E+01 -0.68661810366E+02  0.11481538705E+03  0.13392231664E+03  0.47000000000E+01 0. -1.
         -5    1    4    4    0  503 -0.25763780638E+02 -0.23448448167E+02  0.48860425426E+03  0.48986713443E+03  0.47000000000E+01 0. -1.
<mgrwt>
<rscale>  0 0.15810701E+03</rscale>
<asrwt>0</asrwt>
<pdfrwt beam="2">  1        5 0.37737890E-02 0.15810761E+03</pdfrwt>
<pdfrwt beam="1">  1       -5 0.16142418E+00 0.15810761E+03</pdfrwt>
<totfact> 0.71565531E+01</totfact>
</mgrwt>
</event>
<event>
 8    1  0.3674342E-007  0.1264143E+03  0.7546771E-02  0.1232876E+00
         -5   -1    0    0    0  501 -0.00000000000E+00  0.00000000000E+00  0.42380157365E+02  0.42639978170E+02  0.47000000000E+01 0.  1.
          5   -1    0    0  501    0  0.00000000000E+00 -0.00000000000E+00 -0.40113080100E+03  0.40115833472E+03  0.47000000000E+01 0.  1.
         25    2    1    2    0    0  0.23255252728E+00 -0.18833569538E+02 -0.12346269092E+03  0.17670206708E+03  0.12500330811E+03 0.  0.
         25    2    1    2    0    0 -0.23255252728E+00  0.18833569538E+02 -0.23528795272E+03  0.26709624581E+03  0.12500090563E+03 0.  0.
          5    1    3    3  502    0 -0.18666558967E+02  0.14746671116E+02  0.17878548497E+02  0.30127018257E+02  0.47000000000E+01 0.  1.
         -5    1    3    3    0  502  0.18899111494E+02 -0.33580240655E+02 -0.14134123942E+03  0.14657504882E+03  0.47000000000E+01 0.  1.
          5    1    4    4  503    0  0.52617093090E+02 -0.86846837847E+01 -0.17158814944E+03  0.17974583513E+03  0.47000000000E+01 0.  1.
         -5    1    4    4    0  503 -0.52849645617E+02  0.27518253323E+02 -0.63699803272E+02  0.87350410673E+02  0.47000000000E+01 0.  1.
<mgrwt>
<rscale>  0 0.12641374E+03</rscale>
<asrwt>0</asrwt>
<pdfrwt beam="2">  1        5 0.61734533E-01 0.12641434E+03</pdfrwt>
<pdfrwt beam="1">  1       -5 0.65421287E-02 0.12641434E+03</pdfrwt>
<totfact> 0.28241285E+02</totfact>
</mgrwt>
</event>
<event>
 8    1  0.3674342E-007  0.2540996E+03  0.7546771E-02  0.1110743E+00
         -5   -1    0    0    0  501 -0.00000000000E+00  0.00000000000E+00  0.40594590869E+03  0.40597311583E+03  0.47000000000E+01 0. -1.
          5   -1    0    0  501    0  0.00000000000E+00 -0.00000000000E+00 -0.17505888162E+03  0.17512196331E+03  0.47000000000E+01 0. -1.
         25    2    1    2    0    0 -0.22111896623E+03 -0.63008436558E+01  0.20348719699E+03  0.32553593495E+03  0.12503322658E+03 0.  0.
         25    2    1    2    0    0  0.22111896623E+03  0.63008436558E+01  0.27399830082E+02  0.25555914419E+03  0.12500571041E+03 0.  0.
          5    1    3    3  502    0 -0.10093723343E+03 -0.32709786603E+02  0.25709021164E+02  0.10927625085E+03  0.47000000000E+01 0. -1.
         -5    1    3    3    0  502 -0.12018173280E+03  0.26408942948E+02  0.17777817582E+03  0.21625968410E+03  0.47000000000E+01 0. -1.
          5    1    4    4  503    0  0.13657329895E+03 -0.52969795648E+02  0.38699667340E+02  0.15158436426E+03  0.47000000000E+01 0. -1.
         -5    1    4    4    0  503  0.84545667281E+02  0.59270639304E+02 -0.11299837258E+02  0.10397477993E+03  0.47000000000E+01 0. -1.
<mgrwt>
<rscale>  0 0.25409621E+03</rscale>
<asrwt>0</asrwt>
<pdfrwt beam="2">  1        5 0.26939081E-01 0.25409960E+03</pdfrwt>
<pdfrwt beam="1">  1       -5 0.62460162E-01 0.25409960E+03</pdfrwt>
<totfact> 0.26140351E+01</totfact>
</mgrwt>
</event>
<event>
 8    1  0.3674342E-007  0.1395019E+03  0.7546771E-02  0.1214002E+00
          5   -1    0    0  501    0  0.00000000000E+00  0.00000000000E+00  0.12182113479E+03  0.12191176679E+03  0.47000000000E+01 0. -1.
         -5   -1    0    0    0  501 -0.00000000000E+00 -0.00000000000E+00 -0.17087669368E+03  0.17094131871E+03  0.47000000000E+01 0. -1.
         25    2    1    2    0    0 -0.58066372378E+02 -0.21528249345E+02 -0.62189756430E+02  0.15273428691E+03  0.12500010989E+03 0.  0.
         25    2    1    2    0    0  0.58066372378E+02  0.21528249345E+02  0.13134197540E+02  0.14011879859E+03  0.12500240579E+03 0.  0.
          5    1    3    3  502    0 -0.69884595275E+02  0.36138349561E+02 -0.46976719780E+02  0.91753687485E+02  0.47000000000E+01 0.  1.
         -5    1    3    3    0  502  0.11818222898E+02 -0.57666598906E+02 -0.15213036650E+02  0.60980599423E+02  0.47000000000E+01 0.  1.
          5    1    4    4  503    0 -0.16012329443E+01  0.29377596277E+01  0.60991014724E+02  0.61263270037E+02  0.47000000000E+01 0.  1.
         -5    1    4    4    0  503  0.59667605322E+02  0.18590489718E+02 -0.47856817184E+02  0.78855528556E+02  0.47000000000E+01 0.  1.
<mgrwt>
<rscale>  0 0.13950135E+03</rscale>
<asrwt>0</asrwt>
<pdfrwt beam="1">  1        5 0.18753656E-01 0.13950187E+03</pdfrwt>
<pdfrwt beam="2">  1       -5 0.26300665E-01 0.13950187E+03</pdfrwt>
<totfact> 0.26295147E+02</totfact>
</mgrwt>
</event>
<event>
 8    1  0.3674342E-007  0.1372813E+03  0.7546771E-02  0.1217036E+00
          5   -1    0    0  501    0  0.00000000000E+00  0.00000000000E+00  0.18448050303E+04  0.18448110174E+04  0.47000000000E+01 0.  1.
         -5   -1    0    0    0  501 -0.00000000000E+00 -0.00000000000E+00 -0.97076988800E+01  0.10785611598E+02  0.47000000000E+01 0.  1.
         25    2    1    2    0    0 -0.20903688217E+02 -0.52747668234E+02  0.86165493976E+03  0.87252174144E+03  0.12500269354E+03 0.  0.
         25    2    1    2    0    0  0.20903688217E+02  0.52747668234E+02  0.97344239166E+03  0.98307488753E+03  0.12500745547E+03 0.  0.
          5    1    3    3  502    0  0.43406310692E+02  0.52499817405E+01  0.42984580353E+03  0.43208931360E+03  0.47000000000E+01 0. -1.
         -5    1    3    3    0  502 -0.64309998910E+02 -0.57997649975E+02  0.43180913623E+03  0.44043242784E+03  0.47000000000E+01 0. -1.
          5    1    4    4  503    0  0.50966150930E+02  0.49511538223E+02  0.90847952984E+03  0.91126619991E+03  0.47000000000E+01 0.  1.
         -5    1    4    4    0  503 -0.30062462713E+02  0.32361300111E+01  0.64962861820E+02  0.71808687620E+02  0.47000000000E+01 0.  1.
<mgrwt>
<rscale>  0 0.13728018E+03</rscale>
<asrwt>0</asrwt>
<pdfrwt beam="1">  1        5 0.28389992E+00 0.13728126E+03</pdfrwt>
<pdfrwt beam="2">  1       -5 0.15768669E-02 0.13728126E+03</pdfrwt>
<totfact> 0.42713843E+01</totfact>
</mgrwt>
</event>
<event>
 8    1  0.3674342E-007  0.1322725E+03  0.7546771E-02  0.1224123E+00
          5   -1    0    0  501    0  0.00000000000E+00  0.00000000000E+00  0.44906704182E+02  0.45151988666E+02  0.47000000000E+01 0.  1.
         -5   -1    0    0    0  501 -0.00000000000E+00 -0.00000000000E+00 -0.38979511870E+03  0.38982345307E+03  0.47000000000E+01 0.  1.
         25    2    1    2    0    0  0.34683860098E+02  0.25851453841E+02 -0.18600258665E+03  0.22823883312E+03  0.12499893955E+03 0.  0.
         25    2    1    2    0    0 -0.34683860098E+02 -0.25851453841E+02 -0.15888582787E+03  0.20673660861E+03  0.12499620485E+03 0.  0.
          5    1    4    4  502    0 -0.68845511561E+02 -0.49959054280E+02 -0.77737973644E+02  0.11532950235E+03  0.47000000000E+01 0. -1.
         -5    1    4    4    0  502  0.34161651463E+02  0.24107600439E+02 -0.81147854227E+02  0.91407106262E+02  0.47000000000E+01 0. -1.
          5    1    3    3  503    0 -0.21106577793E+02  0.61825024033E+02 -0.98932803577E+02  0.11864910807E+03  0.47000000000E+01 0. -1.
         -5    1    3    3    0  503  0.55790437891E+02 -0.35973570192E+02 -0.87069783073E+02  0.10958972505E+03  0.47000000000E+01 0. -1.
<mgrwt>
<rscale>  0 0.13227181E+03</rscale>
<asrwt>0</asrwt>
<pdfrwt beam="1">  1        5 0.69297716E-02 0.13227246E+03</pdfrwt>
<pdfrwt beam="2">  1       -5 0.59989525E-01 0.13227246E+03</pdfrwt>
<totfact> 0.27732278E+02</totfact>
</mgrwt>
</event>
<event>
 8    1  0.3674342E-007  0.1364336E+03  0.7546771E-02  0.1218215E+00
         -5   -1    0    0    0  501 -0.00000000000E+00  0.00000000000E+00  0.19193454644E+03  0.19199208348E+03  0.47000000000E+01 0.  1.
          5   -1    0    0  501    0  0.00000000000E+00 -0.00000000000E+00 -0.11041026139E+03  0.11051025211E+03  0.47000000000E+01 0.  1.
         25    2    1    2    0    0 -0.15605803809E+02 -0.52353073968E+02  0.93747376051E+02  0.16553757549E+03  0.12501893023E+03 0.  0.
         25    2    1    2    0    0  0.15605803809E+02  0.52353073968E+02 -0.12223091000E+02  0.13696476010E+03  0.12500222433E+03 0.  0.
          5    1    3    3  502    0 -0.41184281708E+02  0.17994882604E+02 -0.37072209894E+00  0.45190577498E+02  0.47000000000E+01 0. -1.
         -5    1    3    3    0  502  0.25578477899E+02 -0.70347956572E+02  0.94118098150E+02  0.12034699799E+03  0.47000000000E+01 0. -1.
          5    1    4    4  503    0 -0.20348172126E+02 -0.21305092506E+02  0.31969047124E+02  0.43727166037E+02  0.47000000000E+01 0.  1.
         -5    1    4    4    0  503  0.35953975935E+02  0.73658166475E+02 -0.44192138124E+02  0.93237594059E+02  0.47000000000E+01 0.  1.
<mgrwt>
<rscale>  0 0.13642974E+03</rscale>
<asrwt>0</asrwt>
<pdfrwt beam="2">  1        5 0.16998312E-01 0.13643357E+03</pdfrwt>
<pdfrwt beam="1">  1       -5 0.29540509E-01 0.13643357E+03</pdfrwt>
<totfact> 0.24957819E+02</totfact>
</mgrwt>
</event>
<event>
 8    1  0.3674342E-007  0.1281773E+03  0.7546771E-02  0.1230221E+00
          5   -1    0    0  501    0  0.00000000000E+00  0.00000000000E+00  0.62241052723E+03  0.62242827250E+03  0.47000000000E+01 0. -1.
         -5   -1    0    0    0  501 -0.00000000000E+00 -0.00000000000E+00 -0.29656515104E+02  0.30026636310E+02  0.47000000000E+01 0. -1.
         25    2    1    2    0    0 -0.27526090149E+02  0.48110590911E+01  0.18487539616E+03  0.22491031180E+03  0.12499961728E+03 0.  0.
         25    2    1    2    0    0  0.27526090149E+02 -0.48110590911E+01  0.40787861597E+03  0.42754459701E+03  0.12509430500E+03 0.  0.
          5    1    3    3  502    0  0.15599704707E+02 -0.36325106083E+02  0.15107591826E+03  0.15623343815E+03  0.47000000000E+01 0.  1.
         -5    1    3    3    0  502 -0.43125794856E+02  0.41136165174E+02  0.33799477896E+02  0.68676873642E+02  0.47000000000E+01 0.  1.
          5    1    4    4  503    0 -0.52677364072E+01 -0.58566902360E+02  0.26246758101E+03  0.26901515232E+03  0.47000000000E+01 0. -1.
         -5    1    4    4    0  503  0.32793826556E+02  0.53755843269E+02  0.14541103496E+03  0.15852944469E+03  0.47000000000E+01 0. -1.
<mgrwt>
<rscale>  0 0.12815418E+03</rscale>
<asrwt>0</asrwt>
<pdfrwt beam="1">  1        5 0.95785296E-01 0.12817729E+03</pdfrwt>
<pdfrwt beam="2">  1       -5 0.45923770E-02 0.12817729E+03</pdfrwt>
<totfact> 0.18703683E+02</totfact>
</mgrwt>
</event>
<event>
 8    1  0.3674342E-007  0.1355585E+03  0.7546771E-02  0.1219436E+00
         -5   -1    0    0    0  501 -0.00000000000E+00  0.00000000000E+00  0.54543681613E+03  0.54545706558E+03  0.47000000000E+01 0. -1.
          5   -1    0    0  501    0  0.00000000000E+00 -0.00000000000E+00 -0.33585014128E+02  0.33912286475E+02  0.47000000000E+01 0. -1.
         25    2    1    2    0    0 -0.45706437707E+02 -0.25707741904E+02  0.24178252727E+03  0.27718806087E+03  0.12499785660E+03 0.  0.
         25    2    1    2    0    0  0.45706437707E+02  0.25707741904E+02  0.27006927473E+03  0.30218129118E+03  0.12500461250E+03 0.  0.
          5    1    4    4  502    0  0.77982135110E+02  0.19296098070E+02  0.25159763717E+03  0.26415339072E+03  0.47000000000E+01 0. -1.
         -5    1    4    4    0  502 -0.32275697404E+02  0.64116438346E+01  0.18471637552E+02  0.38027900460E+02  0.47000000000E+01 0. -1.
          5    1    3    3  503    0  0.29017688203E+02  0.67546860537E+01  0.10510864847E+02  0.31940887467E+02  0.47000000000E+01 0.  1.
         -5    1    3    3    0  503 -0.74724125910E+02 -0.32462427958E+02  0.23127166242E+03  0.24524717340E+03  0.47000000000E+01 0.  1.
<mgrwt>
<rscale>  0 0.13555699E+03</rscale>
<asrwt>0</asrwt>
<pdfrwt beam="2">  1        5 0.51936583E-02 0.13555855E+03</pdfrwt>
<pdfrwt beam="1">  1       -5 0.83940080E-01 0.13555855E+03</pdfrwt>
<totfact> 0.21255166E+02</totfact>
</mgrwt>
</event>
<event>
 8    1  0.3674342E-007  0.1291940E+03  0.7546771E-02  0.1228659E+00
         -5   -1    0    0    0  501 -0.00000000000E+00  0.00000000000E+00  0.10606142517E+03  0.10616551186E+03  0.47000000000E+01 0. -1.
          5   -1    0    0  501    0  0.00000000000E+00 -0.00000000000E+00 -0.16995796316E+03  0.17002293740E+03  0.47000000000E+01 0. -1.
         25    2    1    2    0    0 -0.32476736680E+02  0.34122980363E+01  0.59435349530E+01  0.12932547382E+03  0.12499348130E+03 0.  0.
         25    2    1    2    0    0  0.32476736680E+02 -0.34122980363E+01 -0.69840072948E+02  0.14686297544E+03  0.12499886225E+03 0.  0.
          5    1    4    4  502    0  0.85887684943E+01 -0.12734457071E+01 -0.10421716128E+03  0.10468378726E+03  0.47000000000E+01 0. -1.
         -5    1    4    4    0  502  0.23887968186E+02 -0.21388523292E+01  0.34377088337E+02  0.42179188184E+02  0.47000000000E+01 0. -1.
          5    1    3    3  503    0 -0.18929586181E+02  0.37844128060E+02 -0.47733733017E+02  0.63961758336E+02  0.47000000000E+01 0.  1.
         -5    1    3    3    0  503 -0.13547150498E+02 -0.34431830024E+02  0.53677267970E+02  0.65363715486E+02  0.47000000000E+01 0.  1.
<mgrwt>
<rscale>  0 0.12919273E+03</rscale>
<asrwt>0</asrwt>
<pdfrwt beam="2">  1        5 0.26160384E-01 0.12919403E+03</pdfrwt>
<pdfrwt beam="1">  1       -5 0.16330147E-01 0.12919403E+03</pdfrwt>
<totfact> 0.33353530E+02</totfact>
</mgrwt>
</event>
<event>
 8    1  0.3674342E-007  0.1625759E+03  0.7546771E-02  0.1185819E+00
          5   -1    0    0  501    0  0.00000000000E+00  0.00000000000E+00  0.37403060349E+02  0.37697200473E+02  0.47000000000E+01 0.  1.
         -5   -1    0    0    0  501 -0.00000000000E+00 -0.00000000000E+00 -0.10278525399E+04  0.10278632856E+04  0.47000000000E+01 0.  1.
         25    2    1    2    0    0 -0.71323339655E+02 -0.75613557119E+02 -0.79443176388E+03  0.81089623339E+03  0.12500578011E+03 0.  0.
         25    2    1    2    0    0  0.71323339655E+02  0.75613557119E+02 -0.19601771570E+03  0.25466425266E+03  0.12500603152E+03 0.  0.
          5    1    4    4  502    0  0.85686339776E+02  0.81910492895E+02 -0.20435383666E+03  0.23629231522E+03  0.47000000000E+01 0.  1.
         -5    1    4    4    0  502 -0.14363000122E+02 -0.62969357768E+01  0.83361209667E+01  0.18371937444E+02  0.47000000000E+01 0.  1.
          5    1    3    3  503    0  0.28797842707E+02  0.58698236677E+01 -0.22725910439E+03  0.22919982789E+03  0.47000000000E+01 0.  1.
         -5    1    3    3    0  503 -0.10012118236E+03 -0.81483380786E+02 -0.56717265949E+03  0.58169640550E+03  0.47000000000E+01 0.  1.
<mgrwt>
<rscale>  0 0.16257589E+03</rscale>
<asrwt>0</asrwt>
<pdfrwt beam="1">  1        5 0.57777705E-02 0.16257594E+03</pdfrwt>
<pdfrwt beam="2">  1       -5 0.15815459E+00 0.16257594E+03</pdfrwt>
<totfact> 0.37684988E+01</totfact>
</mgrwt>
</event>
<event>
 8    1  0.3674342E-007  0.1421780E+03  0.7546771E-02  0.1210429E+00
         -5   -1    0    0    0  501 -0.00000000000E+00  0.00000000000E+00  0.11522527963E+03  0.11532109549E+03  0.47000000000E+01 0. -1.
          5   -1    0    0  501    0  0.00000000000E+00 -0.00000000000E+00 -0.17712377390E+03  0.17718612045E+03  0.47000000000E+01 0. -1.
         25    2    1    2    0    0 -0.66983229900E+02  0.10147250105E+02 -0.46064759970E+02  0.14945025854E+03  0.12499479147E+03 0.  0.
         25    2    1    2    0    0  0.66983229900E+02 -0.10147250105E+02 -0.15833734306E+02  0.14305695740E+03  0.12499946459E+03 0.  0.
          5    1    4    4  502    0  0.12537182268E+02 -0.21983016001E+01  0.53056934225E+02  0.54764420370E+02  0.47000000000E+01 0.  1.
         -5    1    4    4    0  502  0.54446047632E+02 -0.79489485050E+01 -0.68890668531E+02  0.88292537033E+02  0.47000000000E+01 0.  1.
          5    1    3    3  503    0 -0.23616353096E+02 -0.29094761806E+02 -0.75042430346E+02  0.84010080647E+02  0.47000000000E+01 0.  1.
         -5    1    3    3    0  503 -0.43366876804E+02  0.39242011911E+02  0.28977670376E+02  0.65440177896E+02  0.47000000000E+01 0.  1.
<mgrwt>
<rscale>  0 0.14217698E+03</rscale>
<asrwt>0</asrwt>
<pdfrwt beam="2">  1        5 0.27261978E-01 0.14217801E+03</pdfrwt>
<pdfrwt beam="1">  1       -5 0.17739132E-01 0.14217801E+03</pdfrwt>
<totfact> 0.27362616E+02</totfact>
</mgrwt>
</event>
<event>
 8    1  0.3674342E-007  0.1283107E+03  0.7546771E-02  0.1229987E+00
         -5   -1    0    0    0  501 -0.00000000000E+00  0.00000000000E+00  0.13075212227E+03  0.13083656782E+03  0.47000000000E+01 0. -1.
          5   -1    0    0  501    0  0.00000000000E+00 -0.00000000000E+00 -0.14940175176E+03  0.14947566167E+03  0.47000000000E+01 0. -1.
         25    2    1    2    0    0 -0.27504090004E+01 -0.28790627306E+02  0.46422784346E+02  0.13644400187E+03  0.12500170306E+03 0.  0.
         25    2    1    2    0    0  0.27504090004E+01  0.28790627306E+02 -0.65072413836E+02  0.14386822762E+03  0.12500873132E+03 0.  0.
          5    1    3    3  502    0 -0.98215333770E+01 -0.74775427976E+02  0.48235182166E+02  0.89646806666E+02  0.47000000000E+01 0.  1.
         -5    1    3    3    0  502  0.70711243766E+01  0.45984800670E+02 -0.18123978199E+01  0.46797195199E+02  0.47000000000E+01 0.  1.
          5    1    4    4  503    0  0.53622697713E+02 -0.86002884826E+01 -0.20680674708E+01  0.54550211504E+02  0.47000000000E+01 0. -1.
         -5    1    4    4    0  503 -0.50872288713E+02  0.37390915789E+02 -0.63004346365E+02  0.89318016119E+02  0.47000000000E+01 0. -1.
<mgrwt>
<rscale>  0 0.12830904E+03</rscale>
<asrwt>0</asrwt>
<pdfrwt beam="2">  1        5 0.22997066E-01 0.12831075E+03</pdfrwt>
<pdfrwt beam="1">  1       -5 0.20127892E-01 0.12831075E+03</pdfrwt>
<totfact> 0.28938340E+02</totfact>
</mgrwt>
</event>
<event>
 8    1  0.3674342E-007  0.1378305E+03  0.7546771E-02  0.1216279E+00
         -5   -1    0    0    0  501 -0.00000000000E+00  0.00000000000E+00  0.21299199231E+03  0.21304384240E+03  0.47000000000E+01 0. -1.
          5   -1    0    0  501    0  0.00000000000E+00 -0.00000000000E+00 -0.89099301508E+02  0.89223178206E+02  0.47000000000E+01 0. -1.
         25    2    1    2    0    0  0.57937947174E+02  0.37733898738E+01  0.64841581149E+02  0.15231939803E+03  0.12500289667E+03 0.  0.
         25    2    1    2    0    0 -0.57937947174E+02 -0.37733898738E+01  0.59051109648E+02  0.14994762258E+03  0.12500484700E+03 0.  0.
          5    1    4    4  502    0  0.30117557830E+02  0.27691671588E+02  0.32976097360E+02  0.52758022727E+02  0.47000000000E+01 0. -1.
         -5    1    4    4    0  502 -0.88055505004E+02 -0.31465061461E+02  0.26075012289E+02  0.97189599856E+02  0.47000000000E+01 0. -1.
          5    1    3    3  503    0  0.24789152237E+02  0.58175183305E+02  0.61527429158E+02  0.88354787986E+02  0.47000000000E+01 0.  1.
         -5    1    3    3    0  503  0.33148794937E+02 -0.54401793431E+02  0.33141519912E+01  0.63964610042E+02  0.47000000000E+01 0.  1.
<mgrwt>
<rscale>  0 0.13783009E+03</rscale>
<asrwt>0</asrwt>
<pdfrwt beam="2">  1        5 0.13721102E-01 0.13783053E+03</pdfrwt>
<pdfrwt beam="1">  1       -5 0.32781516E-01 0.13783053E+03</pdfrwt>
<totfact> 0.30078029E+02</totfact>
</mgrwt>
</event>
<event>
 8    1  0.3674342E-007  0.1282069E+03  0.7546771E-02  0.1230142E+00
          5   -1    0    0  501    0  0.00000000000E+00  0.00000000000E+00  0.27697031017E+02  0.28092980033E+02  0.47000000000E+01 0. -1.
         -5   -1    0    0    0  501 -0.00000000000E+00 -0.00000000000E+00 -0.65764319858E+03  0.65765999318E+03  0.47000000000E+01 0. -1.
         25    2    1    2    0    0 -0.19844867051E+02 -0.20509076831E+02 -0.42585071024E+03  0.44473119933E+03  0.12499028467E+03 0.  0.
         25    2    1    2    0    0  0.19844867051E+02  0.20509076831E+02 -0.20409545732E+03  0.24102177389E+03  0.12498839470E+03 0.  0.
          5    1    4    4  502    0  0.53399732616E+01 -0.73359218072E+01 -0.20869412712E+03  0.20894415463E+03  0.47000000000E+01 0.  1.
         -5    1    4    4    0  502  0.14504893789E+02  0.27844998638E+02  0.45986697972E+01  0.32077619253E+02  0.47000000000E+01 0.  1.
          5    1    3    3  503    0 -0.14254327797E+02 -0.46681492032E+02 -0.41070689423E+03  0.41362373061E+03  0.47000000000E+01 0. -1.
         -5    1    3    3    0  503 -0.55905392542E+01  0.26172415200E+02 -0.15143816015E+02  0.31107468718E+02  0.47000000000E+01 0. -1.
<mgrwt>
<rscale>  0 0.12820645E+03</rscale>
<asrwt>0</asrwt>
<pdfrwt beam="1">  1        5 0.42928317E-02 0.12820691E+03</pdfrwt>
<pdfrwt beam="2">  1       -5 0.10120761E+00 0.12820691E+03</pdfrwt>
<totfact> 0.18296326E+02</totfact>
</mgrwt>
</event>
<event>
 8    1  0.3674342E-007  0.1289162E+03  0.7546771E-02  0.1229075E+00
          5   -1    0    0  501    0  0.00000000000E+00  0.00000000000E+00  0.39120359032E+03  0.39123182269E+03  0.47000000000E+01 0. -1.
         -5   -1    0    0    0  501 -0.00000000000E+00 -0.00000000000E+00 -0.42646219574E+02  0.42904429188E+02  0.47000000000E+01 0. -1.
         25    2    1    2    0    0 -0.10439446834E+02 -0.29737429865E+02  0.15538131673E+03  0.20189421491E+03  0.12499849455E+03 0.  0.
         25    2    1    2    0    0  0.10439446834E+02  0.29737429865E+02  0.19317605402E+03  0.23224203697E+03  0.12500431633E+03 0.  0.
          5    1    3    3  502    0 -0.46336752359E+02  0.26243090072E+02  0.33840063779E+02  0.63269537000E+02  0.47000000000E+01 0.  1.
         -5    1    3    3    0  502  0.35897305525E+02 -0.55980519936E+02  0.12154125295E+03  0.13862467791E+03  0.47000000000E+01 0.  1.
          5    1    4    4  503    0  0.21675050321E+01  0.78668324272E+02  0.11150694454E+03  0.13656241065E+03  0.47000000000E+01 0.  1.
         -5    1    4    4    0  503  0.82719418019E+01 -0.48930894407E+02  0.81669109479E+02  0.95679626315E+02  0.47000000000E+01 0.  1.
<mgrwt>
<rscale>  0 0.12891475E+03</rscale>
<asrwt>0</asrwt>
<pdfrwt beam="1">  1        5 0.60207203E-01 0.12891616E+03</pdfrwt>
<pdfrwt beam="2">  1       -5 0.65829907E-02 0.12891616E+03</pdfrwt>
<totfact> 0.29733766E+02</totfact>
</mgrwt>
</event>
<event>
 8    1  0.3674342E-007  0.1383745E+03  0.7546771E-02  0.1215538E+00
          5   -1    0    0  501    0  0.00000000000E+00  0.00000000000E+00  0.13449742561E+03  0.13457952109E+03  0.47000000000E+01 0. -1.
         -5   -1    0    0    0  501 -0.00000000000E+00 -0.00000000000E+00 -0.14417447236E+03  0.14425106058E+03  0.47000000000E+01 0. -1.
         25    2    1    2    0    0 -0.38933487019E+02  0.44810371202E+02 -0.21212150261E+02  0.13997617013E+03  0.12497834656E+03 0.  0.
         25    2    1    2    0    0  0.38933487019E+02 -0.44810371202E+02  0.11535103517E+02  0.13885441154E+03  0.12499481274E+03 0.  0.
          5    1    4    4  502    0 -0.41013363574E+02 -0.33942864670E+02  0.21126166275E+02  0.57468417023E+02  0.47000000000E+01 0. -1.
         -5    1    4    4    0  502  0.79946850593E+02 -0.10867506533E+02 -0.95910627581E+01  0.81385994513E+02  0.47000000000E+01 0. -1.
          5    1    3    3  503    0 -0.15132593400E+02 -0.15293369115E+02 -0.60362648357E+02  0.64254352682E+02  0.47000000000E+01 0.  1.
         -5    1    3    3    0  503 -0.23800893619E+02  0.60103740317E+02  0.39150498096E+02  0.75721817452E+02  0.47000000000E+01 0.  1.
<mgrwt>
<rscale>  0 0.13837073E+03</rscale>
<asrwt>0</asrwt>
<pdfrwt beam="1">  1        5 0.20704118E-01 0.13837445E+03</pdfrwt>
<pdfrwt beam="2">  1       -5 0.22192894E-01 0.13837445E+03</pdfrwt>
<totfact> 0.30154093E+02</totfact>
</mgrwt>
</event>
<event>
 8    1  0.3674342E-007  0.1603183E+03  0.7546771E-02  0.1188339E+00
          5   -1    0    0  501    0  0.00000000000E+00  0.00000000000E+00  0.17896889907E+03  0.17903060307E+03  0.47000000000E+01 0. -1.
         -5   -1    0    0    0  501 -0.00000000000E+00 -0.00000000000E+00 -0.15502505671E+03  0.15509628689E+03  0.47000000000E+01 0. -1.
         25    2    1    2    0    0 -0.86524452231E+02 -0.50889886012E+02 -0.33591116050E+02  0.16379715595E+03  0.12499953555E+03 0.  0.
         25    2    1    2    0    0  0.86524452231E+02  0.50889886012E+02  0.57534958419E+02  0.17032973401E+03  0.12500274203E+03 0.  0.
          5    1    3    3  502    0 -0.44717530527E+02 -0.33818453082E+02  0.45662272900E+02  0.72460185424E+02  0.47000000000E+01 0. -1.
         -5    1    3    3    0  502 -0.41806921704E+02 -0.17071432930E+02 -0.79253388950E+02  0.91336970525E+02  0.47000000000E+01 0. -1.
          5    1    4    4  503    0  0.58653863802E+01 -0.25971596350E+02  0.52081297908E+02  0.58681156824E+02  0.47000000000E+01 0. -1.
         -5    1    4    4    0  503  0.80659065851E+02  0.76861482363E+02  0.54536605106E+01  0.11164857719E+03  0.47000000000E+01 0. -1.
<mgrwt>
<rscale>  0 0.16031764E+03</rscale>
<asrwt>0</asrwt>
<pdfrwt beam="1">  1        5 0.27543903E-01 0.16031827E+03</pdfrwt>
<pdfrwt beam="2">  1       -5 0.23860234E-01 0.16031827E+03</pdfrwt>
<totfact> 0.16002568E+02</totfact>
</mgrwt>
</event>
<event>
 8    1  0.3674342E-007  0.1339879E+03  0.7546771E-02  0.1221657E+00
         -5   -1    0    0    0  501 -0.00000000000E+00  0.00000000000E+00  0.73093420652E+02  0.73244372771E+02  0.47000000000E+01 0. -1.
          5   -1    0    0  501    0  0.00000000000E+00 -0.00000000000E+00 -0.32482795404E+03  0.32486195487E+03  0.47000000000E+01 0. -1.
         25    2    1    2    0    0  0.19553184470E+02  0.44103483352E+02 -0.27329372713E+02  0.13674367479E+03  0.12499797484E+03 0.  0.
         25    2    1    2    0    0 -0.19553184470E+02 -0.44103483352E+02 -0.22440516067E+03  0.26136265286E+03  0.12500126361E+03 0.  0.
          5    1    3    3  502    0 -0.49402024800E+02  0.37791807895E+02 -0.25296546239E+02  0.67311113867E+02  0.47000000000E+01 0.  1.
         -5    1    3    3    0  502  0.68955209270E+02  0.63116754572E+01 -0.20328264740E+01  0.69432560921E+02  0.47000000000E+01 0.  1.
          5    1    4    4  503    0  0.22399735377E+02 -0.42194450468E+02 -0.21193424599E+03  0.21730240316E+03  0.47000000000E+01 0.  1.
         -5    1    4    4    0  503 -0.41952919846E+02 -0.19090328843E+01 -0.12470914678E+02  0.44060249694E+02  0.47000000000E+01 0.  1.
<mgrwt>
<rscale>  0 0.13398714E+03</rscale>
<asrwt>0</asrwt>
<pdfrwt beam="2">  1        5 0.49987758E-01 0.13398791E+03</pdfrwt>
<pdfrwt beam="1">  1       -5 0.11259369E-01 0.13398791E+03</pdfrwt>
<totfact> 0.17832321E+02</totfact>
</mgrwt>
</event>
<event>
 8    1  0.3674342E-007  0.1432856E+03  0.7546771E-02  0.1208978E+00
         -5   -1    0    0    0  501 -0.00000000000E+00  0.00000000000E+00  0.26025374460E+02  0.26446362998E+02  0.47000000000E+01 0.  1.
          5   -1    0    0  501    0  0.00000000000E+00 -0.00000000000E+00 -0.78866378392E+03  0.78867778849E+03  0.47000000000E+01 0.  1.
         25    2    1    2    0    0 -0.17038811124E+01 -0.70013256277E+02 -0.34406341330E+03  0.37270377952E+03  0.12499486241E+03 0.  0.
         25    2    1    2    0    0  0.17038811124E+01  0.70013256277E+02 -0.41857499615E+03  0.44242037197E+03  0.12500399539E+03 0.  0.
          5    1    3    3  502    0 -0.40700237950E+02  0.82594697427E+01 -0.19829118067E+03  0.20264799664E+03  0.47000000000E+01 0. -1.
         -5    1    3    3    0  502  0.38996356838E+02 -0.78272726020E+02 -0.14577223263E+03  0.17005578288E+03  0.47000000000E+01 0. -1.
          5    1    4    4  503    0 -0.32058678405E+02  0.19675725127E+02 -0.27961778123E+02  0.47104607590E+02  0.47000000000E+01 0.  1.
         -5    1    4    4    0  503  0.33762559518E+02  0.50337531151E+02 -0.39061321803E+03  0.39531576438E+03  0.47000000000E+01 0.  1.
<mgrwt>
<rscale>  0 0.14328359E+03</rscale>
<asrwt>0</asrwt>
<pdfrwt beam="2">  1        5 0.12136633E+00 0.14328558E+03</pdfrwt>
<pdfrwt beam="1">  1       -5 0.40373654E-02 0.14328558E+03</pdfrwt>
<totfact> 0.13345786E+02</totfact>
</mgrwt>
</event>
<event>
 8    1  0.3674342E-007  0.1310724E+03  0.7546771E-02  0.1225873E+00
         -5   -1    0    0    0  501 -0.00000000000E+00  0.00000000000E+00  0.47676274294E+03  0.47678590904E+03  0.47000000000E+01 0.  1.
          5   -1    0    0  501    0  0.00000000000E+00 -0.00000000000E+00 -0.38650275720E+02  0.38934994712E+02  0.47000000000E+01 0.  1.
         25    2    1    2    0    0 -0.12507178412E+02 -0.37453460815E+02  0.28809417536E+03  0.31650945360E+03  0.12498315526E+03 0.  0.
         25    2    1    2    0    0  0.12507178412E+02  0.37453460815E+02  0.15001829186E+03  0.19921145015E+03  0.12498208968E+03 0.  0.
          5    1    4    4  502    0  0.43217356566E+02  0.12057296216E+02  0.15247546922E+03  0.15900936141E+03  0.47000000000E+01 0.  1.
         -5    1    4    4    0  502 -0.30710178154E+02  0.25396164599E+02 -0.24571773686E+01  0.40202088741E+02  0.47000000000E+01 0.  1.
          5    1    3    3  503    0  0.11282018462E+02 -0.80471917714E+02  0.16885076801E+03  0.18744515288E+03  0.47000000000E+01 0.  1.
         -5    1    3    3    0  503 -0.23789196875E+02  0.43018456899E+02  0.11924340735E+03  0.12906430072E+03  0.47000000000E+01 0.  1.
<mgrwt>
<rscale>  0 0.13107217E+03</rscale>
<asrwt>0</asrwt>
<pdfrwt beam="2">  1        5 0.59698798E-02 0.13107242E+03</pdfrwt>
<pdfrwt beam="1">  1       -5 0.73371797E-01 0.13107242E+03</pdfrwt>
<totfact> 0.22696879E+02</totfact>
</mgrwt>
</event>
<event>
 8    1  0.3674342E-007  0.1408813E+03  0.7546771E-02  0.1212155E+00
         -5   -1    0    0    0  501 -0.00000000000E+00  0.00000000000E+00  0.87977938801E+02  0.88103392192E+02  0.47000000000E+01 0.  1.
          5   -1    0    0  501    0  0.00000000000E+00 -0.00000000000E+00 -0.23842804912E+03  0.23847436887E+03  0.47000000000E+01 0.  1.
         25    2    1    2    0    0  0.64273623608E+02 -0.95651670049E+01 -0.36860274140E+02  0.14562351604E+03  0.12499975001E+03 0.  0.
         25    2    1    2    0    0 -0.64273623608E+02  0.95651670049E+01 -0.11358983618E+03  0.18095424502E+03  0.12497678503E+03 0.  0.
          5    1    3    3  502    0  0.72490874089E+02  0.39921321089E+02 -0.45419254411E+02  0.94517920919E+02  0.47000000000E+01 0.  1.
         -5    1    3    3    0  502 -0.82172504809E+01 -0.49486488094E+02  0.85589802710E+01  0.51105595121E+02  0.47000000000E+01 0.  1.
          5    1    4    4  503    0 -0.82191162131E+02 -0.21667604174E+02 -0.11676530667E+03  0.14450293784E+03  0.47000000000E+01 0.  1.
         -5    1    4    4    0  503  0.17917538523E+02  0.31232771178E+02  0.31754704906E+01  0.36451307179E+02  0.47000000000E+01 0.  1.
<mgrwt>
<rscale>  0 0.14087616E+03</rscale>
<asrwt>0</asrwt>
<pdfrwt beam="2">  1        5 0.36694451E-01 0.14088126E+03</pdfrwt>
<pdfrwt beam="1">  1       -5 0.13548281E-01 0.14088126E+03</pdfrwt>
<totfact> 0.24733329E+02</totfact>
</mgrwt>
</event>
<event>
 8    1  0.3674342E-007  0.1282837E+03  0.7546771E-02  0.1230029E+00
          5   -1    0    0  501    0  0.00000000000E+00  0.00000000000E+00  0.70248597248E+02  0.70405649030E+02  0.47000000000E+01 0.  1.
         -5   -1    0    0    0  501 -0.00000000000E+00 -0.00000000000E+00 -0.23742805260E+03  0.23747456740E+03  0.47000000000E+01 0.  1.
         25    2    1    2    0    0  0.28723852174E+02  0.23323969626E+01 -0.10260765069E+03  0.16427122259E+03  0.12500481923E+03 0.  0.
         25    2    1    2    0    0 -0.28723852174E+02 -0.23323969626E+01 -0.64571804661E+02  0.14360899384E+03  0.12499410145E+03 0.  0.
          5    1    4    4  502    0  0.44605242857E+02  0.92132315363E+01 -0.10590133163E+01  0.45800904302E+02  0.47000000000E+01 0. -1.
         -5    1    4    4    0  502 -0.73329095031E+02 -0.11545628499E+02 -0.63512791345E+02  0.97808089543E+02  0.47000000000E+01 0. -1.
          5    1    3    3  503    0  0.52059800862E+02  0.31629348912E+02 -0.10997869935E+03  0.12580955007E+03  0.47000000000E+01 0. -1.
         -5    1    3    3    0  503 -0.23335948687E+02 -0.29296951950E+02  0.73710486532E+01  0.38461672519E+02  0.47000000000E+01 0. -1.
<mgrwt>
<rscale>  0 0.12828108E+03</rscale>
<asrwt>0</asrwt>
<pdfrwt beam="1">  1        5 0.10823136E-01 0.12828369E+03</pdfrwt>
<pdfrwt beam="2">  1       -5 0.36543051E-01 0.12828369E+03</pdfrwt>
<totfact> 0.35943868E+02</totfact>
</mgrwt>
</event>
<event>
 8    1  0.3674342E-007  0.1342749E+03  0.7546771E-02  0.1221252E+00
          5   -1    0    0  501    0  0.00000000000E+00  0.00000000000E+00  0.33988540026E+03  0.33991789495E+03  0.47000000000E+01 0. -1.
         -5   -1    0    0    0  501 -0.00000000000E+00 -0.00000000000E+00 -0.53007949377E+02  0.53215906430E+02  0.47000000000E+01 0. -1.
         25    2    1    2    0    0 -0.41077882643E+02  0.26729764183E+02  0.13465937647E+03  0.19016544243E+03  0.12501149981E+03 0.  0.
         25    2    1    2    0    0  0.41077882643E+02 -0.26729764183E+02  0.15221807441E+03  0.20296835896E+03  0.12499575923E+03 0.  0.
          5    1    4    4  502    0  0.52902815310E+02 -0.12963712103E+01  0.53766550717E+01  0.53398378869E+02  0.47000000000E+01 0.  1.
         -5    1    4    4    0  502 -0.11824932667E+02 -0.25433392973E+02  0.14684141934E+03  0.14956998009E+03  0.47000000000E+01 0.  1.
          5    1    3    3  503    0 -0.61457674933E+02 -0.31653727157E+02  0.51043114305E+02  0.86060988659E+02  0.47000000000E+01 0. -1.
         -5    1    3    3    0  503  0.20379792289E+02  0.58383491341E+02  0.83616262169E+02  0.10410445377E+03  0.47000000000E+01 0. -1.
<mgrwt>
<rscale>  0 0.13427123E+03</rscale>
<asrwt>0</asrwt>
<pdfrwt beam="1">  1        5 0.52308555E-01 0.13427490E+03</pdfrwt>
<pdfrwt beam="2">  1       -5 0.81735658E-02 0.13427490E+03</pdfrwt>
<totfact> 0.28278673E+02</totfact>
</mgrwt>
</event>
<event>
 8    1  0.3674342E-007  0.1286083E+03  0.7546771E-02  0.1229550E+00
         -5   -1    0    0    0  501 -0.00000000000E+00  0.00000000000E+00  0.22372673775E+03  0.22377610057E+03  0.47000000000E+01 0.  1.
          5   -1    0    0  501    0  0.00000000000E+00 -0.00000000000E+00 -0.73877812119E+02  0.74027164768E+02  0.47000000000E+01 0.  1.
         25    2    1    2    0    0  0.13435045185E+02  0.26936892371E+02  0.80439729735E+02  0.15166037738E+03  0.12499689331E+03 0.  0.
         25    2    1    2    0    0 -0.13435045185E+02 -0.26936892371E+02  0.69409195895E+02  0.14614288796E+03  0.12503603727E+03 0.  0.
          5    1    4    4  502    0 -0.76815318558E+01 -0.13523772932E+01  0.10292582730E+03  0.10332787998E+03  0.47000000000E+01 0. -1.
         -5    1    4    4    0  502 -0.57535133288E+01 -0.25584515078E+02 -0.33516631404E+02  0.42815007977E+02  0.47000000000E+01 0. -1.
          5    1    3    3  503    0 -0.42515951000E+02  0.48791664492E+02  0.59023357039E+02  0.87715901007E+02  0.47000000000E+01 0.  1.
         -5    1    3    3    0  503  0.55950996185E+02 -0.21854772121E+02  0.21416372696E+02  0.63944476368E+02  0.47000000000E+01 0.  1.
<mgrwt>
<rscale>  0 0.12859883E+03</rscale>
<asrwt>0</asrwt>
<pdfrwt beam="2">  1        5 0.11381103E-01 0.12860835E+03</pdfrwt>
<pdfrwt beam="1">  1       -5 0.34434784E-01 0.12860835E+03</pdfrwt>
<totfact> 0.37103535E+02</totfact>
</mgrwt>
</event>
<event>
 8    1  0.3674342E-007  0.1377294E+03  0.7546771E-02  0.1216419E+00
          5   -1    0    0  501    0  0.00000000000E+00  0.00000000000E+00  0.70231147378E+03  0.70232720024E+03  0.47000000000E+01 0. -1.
         -5   -1    0    0    0  501 -0.00000000000E+00 -0.00000000000E+00 -0.31765702040E+02  0.32111521703E+02  0.47000000000E+01 0. -1.
         25    2    1    2    0    0 -0.35881175745E+02 -0.45358580589E+02  0.19079645352E+03  0.23531067751E+03  0.12499187441E+03 0.  0.
         25    2    1    2    0    0  0.35881175745E+02  0.45358580589E+02  0.47974931822E+03  0.49912804443E+03  0.12499814720E+03 0.  0.
          5    1    4    4  502    0  0.53699011181E+01  0.29399035462E+02  0.45607661230E+03  0.45707888314E+03  0.47000000000E+01 0.  1.
         -5    1    4    4    0  502  0.30511274626E+02  0.15959545127E+02  0.23672705917E+02  0.42049161293E+02  0.47000000000E+01 0.  1.
          5    1    3    3  503    0  0.21815082382E+02  0.32638924350E+02  0.69004547709E+02  0.79529332995E+02  0.47000000000E+01 0. -1.
         -5    1    3    3    0  503 -0.57696258126E+02 -0.77997504939E+02  0.12179190581E+03  0.15578134451E+03  0.47000000000E+01 0. -1.
<mgrwt>
<rscale>  0 0.13772801E+03</rscale>
<asrwt>0</asrwt>
<pdfrwt beam="1">  1        5 0.10807572E+00 0.13772943E+03</pdfrwt>
<pdfrwt beam="2">  1       -5 0.49148428E-02 0.13772943E+03</pdfrwt>
<totfact> 0.12749256E+02</totfact>
</mgrwt>
</event>
<event>
 8    1  0.3674342E-007  0.1267358E+03  0.7546771E-02  0.1232382E+00
          5   -1    0    0  501    0  0.00000000000E+00  0.00000000000E+00  0.31461987532E+03  0.31465497922E+03  0.47000000000E+01 0. -1.
         -5   -1    0    0    0  501 -0.00000000000E+00 -0.00000000000E+00 -0.51013045242E+02  0.51229100957E+02  0.47000000000E+01 0. -1.
         25    2    1    2    0    0 -0.19444206158E+02  0.77122245476E+01  0.12339083408E+03  0.17688013247E+03  0.12499491097E+03 0.  0.
         25    2    1    2    0    0  0.19444206158E+02 -0.77122245476E+01  0.14021599600E+03  0.18900394771E+03  0.12499764459E+03 0.  0.
          5    1    4    4  502    0  0.42189904057E+02  0.13827291192E+02  0.14947639210E+03  0.15600148648E+03  0.47000000000E+01 0.  1.
         -5    1    4    4    0  502 -0.22745697899E+02 -0.21539515740E+02 -0.92603961020E+01  0.33002461229E+02  0.47000000000E+01 0.  1.
          5    1    3    3  503    0 -0.40308917299E+02  0.33056471279E+02  0.34677125948E+01  0.52456211623E+02  0.47000000000E+01 0.  1.
         -5    1    3    3    0  503  0.20864711140E+02 -0.25344246731E+02  0.11992312149E+03  0.12442392085E+03  0.47000000000E+01 0.  1.
<mgrwt>
<rscale>  0 0.12673514E+03</rscale>
<asrwt>0</asrwt>
<pdfrwt beam="1">  1        5 0.48422377E-01 0.12673581E+03</pdfrwt>
<pdfrwt beam="2">  1       -5 0.78674808E-02 0.12673581E+03</pdfrwt>
<totfact> 0.34825327E+02</totfact>
</mgrwt>
</event>
<event>
 8    1  0.3674342E-007  0.1443335E+03  0.7546771E-02  0.1207615E+00
          5   -1    0    0  501    0  0.00000000000E+00  0.00000000000E+00  0.11932137284E+03  0.11941390211E+03  0.47000000000E+01 0. -1.
         -5   -1    0    0    0  501 -0.00000000000E+00 -0.00000000000E+00 -0.17756199856E+03  0.17762419129E+03  0.47000000000E+01 0. -1.
         25    2    1    2    0    0  0.60868495248E+02  0.38729732295E+02 -0.48950597245E+02  0.15240835395E+03  0.12500871772E+03 0.  0.
         25    2    1    2    0    0 -0.60868495248E+02 -0.38729732295E+02 -0.92900284717E+01  0.14462973945E+03  0.12500596397E+03 0.  0.
          5    1    3    3  502    0  0.36965809656E+02 -0.28082060775E+02 -0.64505918175E+02  0.79612666709E+02  0.47000000000E+01 0.  1.
         -5    1    3    3    0  502  0.23902685592E+02  0.66811793070E+02  0.15555320930E+02  0.72795687241E+02  0.47000000000E+01 0.  1.
          5    1    4    4  503    0  0.17156491493E+02 -0.21620043451E+02  0.41348490189E+02  0.49935549662E+02  0.47000000000E+01 0. -1.
         -5    1    4    4    0  503 -0.78024986741E+02 -0.17109688844E+02 -0.50638518660E+02  0.94694189792E+02  0.47000000000E+01 0. -1.
<mgrwt>
<rscale>  0 0.14433286E+03</rscale>
<asrwt>0</asrwt>
<pdfrwt beam="1">  1        5 0.18369036E-01 0.14433345E+03</pdfrwt>
<pdfrwt beam="2">  1       -5 0.27329132E-01 0.14433345E+03</pdfrwt>
<totfact> 0.25663433E+02</totfact>
</mgrwt>
</event>
<event>
 8    1  0.3674342E-007  0.1559080E+03  0.7546771E-02  0.1193398E+00
          5   -1    0    0  501    0  0.00000000000E+00  0.00000000000E+00  0.23028761816E+03  0.23033557493E+03  0.47000000000E+01 0. -1.
         -5   -1    0    0    0  501 -0.00000000000E+00 -0.00000000000E+00 -0.10558355120E+03  0.10568810853E+03  0.47000000000E+01 0. -1.
         25    2    1    2    0    0  0.49656674596E+02 -0.78829479506E+02  0.68626721791E+02  0.17034353253E+03  0.12500967947E+03 0.  0.
         25    2    1    2    0    0 -0.49656674596E+02  0.78829479506E+02  0.56077345163E+02  0.16568015093E+03  0.12500148639E+03 0.  0.
          5    1    3    3  502    0 -0.63582107084E+01 -0.91381285320E+02  0.65412016975E+02  0.11265783646E+03  0.47000000000E+01 0. -1.
         -5    1    3    3    0  502  0.56014885305E+02  0.12551805814E+02  0.32147048165E+01  0.57685696078E+02  0.47000000000E+01 0. -1.
          5    1    4    4  503    0 -0.52008200146E+02 -0.20743215757E+02  0.19937751237E+02  0.59621621974E+02  0.47000000000E+01 0.  1.
         -5    1    4    4    0  503  0.23515255497E+01  0.99572695264E+02  0.36139593926E+02  0.10605852895E+03  0.47000000000E+01 0.  1.
<mgrwt>
<rscale>  0 0.15590632E+03</rscale>
<asrwt>0</asrwt>
<pdfrwt beam="1">  1        5 0.35440596E-01 0.15590796E+03</pdfrwt>
<pdfrwt beam="2">  1       -5 0.16255355E-01 0.15590796E+03</pdfrwt>
<totfact> 0.19727446E+02</totfact>
</mgrwt>
</event>
<event>
 8    1  0.3674342E-007  0.1571987E+03  0.7546771E-02  0.1191896E+00
          5   -1    0    0  501    0  0.00000000000E+00  0.00000000000E+00  0.71424616792E+03  0.71426163161E+03  0.47000000000E+01 0.  1.
         -5   -1    0    0    0  501 -0.00000000000E+00 -0.00000000000E+00 -0.78414265194E+02  0.78554993387E+02  0.47000000000E+01 0.  1.
         25    2    1    2    0    0  0.28651776734E+02 -0.90914036098E+02  0.21465029862E+02  0.15865743819E+03  0.12500059566E+03 0.  0.
         25    2    1    2    0    0 -0.28651776734E+02  0.90914036098E+02  0.61436687287E+03  0.63415918681E+03  0.12499973388E+03 0.  0.
          5    1    3    3  502    0 -0.43903020563E+02 -0.49987487458E+02 -0.13746173930E+02  0.68097514012E+02  0.47000000000E+01 0. -1.
         -5    1    3    3    0  502  0.72554797296E+02 -0.40926548640E+02  0.35211203792E+02  0.90559924176E+02  0.47000000000E+01 0. -1.
          5    1    4    4  503    0  0.27948156562E+02  0.82989343829E+02  0.48187569480E+03  0.48979036932E+03  0.47000000000E+01 0.  1.
         -5    1    4    4    0  503 -0.56599933296E+02  0.79246922687E+01  0.13249117807E+03  0.14436881749E+03  0.47000000000E+01 0.  1.
<mgrwt>
<rscale>  0 0.15719854E+03</rscale>
<asrwt>0</asrwt>
<pdfrwt beam="1">  1        5 0.10989604E+00 0.15719871E+03</pdfrwt>
<pdfrwt beam="2">  1       -5 0.12075748E-01 0.15719871E+03</pdfrwt>
<totfact> 0.27264192E+01</totfact>
</mgrwt>
</event>
<event>
 8    1  0.3674342E-007  0.1336374E+03  0.7546771E-02  0.1222161E+00
          5   -1    0    0  501    0  0.00000000000E+00  0.00000000000E+00  0.11525944583E+03  0.11535523332E+03  0.47000000000E+01 0.  1.
         -5   -1    0    0    0  501 -0.00000000000E+00 -0.00000000000E+00 -0.15737651190E+03  0.15744667827E+03  0.47000000000E+01 0.  1.
         25    2    1    2    0    0 -0.57968739059E+01  0.46857444195E+02 -0.38725401640E+02  0.13912146876E+03  0.12500361000E+03 0.  0.
         25    2    1    2    0    0  0.57968739059E+01 -0.46857444195E+02 -0.33916644295E+01  0.13368044283E+03  0.12501893290E+03 0.  0.
          5    1    3    3  502    0  0.93675816577E+01 -0.41830557445E+02 -0.75302258939E+01  0.43776037102E+02  0.47000000000E+01 0. -1.
         -5    1    3    3    0  502 -0.15164455564E+02  0.88688001641E+02 -0.31195175746E+02  0.95345431655E+02  0.47000000000E+01 0. -1.
          5    1    4    4  503    0  0.53698225858E+02 -0.10172389036E+02  0.32066374125E+02  0.63539903278E+02  0.47000000000E+01 0. -1.
         -5    1    4    4    0  503 -0.47901351952E+02 -0.36685055160E+02 -0.35458038555E+02  0.70140539555E+02  0.47000000000E+01 0. -1.
<mgrwt>
<rscale>  0 0.13363383E+03</rscale>
<asrwt>0</asrwt>
<pdfrwt beam="1">  1        5 0.17744988E-01 0.13363741E+03</pdfrwt>
<pdfrwt beam="2">  1       -5 0.24224537E-01 0.13363741E+03</pdfrwt>
<totfact> 0.33597962E+02</totfact>
</mgrwt>
</event>
<event>
 8    1  0.3674342E-007  0.2177667E+03  0.7546771E-02  0.1135559E+00
         -5   -1    0    0    0  501 -0.00000000000E+00  0.00000000000E+00  0.30136646709E+03  0.30140311460E+03  0.47000000000E+01 0.  1.
          5   -1    0    0  501    0  0.00000000000E+00 -0.00000000000E+00 -0.17104638734E+03  0.17111094828E+03  0.47000000000E+01 0.  1.
         25    2    1    2    0    0  0.10079778728E+03 -0.14709300236E+03  0.13217514588E+03  0.25474026364E+03  0.12500314984E+03 0.  0.
         25    2    1    2    0    0 -0.10079778728E+03  0.14709300236E+03 -0.18550661282E+01  0.21777379924E+03  0.12500176440E+03 0.  0.
          5    1    4    4  502    0 -0.11173045769E+03  0.58376677197E+02  0.13808676289E+02  0.12690272321E+03  0.47000000000E+01 0. -1.
         -5    1    4    4    0  502  0.10932670416E+02  0.88716325159E+02 -0.15663742417E+02  0.90871076029E+02  0.47000000000E+01 0. -1.
          5    1    3    3  503    0  0.95168096616E+02 -0.95528037513E+02  0.14803293317E+03  0.20029581091E+03  0.47000000000E+01 0.  1.
         -5    1    3    3    0  503  0.56296906617E+01 -0.51564964843E+02 -0.15857787286E+02  0.54444452737E+02  0.47000000000E+01 0.  1.
<mgrwt>
<rscale>  0 0.21776649E+03</rscale>
<asrwt>0</asrwt>
<pdfrwt beam="2">  1        5 0.26322614E-01 0.21776669E+03</pdfrwt>
<pdfrwt beam="1">  1       -5 0.46371857E-01 0.21776669E+03</pdfrwt>
<totfact> 0.50289159E+01</totfact>
</mgrwt>
</event>
<event>
 8    1  0.3674342E-007  0.1355171E+03  0.7546771E-02  0.1219496E+00
          5   -1    0    0  501    0  0.00000000000E+00  0.00000000000E+00  0.20879541484E+03  0.20884830681E+03  0.47000000000E+01 0. -1.
         -5   -1    0    0    0  501 -0.00000000000E+00 -0.00000000000E+00 -0.87958582889E+02  0.88084063847E+02  0.47000000000E+01 0. -1.
         25    2    1    2    0    0 -0.52207322966E+02  0.34462860174E+01  0.54569784071E+02  0.14609154476E+03  0.12500958626E+03 0.  0.
         25    2    1    2    0    0  0.52207322966E+02 -0.34462860174E+01  0.66267047880E+02  0.15084082590E+03  0.12499660662E+03 0.  0.
          5    1    4    4  502    0 -0.30030953033E+01 -0.54887630211E+02  0.47832222742E+02  0.73018367990E+02  0.47000000000E+01 0.  1.
         -5    1    4    4    0  502  0.55210418269E+02  0.51441344194E+02  0.18434825138E+02  0.77822457914E+02  0.47000000000E+01 0.  1.
          5    1    3    3  503    0  0.23866495216E+02  0.15602016672E+02  0.62148007970E+02  0.68538291581E+02  0.47000000000E+01 0.  1.
         -5    1    3    3    0  503 -0.76073818181E+02 -0.12155730655E+02 -0.75782238992E+01  0.77553253174E+02  0.47000000000E+01 0.  1.
<mgrwt>
<rscale>  0 0.13551408E+03</rscale>
<asrwt>0</asrwt>
<pdfrwt beam="1">  1        5 0.32136093E-01 0.13551708E+03</pdfrwt>
<pdfrwt beam="2">  1       -5 0.13545811E-01 0.13551708E+03</pdfrwt>
<totfact> 0.31832270E+02</totfact>
</mgrwt>
</event>
<event>
 8    1  0.3674342E-007  0.1286100E+03  0.7546771E-02  0.1229535E+00
          5   -1    0    0  501    0  0.00000000000E+00  0.00000000000E+00  0.14815193346E+03  0.14822646656E+03  0.47000000000E+01 0. -1.
         -5   -1    0    0    0  501 -0.00000000000E+00 -0.00000000000E+00 -0.11189745685E+03  0.11199611980E+03  0.47000000000E+01 0. -1.
         25    2    1    2    0    0  0.21694484952E+02  0.21063621128E+02  0.10268334407E+02  0.12901926688E+03  0.12500482280E+03 0.  0.
         25    2    1    2    0    0 -0.21694484952E+02 -0.21063621128E+02  0.25986142200E+02  0.13120331948E+03  0.12499881857E+03 0.  0.
          5    1    3    3  502    0  0.84542928374E+01  0.70473997083E+02 -0.13522271729E+02  0.72408571074E+02  0.47000000000E+01 0. -1.
         -5    1    3    3    0  502  0.13240192115E+02 -0.49410375956E+02  0.23790606136E+02  0.56610695806E+02  0.47000000000E+01 0. -1.
          5    1    4    4  503    0  0.60588486169E+01 -0.64711005741E+02  0.41185680383E+02  0.77088093628E+02  0.47000000000E+01 0. -1.
         -5    1    4    4    0  503 -0.27753333569E+02  0.43647384613E+02 -0.15199538183E+02  0.54115225850E+02  0.47000000000E+01 0. -1.
<mgrwt>
<rscale>  0 0.12860854E+03</rscale>
<asrwt>0</asrwt>
<pdfrwt beam="1">  1        5 0.22805928E-01 0.12861000E+03</pdfrwt>
<pdfrwt beam="2">  1       -5 0.17228316E-01 0.12861000E+03</pdfrwt>
<totfact> 0.39230774E+02</totfact>
</mgrwt>
</event>
<event>
 8    1  0.3674342E-007  0.1324480E+03  0.7546771E-02  0.1223869E+00
          5   -1    0    0  501    0  0.00000000000E+00  0.00000000000E+00  0.13150672743E+03  0.13159068873E+03  0.47000000000E+01 0.  1.
         -5   -1    0    0    0  501 -0.00000000000E+00 -0.00000000000E+00 -0.15238199906E+03  0.15245446414E+03  0.47000000000E+01 0.  1.
         25    2    1    2    0    0  0.21980923077E+02 -0.37881227686E+02 -0.60767124428E+02  0.14572004338E+03  0.12499415683E+03 0.  0.
         25    2    1    2    0    0 -0.21980923077E+02  0.37881227686E+02  0.39891852802E+02  0.13832510950E+03  0.12499731040E+03 0.  0.
          5    1    4    4  502    0  0.18762256866E+01  0.43117222795E+02 -0.37292856155E+02  0.57231654219E+02  0.47000000000E+01 0. -1.
         -5    1    4    4    0  502 -0.23857148764E+02 -0.52359951094E+01  0.77184708957E+02  0.81093455277E+02  0.47000000000E+01 0. -1.
          5    1    3    3  503    0 -0.73084210320E+00 -0.45254926082E+02  0.28166763965E+02  0.53516343832E+02  0.47000000000E+01 0. -1.
         -5    1    3    3    0  503  0.22711765180E+02  0.73736983964E+01 -0.88933888392E+02  0.92203699547E+02  0.47000000000E+01 0. -1.
<mgrwt>
<rscale>  0 0.13244727E+03</rscale>
<asrwt>0</asrwt>
<pdfrwt beam="1">  1        5 0.20243837E-01 0.13244801E+03</pdfrwt>
<pdfrwt beam="2">  1       -5 0.23455417E-01 0.13244801E+03</pdfrwt>
<totfact> 0.27897409E+02</totfact>
</mgrwt>
</event>
<event>
 8    1  0.3674342E-007  0.2026244E+03  0.7546771E-02  0.1147544E+00
         -5   -1    0    0    0  501 -0.00000000000E+00  0.00000000000E+00  0.87695543291E+03  0.87696802753E+03  0.47000000000E+01 0. -1.
          5   -1    0    0  501    0  0.00000000000E+00 -0.00000000000E+00 -0.54768248373E+02  0.54969546385E+02  0.47000000000E+01 0. -1.
         25    2    1    2    0    0 -0.60552572393E+02  0.14752941510E+03  0.58971870688E+03  0.62355753461E+03  0.12499721348E+03 0.  0.
         25    2    1    2    0    0  0.60552572393E+02 -0.14752941510E+03  0.23246847766E+03  0.30838003931E+03  0.12500045278E+03 0.  0.
          5    1    4    4  502    0 -0.35944598776E+02 -0.18975215669E+02  0.36076094750E+02  0.54549496819E+02  0.47000000000E+01 0. -1.
         -5    1    4    4    0  502  0.96497171169E+02 -0.12855419943E+03  0.19639238291E+03  0.25383054249E+03  0.47000000000E+01 0. -1.
          5    1    3    3  503    0  0.25676035099E+02  0.94028570232E+02  0.23184417746E+03  0.25154411824E+03  0.47000000000E+01 0. -1.
         -5    1    3    3    0  503 -0.86228607492E+02  0.53500844872E+02  0.35787452942E+03  0.37201341637E+03  0.47000000000E+01 0. -1.
<mgrwt>
<rscale>  0 0.20262392E+03</rscale>
<asrwt>0</asrwt>
<pdfrwt beam="2">  1        5 0.84423373E-02 0.20262442E+03</pdfrwt>
<pdfrwt beam="1">  1       -5 0.13493268E+00 0.20262442E+03</pdfrwt>
<totfact> 0.32189594E+01</totfact>
</mgrwt>
</event>
<event>
 8    1  0.3674342E-007  0.1270578E+03  0.7546771E-02  0.1231893E+00
         -5   -1    0    0    0  501 -0.00000000000E+00  0.00000000000E+00  0.70839903183E+02  0.70995646930E+02  0.47000000000E+01 0. -1.
          5   -1    0    0  501    0  0.00000000000E+00 -0.00000000000E+00 -0.38254004789E+03  0.38256891959E+03  0.47000000000E+01 0. -1.
         25    2    1    2    0    0  0.20410494119E+01 -0.22624892476E+02 -0.11486865705E+02  0.12757596853E+03  0.12501051164E+03 0.  0.
         25    2    1    2    0    0 -0.20410494119E+01  0.22624892476E+02 -0.30021327900E+03  0.32598859800E+03  0.12499800596E+03 0.  0.
          5    1    4    4  502    0  0.57944331176E+02  0.28135082971E+02 -0.12587470703E+03  0.14147671285E+03  0.47000000000E+01 0.  1.
         -5    1    4    4    0  502 -0.59985380588E+02 -0.55101904953E+01 -0.17433857197E+03  0.18451188515E+03  0.47000000000E+01 0.  1.
          5    1    3    3  503    0  0.21475557461E+02  0.45176599350E+02  0.14452036930E+02  0.52278830022E+02  0.47000000000E+01 0.  1.
         -5    1    3    3    0  503 -0.19434508049E+02 -0.67801491826E+02 -0.25938902635E+02  0.75297138504E+02  0.47000000000E+01 0.  1.
<mgrwt>
<rscale>  0 0.12705470E+03</rscale>
<asrwt>0</asrwt>
<pdfrwt beam="2">  1        5 0.58866515E-01 0.12705778E+03</pdfrwt>
<pdfrwt beam="1">  1       -5 0.10912648E-01 0.12705778E+03</pdfrwt>
<totfact> 0.13020763E+02</totfact>
</mgrwt>
</event>
<event>
 8    1  0.3674342E-007  0.1306740E+03  0.7546771E-02  0.1226481E+00
          5   -1    0    0  501    0  0.00000000000E+00  0.00000000000E+00  0.10998629904E+02  0.11960763344E+02  0.47000000000E+01 0. -1.
         -5   -1    0    0    0  501 -0.00000000000E+00 -0.00000000000E+00 -0.14861622240E+04  0.14861696559E+04  0.47000000000E+01 0. -1.
         25    2    1    2    0    0 -0.18438891445E+02 -0.33330721859E+02 -0.74879506327E+03  0.76010132382E+03  0.12493616752E+03 0.  0.
         25    2    1    2    0    0  0.18438891445E+02  0.33330721859E+02 -0.72636853083E+03  0.73802909541E+03  0.12499909339E+03 0.  0.
          5    1    4    4  502    0 -0.90220863793E+01  0.41159187429E+02 -0.69113550607E+03  0.69243472942E+03  0.47000000000E+01 0.  1.
         -5    1    4    4    0  502  0.27460977824E+02 -0.78284655700E+01 -0.35233024761E+02  0.45594365990E+02  0.47000000000E+01 0.  1.
          5    1    3    3  503    0 -0.70170661454E+02 -0.35132743004E+02 -0.45768544226E+03  0.46438807631E+03  0.47000000000E+01 0. -1.
         -5    1    3    3    0  503  0.51731770009E+02  0.18020211449E+01 -0.29110962101E+03  0.29571324751E+03  0.47000000000E+01 0. -1.
<mgrwt>
<rscale>  0 0.13065898E+03</rscale>
<asrwt>0</asrwt>
<pdfrwt beam="1">  1        5 0.17666800E-02 0.13067403E+03</pdfrwt>
<pdfrwt beam="2">  1       -5 0.22871477E+00 0.13067403E+03</pdfrwt>
<totfact> 0.78692555E+01</totfact>
</mgrwt>
</event>
<event>
 8    1  0.3674342E-007  0.1367255E+03  0.7546771E-02  0.1217807E+00
          5   -1    0    0  501    0  0.00000000000E+00  0.00000000000E+00  0.19784966913E+02  0.20335557916E+02  0.47000000000E+01 0. -1.
         -5   -1    0    0    0  501 -0.00000000000E+00 -0.00000000000E+00 -0.94141426429E+03  0.94142599656E+03  0.47000000000E+01 0. -1.
         25    2    1    2    0    0  0.28364742215E+01  0.55323226222E+02 -0.51068148042E+03  0.52866576709E+03  0.12499285543E+03 0.  0.
         25    2    1    2    0    0 -0.28364742215E+01 -0.55323226222E+02 -0.41094781696E+03  0.43309578738E+03  0.12500059137E+03 0.  0.
          5    1    3    3  502    0  0.63507359455E+01 -0.23477830827E+02 -0.20494258382E+02  0.32150350138E+02  0.47000000000E+01 0.  1.
         -5    1    3    3    0  502 -0.35142617240E+01  0.78801057049E+02 -0.49018722204E+03  0.49651541696E+03  0.47000000000E+01 0.  1.
          5    1    4    4  503    0 -0.19892203442E+02 -0.40115353353E+02 -0.40694181476E+03  0.40942480620E+03  0.47000000000E+01 0. -1.
         -5    1    4    4    0  503  0.17055729220E+02 -0.15207872869E+02 -0.40060021919E+01  0.23670981179E+02  0.47000000000E+01 0. -1.
<mgrwt>
<rscale>  0 0.13672370E+03</rscale>
<asrwt>0</asrwt>
<pdfrwt beam="1">  1        5 0.30870974E-02 0.13672547E+03</pdfrwt>
<pdfrwt beam="2">  1       -5 0.14487619E+00 0.13672547E+03</pdfrwt>
<totfact> 0.12795351E+02</totfact>
</mgrwt>
</event>
<event>
 8    1  0.3674342E-007  0.1292562E+03  0.7546771E-02  0.1228574E+00
          5   -1    0    0  501    0  0.00000000000E+00  0.00000000000E+00  0.79617225396E+02  0.79755831008E+02  0.47000000000E+01 0. -1.
         -5   -1    0    0    0  501 -0.00000000000E+00 -0.00000000000E+00 -0.22480009094E+03  0.22484921812E+03  0.47000000000E+01 0. -1.
         25    2    1    2    0    0 -0.21186198867E+02 -0.25125781754E+02 -0.11236435539E+03  0.17124758598E+03  0.12497930793E+03 0.  0.
         25    2    1    2    0    0  0.21186198867E+02  0.25125781754E+02 -0.32818510152E+02  0.13335746314E+03  0.12500799349E+03 0.  0.
          5    1    4    4  502    0  0.71812660043E+02  0.87850628948E+01 -0.33687679359E+02  0.79944888599E+02  0.47000000000E+01 0. -1.
         -5    1    4    4    0  502 -0.50626461176E+02  0.16340718860E+02  0.86916920715E+00  0.53412574542E+02  0.47000000000E+01 0. -1.
          5    1    3    3  503    0  0.36629211098E+02  0.17755781052E+02 -0.41386883422E+01  0.41184773978E+02  0.47000000000E+01 0.  1.
         -5    1    3    3    0  503 -0.57815409964E+02 -0.42881562807E+02 -0.10822566705E+03  0.13006281201E+03  0.47000000000E+01 0.  1.
<mgrwt>
<rscale>  0 0.12924924E+03</rscale>
<asrwt>0</asrwt>
<pdfrwt beam="1">  1        5 0.12263245E-01 0.12925617E+03</pdfrwt>
<pdfrwt beam="2">  1       -5 0.34599070E-01 0.12925617E+03</pdfrwt>
<totfact> 0.32267912E+02</totfact>
</mgrwt>
</event>
<event>
 8    1  0.3674342E-007  0.1303401E+03  0.7546771E-02  0.1226955E+00
         -5   -1    0    0    0  501 -0.00000000000E+00  0.00000000000E+00  0.57155521734E+03  0.57157454148E+03  0.47000000000E+01 0. -1.
          5   -1    0    0  501    0  0.00000000000E+00 -0.00000000000E+00 -0.32088440493E+02  0.32430818881E+02  0.47000000000E+01 0. -1.
         25    2    1    2    0    0  0.36925757083E+02  0.60288406905E+00  0.35474326643E+03  0.37792724421E+03  0.12498936690E+03 0.  0.
         25    2    1    2    0    0 -0.36925757083E+02 -0.60288406905E+00  0.18472351042E+03  0.22607811615E+03  0.12499865717E+03 0.  0.
          5    1    4    4  502    0 -0.46703104578E+02 -0.56421078499E+02  0.10809221407E+03  0.13065425679E+03  0.47000000000E+01 0. -1.
         -5    1    4    4    0  502  0.97773474952E+01  0.55818194430E+02  0.76631296348E+02  0.95423859351E+02  0.47000000000E+01 0. -1.
          5    1    3    3  503    0  0.16268297126E+02  0.38938138192E+02  0.31781111827E+03  0.32063504642E+03  0.47000000000E+01 0.  1.
         -5    1    3    3    0  503  0.20657459956E+02 -0.38335254123E+02  0.36932148162E+02  0.57292197797E+02  0.47000000000E+01 0.  1.
<mgrwt>
<rscale>  0 0.13033786E+03</rscale>
<asrwt>0</asrwt>
<pdfrwt beam="2">  1        5 0.49645069E-02 0.13034009E+03</pdfrwt>
<pdfrwt beam="1">  1       -5 0.87959386E-01 0.13034009E+03</pdfrwt>
<totfact> 0.20255749E+02</totfact>
</mgrwt>
</event>
<event>
 8    1  0.3674342E-007  0.1268573E+03  0.7546771E-02  0.1232195E+00
         -5   -1    0    0    0  501 -0.00000000000E+00  0.00000000000E+00  0.11794176427E+04  0.11794270074E+04  0.47000000000E+01 0.  1.
          5   -1    0    0  501    0  0.00000000000E+00 -0.00000000000E+00 -0.13896446572E+02  0.14669738489E+02  0.47000000000E+01 0.  1.
         25    2    1    2    0    0  0.20669440594E+02 -0.64272695576E+01  0.70989313517E+03  0.72113870349E+03  0.12499692291E+03 0.  0.
         25    2    1    2    0    0 -0.20669440594E+02  0.64272695576E+01  0.45562806094E+03  0.47295804244E+03  0.12499537761E+03 0.  0.
          5    1    3    3  502    0 -0.16860594713E+02 -0.58873675671E+02  0.30616404297E+03  0.31226415188E+03  0.47000000000E+01 0. -1.
         -5    1    3    3    0  502  0.37530035306E+02  0.52446406113E+02  0.40372909221E+03  0.40887455161E+03  0.47000000000E+01 0. -1.
          5    1    4    4  503    0  0.14773786783E+02  0.42492372276E+01  0.15220761772E+00  0.16075881316E+02  0.47000000000E+01 0.  1.
         -5    1    4    4    0  503 -0.35443227377E+02  0.21780323299E+01  0.45547585333E+03  0.45688216113E+03  0.47000000000E+01 0.  1.
<mgrwt>
<rscale>  0 0.12685689E+03</rscale>
<asrwt>0</asrwt>
<pdfrwt beam="2">  1        5 0.21981190E-02 0.12685727E+03</pdfrwt>
<pdfrwt beam="1">  1       -5 0.18150909E+00 0.12685727E+03</pdfrwt>
<totfact> 0.11419309E+02</totfact>
</mgrwt>
</event>
<event>
 8    1  0.3674342E-007  0.1334922E+03  0.7546771E-02  0.1222365E+00
         -5   -1    0    0    0  501 -0.00000000000E+00  0.00000000000E+00  0.14371169508E+03  0.14378852980E+03  0.47000000000E+01 0.  1.
          5   -1    0    0  501    0  0.00000000000E+00 -0.00000000000E+00 -0.15961757345E+03  0.15968675510E+03  0.47000000000E+01 0.  1.
         25    2    1    2    0    0  0.13695994728E+02 -0.44802188033E+02  0.63849153294E+02  0.14797275327E+03  0.12499762001E+03 0.  0.
         25    2    1    2    0    0 -0.13695994728E+02  0.44802188033E+02 -0.79755031665E+02  0.15550253163E+03  0.12500142377E+03 0.  0.
          5    1    3    3  502    0 -0.18997976682E+02  0.17809306670E+02  0.72006537943E+02  0.76714575072E+02  0.47000000000E+01 0. -1.
         -5    1    3    3    0  502  0.32693971410E+02 -0.62611494703E+02 -0.81573846488E+01  0.71258178196E+02  0.47000000000E+01 0. -1.
          5    1    4    4  503    0  0.26436819365E+02 -0.33249142506E+02 -0.41753835871E+02  0.59748503793E+02  0.47000000000E+01 0. -1.
         -5    1    4    4    0  503 -0.40132814093E+02  0.78051330538E+02 -0.38001195794E+02  0.95754027840E+02  0.47000000000E+01 0. -1.
<mgrwt>
<rscale>  0 0.13349133E+03</rscale>
<asrwt>0</asrwt>
<pdfrwt beam="2">  1        5 0.24567782E-01 0.13349222E+03</pdfrwt>
<pdfrwt beam="1">  1       -5 0.22120724E-01 0.13349222E+03</pdfrwt>
<totfact> 0.21682528E+02</totfact>
</mgrwt>
</event>
<event>
 8    1  0.3674342E-007  0.1340941E+03  0.7546771E-02  0.1221504E+00
          5   -1    0    0  501    0  0.00000000000E+00  0.00000000000E+00  0.27162264490E+03  0.27166330489E+03  0.47000000000E+01 0.  1.
         -5   -1    0    0    0  501 -0.00000000000E+00 -0.00000000000E+00 -0.81370525189E+02  0.81506149274E+02  0.47000000000E+01 0.  1.
         25    2    1    2    0    0 -0.21817252463E+02  0.43320660483E+02  0.18644164062E+02  0.13538401982E+03  0.12501422255E+03 0.  0.
         25    2    1    2    0    0  0.21817252463E+02 -0.43320660483E+02  0.17160795565E+03  0.21778543434E+03  0.12501413056E+03 0.  0.
          5    1    3    3  502    0 -0.57313495946E+02  0.68671069762E+02  0.18757796763E+02  0.91512281030E+02  0.47000000000E+01 0. -1.
         -5    1    3    3    0  502  0.35496243483E+02 -0.25350409279E+02 -0.11363270088E+00  0.43871738789E+02  0.47000000000E+01 0. -1.
          5    1    4    4  503    0  0.55014684745E+02 -0.70965169718E+02  0.12596716744E+03  0.15476591396E+03  0.47000000000E+01 0.  1.
         -5    1    4    4    0  503 -0.33197432282E+02  0.27644509235E+02  0.45640788207E+02  0.63019520381E+02  0.47000000000E+01 0.  1.
<mgrwt>
<rscale>  0 0.13409408E+03</rscale>
<asrwt>0</asrwt>
<pdfrwt beam="1">  1        5 0.41801659E-01 0.13409410E+03</pdfrwt>
<pdfrwt beam="2">  1       -5 0.12532103E-01 0.13409410E+03</pdfrwt>
<totfact> 0.21436667E+02</totfact>
</mgrwt>
</event>
<event>
 8    1  0.3674342E-007  0.1370612E+03  0.7546771E-02  0.1217342E+00
          5   -1    0    0  501    0  0.00000000000E+00  0.00000000000E+00  0.19285748813E+02  0.19850191618E+02  0.47000000000E+01 0.  1.
         -5   -1    0    0    0  501 -0.00000000000E+00 -0.00000000000E+00 -0.95939668117E+03  0.95940819354E+03  0.47000000000E+01 0.  1.
         25    2    1    2    0    0 -0.54682488363E+02  0.13047641483E+02 -0.47105046860E+03  0.49058314692E+03  0.12499145805E+03 0.  0.
         25    2    1    2    0    0  0.54682488363E+02 -0.13047641483E+02 -0.46906046375E+03  0.48867523824E+03  0.12500141733E+03 0.  0.
          5    1    3    3  502    0 -0.16717937868E+02  0.50878105375E+02 -0.38748350249E+03  0.39119512491E+03  0.47000000000E+01 0. -1.
         -5    1    3    3    0  502 -0.37964550495E+02 -0.37830463892E+02 -0.83566966110E+02  0.99388022002E+02  0.47000000000E+01 0. -1.
          5    1    4    4  503    0  0.46442274116E+02  0.47159412709E+02 -0.33358676093E+03  0.34012220172E+03  0.47000000000E+01 0.  1.
         -5    1    4    4    0  503  0.82402142472E+01 -0.60207054192E+02 -0.13547370282E+03  0.14855303652E+03  0.47000000000E+01 0.  1.
<mgrwt>
<rscale>  0 0.13705892E+03</rscale>
<asrwt>0</asrwt>
<pdfrwt beam="1">  1        5 0.30113433E-02 0.13706119E+03</pdfrwt>
<pdfrwt beam="2">  1       -5 0.14764376E+00 0.13706119E+03</pdfrwt>
<totfact> 0.12664629E+02</totfact>
</mgrwt>
</event>
<event>
 8    1  0.3674342E-007  0.1304524E+03  0.7546771E-02  0.1226791E+00
          5   -1    0    0  501    0  0.00000000000E+00  0.00000000000E+00  0.60883318388E+02  0.61064461497E+02  0.47000000000E+01 0. -1.
         -5   -1    0    0    0  501 -0.00000000000E+00 -0.00000000000E+00 -0.28183120822E+03  0.28187039562E+03  0.47000000000E+01 0. -1.
         25    2    1    2    0    0 -0.31500637123E+02  0.19980738957E+02 -0.92918176370E+02  0.16016119590E+03  0.12500520430E+03 0.  0.
         25    2    1    2    0    0  0.31500637123E+02 -0.19980738957E+02 -0.12802971346E+03  0.18277366122E+03  0.12499233432E+03 0.  0.
          5    1    3    3  502    0 -0.59857556654E+01 -0.46609063143E+01  0.30438526698E+02  0.31719823866E+02  0.47000000000E+01 0.  1.
         -5    1    3    3    0  502 -0.25514881457E+02  0.24641645272E+02 -0.12335670307E+03  0.12844137203E+03  0.47000000000E+01 0.  1.
          5    1    4    4  503    0  0.74594330386E+02 -0.25822126986E+02 -0.50712819878E+02  0.93941345891E+02  0.47000000000E+01 0. -1.
         -5    1    4    4    0  503 -0.43093693263E+02  0.58413880290E+01 -0.77316893586E+02  0.88832315330E+02  0.47000000000E+01 0. -1.
<mgrwt>
<rscale>  0 0.13044929E+03</rscale>
<asrwt>0</asrwt>
<pdfrwt beam="1">  1        5 0.93836130E-02 0.13045237E+03</pdfrwt>
<pdfrwt beam="2">  1       -5 0.43375595E-01 0.13045237E+03</pdfrwt>
<totfact> 0.32692898E+02</totfact>
</mgrwt>
</event>
<event>
 8    1  0.3674342E-007  0.1412211E+03  0.7546771E-02  0.1211703E+00
         -5   -1    0    0    0  501 -0.00000000000E+00  0.00000000000E+00  0.82444220227E+02  0.82578080922E+02  0.47000000000E+01 0. -1.
          5   -1    0    0  501    0  0.00000000000E+00 -0.00000000000E+00 -0.26357709529E+03  0.26361899621E+03  0.47000000000E+01 0. -1.
         25    2    1    2    0    0 -0.17458224397E+02  0.63327816935E+02 -0.40487624768E+02  0.14688702825E+03  0.12498539639E+03 0.  0.
         25    2    1    2    0    0  0.17458224397E+02 -0.63327816935E+02 -0.14064525029E+03  0.19931004888E+03  0.12501282797E+03 0.  0.
          5    1    4    4  502    0  0.63884248135E+02 -0.58624052580E+02 -0.58441626763E+02  0.10466847873E+03  0.47000000000E+01 0.  1.
         -5    1    4    4    0  502 -0.46426023738E+02 -0.47037643549E+01 -0.82203623529E+02  0.94641570151E+02  0.47000000000E+01 0.  1.
          5    1    3    3  503    0 -0.61609377065E+02  0.54464941132E+02 -0.55346741335E+02  0.99234555127E+02  0.47000000000E+01 0. -1.
         -5    1    3    3    0  503  0.44151152668E+02  0.88628758029E+01  0.14859116567E+02  0.47652473121E+02  0.47000000000E+01 0. -1.
<mgrwt>
<rscale>  0 0.14121506E+03</rscale>
<asrwt>0</asrwt>
<pdfrwt beam="2">  1        5 0.40563842E-01 0.14122114E+03</pdfrwt>
<pdfrwt beam="1">  1       -5 0.12697246E-01 0.14122114E+03</pdfrwt>
<totfact> 0.22668368E+02</totfact>
</mgrwt>
</event>
<event>
 8    1  0.3674342E-007  0.1433379E+03  0.7546771E-02  0.1208907E+00
          5   -1    0    0  501    0  0.00000000000E+00  0.00000000000E+00  0.55067109928E+03  0.55069115626E+03  0.47000000000E+01 0.  1.
         -5   -1    0    0    0  501 -0.00000000000E+00 -0.00000000000E+00 -0.38752365998E+02  0.39036340383E+02  0.47000000000E+01 0.  1.
         25    2    1    2    0    0 -0.13277008375E+02 -0.68879409966E+02  0.19608212155E+03  0.24288673219E+03  0.12500045685E+03 0.  0.
         25    2    1    2    0    0  0.13277008375E+02  0.68879409966E+02  0.31583661173E+03  0.34684076445E+03  0.12500039403E+03 0.  0.
          5    1    3    3  502    0  0.91266701279E+01 -0.42335851213E+02 -0.13562260904E+00  0.43562929184E+02  0.47000000000E+01 0.  1.
         -5    1    3    3    0  502 -0.22403678503E+02 -0.26543558753E+02  0.19621774416E+03  0.19932380301E+03  0.47000000000E+01 0.  1.
          5    1    4    4  503    0  0.48657642877E+02  0.88675923636E+02  0.20306495111E+03  0.22691066527E+03  0.47000000000E+01 0. -1.
         -5    1    4    4    0  503 -0.35380634501E+02 -0.19796513670E+02  0.11277166061E+03  0.11993009918E+03  0.47000000000E+01 0. -1.
<mgrwt>
<rscale>  0 0.14333793E+03</rscale>
<asrwt>0</asrwt>
<pdfrwt beam="1">  1        5 0.84742017E-01 0.14333794E+03</pdfrwt>
<pdfrwt beam="2">  1       -5 0.59852895E-02 0.14333794E+03</pdfrwt>
<totfact> 0.16700354E+02</totfact>
</mgrwt>
</event>
<event>
 8    1  0.3674342E-007  0.1305953E+03  0.7546771E-02  0.1226576E+00
         -5   -1    0    0    0  501 -0.00000000000E+00  0.00000000000E+00  0.14868298519E+03  0.14875725221E+03  0.47000000000E+01 0. -1.
          5   -1    0    0  501    0  0.00000000000E+00 -0.00000000000E+00 -0.12056668543E+03  0.12065825971E+03  0.47000000000E+01 0. -1.
         25    2    1    2    0    0 -0.13740472885E+02 -0.35228922935E+02  0.44117912077E+02  0.13784349928E+03  0.12499825007E+03 0.  0.
         25    2    1    2    0    0  0.13740472885E+02  0.35228922935E+02 -0.16001612312E+02  0.13157201264E+03  0.12500106123E+03 0.  0.
          5    1    4    4  502    0 -0.11955385166E+02  0.68532911808E+02  0.23596055411E+02  0.73610835250E+02  0.47000000000E+01 0. -1.
         -5    1    4    4    0  502  0.25695858050E+02 -0.33303988873E+02 -0.39597667723E+02  0.57961177394E+02  0.47000000000E+01 0. -1.
          5    1    3    3  503    0 -0.60071932770E+02 -0.74445159844E+01  0.55699230463E+02  0.82392670785E+02  0.47000000000E+01 0.  1.
         -5    1    3    3    0  503  0.46331459885E+02 -0.27784406950E+02 -0.11581318386E+02  0.55450828490E+02  0.47000000000E+01 0.  1.
<mgrwt>
<rscale>  0 0.13059467E+03</rscale>
<asrwt>0</asrwt>
<pdfrwt beam="2">  1        5 0.18561478E-01 0.13059534E+03</pdfrwt>
<pdfrwt beam="1">  1       -5 0.22887062E-01 0.13059534E+03</pdfrwt>
<totfact> 0.34163700E+02</totfact>
</mgrwt>
</event>
<event>
 8    1  0.3674342E-007  0.1292909E+03  0.7546771E-02  0.1228535E+00
          5   -1    0    0  501    0  0.00000000000E+00  0.00000000000E+00  0.32849233700E+02  0.33183763420E+02  0.47000000000E+01 0. -1.
         -5   -1    0    0    0  501 -0.00000000000E+00 -0.00000000000E+00 -0.50946790313E+03  0.50948958215E+03  0.47000000000E+01 0. -1.
         25    2    1    2    0    0 -0.10139117101E+01  0.33011439598E+02 -0.21495468787E+03  0.25081005595E+03  0.12493751705E+03 0.  0.
         25    2    1    2    0    0  0.10139117101E+01 -0.33011439598E+02 -0.26166398156E+03  0.29186328962E+03  0.12500142968E+03 0.  0.
          5    1    3    3  502    0 -0.56594143138E+02 -0.75867421462E+01 -0.12449060722E+03  0.13704180741E+03  0.47000000000E+01 0. -1.
         -5    1    3    3    0  502  0.55580231428E+02  0.40598181744E+02 -0.90464080655E+02  0.11376824854E+03  0.47000000000E+01 0. -1.
          5    1    4    4  503    0  0.60304859743E+02 -0.48155079882E+01 -0.15586880699E+03  0.16726338577E+03  0.47000000000E+01 0.  1.
         -5    1    4    4    0  503 -0.59290948033E+02 -0.28195931610E+02 -0.10579517457E+03  0.12459990385E+03  0.47000000000E+01 0.  1.
<mgrwt>
<rscale>  0 0.12927546E+03</rscale>
<asrwt>0</asrwt>
<pdfrwt beam="1">  1        5 0.50811293E-02 0.12929091E+03</pdfrwt>
<pdfrwt beam="2">  1       -5 0.78407072E-01 0.12929091E+03</pdfrwt>
<totfact> 0.25399190E+02</totfact>
</mgrwt>
</event>
<event>
 8    1  0.3674342E-007  0.1601414E+03  0.7546771E-02  0.1188538E+00
          5   -1    0    0  501    0  0.00000000000E+00  0.00000000000E+00  0.37274278910E+03  0.37277241962E+03  0.47000000000E+01 0. -1.
         -5   -1    0    0    0  501 -0.00000000000E+00 -0.00000000000E+00 -0.86681597114E+02  0.86808923955E+02  0.47000000000E+01 0. -1.
         25    2    1    2    0    0 -0.99179274770E+02 -0.13542718447E+02  0.38440652065E+02  0.16469049786E+03  0.12500137035E+03 0.  0.
         25    2    1    2    0    0  0.99179274770E+02  0.13542718447E+02  0.24762053992E+03  0.29489084571E+03  0.12499898129E+03 0.  0.
          5    1    4    4  502    0  0.34731339238E+02 -0.27920713761E+02  0.19906863379E+03  0.20404960951E+03  0.47000000000E+01 0. -1.
         -5    1    4    4    0  502  0.64447935532E+02  0.41463432208E+02  0.48551906132E+02  0.90841236197E+02  0.47000000000E+01 0. -1.
          5    1    3    3  503    0 -0.87041216995E+02  0.45997437989E+02  0.16593962028E+02  0.99946922580E+02  0.47000000000E+01 0.  1.
         -5    1    3    3    0  503 -0.12138057775E+02 -0.59540156436E+02  0.21846690037E+02  0.64743575284E+02  0.47000000000E+01 0.  1.
<mgrwt>
<rscale>  0 0.16014096E+03</rscale>
<asrwt>0</asrwt>
<pdfrwt beam="1">  1        5 0.57357117E-01 0.16014143E+03</pdfrwt>
<pdfrwt beam="2">  1       -5 0.13347704E-01 0.16014143E+03</pdfrwt>
<totfact> 0.10390214E+02</totfact>
</mgrwt>
</event>
<event>
 8    1  0.3674342E-007  0.1260179E+03  0.7546771E-02  0.1233490E+00
         -5   -1    0    0    0  501 -0.00000000000E+00  0.00000000000E+00  0.49048774405E+02  0.49273443868E+02  0.47000000000E+01 0. -1.
          5   -1    0    0  501    0  0.00000000000E+00 -0.00000000000E+00 -0.40778094050E+03  0.40780802522E+03  0.47000000000E+01 0. -1.
         25    2    1    2    0    0  0.13053615519E+02 -0.91118343918E+01 -0.75044090916E+02  0.14666331619E+03  0.12500036132E+03 0.  0.
         25    2    1    2    0    0 -0.13053615519E+02  0.91118343918E+01 -0.28368807518E+03  0.31041815290E+03  0.12500833271E+03 0.  0.
          5    1    4    4  502    0 -0.56718617571E+01  0.50622071780E+01 -0.29523740342E+03  0.29537266348E+03  0.47000000000E+01 0.  1.
         -5    1    4    4    0  502 -0.73817537617E+01  0.40496272139E+01  0.11549328235E+02  0.15045489419E+02  0.47000000000E+01 0.  1.
          5    1    3    3  503    0  0.45101464432E+02 -0.38447481669E+02  0.42747033821E+00  0.59452701129E+02  0.47000000000E+01 0.  1.
         -5    1    3    3    0  503 -0.32047848913E+02  0.29335647277E+02 -0.75471561254E+02  0.87210615061E+02  0.47000000000E+01 0.  1.
<mgrwt>
<rscale>  0 0.12601590E+03</rscale>
<asrwt>0</asrwt>
<pdfrwt beam="2">  1        5 0.62754893E-01 0.12601788E+03</pdfrwt>
<pdfrwt beam="1">  1       -5 0.75653313E-02 0.12601788E+03</pdfrwt>
<totfact> 0.21265910E+02</totfact>
</mgrwt>
</event>
<event>
 8    1  0.3674342E-007  0.1482471E+03  0.7546771E-02  0.1202646E+00
          5   -1    0    0  501    0  0.00000000000E+00  0.00000000000E+00  0.39985412134E+02  0.40260690302E+02  0.47000000000E+01 0.  1.
         -5   -1    0    0    0  501 -0.00000000000E+00 -0.00000000000E+00 -0.58912790390E+03  0.58914665166E+03  0.47000000000E+01 0.  1.
         25    2    1    2    0    0 -0.75647663313E+02 -0.25069897782E+02 -0.35827595967E+03  0.38773556764E+03  0.12500455351E+03 0.  0.
         25    2    1    2    0    0  0.75647663313E+02  0.25069897782E+02 -0.19086653210E+03  0.24167177432E+03  0.12499657870E+03 0.  0.
          5    1    4    4  502    0 -0.30022913794E+02  0.17818839648E+02 -0.84220899131E+02  0.91291490564E+02  0.47000000000E+01 0. -1.
         -5    1    4    4    0  502  0.10567057711E+03  0.72510581342E+01 -0.10664563297E+03  0.15038028375E+03  0.47000000000E+01 0. -1.
          5    1    3    3  503    0 -0.52102717277E+02 -0.71108793694E+02 -0.15961505795E+03  0.18240123468E+03  0.47000000000E+01 0. -1.
         -5    1    3    3    0  503 -0.23544946036E+02  0.46038895911E+02 -0.19866090172E+03  0.20533433296E+03  0.47000000000E+01 0. -1.
<mgrwt>
<rscale>  0 0.14824543E+03</rscale>
<asrwt>0</asrwt>
<pdfrwt beam="1">  1        5 0.61742197E-02 0.14824712E+03</pdfrwt>
<pdfrwt beam="2">  1       -5 0.90657673E-01 0.14824712E+03</pdfrwt>
<totfact> 0.13662143E+02</totfact>
</mgrwt>
</event>
<event>
 8    1  0.3674342E-007  0.1384711E+03  0.7546771E-02  0.1215403E+00
          5   -1    0    0  501    0  0.00000000000E+00  0.00000000000E+00  0.58611337170E+02  0.58799479971E+02  0.47000000000E+01 0. -1.
         -5   -1    0    0    0  501 -0.00000000000E+00 -0.00000000000E+00 -0.34956855021E+03  0.34960014487E+03  0.47000000000E+01 0. -1.
         25    2    1    2    0    0 -0.53750718863E+02  0.25634425184E+02 -0.19803033580E+03  0.24163738555E+03  0.12500539453E+03 0.  0.
         25    2    1    2    0    0  0.53750718863E+02 -0.25634425184E+02 -0.92926877232E+02  0.16676223929E+03  0.12501190507E+03 0.  0.
          5    1    4    4  502    0  0.89433696451E+02  0.52363118286E+00 -0.80862681999E+02  0.12066285091E+03  0.47000000000E+01 0. -1.
         -5    1    4    4    0  502 -0.35682977588E+02 -0.26158056367E+02 -0.12064195233E+02  0.46099388380E+02  0.47000000000E+01 0. -1.
          5    1    3    3  503    0  0.11417824663E+02 -0.41857648545E+02 -0.76000970505E+02  0.87639414532E+02  0.47000000000E+01 0.  1.
         -5    1    3    3    0  503 -0.65168543526E+02  0.67492073729E+02 -0.12202936530E+03  0.15399797102E+03  0.47000000000E+01 0.  1.
<mgrwt>
<rscale>  0 0.13846961E+03</rscale>
<asrwt>0</asrwt>
<pdfrwt beam="1">  1        5 0.90340319E-02 0.13847108E+03</pdfrwt>
<pdfrwt beam="2">  1       -5 0.53796679E-01 0.13847108E+03</pdfrwt>
<totfact> 0.22645666E+02</totfact>
</mgrwt>
</event>
<event>
 8    1  0.3674342E-007  0.1458642E+03  0.7546771E-02  0.1205650E+00
         -5   -1    0    0    0  501 -0.00000000000E+00  0.00000000000E+00  0.20995806772E+03  0.21001066687E+03  0.47000000000E+01 0. -1.
          5   -1    0    0  501    0  0.00000000000E+00 -0.00000000000E+00 -0.11147376201E+03  0.11157279963E+03  0.47000000000E+01 0. -1.
         25    2    1    2    0    0  0.44332652574E+01  0.75041579310E+02  0.97988802175E+02  0.17571845606E+03  0.12499711189E+03 0.  0.
         25    2    1    2    0    0 -0.44332652574E+01 -0.75041579310E+02  0.49550352818E+00  0.14586501044E+03  0.12500185311E+03 0.  0.
          5    1    4    4  502    0  0.57958313631E+02 -0.17196934694E+02 -0.84650860203E+00  0.60644103247E+02  0.47000000000E+01 0.  1.
         -5    1    4    4    0  502 -0.62391578889E+02 -0.57844644616E+02  0.13420121302E+01  0.85220907197E+02  0.47000000000E+01 0.  1.
          5    1    3    3  503    0 -0.44784351817E+02 -0.41837050472E+01  0.59439626271E+02  0.74688022647E+02  0.47000000000E+01 0.  1.
         -5    1    3    3    0  503  0.49217617074E+02  0.79225284357E+02  0.38549175904E+02  0.10103043341E+03  0.47000000000E+01 0.  1.
<mgrwt>
<rscale>  0 0.14586315E+03</rscale>
<asrwt>0</asrwt>
<pdfrwt beam="2">  1        5 0.17161474E-01 0.14586417E+03</pdfrwt>
<pdfrwt beam="1">  1       -5 0.32312905E-01 0.14586417E+03</pdfrwt>
<totfact> 0.21016147E+02</totfact>
</mgrwt>
</event>
<event>
 8    1  0.3674342E-007  0.1293318E+03  0.7546771E-02  0.1228451E+00
          5   -1    0    0  501    0  0.00000000000E+00  0.00000000000E+00  0.25002483581E+03  0.25006900752E+03  0.47000000000E+01 0. -1.
         -5   -1    0    0    0  501 -0.00000000000E+00 -0.00000000000E+00 -0.78374678391E+02  0.78515477537E+02  0.47000000000E+01 0. -1.
         25    2    1    2    0    0  0.28266883801E+02 -0.17398563224E+02  0.22677935437E+02  0.13130496258E+03  0.12499991089E+03 0.  0.
         25    2    1    2    0    0 -0.28266883801E+02  0.17398563224E+02  0.14897222198E+03  0.19727952247E+03  0.12499904137E+03 0.  0.
          5    1    4    4  502    0 -0.45329123665E+02  0.12999316976E+01  0.16319716748E+03  0.16944563951E+03  0.47000000000E+01 0.  1.
         -5    1    4    4    0  502  0.17062239864E+02  0.16098631526E+02 -0.14224945501E+02  0.27833882961E+02  0.47000000000E+01 0.  1.
          5    1    3    3  503    0  0.62280839366E+02 -0.37839271273E+02  0.44756907599E+02  0.85650360072E+02  0.47000000000E+01 0. -1.
         -5    1    3    3    0  503 -0.34013955566E+02  0.20440708050E+02 -0.22078972162E+02  0.45654602512E+02  0.47000000000E+01 0. -1.
<mgrwt>
<rscale>  0 0.12933155E+03</rscale>
<asrwt>0</asrwt>
<pdfrwt beam="1">  1        5 0.38479587E-01 0.12933176E+03</pdfrwt>
<pdfrwt beam="2">  1       -5 0.12071872E-01 0.12933176E+03</pdfrwt>
<totfact> 0.26789776E+02</totfact>
</mgrwt>
</event>
<event>
 8    1  0.3674342E-007  0.1264401E+03  0.7546771E-02  0.1232852E+00
          5   -1    0    0  501    0  0.00000000000E+00  0.00000000000E+00  0.71479802939E+02  0.71634155458E+02  0.47000000000E+01 0.  1.
         -5   -1    0    0    0  501 -0.00000000000E+00 -0.00000000000E+00 -0.22380308317E+03  0.22385242915E+03  0.47000000000E+01 0.  1.
         25    2    1    2    0    0  0.56271439994E+01  0.17864921142E+02 -0.84080444706E+02  0.15184407384E+03  0.12504511755E+03 0.  0.
         25    2    1    2    0    0 -0.56271439994E+01 -0.17864921142E+02 -0.68242835527E+02  0.14364251077E+03  0.12500106456E+03 0.  0.
          5    1    4    4  502    0  0.29201261209E+02 -0.22952703810E+01  0.27512589101E+02  0.40460035608E+02  0.47000000000E+01 0.  1.
         -5    1    4    4    0  502 -0.34828405209E+02 -0.15569650761E+02 -0.95755424628E+02  0.10318247516E+03  0.47000000000E+01 0.  1.
          5    1    3    3  503    0 -0.13280713458E+02 -0.22327414963E+02  0.23509692284E+02  0.35350904376E+02  0.47000000000E+01 0. -1.
         -5    1    3    3    0  503  0.18907857458E+02  0.40192336105E+02 -0.10759013699E+03  0.11649316947E+03  0.47000000000E+01 0. -1.
<mgrwt>
<rscale>  0 0.12642922E+03</rscale>
<asrwt>0</asrwt>
<pdfrwt beam="1">  1        5 0.11012562E-01 0.12644011E+03</pdfrwt>
<pdfrwt beam="2">  1       -5 0.34446912E-01 0.12644011E+03</pdfrwt>
<totfact> 0.39041810E+02</totfact>
</mgrwt>
</event>
<event>
 8    1  0.3674342E-007  0.1298200E+03  0.7546771E-02  0.1227725E+00
         -5   -1    0    0    0  501 -0.00000000000E+00  0.00000000000E+00  0.12415763501E+03  0.12424656266E+03  0.47000000000E+01 0. -1.
          5   -1    0    0  501    0  0.00000000000E+00 -0.00000000000E+00 -0.14364962711E+03  0.14372649501E+03  0.47000000000E+01 0. -1.
         25    2    1    2    0    0 -0.30342566361E+02  0.17514814358E+02  0.22036278812E+02  0.13167694855E+03  0.12500312452E+03 0.  0.
         25    2    1    2    0    0  0.30342566361E+02 -0.17514814358E+02 -0.41528270906E+02  0.13629610912E+03  0.12499836807E+03 0.  0.
          5    1    3    3  502    0  0.38987818400E+02  0.28135046913E+00 -0.24500356026E+02  0.46287002356E+02  0.47000000000E+01 0.  1.
         -5    1    3    3    0  502 -0.69330384761E+02  0.17233463889E+02  0.46536634838E+02  0.85389946193E+02  0.47000000000E+01 0.  1.
          5    1    4    4  503    0 -0.25988011526E+02  0.17580200143E+02 -0.59453632888E+02  0.67388905940E+02  0.47000000000E+01 0. -1.
         -5    1    4    4    0  503  0.56330577887E+02 -0.35095014501E+02  0.17925361982E+02  0.68907203180E+02  0.47000000000E+01 0. -1.
<mgrwt>
<rscale>  0 0.12981881E+03</rscale>
<asrwt>0</asrwt>
<pdfrwt beam="2">  1        5 0.22112696E-01 0.12981996E+03</pdfrwt>
<pdfrwt beam="1">  1       -5 0.19113928E-01 0.12981996E+03</pdfrwt>
<totfact> 0.34457042E+02</totfact>
</mgrwt>
</event>
<event>
 8    1  0.3674342E-007  0.1342676E+03  0.7546771E-02  0.1221259E+00
          5   -1    0    0  501    0  0.00000000000E+00  0.00000000000E+00  0.26866192756E+03  0.26870303556E+03  0.47000000000E+01 0. -1.
         -5   -1    0    0    0  501 -0.00000000000E+00 -0.00000000000E+00 -0.13012158268E+03  0.13020643716E+03  0.47000000000E+01 0. -1.
         25    2    1    2    0    0 -0.48013978225E+02 -0.98385956252E+01 -0.69591774350E+02  0.15122669035E+03  0.12499742696E+03 0.  0.
         25    2    1    2    0    0  0.48013978225E+02  0.98385956252E+01  0.20813211923E+03  0.24768278238E+03  0.12500256622E+03 0.  0.
          5    1    3    3  502    0  0.87394022344E+01 -0.51681751562E+02 -0.83903815221E+00  0.52632447986E+02  0.47000000000E+01 0.  1.
         -5    1    3    3    0  502 -0.56753380459E+02  0.41843155937E+02 -0.68752736198E+02  0.98594242362E+02  0.47000000000E+01 0.  1.
          5    1    4    4  503    0  0.81128366625E+02  0.24570692780E+02  0.18723426942E+03  0.20558281169E+03  0.47000000000E+01 0.  1.
         -5    1    4    4    0  503 -0.33114388400E+02 -0.14732097155E+02  0.20897849811E+02  0.42099970694E+02  0.47000000000E+01 0.  1.
<mgrwt>
<rscale>  0 0.13426638E+03</rscale>
<asrwt>0</asrwt>
<pdfrwt beam="1">  1        5 0.41342293E-01 0.13426757E+03</pdfrwt>
<pdfrwt beam="2">  1       -5 0.20028395E-01 0.13426757E+03</pdfrwt>
<totfact> 0.93447274E+01</totfact>
</mgrwt>
</event>
<event>
 8    1  0.3674342E-007  0.1291982E+03  0.7546771E-02  0.1228654E+00
         -5   -1    0    0    0  501 -0.00000000000E+00  0.00000000000E+00  0.14390261849E+04  0.14390338602E+04  0.47000000000E+01 0. -1.
          5   -1    0    0  501    0  0.00000000000E+00 -0.00000000000E+00 -0.12063391056E+02  0.12946636774E+02  0.47000000000E+01 0. -1.
         25    2    1    2    0    0 -0.31056358007E+02 -0.10018693479E+02  0.51729944819E+03  0.53318936824E+03  0.12500924654E+03 0.  0.
         25    2    1    2    0    0  0.31056358007E+02  0.10018693479E+02  0.90966334565E+03  0.91879112874E+03  0.12499945691E+03 0.  0.
          5    1    3    3  502    0  0.27898936947E+02  0.17643283728E+02  0.42977764002E+02  0.54394984531E+02  0.47000000000E+01 0.  1.
         -5    1    3    3    0  502 -0.58955294954E+02 -0.27661977208E+02  0.47432168418E+03  0.47879438371E+03  0.47000000000E+01 0.  1.
          5    1    4    4  503    0 -0.38934643296E+02  0.19486925257E+02  0.57809210627E+03  0.57974841098E+03  0.47000000000E+01 0. -1.
         -5    1    4    4    0  503  0.69991001303E+02 -0.94682317778E+01  0.33157123938E+03  0.33904271776E+03  0.47000000000E+01 0. -1.
<mgrwt>
<rscale>  0 0.12919586E+03</rscale>
<asrwt>0</asrwt>
<pdfrwt beam="2">  1        5 0.19244406E-02 0.12919823E+03</pdfrwt>
<pdfrwt beam="1">  1       -5 0.22145696E+00 0.12919823E+03</pdfrwt>
<totfact> 0.76325327E+01</totfact>
</mgrwt>
</event>
<event>
 8    1  0.3674342E-007  0.1646510E+03  0.7546771E-02  0.1183544E+00
          5   -1    0    0  501    0  0.00000000000E+00  0.00000000000E+00  0.33390881151E+03  0.33394188776E+03  0.47000000000E+01 0.  1.
         -5   -1    0    0    0  501 -0.00000000000E+00 -0.00000000000E+00 -0.96711261713E+02  0.96825400294E+02  0.47000000000E+01 0.  1.
         25    2    1    2    0    0 -0.83673658926E+02 -0.66951357071E+02  0.32088555268E+02  0.16774867785E+03  0.12500471243E+03 0.  0.
         25    2    1    2    0    0  0.83673658926E+02  0.66951357071E+02  0.20510899453E+03  0.26301861021E+03  0.12500129706E+03 0.  0.
          5    1    3    3  502    0 -0.14610477932E+01 -0.23941564726E+02 -0.42219463194E+02  0.48784282864E+02  0.47000000000E+01 0. -1.
         -5    1    3    3    0  502 -0.82212611133E+02 -0.43009792345E+02  0.74308018461E+02  0.11896439499E+03  0.47000000000E+01 0. -1.
          5    1    4    4  503    0  0.10478015890E+03  0.53932511027E+02  0.99102414563E+02  0.15404861576E+03  0.47000000000E+01 0.  1.
         -5    1    4    4    0  503 -0.21106499978E+02  0.13018846044E+02  0.10600657997E+03  0.10896999445E+03  0.47000000000E+01 0.  1.
<mgrwt>
<rscale>  0 0.16465033E+03</rscale>
<asrwt>0</asrwt>
<pdfrwt beam="1">  1        5 0.51381910E-01 0.16465097E+03</pdfrwt>
<pdfrwt beam="2">  1       -5 0.14889980E-01 0.16465097E+03</pdfrwt>
<totfact> 0.10902254E+02</totfact>
</mgrwt>
</event>
<event>
 8    1  0.3674342E-007  0.2204847E+03  0.7546771E-02  0.1133522E+00
         -5   -1    0    0    0  501 -0.00000000000E+00  0.00000000000E+00  0.65777050214E+03  0.65778729349E+03  0.47000000000E+01 0. -1.
          5   -1    0    0  501    0  0.00000000000E+00 -0.00000000000E+00 -0.81862830179E+02  0.81997639996E+02  0.47000000000E+01 0. -1.
         25    2    1    2    0    0  0.14085077436E+03  0.11466934783E+03  0.40382676184E+03  0.46009730983E+03  0.12500192385E+03 0.  0.
         25    2    1    2    0    0 -0.14085077436E+03 -0.11466934783E+03  0.17208091011E+03  0.27968762366E+03  0.12500130892E+03 0.  0.
          5    1    3    3  502    0  0.10950994785E+02 -0.22243255333E+02  0.19448652031E+02  0.31859484623E+02  0.47000000000E+01 0.  1.
         -5    1    3    3    0  502  0.12989977958E+03  0.13691260316E+03  0.38437810981E+03  0.42823782521E+03  0.47000000000E+01 0.  1.
          5    1    4    4  503    0 -0.10998066808E+03 -0.34917344941E+02  0.39900095740E+02  0.12218459792E+03  0.47000000000E+01 0. -1.
         -5    1    4    4    0  503 -0.30870106279E+02 -0.79752002885E+02  0.13218081437E+03  0.15750302573E+03  0.47000000000E+01 0. -1.
<mgrwt>
<rscale>  0 0.22048456E+03</rscale>
<asrwt>0</asrwt>
<pdfrwt beam="2">  1        5 0.12605944E-01 0.22048465E+03</pdfrwt>
<pdfrwt beam="1">  1       -5 0.10120712E+00 0.22048465E+03</pdfrwt>
<totfact> 0.33812927E+01</totfact>
</mgrwt>
</event>
<event>
 8    1  0.3674342E-007  0.1872507E+03  0.7546771E-02  0.1160965E+00
         -5   -1    0    0    0  501 -0.00000000000E+00  0.00000000000E+00  0.15401162333E+03  0.15408332201E+03  0.47000000000E+01 0.  1.
          5   -1    0    0  501    0  0.00000000000E+00 -0.00000000000E+00 -0.23245981228E+03  0.23250732102E+03  0.47000000000E+01 0.  1.
         25    2    1    2    0    0  0.59405090306E+02  0.12612948190E+03 -0.67419749402E+02  0.19901820884E+03  0.12500085553E+03 0.  0.
         25    2    1    2    0    0 -0.59405090306E+02 -0.12612948190E+03 -0.11028439549E+02  0.18757243419E+03  0.12499672248E+03 0.  0.
          5    1    4    4  502    0 -0.70748530026E+02 -0.44730644715E+02 -0.48796838365E+02  0.97002095399E+02  0.47000000000E+01 0.  1.
         -5    1    4    4    0  502  0.11343439720E+02 -0.81398837183E+02  0.37768398815E+02  0.90570338790E+02  0.47000000000E+01 0.  1.
          5    1    3    3  503    0  0.70594329400E+02  0.21599560142E+02 -0.56772929400E+02  0.93248891974E+02  0.47000000000E+01 0. -1.
         -5    1    3    3    0  503 -0.11189239094E+02  0.10452992176E+03 -0.10646820002E+02  0.10576931687E+03  0.47000000000E+01 0. -1.
<mgrwt>
<rscale>  0 0.18725001E+03</rscale>
<asrwt>0</asrwt>
<pdfrwt beam="2">  1        5 0.35772218E-01 0.18725070E+03</pdfrwt>
<pdfrwt beam="1">  1       -5 0.23703266E-01 0.18725070E+03</pdfrwt>
<totfact> 0.10105965E+02</totfact>
</mgrwt>
</event>
<event>
 8    1  0.3674342E-007  0.1297259E+03  0.7546771E-02  0.1227864E+00
         -5   -1    0    0    0  501 -0.00000000000E+00  0.00000000000E+00  0.38848181680E+03  0.38851024695E+03  0.47000000000E+01 0. -1.
          5   -1    0    0  501    0  0.00000000000E+00 -0.00000000000E+00 -0.44692944201E+02  0.44939395427E+02  0.47000000000E+01 0. -1.
         25    2    1    2    0    0  0.31282387912E+02 -0.14984309285E+02  0.21188917162E+03  0.24844601856E+03  0.12500114307E+03 0.  0.
         25    2    1    2    0    0 -0.31282387912E+02  0.14984309285E+02  0.13189970098E+03  0.18500362382E+03  0.12500276953E+03 0.  0.
          5    1    4    4  502    0  0.13809074167E+02  0.58014243540E+02  0.33872594788E+02  0.68744350026E+02  0.47000000000E+01 0.  1.
         -5    1    4    4    0  502 -0.45091462078E+02 -0.43029934254E+02  0.98027106191E+02  0.11625927379E+03  0.47000000000E+01 0.  1.
          5    1    3    3  503    0  0.58396069522E+02  0.12671748244E+02  0.19825551223E+03  0.20711835329E+03  0.47000000000E+01 0. -1.
         -5    1    3    3    0  503 -0.27113681611E+02 -0.27656057529E+02  0.13633659393E+02  0.41327665274E+02  0.47000000000E+01 0. -1.
<mgrwt>
<rscale>  0 0.12972551E+03</rscale>
<asrwt>0</asrwt>
<pdfrwt beam="2">  1        5 0.68969825E-02 0.12972590E+03</pdfrwt>
<pdfrwt beam="1">  1       -5 0.59787577E-01 0.12972590E+03</pdfrwt>
<totfact> 0.27966339E+02</totfact>
</mgrwt>
</event>
<event>
 8    1  0.3674342E-007  0.1538817E+03  0.7546771E-02  0.1195783E+00
         -5   -1    0    0    0  501 -0.00000000000E+00  0.00000000000E+00  0.30647578693E+03  0.30651182355E+03  0.47000000000E+01 0. -1.
          5   -1    0    0  501    0  0.00000000000E+00 -0.00000000000E+00 -0.93690094574E+02  0.93807909162E+02  0.47000000000E+01 0. -1.
         25    2    1    2    0    0 -0.35076025946E+02 -0.82591643010E+02  0.19041709634E+03  0.24482288828E+03  0.12501147530E+03 0.  0.
         25    2    1    2    0    0  0.35076025946E+02  0.82591643010E+02  0.22368596022E+02  0.15549684443E+03  0.12500882948E+03 0.  0.
          5    1    3    3  502    0  0.30220672903E+02 -0.82308217223E+02  0.98214110872E+02  0.13174229870E+03  0.47000000000E+01 0.  1.
         -5    1    3    3    0  502 -0.65296698848E+02 -0.28342578724E+00  0.92202985466E+02  0.11308058958E+03  0.47000000000E+01 0.  1.
          5    1    4    4  503    0  0.18373437349E+02  0.52461710242E+02 -0.50188972576E+02  0.75038904641E+02  0.47000000000E+01 0.  1.
         -5    1    4    4    0  503  0.16702588596E+02  0.30129932768E+02  0.72557568597E+02  0.80457939790E+02  0.47000000000E+01 0.  1.
<mgrwt>
<rscale>  0 0.15388116E+03</rscale>
<asrwt>0</asrwt>
<pdfrwt beam="2">  1        5 0.14425695E-01 0.15388169E+03</pdfrwt>
<pdfrwt beam="1">  1       -5 0.47161956E-01 0.15388169E+03</pdfrwt>
<totfact> 0.13559286E+02</totfact>
</mgrwt>
</event>
<event>
 8    1  0.3674342E-007  0.1678367E+03  0.7546771E-02  0.1180123E+00
          5   -1    0    0  501    0  0.00000000000E+00  0.00000000000E+00  0.10659133990E+03  0.10669490963E+03  0.47000000000E+01 0.  1.
         -5   -1    0    0    0  501 -0.00000000000E+00 -0.00000000000E+00 -0.27644240492E+03  0.27648235610E+03  0.47000000000E+01 0.  1.
         25    2    1    2    0    0 -0.67841226086E+02 -0.89115324990E+02 -0.12552985830E+03  0.20958747047E+03  0.12500075739E+03 0.  0.
         25    2    1    2    0    0  0.67841226086E+02  0.89115324990E+02 -0.44321206722E+02  0.17358979526E+03  0.12500029820E+03 0.  0.
          5    1    4    4  502    0 -0.10862562915E+02  0.85279586405E+02 -0.73106435831E+01  0.86406820564E+02  0.47000000000E+01 0.  1.
         -5    1    4    4    0  502  0.78703789001E+02  0.38357385855E+01 -0.37010563138E+02  0.87182974699E+02  0.47000000000E+01 0.  1.
          5    1    3    3  503    0  0.14580785585E+01 -0.92000354548E+02 -0.98842367072E+02  0.13512251758E+03  0.47000000000E+01 0.  1.
         -5    1    3    3    0  503 -0.69299304644E+02  0.28850295579E+01 -0.26687491228E+02  0.74464952882E+02  0.47000000000E+01 0.  1.
<mgrwt>
<rscale>  0 0.16783663E+03</rscale>
<asrwt>0</asrwt>
<pdfrwt beam="1">  1        5 0.16409708E-01 0.16783671E+03</pdfrwt>
<pdfrwt beam="2">  1       -5 0.42540640E-01 0.16783671E+03</pdfrwt>
<totfact> 0.13663337E+02</totfact>
</mgrwt>
</event>
<event>
 8    1  0.3674342E-007  0.1374600E+03  0.7546771E-02  0.1216789E+00
         -5   -1    0    0    0  501 -0.00000000000E+00  0.00000000000E+00  0.55219712283E+03  0.55221712438E+03  0.47000000000E+01 0. -1.
          5   -1    0    0  501    0  0.00000000000E+00 -0.00000000000E+00 -0.34396915461E+02  0.34716534868E+02  0.47000000000E+01 0. -1.
         25    2    1    2    0    0  0.56921077119E+02 -0.55191528862E+01  0.28881882453E+03  0.31986179442E+03  0.12499913623E+03 0.  0.
         25    2    1    2    0    0 -0.56921077119E+02  0.55191528862E+01  0.22898138284E+03  0.26707186483E+03  0.12499774889E+03 0.  0.
          5    1    4    4  502    0 -0.39815791233E+02  0.61215705459E+02  0.16448738938E+03  0.18003013940E+03  0.47000000000E+01 0. -1.
         -5    1    4    4    0  502 -0.17105285886E+02 -0.55696552572E+02  0.64493993452E+02  0.87041725425E+02  0.47000000000E+01 0. -1.
          5    1    3    3  503    0 -0.36765180487E+02 -0.92370853725E+01  0.12872972965E+03  0.13427745730E+03  0.47000000000E+01 0. -1.
         -5    1    3    3    0  503  0.93686257606E+02  0.37179324863E+01  0.16008909488E+03  0.18558433712E+03  0.47000000000E+01 0. -1.
<mgrwt>
<rscale>  0 0.13745969E+03</rscale>
<asrwt>0</asrwt>
<pdfrwt beam="2">  1        5 0.53179580E-02 0.13746001E+03</pdfrwt>
<pdfrwt beam="1">  1       -5 0.84979525E-01 0.13746001E+03</pdfrwt>
<totfact> 0.19946259E+02</totfact>
</mgrwt>
</event>
<event>
 8    1  0.3674342E-007  0.1502222E+03  0.7546771E-02  0.1200201E+00
          5   -1    0    0  501    0  0.00000000000E+00  0.00000000000E+00  0.50213194217E+03  0.50215393790E+03  0.47000000000E+01 0. -1.
         -5   -1    0    0    0  501 -0.00000000000E+00 -0.00000000000E+00 -0.50596647860E+02  0.50814474067E+02  0.47000000000E+01 0. -1.
         25    2    1    2    0    0  0.79009597844E+02 -0.26444776952E+02  0.13238291651E+03  0.20022975102E+03  0.12499949531E+03 0.  0.
         25    2    1    2    0    0 -0.79009597844E+02  0.26444776952E+02  0.31915237780E+03  0.35273866095E+03  0.12499791957E+03 0.  0.
          5    1    3    3  502    0 -0.16013395528E+02  0.26340222864E+02  0.65424660097E+02  0.72475598140E+02  0.47000000000E+01 0. -1.
         -5    1    3    3    0  502  0.95022993372E+02 -0.52784999816E+02  0.66958256416E+02  0.12775415288E+03  0.47000000000E+01 0. -1.
          5    1    4    4  503    0  0.12462831852E+01 -0.42267541021E+02  0.67801771158E+02  0.80045414722E+02  0.47000000000E+01 0.  1.
         -5    1    4    4    0  503 -0.80255881029E+02  0.68712317973E+02  0.25135060664E+03  0.27269324623E+03  0.47000000000E+01 0.  1.
<mgrwt>
<rscale>  0 0.15022190E+03</rscale>
<asrwt>0</asrwt>
<pdfrwt beam="1">  1        5 0.77269512E-01 0.15022222E+03</pdfrwt>
<pdfrwt beam="2">  1       -5 0.78025479E-02 0.15022222E+03</pdfrwt>
<totfact> 0.13394409E+02</totfact>
</mgrwt>
</event>
<event>
 8    1  0.3674342E-007  0.1337323E+03  0.7546771E-02  0.1222024E+00
         -5   -1    0    0    0  501 -0.00000000000E+00  0.00000000000E+00  0.28157910214E+02  0.28547467622E+02  0.47000000000E+01 0.  1.
          5   -1    0    0  501    0  0.00000000000E+00 -0.00000000000E+00 -0.72824885404E+03  0.72826402040E+03  0.47000000000E+01 0.  1.
         25    2    1    2    0    0 -0.44779223657E+02 -0.15938000112E+02 -0.21134440504E+03  0.25010154684E+03  0.12500050989E+03 0.  0.
         25    2    1    2    0    0  0.44779223657E+02  0.15938000112E+02 -0.48874653879E+03  0.50670994119E+03  0.12499034602E+03 0.  0.
          5    1    4    4  502    0 -0.17779967445E+01  0.20851365748E+02 -0.43397125133E+03  0.43450095248E+03  0.47000000000E+01 0.  1.
         -5    1    4    4    0  502  0.46557220401E+02 -0.49133656353E+01 -0.54775287457E+02  0.72208988702E+02  0.47000000000E+01 0.  1.
          5    1    3    3  503    0  0.12498502345E+02 -0.59755688798E+02 -0.89598474175E+02  0.10852157149E+03  0.47000000000E+01 0.  1.
         -5    1    3    3    0  503 -0.57277726002E+02  0.43817688686E+02 -0.12174593086E+03  0.14157997535E+03  0.47000000000E+01 0.  1.
<mgrwt>
<rscale>  0 0.13372992E+03</rscale>
<asrwt>0</asrwt>
<pdfrwt beam="2">  1        5 0.11206940E+00 0.13373229E+03</pdfrwt>
<pdfrwt beam="1">  1       -5 0.43631193E-02 0.13373229E+03</pdfrwt>
<totfact> 0.14050100E+02</totfact>
</mgrwt>
</event>
<event>
 8    1  0.3674342E-007  0.1354468E+03  0.7546771E-02  0.1219598E+00
          5   -1    0    0  501    0  0.00000000000E+00  0.00000000000E+00  0.10946316627E+04  0.10946417528E+04  0.47000000000E+01 0.  1.
         -5   -1    0    0    0  501 -0.00000000000E+00 -0.00000000000E+00 -0.17450749318E+02  0.18072593942E+02  0.47000000000E+01 0.  1.
         25    2    1    2    0    0 -0.49705765386E+02  0.15829457734E+02  0.40561587315E+03  0.42762643524E+03  0.12497558447E+03 0.  0.
         25    2    1    2    0    0  0.49705765386E+02 -0.15829457734E+02  0.67156504019E+03  0.68508791147E+03  0.12499843357E+03 0.  0.
          5    1    4    4  502    0  0.13075444605E+02 -0.38181658982E+02  0.62823630362E+02  0.74817811155E+02  0.47000000000E+01 0. -1.
         -5    1    4    4    0  502  0.36630320781E+02  0.22352201248E+02  0.60874140982E+03  0.61027010031E+03  0.47000000000E+01 0. -1.
          5    1    3    3  503    0 -0.44252870028E+02  0.62310426966E+02  0.15791821853E+03  0.17550259132E+03  0.47000000000E+01 0. -1.
         -5    1    3    3    0  503 -0.54528953583E+01 -0.46480969231E+02  0.24769765462E+03  0.25212384392E+03  0.47000000000E+01 0. -1.
<mgrwt>
<rscale>  0 0.13544156E+03</rscale>
<asrwt>0</asrwt>
<pdfrwt beam="1">  1        5 0.16845356E+00 0.13544683E+03</pdfrwt>
<pdfrwt beam="2">  1       -5 0.27333398E-02 0.13544683E+03</pdfrwt>
<totfact> 0.10220381E+02</totfact>
</mgrwt>
</event>
<event>
 8    1  0.3674342E-007  0.1537119E+03  0.7546771E-02  0.1195997E+00
          5   -1    0    0  501    0  0.00000000000E+00  0.00000000000E+00  0.24136743251E+04  0.24136789011E+04  0.47000000000E+01 0.  1.
         -5   -1    0    0    0  501 -0.00000000000E+00 -0.00000000000E+00 -0.11261219533E+02  0.12202666322E+02  0.47000000000E+01 0.  1.
         25    2    1    2    0    0 -0.65534789842E+02 -0.60736983606E+02  0.70689708912E+03  0.72341609105E+03  0.12507420329E+03 0.  0.
         25    2    1    2    0    0  0.65534789842E+02  0.60736983606E+02  0.16955160165E+04  0.17024654764E+04  0.12502138365E+03 0.  0.
          5    1    4    4  502    0  0.40798299537E+02  0.95518667049E+02  0.13987712847E+04  0.14026302128E+04  0.47000000000E+01 0. -1.
         -5    1    4    4    0  502  0.24736490305E+02 -0.34781683444E+02  0.29674473176E+03  0.29983526357E+03  0.47000000000E+01 0. -1.
          5    1    3    3  503    0 -0.59943682231E+02 -0.84485855413E+02  0.33482496280E+03  0.35051526431E+03  0.47000000000E+01 0. -1.
         -5    1    3    3    0  503 -0.55911076105E+01  0.23748871807E+02  0.37207212632E+03  0.37290082674E+03  0.47000000000E+01 0. -1.
<mgrwt>
<rscale>  0 0.15370115E+03</rscale>
<asrwt>0</asrwt>
<pdfrwt beam="1">  1        5 0.37140734E+00 0.15371189E+03</pdfrwt>
<pdfrwt beam="2">  1       -5 0.18052660E-02 0.15371189E+03</pdfrwt>
<totfact> 0.95930490E+00</totfact>
</mgrwt>
</event>
<event>
 8    1  0.3674342E-007  0.1255074E+03  0.7546771E-02  0.1234282E+00
         -5   -1    0    0    0  501 -0.00000000000E+00  0.00000000000E+00  0.11438002187E+03  0.11447654521E+03  0.47000000000E+01 0.  1.
          5   -1    0    0  501    0  0.00000000000E+00 -0.00000000000E+00 -0.14224711588E+03  0.14232474126E+03  0.47000000000E+01 0.  1.
         25    2    1    2    0    0  0.45954880329E+01 -0.10173920442E+02  0.94755319129E+01  0.12585633229E+03  0.12500161401E+03 0.  0.
         25    2    1    2    0    0 -0.45954880329E+01  0.10173920442E+02 -0.37342625923E+02  0.13094495418E+03  0.12500992819E+03 0.  0.
          5    1    4    4  502    0 -0.72654895528E+00 -0.39527362833E+02 -0.63119871586E+02  0.74626727618E+02  0.47000000000E+01 0.  1.
         -5    1    4    4    0  502 -0.38689390776E+01  0.49701283275E+02  0.25777245663E+02  0.56318226559E+02  0.47000000000E+01 0.  1.
          5    1    3    3  503    0 -0.28804517580E+02  0.34024401403E+02 -0.33188120431E+02  0.55775455727E+02  0.47000000000E+01 0.  1.
         -5    1    3    3    0  503  0.33400005613E+02 -0.44198321845E+02  0.42663652343E+02  0.70080876565E+02  0.47000000000E+01 0.  1.
<mgrwt>
<rscale>  0 0.12550534E+03</rscale>
<asrwt>0</asrwt>
<pdfrwt beam="2">  1        5 0.21897568E-01 0.12550741E+03</pdfrwt>
<pdfrwt beam="1">  1       -5 0.17610323E-01 0.12550741E+03</pdfrwt>
<totfact> 0.40320753E+02</totfact>
</mgrwt>
</event>
<event>
 8    1  0.3674342E-007  0.1338077E+03  0.7546771E-02  0.1221925E+00
         -5   -1    0    0    0  501 -0.00000000000E+00  0.00000000000E+00  0.83202156361E+02  0.83334799592E+02  0.47000000000E+01 0.  1.
          5   -1    0    0  501    0  0.00000000000E+00 -0.00000000000E+00 -0.42035132264E+03  0.42037759746E+03  0.47000000000E+01 0.  1.
         25    2    1    2    0    0 -0.30541299935E+02  0.36708505221E+02  0.74939650551E+01  0.13401734033E+03  0.12499681052E+03 0.  0.
         25    2    1    2    0    0  0.30541299935E+02 -0.36708505221E+02 -0.34464313134E+03  0.36969505672E+03  0.12496104045E+03 0.  0.
          5    1    4    4  502    0  0.61120311410E+02 -0.13028786979E+02 -0.31382011681E+03  0.32001655812E+03  0.47000000000E+01 0.  1.
         -5    1    4    4    0  502 -0.30579011475E+02 -0.23679718242E+02 -0.30823014531E+02  0.49678498604E+02  0.47000000000E+01 0.  1.
          5    1    3    3  503    0  0.10815230964E+02  0.88461449525E+01 -0.53269223296E+02  0.55271363760E+02  0.47000000000E+01 0.  1.
         -5    1    3    3    0  503 -0.41356530899E+02  0.27862360268E+02  0.60763188351E+02  0.78745976572E+02  0.47000000000E+01 0.  1.
<mgrwt>
<rscale>  0 0.13379930E+03</rscale>
<asrwt>0</asrwt>
<pdfrwt beam="2">  1        5 0.64681658E-01 0.13380765E+03</pdfrwt>
<pdfrwt beam="1">  1       -5 0.12812556E-01 0.13380765E+03</pdfrwt>
<totfact> 0.81115272E+01</totfact>
</mgrwt>
</event>
<event>
 8    1  0.3674342E-007  0.1314494E+03  0.7546771E-02  0.1225322E+00
          5   -1    0    0  501    0  0.00000000000E+00  0.00000000000E+00  0.61212183933E+03  0.61213988285E+03  0.47000000000E+01 0. -1.
         -5   -1    0    0    0  501 -0.00000000000E+00 -0.00000000000E+00 -0.33853609108E+02  0.34178309637E+02  0.47000000000E+01 0. -1.
         25    2    1    2    0    0  0.11187546780E+02 -0.39092464763E+02  0.15564703741E+03  0.20372763837E+03  0.12500227348E+03 0.  0.
         25    2    1    2    0    0 -0.11187546780E+02  0.39092464763E+02  0.42262119281E+03  0.44259055412E+03  0.12499737592E+03 0.  0.
          5    1    4    4  502    0  0.36128827776E+02 -0.16938301636E+02  0.57494351953E+02  0.70141918746E+02  0.47000000000E+01 0.  1.
         -5    1    4    4    0  502 -0.47316374556E+02  0.56030766399E+02  0.36512684085E+03  0.37244863538E+03  0.47000000000E+01 0.  1.
          5    1    3    3  503    0 -0.87824895226E+01 -0.73418739422E+02  0.46473219889E+02  0.87460240037E+02  0.47000000000E+01 0.  1.
         -5    1    3    3    0  503  0.19970036303E+02  0.34326274658E+02  0.10917381752E+03  0.11626739833E+03  0.47000000000E+01 0.  1.
<mgrwt>
<rscale>  0 0.13144826E+03</rscale>
<asrwt>0</asrwt>
<pdfrwt beam="1">  1        5 0.94198954E-01 0.13144942E+03</pdfrwt>
<pdfrwt beam="2">  1       -5 0.52346126E-02 0.13144942E+03</pdfrwt>
<totfact> 0.15809189E+02</totfact>
</mgrwt>
</event>
<event>
 8    1  0.3674342E-007  0.1273755E+03  0.7546771E-02  0.1231405E+00
         -5   -1    0    0    0  501 -0.00000000000E+00  0.00000000000E+00  0.43640836173E+03  0.43643366986E+03  0.47000000000E+01 0.  1.
          5   -1    0    0  501    0  0.00000000000E+00 -0.00000000000E+00 -0.37195690613E+02  0.37491457696E+02  0.47000000000E+01 0.  1.
         25    2    1    2    0    0 -0.23784560651E+02  0.57625809134E+01  0.21668190998E+03  0.25134483854E+03  0.12499706030E+03 0.  0.
         25    2    1    2    0    0  0.23784560651E+02 -0.57625809134E+01  0.18253076113E+03  0.22258028901E+03  0.12500237451E+03 0.  0.
          5    1    4    4  502    0 -0.47256729809E+02 -0.21463558172E+01  0.11477116023E+03  0.12422686737E+03  0.47000000000E+01 0. -1.
         -5    1    4    4    0  502  0.71041290460E+02 -0.36162250962E+01  0.67759600896E+02  0.98353421638E+02  0.47000000000E+01 0. -1.
          5    1    3    3  503    0  0.28287844195E+02  0.19357904494E+02  0.76350845574E+01  0.35430426357E+02  0.47000000000E+01 0.  1.
         -5    1    3    3    0  503 -0.52072404846E+02 -0.13595323581E+02  0.20904682542E+03  0.21591441219E+03  0.47000000000E+01 0.  1.
<mgrwt>
<rscale>  0 0.12737415E+03</rscale>
<asrwt>0</asrwt>
<pdfrwt beam="2">  1        5 0.57471115E-02 0.12737545E+03</pdfrwt>
<pdfrwt beam="1">  1       -5 0.67164452E-01 0.12737545E+03</pdfrwt>
<totfact> 0.29214329E+02</totfact>
</mgrwt>
</event>
<event>
 8    1  0.3674342E-007  0.1861777E+03  0.7546771E-02  0.1161955E+00
          5   -1    0    0  501    0  0.00000000000E+00  0.00000000000E+00  0.47435150589E+03  0.47437478974E+03  0.47000000000E+01 0.  1.
         -5   -1    0    0    0  501 -0.00000000000E+00 -0.00000000000E+00 -0.73023879423E+02  0.73174974998E+02  0.47000000000E+01 0.  1.
         25    2    1    2    0    0 -0.13542107578E+03 -0.26421504287E+02  0.19336752471E+03  0.26842696823E+03  0.12500029603E+03 0.  0.
         25    2    1    2    0    0  0.13542107578E+03  0.26421504287E+02  0.20796010175E+03  0.27912279650E+03  0.12500067181E+03 0.  0.
          5    1    3    3  502    0 -0.80523340276E+02  0.47028823296E+02  0.11129821826E+03  0.14527595099E+03  0.47000000000E+01 0. -1.
         -5    1    3    3    0  502 -0.54897735499E+02 -0.73450327583E+02  0.82069306458E+02  0.12315101724E+03  0.47000000000E+01 0. -1.
          5    1    4    4  503    0  0.13299256019E+02 -0.79375137059E+01  0.12815290528E+03  0.12917093894E+03  0.47000000000E+01 0.  1.
         -5    1    4    4    0  503  0.12212181976E+03  0.34359017993E+02  0.79807196470E+02  0.14995185756E+03  0.47000000000E+01 0.  1.
<mgrwt>
<rscale>  0 0.18617763E+03</rscale>
<asrwt>0</asrwt>
<pdfrwt beam="1">  1        5 0.72990569E-01 0.18617769E+03</pdfrwt>
<pdfrwt beam="2">  1       -5 0.11247857E-01 0.18617769E+03</pdfrwt>
<totfact> 0.86050783E+01</totfact>
</mgrwt>
</event>
<event>
 8    1  0.3674342E-007  0.1455479E+03  0.7546771E-02  0.1206054E+00
          5   -1    0    0  501    0  0.00000000000E+00  0.00000000000E+00  0.44609687499E+03  0.44612163350E+03  0.47000000000E+01 0.  1.
         -5   -1    0    0    0  501 -0.00000000000E+00 -0.00000000000E+00 -0.68326777069E+02  0.68488235958E+02  0.47000000000E+01 0.  1.
         25    2    1    2    0    0  0.62935201652E+02  0.39973940040E+02  0.46530046471E+02  0.15280457855E+03  0.12500175404E+03 0.  0.
         25    2    1    2    0    0 -0.62935201652E+02 -0.39973940040E+02  0.33124005145E+03  0.36180529091E+03  0.12499736538E+03 0.  0.
          5    1    3    3  502    0  0.62868091925E+02 -0.13323326232E+02  0.69325481624E+02  0.94646819316E+02  0.47000000000E+01 0.  1.
         -5    1    3    3    0  502  0.67109726807E-01  0.53297266271E+02 -0.22795435154E+02  0.58157759238E+02  0.47000000000E+01 0.  1.
          5    1    4    4  503    0  0.93344928013E+01 -0.33964774645E+02  0.25118127091E+03  0.25368259603E+03  0.47000000000E+01 0.  1.
         -5    1    4    4    0  503 -0.72269694453E+02 -0.60091653948E+01  0.80058780541E+02  0.10812269487E+03  0.47000000000E+01 0.  1.
<mgrwt>
<rscale>  0 0.14554697E+03</rscale>
<asrwt>0</asrwt>
<pdfrwt beam="1">  1        5 0.68644613E-01 0.14554791E+03</pdfrwt>
<pdfrwt beam="2">  1       -5 0.10526136E-01 0.14554791E+03</pdfrwt>
<totfact> 0.10327274E+02</totfact>
</mgrwt>
</event>
<event>
 8    1  0.3674342E-007  0.1465196E+03  0.7546771E-02  0.1204819E+00
          5   -1    0    0  501    0  0.00000000000E+00  0.00000000000E+00  0.86407908318E+03  0.86409186549E+03  0.47000000000E+01 0. -1.
         -5   -1    0    0    0  501 -0.00000000000E+00 -0.00000000000E+00 -0.48523560247E+02  0.48750650243E+02  0.47000000000E+01 0. -1.
         25    2    1    2    0    0  0.68925972215E+02 -0.33018524018E+02  0.88501970585E+02  0.17117414454E+03  0.12500790529E+03 0.  0.
         25    2    1    2    0    0 -0.68925972215E+02  0.33018524018E+02  0.72705355235E+03  0.74166837119E+03  0.12499636900E+03 0.  0.
          5    1    3    3  502    0  0.85562650595E+02 -0.49715877042E+02  0.23425592412E+02  0.10180119836E+03  0.47000000000E+01 0.  1.
         -5    1    3    3    0  502 -0.16636678380E+02  0.16697353025E+02  0.65076378173E+02  0.69372946180E+02  0.47000000000E+01 0.  1.
          5    1    4    4  503    0  0.49760226852E+01  0.64055449084E+02  0.38219061022E+03  0.38758175125E+03  0.47000000000E+01 0.  1.
         -5    1    4    4    0  503 -0.73901994900E+02 -0.31036925066E+02  0.34486294213E+03  0.35408661995E+03  0.47000000000E+01 0.  1.
<mgrwt>
<rscale>  0 0.14651712E+03</rscale>
<asrwt>0</asrwt>
<pdfrwt beam="1">  1        5 0.13295370E+00 0.14651959E+03</pdfrwt>
<pdfrwt beam="2">  1       -5 0.74836148E-02 0.14651959E+03</pdfrwt>
<totfact> 0.37773670E+01</totfact>
</mgrwt>
</event>
<event>
 8    1  0.3674342E-007  0.1453689E+03  0.7546771E-02  0.1206283E+00
          5   -1    0    0  501    0  0.00000000000E+00  0.00000000000E+00  0.64207968547E+03  0.64209688716E+03  0.47000000000E+01 0. -1.
         -5   -1    0    0    0  501 -0.00000000000E+00 -0.00000000000E+00 -0.35908315789E+02  0.36214598476E+02  0.47000000000E+01 0. -1.
         25    2    1    2    0    0 -0.57955194049E+02 -0.46354664955E+02  0.20259389424E+03  0.24935198194E+03  0.12499826173E+03 0.  0.
         25    2    1    2    0    0  0.57955194049E+02  0.46354664955E+02  0.40357747545E+03  0.42895950369E+03  0.12499567049E+03 0.  0.
          5    1    3    3  502    0  0.20545617859E+02 -0.59495582618E+02  0.66964196194E+02  0.92022499076E+02  0.47000000000E+01 0. -1.
         -5    1    3    3    0  502 -0.78500811908E+02  0.13140917663E+02  0.13562969804E+03  0.15732948287E+03  0.47000000000E+01 0. -1.
          5    1    4    4  503    0  0.71559709176E+02  0.42182150031E+02  0.12607926911E+03  0.15105693581E+03  0.47000000000E+01 0. -1.
         -5    1    4    4    0  503 -0.13604515127E+02  0.41725149237E+01  0.27749820634E+03  0.27790256788E+03  0.47000000000E+01 0. -1.
<mgrwt>
<rscale>  0 0.14536837E+03</rscale>
<asrwt>0</asrwt>
<pdfrwt beam="1">  1        5 0.98806376E-01 0.14536893E+03</pdfrwt>
<pdfrwt beam="2">  1       -5 0.55492395E-02 0.14536893E+03</pdfrwt>
<totfact> 0.13207977E+02</totfact>
</mgrwt>
</event>
<event>
 8    1  0.3674342E-007  0.1281829E+03  0.7546771E-02  0.1230185E+00
          5   -1    0    0  501    0  0.00000000000E+00  0.00000000000E+00  0.31066259841E+03  0.31069814942E+03  0.47000000000E+01 0.  1.
         -5   -1    0    0    0  501 -0.00000000000E+00 -0.00000000000E+00 -0.52742880919E+02  0.52951878981E+02  0.47000000000E+01 0.  1.
         25    2    1    2    0    0 -0.31057926329E+01 -0.28145199114E+02  0.12726462419E+03  0.18061557205E+03  0.12499560839E+03 0.  0.
         25    2    1    2    0    0  0.31057926329E+01  0.28145199114E+02  0.13065509330E+03  0.18303445634E+03  0.12501624144E+03 0.  0.
          5    1    4    4  502    0  0.34412287274E+02 -0.96062019938E+01 -0.71048316769E+01  0.36729460455E+02  0.47000000000E+01 0. -1.
         -5    1    4    4    0  502 -0.31306494641E+02  0.37751401107E+02  0.13775992498E+03  0.14630499589E+03  0.47000000000E+01 0. -1.
          5    1    3    3  503    0 -0.10553815663E+02  0.38551923174E+02  0.10041440044E+03  0.10817936782E+03  0.47000000000E+01 0. -1.
         -5    1    3    3    0  503  0.74480230305E+01 -0.66697122287E+02  0.26850223745E+02  0.72436204233E+02  0.47000000000E+01 0. -1.
<mgrwt>
<rscale>  0 0.12817788E+03</rscale>
<asrwt>0</asrwt>
<pdfrwt beam="1">  1        5 0.47813056E-01 0.12818291E+03</pdfrwt>
<pdfrwt beam="2">  1       -5 0.81331011E-02 0.12818291E+03</pdfrwt>
<totfact> 0.33929658E+02</totfact>
</mgrwt>
</event>
<event>
 8    1  0.3674342E-007  0.1569473E+03  0.7546771E-02  0.1192188E+00
          5   -1    0    0  501    0  0.00000000000E+00  0.00000000000E+00  0.13159389178E+03  0.13167779749E+03  0.47000000000E+01 0.  1.
         -5   -1    0    0    0  501 -0.00000000000E+00 -0.00000000000E+00 -0.18804667107E+03  0.18810539732E+03  0.47000000000E+01 0.  1.
         25    2    1    2    0    0 -0.94760991181E+02  0.53439291891E+01 -0.16359576512E+02  0.15779763616E+03  0.12499702079E+03 0.  0.
         25    2    1    2    0    0  0.94760991181E+02 -0.53439291891E+01 -0.40093202786E+02  0.16198555865E+03  0.12499461297E+03 0.  0.
          5    1    3    3  502    0 -0.10776358296E+03 -0.32501143470E+02  0.38497271252E+01  0.11272189024E+03  0.47000000000E+01 0.  1.
         -5    1    3    3    0  502  0.13002591779E+02  0.37845072659E+02 -0.20209303637E+02  0.45075745929E+02  0.47000000000E+01 0.  1.
          5    1    4    4  503    0  0.51796704965E+01 -0.31396620396E+02 -0.58516807127E+02  0.66774871584E+02  0.47000000000E+01 0. -1.
         -5    1    4    4    0  503  0.89581320685E+02  0.26052691206E+02  0.18423604341E+02  0.95210687066E+02  0.47000000000E+01 0. -1.
<mgrwt>
<rscale>  0 0.15694683E+03</rscale>
<asrwt>0</asrwt>
<pdfrwt beam="1">  1        5 0.20256186E-01 0.15694731E+03</pdfrwt>
<pdfrwt beam="2">  1       -5 0.28941229E-01 0.15694731E+03</pdfrwt>
<totfact> 0.19669707E+02</totfact>
</mgrwt>
</event>
<event>
 8    1  0.3674342E-007  0.2093179E+03  0.7546771E-02  0.1142108E+00
         -5   -1    0    0    0  501 -0.00000000000E+00  0.00000000000E+00  0.64138760585E+03  0.64140482609E+03  0.47000000000E+01 0.  1.
          5   -1    0    0  501    0  0.00000000000E+00 -0.00000000000E+00 -0.68512777549E+02  0.68673799134E+02  0.47000000000E+01 0.  1.
         25    2    1    2    0    0  0.15819054808E+03 -0.56254247462E+02  0.30994358441E+03  0.37400400243E+03  0.12500071384E+03 0.  0.
         25    2    1    2    0    0 -0.15819054808E+03  0.56254247462E+02  0.26293124389E+03  0.33607462279E+03  0.12499809283E+03 0.  0.
          5    1    4    4  502    0 -0.15700302981E+02 -0.21456158689E+02 -0.57573460079E-01  0.26999251362E+02  0.47000000000E+01 0.  1.
         -5    1    4    4    0  502 -0.14249024510E+03  0.77710406151E+02  0.26298881735E+03  0.30907537143E+03  0.47000000000E+01 0.  1.
          5    1    3    3  503    0  0.16740593275E+02  0.35848475323E+02  0.71031497364E+02  0.81442766799E+02  0.47000000000E+01 0.  1.
         -5    1    3    3    0  503  0.14144995481E+03 -0.92102722785E+02  0.23891208704E+03  0.29256123563E+03  0.47000000000E+01 0.  1.
<mgrwt>
<rscale>  0 0.20931747E+03</rscale>
<asrwt>0</asrwt>
<pdfrwt beam="2">  1        5 0.10554138E-01 0.20931786E+03</pdfrwt>
<pdfrwt beam="1">  1       -5 0.98688726E-01 0.20931786E+03</pdfrwt>
<totfact> 0.48724205E+01</totfact>
</mgrwt>
</event>
<event>
 8    1  0.3674342E-007  0.1450187E+03  0.7546771E-02  0.1206732E+00
          5   -1    0    0  501    0  0.00000000000E+00  0.00000000000E+00  0.10464182947E+03  0.10474732682E+03  0.47000000000E+01 0.  1.
         -5   -1    0    0    0  501 -0.00000000000E+00 -0.00000000000E+00 -0.26232068241E+03  0.26236278399E+03  0.47000000000E+01 0.  1.
         25    2    1    2    0    0  0.65165574565E+02  0.34030209765E+02 -0.16775057083E+03  0.22174203748E+03  0.12499867954E+03 0.  0.
         25    2    1    2    0    0 -0.65165574565E+02 -0.34030209765E+02  0.10071717891E+02  0.14536807332E+03  0.12500331978E+03 0.  0.
          5    1    3    3  502    0  0.55385693177E+02 -0.37683161335E+02 -0.51115740437E+02  0.84394932178E+02  0.47000000000E+01 0. -1.
         -5    1    3    3    0  502  0.97798813885E+01  0.71713371100E+02 -0.11663483040E+03  0.13734710531E+03  0.47000000000E+01 0. -1.
          5    1    4    4  503    0 -0.48661993417E+02 -0.40540445190E+02 -0.51091595010E+02  0.81510480186E+02  0.47000000000E+01 0.  1.
         -5    1    4    4    0  503 -0.16503581148E+02  0.65102354245E+01  0.61163312901E+02  0.63857593135E+02  0.47000000000E+01 0.  1.
<mgrwt>
<rscale>  0 0.14501775E+03</rscale>
<asrwt>0</asrwt>
<pdfrwt beam="1">  1        5 0.16110097E-01 0.14501875E+03</pdfrwt>
<pdfrwt beam="2">  1       -5 0.40368382E-01 0.14501875E+03</pdfrwt>
<totfact> 0.15034256E+02</totfact>
</mgrwt>
</event>
<event>
 8    1  0.3674342E-007  0.1276841E+03  0.7546771E-02  0.1230934E+00
          5   -1    0    0  501    0  0.00000000000E+00  0.00000000000E+00  0.36673428732E+03  0.36676440326E+03  0.47000000000E+01 0.  1.
         -5   -1    0    0    0  501 -0.00000000000E+00 -0.00000000000E+00 -0.45443770264E+02  0.45686171385E+02  0.47000000000E+01 0.  1.
         25    2    1    2    0    0 -0.25474238484E+02  0.53962460691E+01  0.12799494332E+03  0.18079046264E+03  0.12499771826E+03 0.  0.
         25    2    1    2    0    0  0.25474238484E+02 -0.53962460691E+01  0.19329557374E+03  0.23166011200E+03  0.12500068946E+03 0.  0.
          5    1    3    3  502    0 -0.35897608680E+02 -0.65956989975E+01  0.14931833003E+03  0.15378619977E+03  0.47000000000E+01 0.  1.
         -5    1    3    3    0  502  0.10423370195E+02  0.11991945067E+02 -0.21323386714E+02  0.27004262880E+02  0.47000000000E+01 0.  1.
          5    1    4    4  503    0  0.44527893814E+02 -0.42556245310E+02  0.17544515507E+03  0.18600231123E+03  0.47000000000E+01 0. -1.
         -5    1    4    4    0  503 -0.19053655330E+02  0.37159999241E+02  0.17850418666E+02  0.45657800774E+02  0.47000000000E+01 0. -1.
<mgrwt>
<rscale>  0 0.12768337E+03</rscale>
<asrwt>0</asrwt>
<pdfrwt beam="1">  1        5 0.56441623E-01 0.12768410E+03</pdfrwt>
<pdfrwt beam="2">  1       -5 0.70123121E-02 0.12768410E+03</pdfrwt>
<totfact> 0.30638523E+02</totfact>
</mgrwt>
</event>
<event>
 8    1  0.3674342E-007  0.1292227E+03  0.7546771E-02  0.1228628E+00
          5   -1    0    0  501    0  0.00000000000E+00  0.00000000000E+00  0.15078180963E+03  0.15085504338E+03  0.47000000000E+01 0.  1.
         -5   -1    0    0    0  501 -0.00000000000E+00 -0.00000000000E+00 -0.17753987069E+03  0.17760207117E+03  0.47000000000E+01 0.  1.
         25    2    1    2    0    0  0.29973998153E+02  0.13071427886E+02 -0.11420673467E+03  0.17245775876E+03  0.12501678895E+03 0.  0.
         25    2    1    2    0    0 -0.29973998153E+02 -0.13071427886E+02  0.87448673605E+02  0.15599935580E+03  0.12497690067E+03 0.  0.
          5    1    3    3  502    0  0.67955235205E+02 -0.22882690023E+02 -0.42184895927E+02  0.83325787959E+02  0.47000000000E+01 0.  1.
         -5    1    3    3    0  502 -0.37981237052E+02  0.35954117909E+02 -0.72021838741E+02  0.89131970798E+02  0.47000000000E+01 0.  1.
          5    1    4    4  503    0 -0.73952569945E+02  0.15342021647E+02  0.42238977028E+02  0.86663610645E+02  0.47000000000E+01 0.  1.
         -5    1    4    4    0  503  0.43978571792E+02 -0.28413449533E+02  0.45209696577E+02  0.69335745152E+02  0.47000000000E+01 0.  1.
<mgrwt>
<rscale>  0 0.12921303E+03</rscale>
<asrwt>0</asrwt>
<pdfrwt beam="1">  1        5 0.23207619E-01 0.12922268E+03</pdfrwt>
<pdfrwt beam="2">  1       -5 0.27324244E-01 0.12922268E+03</pdfrwt>
<totfact> 0.15956668E+02</totfact>
</mgrwt>
</event>
<event>
 8    1  0.3674342E-007  0.1527733E+03  0.7546771E-02  0.1197107E+00
         -5   -1    0    0    0  501 -0.00000000000E+00  0.00000000000E+00  0.16664022801E+03  0.16670649535E+03  0.47000000000E+01 0.  1.
          5   -1    0    0  501    0  0.00000000000E+00 -0.00000000000E+00 -0.14084459564E+03  0.14092299359E+03  0.47000000000E+01 0.  1.
         25    2    1    2    0    0 -0.24815347563E+01 -0.87802363297E+02  0.46821509145E+00  0.15277096925E+03  0.12499334704E+03 0.  0.
         25    2    1    2    0    0  0.24815347563E+01  0.87802363297E+02  0.25327417280E+02  0.15485851969E+03  0.12499708012E+03 0.  0.
          5    1    4    4  502    0  0.48411119729E+02  0.56425383448E+02  0.54090578972E+02  0.92061616019E+02  0.47000000000E+01 0.  1.
         -5    1    4    4    0  502 -0.45929584972E+02  0.31376979849E+02 -0.28763161691E+02  0.62796903671E+02  0.47000000000E+01 0.  1.
          5    1    3    3  503    0  0.75469099323E+01  0.13853056602E+02  0.39909819011E+02  0.43171132487E+02  0.47000000000E+01 0. -1.
         -5    1    3    3    0  503 -0.10028444689E+02 -0.10165541990E+03 -0.39441603919E+02  0.10959983676E+03  0.47000000000E+01 0. -1.
<mgrwt>
<rscale>  0 0.15277254E+03</rscale>
<asrwt>0</asrwt>
<pdfrwt beam="2">  1        5 0.21679527E-01 0.15277331E+03</pdfrwt>
<pdfrwt beam="1">  1       -5 0.25648086E-01 0.15277331E+03</pdfrwt>
<totfact> 0.21694784E+02</totfact>
</mgrwt>
</event>
<event>
 8    1  0.3674342E-007  0.1302784E+03  0.7546771E-02  0.1227044E+00
         -5   -1    0    0    0  501 -0.00000000000E+00  0.00000000000E+00  0.84447802818E+02  0.84578492543E+02  0.47000000000E+01 0.  1.
          5   -1    0    0  501    0  0.00000000000E+00 -0.00000000000E+00 -0.28065269064E+03  0.28069204257E+03  0.47000000000E+01 0.  1.
         25    2    1    2    0    0  0.27967420612E+02 -0.23757006835E+02 -0.63187957757E+00  0.13027997242E+03  0.12500359976E+03 0.  0.
         25    2    1    2    0    0 -0.27967420612E+02  0.23757006835E+02 -0.19557300825E+03  0.23499056270E+03  0.12500076405E+03 0.  0.
          5    1    4    4  502    0 -0.94297834166E+01  0.15728744778E+02 -0.20927679587E+03  0.21013134349E+03  0.47000000000E+01 0. -1.
         -5    1    4    4    0  502 -0.18537637195E+02  0.80282620565E+01  0.13703787623E+02  0.24859219208E+02  0.47000000000E+01 0. -1.
          5    1    3    3  503    0  0.33364749866E+02  0.47638850816E+02  0.30687655277E+01  0.58430933268E+02  0.47000000000E+01 0. -1.
         -5    1    3    3    0  503 -0.53973292545E+01 -0.71395857650E+02 -0.37006451053E+01  0.71849039151E+02  0.47000000000E+01 0. -1.
<mgrwt>
<rscale>  0 0.13027776E+03</rscale>
<asrwt>0</asrwt>
<pdfrwt beam="2">  1        5 0.43190417E-01 0.13027844E+03</pdfrwt>
<pdfrwt beam="1">  1       -5 0.13005050E-01 0.13027844E+03</pdfrwt>
<totfact> 0.18572106E+02</totfact>
</mgrwt>
</event>
<event>
 8    1  0.3674342E-007  0.1502978E+03  0.7546771E-02  0.1200112E+00
          5   -1    0    0  501    0  0.00000000000E+00  0.00000000000E+00  0.77766697570E+03  0.77768117831E+03  0.47000000000E+01 0. -1.
         -5   -1    0    0    0  501 -0.00000000000E+00 -0.00000000000E+00 -0.47946161475E+02  0.48175973267E+02  0.47000000000E+01 0. -1.
         25    2    1    2    0    0 -0.20335094498E+02  0.80918932609E+02  0.10507076850E+03  0.18338293410E+03  0.12501217703E+03 0.  0.
         25    2    1    2    0    0  0.20335094498E+02 -0.80918932609E+02  0.62465004572E+03  0.64247421747E+03  0.12499620300E+03 0.  0.
          5    1    3    3  502    0  0.31660988306E+02  0.69052406662E+02  0.10519738288E+03  0.12984310691E+03  0.47000000000E+01 0. -1.
         -5    1    3    3    0  502 -0.51996082805E+02  0.11866525946E+02 -0.12661438261E+00  0.53539827197E+02  0.47000000000E+01 0. -1.
          5    1    4    4  503    0 -0.46038390825E+02 -0.91491429722E+01  0.13147111420E+03  0.13967814474E+03  0.47000000000E+01 0.  1.
         -5    1    4    4    0  503  0.66373485324E+02 -0.71769789636E+02  0.49317893152E+03  0.50279607273E+03  0.47000000000E+01 0.  1.
<mgrwt>
<rscale>  0 0.15029450E+03</rscale>
<asrwt>0</asrwt>
<pdfrwt beam="1">  1        5 0.11965984E+00 0.15029782E+03</pdfrwt>
<pdfrwt beam="2">  1       -5 0.73951030E-02 0.15029782E+03</pdfrwt>
<totfact> 0.51016507E+01</totfact>
</mgrwt>
</event>
<event>
 8    1  0.3674342E-007  0.1298292E+03  0.7546771E-02  0.1227710E+00
          5   -1    0    0  501    0  0.00000000000E+00  0.00000000000E+00  0.60714823548E+02  0.60896467865E+02  0.47000000000E+01 0. -1.
         -5   -1    0    0    0  501 -0.00000000000E+00 -0.00000000000E+00 -0.28748925491E+03  0.28752767117E+03  0.47000000000E+01 0. -1.
         25    2    1    2    0    0  0.34812786522E+02 -0.43740348629E+01 -0.14664676338E+03  0.19585920296E+03  0.12499796754E+03 0.  0.
         25    2    1    2    0    0 -0.34812786522E+02  0.43740348629E+01 -0.80127667974E+02  0.15256493607E+03  0.12499821701E+03 0.  0.
          5    1    3    3  502    0  0.38779294278E+02 -0.56597801931E+01  0.86728494847E+01  0.40412561100E+02  0.47000000000E+01 0.  1.
         -5    1    3    3    0  502 -0.39665077558E+01  0.12857453302E+01 -0.15531961287E+03  0.15544664186E+03  0.47000000000E+01 0.  1.
          5    1    4    4  503    0  0.18179050744E+02 -0.31433486301E+02  0.13548775519E+02  0.39041020287E+02  0.47000000000E+01 0. -1.
         -5    1    4    4    0  503 -0.52991837266E+02  0.35807521164E+02 -0.93676443493E+02  0.11352391578E+03  0.47000000000E+01 0. -1.
<mgrwt>
<rscale>  0 0.12982912E+03</rscale>
<asrwt>0</asrwt>
<pdfrwt beam="1">  1        5 0.93576700E-02 0.12982918E+03</pdfrwt>
<pdfrwt beam="2">  1       -5 0.44246043E-01 0.12982918E+03</pdfrwt>
<totfact> 0.31470213E+02</totfact>
</mgrwt>
</event>
<event>
 8    1  0.3674342E-007  0.1360186E+03  0.7546771E-02  0.1218793E+00
         -5   -1    0    0    0  501 -0.00000000000E+00  0.00000000000E+00  0.20766273226E+02  0.21291503086E+02  0.47000000000E+01 0. -1.
          5   -1    0    0  501    0  0.00000000000E+00 -0.00000000000E+00 -0.92160294834E+03  0.92161493281E+03  0.47000000000E+01 0. -1.
         25    2    1    2    0    0 -0.51215542535E+01  0.53366511311E+02 -0.34929664933E+03  0.37484177498E+03  0.12499596868E+03 0.  0.
         25    2    1    2    0    0  0.51215542535E+01 -0.53366511311E+02 -0.55154002578E+03  0.56806466092E+03  0.12500737619E+03 0.  0.
          5    1    3    3  502    0 -0.33332717806E+02 -0.86225434738E+01 -0.23452583944E+02  0.41922929596E+02  0.47000000000E+01 0. -1.
         -5    1    3    3    0  502  0.28211163552E+02  0.61989054784E+02 -0.32584406539E+03  0.33291884538E+03  0.47000000000E+01 0. -1.
          5    1    4    4  503    0 -0.30683793170E+02  0.24845388649E+02 -0.28974049060E+03  0.29245586059E+03  0.47000000000E+01 0. -1.
         -5    1    4    4    0  503  0.35805347424E+02 -0.78211899959E+02 -0.26179953518E+03  0.27560880033E+03  0.47000000000E+01 0. -1.
<mgrwt>
<rscale>  0 0.13601598E+03</rscale>
<asrwt>0</asrwt>
<pdfrwt beam="2">  1        5 0.14182636E+00 0.13601860E+03</pdfrwt>
<pdfrwt beam="1">  1       -5 0.32361362E-02 0.13601860E+03</pdfrwt>
<totfact> 0.12532620E+02</totfact>
</mgrwt>
</event>
<event>
 8    1  0.3674342E-007  0.1867408E+03  0.7546771E-02  0.1161435E+00
          5   -1    0    0  501    0  0.00000000000E+00  0.00000000000E+00  0.16445815921E+03  0.16452530545E+03  0.47000000000E+01 0. -1.
         -5   -1    0    0    0  501 -0.00000000000E+00 -0.00000000000E+00 -0.21820094459E+03  0.21825155720E+03  0.47000000000E+01 0. -1.
         25    2    1    2    0    0 -0.51595223145E+02  0.12878137243E+03  0.56310426382E+01  0.18682563401E+03  0.12500159978E+03 0.  0.
         25    2    1    2    0    0  0.51595223145E+02 -0.12878137243E+03 -0.59373828013E+02  0.19595122863E+03  0.12499969445E+03 0.  0.
          5    1    3    3  502    0 -0.46746749551E+02  0.90463222533E+02 -0.54204943595E+02  0.11545180438E+03  0.47000000000E+01 0. -1.
         -5    1    3    3    0  502 -0.48484735934E+01  0.38318149896E+02  0.59835986233E+02  0.71373829631E+02  0.47000000000E+01 0. -1.
          5    1    4    4  503    0  0.43115296895E+02  0.92179652574E+01  0.24899524911E+01  0.44409341058E+02  0.47000000000E+01 0.  1.
         -5    1    4    4    0  503  0.84799262501E+01 -0.13799933769E+03 -0.61863780504E+02  0.15154188757E+03  0.47000000000E+01 0.  1.
<mgrwt>
<rscale>  0 0.18674043E+03</rscale>
<asrwt>0</asrwt>
<pdfrwt beam="1">  1        5 0.25310314E-01 0.18674075E+03</pdfrwt>
<pdfrwt beam="2">  1       -5 0.33578434E-01 0.18674075E+03</pdfrwt>
<totfact> 0.10111589E+02</totfact>
</mgrwt>
</event>
<event>
 8    1  0.3674342E-007  0.1687244E+03  0.7546771E-02  0.1179190E+00
          5   -1    0    0  501    0  0.00000000000E+00  0.00000000000E+00  0.97333758665E+03  0.97334893414E+03  0.47000000000E+01 0.  1.
         -5   -1    0    0    0  501 -0.00000000000E+00 -0.00000000000E+00 -0.31826694841E+02  0.32171858891E+02  0.47000000000E+01 0.  1.
         25    2    1    2    0    0  0.10848694997E+03  0.32642986100E+02  0.32291913394E+03  0.36433150981E+03  0.12500279645E+03 0.  0.
         25    2    1    2    0    0 -0.10848694997E+03 -0.32642986100E+02  0.61859175787E+03  0.64118928322E+03  0.12503180057E+03 0.  0.
          5    1    3    3  502    0  0.47421374538E+01  0.49171121100E+02  0.18112021636E+03  0.18779486094E+03  0.47000000000E+01 0. -1.
         -5    1    3    3    0  502  0.10374481252E+03 -0.16528135000E+02  0.14179891757E+03  0.17653664887E+03  0.47000000000E+01 0. -1.
          5    1    4    4  503    0 -0.47004614499E+02 -0.38374560961E+02  0.52774708349E+03  0.53124487277E+03  0.47000000000E+01 0.  1.
         -5    1    4    4    0  503 -0.61482335471E+02  0.57315748609E+01  0.90844674384E+02  0.10994441045E+03  0.47000000000E+01 0.  1.
<mgrwt>
<rscale>  0 0.16871906E+03</rscale>
<asrwt>0</asrwt>
<pdfrwt beam="1">  1        5 0.14977166E+00 0.16872443E+03</pdfrwt>
<pdfrwt beam="2">  1       -5 0.49238388E-02 0.16872443E+03</pdfrwt>
<totfact> 0.57834080E+01</totfact>
</mgrwt>
</event>
<event>
 8    1  0.3674342E-007  0.1266854E+03  0.7546771E-02  0.1232460E+00
          5   -1    0    0  501    0  0.00000000000E+00  0.00000000000E+00  0.17860570937E+03  0.17866753880E+03  0.47000000000E+01 0. -1.
         -5   -1    0    0    0  501 -0.00000000000E+00 -0.00000000000E+00 -0.18518271377E+03  0.18524234796E+03  0.47000000000E+01 0. -1.
         25    2    1    2    0    0 -0.18887780229E+02  0.81898554834E+01 -0.13387843787E+03  0.18431355370E+03  0.12499691186E+03 0.  0.
         25    2    1    2    0    0  0.18887780229E+02 -0.81898554834E+01  0.12730143348E+03  0.17959633306E+03  0.12500146362E+03 0.  0.
          5    1    3    3  502    0 -0.25698913883E+02  0.63649366376E+02 -0.58146333108E+02  0.90081974161E+02  0.47000000000E+01 0. -1.
         -5    1    3    3    0  502  0.68111336548E+01 -0.55459510892E+02 -0.75732104767E+02  0.94231579539E+02  0.47000000000E+01 0. -1.
          5    1    4    4  503    0 -0.35169407119E+02  0.39251356686E+02  0.68634557806E+02  0.86662268168E+02  0.47000000000E+01 0. -1.
         -5    1    4    4    0  503  0.54057187347E+02 -0.47441212170E+02  0.58666875675E+02  0.92934064893E+02  0.47000000000E+01 0. -1.
<mgrwt>
<rscale>  0 0.12668427E+03</rscale>
<asrwt>0</asrwt>
<pdfrwt beam="1">  1        5 0.27487145E-01 0.12668539E+03</pdfrwt>
<pdfrwt beam="2">  1       -5 0.28498992E-01 0.12668539E+03</pdfrwt>
<totfact> 0.10558899E+02</totfact>
</mgrwt>
</event>
<event>
 8    1  0.3674342E-007  0.1290632E+03  0.7546771E-02  0.1228856E+00
         -5   -1    0    0    0  501 -0.00000000000E+00  0.00000000000E+00  0.33672183166E+02  0.33998616430E+02  0.47000000000E+01 0. -1.
          5   -1    0    0  501    0  0.00000000000E+00 -0.00000000000E+00 -0.49411751627E+03  0.49413986875E+03  0.47000000000E+01 0. -1.
         25    2    1    2    0    0 -0.17742586320E+02  0.26737854008E+02 -0.21263198293E+03  0.24873058160E+03  0.12499931940E+03 0.  0.
         25    2    1    2    0    0  0.17742586320E+02 -0.26737854008E+02 -0.24781335018E+03  0.27940790358E+03  0.12501043097E+03 0.  0.
          5    1    4    4  502    0 -0.36184939080E+02  0.25543500219E+02 -0.46051329657E+02  0.64067426847E+02  0.47000000000E+01 0. -1.
         -5    1    4    4    0  502  0.53927525400E+02 -0.52281354228E+02 -0.20176202052E+03  0.21534047673E+03  0.47000000000E+01 0. -1.
          5    1    3    3  503    0 -0.51208040378E+02  0.33484444231E+02 -0.20424472428E+03  0.21326384785E+03  0.47000000000E+01 0.  1.
         -5    1    3    3    0  503  0.33465454058E+02 -0.67465902227E+01 -0.83872586513E+01  0.35466733746E+02  0.47000000000E+01 0.  1.
<mgrwt>
<rscale>  0 0.12906055E+03</rscale>
<asrwt>0</asrwt>
<pdfrwt beam="2">  1        5 0.76044904E-01 0.12906324E+03</pdfrwt>
<pdfrwt beam="1">  1       -5 0.52071659E-02 0.12906324E+03</pdfrwt>
<totfact> 0.26141576E+02</totfact>
</mgrwt>
</event>
<event>
 8    1  0.3674342E-007  0.1319915E+03  0.7546771E-02  0.1224535E+00
         -5   -1    0    0    0  501 -0.00000000000E+00  0.00000000000E+00  0.75012016184E+03  0.75013488600E+03  0.47000000000E+01 0. -1.
          5   -1    0    0  501    0  0.00000000000E+00 -0.00000000000E+00 -0.23128380636E+02  0.23601101475E+02  0.47000000000E+01 0. -1.
         25    2    1    2    0    0  0.10783805013E+01 -0.42350046163E+02  0.39513649426E+03  0.41659499860E+03  0.12499541769E+03 0.  0.
         25    2    1    2    0    0 -0.10783805013E+01  0.42350046163E+02  0.33185528694E+03  0.35714098888E+03  0.12500826034E+03 0.  0.
          5    1    3    3  502    0 -0.19602835108E+02 -0.81800119294E+02  0.29705560900E+03  0.30877120251E+03  0.47000000000E+01 0. -1.
         -5    1    3    3    0  502  0.20681215609E+02  0.39450073131E+02  0.98080885259E+02  0.10782379609E+03  0.47000000000E+01 0. -1.
          5    1    4    4  503    0  0.46953276506E+02  0.63156212175E+02  0.18217025664E+03  0.19849788340E+03  0.47000000000E+01 0. -1.
         -5    1    4    4    0  503 -0.48031657007E+02 -0.20806166012E+02  0.14968503031E+03  0.15864310548E+03  0.47000000000E+01 0. -1.
<mgrwt>
<rscale>  0 0.13198845E+03</rscale>
<asrwt>0</asrwt>
<pdfrwt beam="2">  1        5 0.35957084E-02 0.13199149E+03</pdfrwt>
<pdfrwt beam="1">  1       -5 0.11544059E+00 0.13199149E+03</pdfrwt>
<totfact> 0.17832050E+02</totfact>
</mgrwt>
</event>
<event>
 8    1  0.3674342E-007  0.1892483E+03  0.7546771E-02  0.1159141E+00
         -5   -1    0    0    0  501 -0.00000000000E+00  0.00000000000E+00  0.15036420858E+04  0.15036494313E+04  0.47000000000E+01 0.  1.
          5   -1    0    0  501    0  0.00000000000E+00 -0.00000000000E+00 -0.29328417482E+02  0.29702627358E+02  0.47000000000E+01 0.  1.
         25    2    1    2    0    0 -0.95497354003E+02  0.10521814703E+03  0.10741649675E+04  0.10907086224E+04  0.12499727379E+03 0.  0.
         25    2    1    2    0    0  0.95497354003E+02 -0.10521814703E+03  0.40014870086E+03  0.44264343630E+03  0.12499450312E+03 0.  0.
          5    1    4    4  502    0  0.62019429826E+02 -0.55291052613E+02  0.75249431342E+02  0.11219660018E+03  0.47000000000E+01 0. -1.
         -5    1    4    4    0  502  0.33477924177E+02 -0.49927094418E+02  0.32489926952E+03  0.33044683612E+03  0.47000000000E+01 0. -1.
          5    1    3    3  503    0 -0.45282191520E+02 -0.18639978510E+02  0.18011998956E+03  0.18671696844E+03  0.47000000000E+01 0. -1.
         -5    1    3    3    0  503 -0.50215162484E+02  0.12385812554E+03  0.89404497793E+03  0.90399165392E+03  0.47000000000E+01 0. -1.
<mgrwt>
<rscale>  0 0.18924785E+03</rscale>
<asrwt>0</asrwt>
<pdfrwt beam="2">  1        5 0.45414124E-02 0.18924831E+03</pdfrwt>
<pdfrwt beam="1">  1       -5 0.23135901E+00 0.18924831E+03</pdfrwt>
<totfact> 0.18089657E+01</totfact>
</mgrwt>
</event>
<event>
 8    1  0.3674342E-007  0.1359721E+03  0.7546771E-02  0.1218859E+00
          5   -1    0    0  501    0  0.00000000000E+00  0.00000000000E+00  0.79872261521E+02  0.80010425323E+02  0.47000000000E+01 0.  1.
         -5   -1    0    0    0  501 -0.00000000000E+00 -0.00000000000E+00 -0.27322590771E+03  0.27326632915E+03  0.47000000000E+01 0.  1.
         25    2    1    2    0    0  0.35966009697E+02 -0.39632409844E+02 -0.16602678847E+03  0.21460035551E+03  0.12499654527E+03 0.  0.
         25    2    1    2    0    0 -0.35966009697E+02  0.39632409844E+02 -0.27326857719E+02  0.13867639896E+03  0.12498041732E+03 0.  0.
          5    1    3    3  502    0  0.17688569221E+02  0.69124878137E+01 -0.16312207865E+03  0.16429111513E+03  0.47000000000E+01 0.  1.
         -5    1    3    3    0  502  0.18277440476E+02 -0.46544897657E+02 -0.29047098290E+01  0.50309240379E+02  0.47000000000E+01 0.  1.
          5    1    4    4  503    0 -0.30814996476E+02 -0.41084539806E+02  0.41974078757E+01  0.51741778591E+02  0.47000000000E+01 0.  1.
         -5    1    4    4    0  503 -0.51510132204E+01  0.80716949650E+02 -0.31524265595E+02  0.86934620373E+02  0.47000000000E+01 0.  1.
<mgrwt>
<rscale>  0 0.13596842E+03</rscale>
<asrwt>0</asrwt>
<pdfrwt beam="1">  1        5 0.12301778E-01 0.13597212E+03</pdfrwt>
<pdfrwt beam="2">  1       -5 0.42048492E-01 0.13597212E+03</pdfrwt>
<totfact> 0.21991026E+02</totfact>
</mgrwt>
</event>
<event>
 8    1  0.3674342E-007  0.1358652E+03  0.7546771E-02  0.1219004E+00
         -5   -1    0    0    0  501 -0.00000000000E+00  0.00000000000E+00  0.10003237641E+03  0.10014272979E+03  0.47000000000E+01 0. -1.
          5   -1    0    0  501    0  0.00000000000E+00 -0.00000000000E+00 -0.18439611658E+03  0.18445600508E+03  0.47000000000E+01 0. -1.
         25    2    1    2    0    0  0.20776599924E+02  0.49011719870E+02 -0.38758143707E+02  0.14128531621E+03  0.12500212431E+03 0.  0.
         25    2    1    2    0    0 -0.20776599924E+02 -0.49011719870E+02 -0.45605596464E+02  0.14331341866E+03  0.12500019900E+03 0.  0.
          5    1    3    3  502    0  0.30132608437E+02  0.68947666531E+02  0.20302830153E+02  0.78077203610E+02  0.47000000000E+01 0. -1.
         -5    1    3    3    0  502 -0.93560085132E+01 -0.19935946661E+02 -0.59060973860E+02  0.63208112595E+02  0.47000000000E+01 0. -1.
          5    1    4    4  503    0  0.50025686868E+02 -0.16394920259E+02 -0.37485847294E+02  0.64796925114E+02  0.47000000000E+01 0.  1.
         -5    1    4    4    0  503 -0.70802286792E+02 -0.32616799611E+02 -0.81197491693E+01  0.78516493543E+02  0.47000000000E+01 0.  1.
<mgrwt>
<rscale>  0 0.13586474E+03</rscale>
<asrwt>0</asrwt>
<pdfrwt beam="2">  1        5 0.28381729E-01 0.13586518E+03</pdfrwt>
<pdfrwt beam="1">  1       -5 0.15402692E-01 0.13586518E+03</pdfrwt>
<totfact> 0.32254682E+02</totfact>
</mgrwt>
</event>
<event>
 8    1  0.3674342E-007  0.1440366E+03  0.7546771E-02  0.1208000E+00
         -5   -1    0    0    0  501 -0.00000000000E+00  0.00000000000E+00  0.34878113724E+02  0.35193363251E+02  0.47000000000E+01 0.  1.
          5   -1    0    0  501    0  0.00000000000E+00 -0.00000000000E+00 -0.81615662488E+03  0.81617015771E+03  0.47000000000E+01 0.  1.
         25    2    1    2    0    0 -0.63612855046E+02  0.32760228254E+02 -0.16750610206E+03  0.22091818409E+03  0.12500688762E+03 0.  0.
         25    2    1    2    0    0  0.63612855046E+02 -0.32760228254E+02 -0.61377240910E+03  0.63044533687E+03  0.12499969892E+03 0.  0.
          5    1    3    3  502    0  0.88169026301E+01  0.57252737447E+02 -0.11245555508E+03  0.12658576376E+03  0.47000000000E+01 0.  1.
         -5    1    3    3    0  502 -0.72429757676E+02 -0.24492509193E+02 -0.55050546976E+02  0.94332420333E+02  0.47000000000E+01 0.  1.
          5    1    4    4  503    0  0.50189392297E+02  0.43421711748E+02 -0.28402841800E+03  0.29171673311E+03  0.47000000000E+01 0.  1.
         -5    1    4    4    0  503  0.13423462749E+02 -0.76181940002E+02 -0.32974399110E+03  0.33872860375E+03  0.47000000000E+01 0.  1.
<mgrwt>
<rscale>  0 0.14403507E+03</rscale>
<asrwt>0</asrwt>
<pdfrwt beam="2">  1        5 0.12558783E+00 0.14403663E+03</pdfrwt>
<pdfrwt beam="1">  1       -5 0.53911552E-02 0.14403663E+03</pdfrwt>
<totfact> 0.75841746E+01</totfact>
</mgrwt>
</event>
<event>
 8    1  0.3674342E-007  0.1532846E+03  0.7546771E-02  0.1196497E+00
          5   -1    0    0  501    0  0.00000000000E+00  0.00000000000E+00  0.63089598555E+02  0.63264424804E+02  0.47000000000E+01 0.  1.
         -5   -1    0    0    0  501 -0.00000000000E+00 -0.00000000000E+00 -0.38330759439E+03  0.38333640829E+03  0.47000000000E+01 0.  1.
         25    2    1    2    0    0  0.43022911417E+02  0.77567375710E+02 -0.19895522174E+03  0.25115053662E+03  0.12500297238E+03 0.  0.
         25    2    1    2    0    0 -0.43022911417E+02 -0.77567375710E+02 -0.12126277410E+03  0.19545029648E+03  0.12501395654E+03 0.  0.
          5    1    4    4  502    0 -0.64199315269E+01  0.19240318280E+02 -0.82089360261E+02  0.84688596850E+02  0.47000000000E+01 0. -1.
         -5    1    4    4    0  502 -0.36602979890E+02 -0.96807693990E+02 -0.39173413839E+02  0.11076169963E+03  0.47000000000E+01 0. -1.
          5    1    3    3  503    0 -0.15425675118E+02 -0.21940500454E+01  0.10576924371E+02  0.19409447123E+02  0.47000000000E+01 0.  1.
         -5    1    3    3    0  503  0.58448586535E+02  0.79761425755E+02 -0.20953214611E+03  0.23174108949E+03  0.47000000000E+01 0.  1.
<mgrwt>
<rscale>  0 0.15328233E+03</rscale>
<asrwt>0</asrwt>
<pdfrwt beam="1">  1        5 0.97217570E-02 0.15328457E+03</pdfrwt>
<pdfrwt beam="2">  1       -5 0.58986062E-01 0.15328457E+03</pdfrwt>
<totfact> 0.16886533E+02</totfact>
</mgrwt>
</event>
<event>
 8    1  0.3674342E-007  0.2118938E+03  0.7546771E-02  0.1140076E+00
          5   -1    0    0  501    0  0.00000000000E+00  0.00000000000E+00  0.30894907449E+03  0.30898482265E+03  0.47000000000E+01 0.  1.
         -5   -1    0    0    0  501 -0.00000000000E+00 -0.00000000000E+00 -0.14559104361E+03  0.14566688704E+03  0.47000000000E+01 0.  1.
         25    2    1    2    0    0  0.25180299618E+02  0.16923315124E+03  0.70572588283E+02  0.22333714186E+03  0.12500032699E+03 0.  0.
         25    2    1    2    0    0 -0.25180299618E+02 -0.16923315124E+03  0.92785442599E+02  0.23131456783E+03  0.12499353570E+03 0.  0.
          5    1    4    4  502    0 -0.10955881968E+02 -0.18719978257E+03  0.75387045832E+02  0.20216104131E+03  0.47000000000E+01 0.  1.
         -5    1    4    4    0  502 -0.14224417649E+02  0.17966631328E+02  0.17398396767E+02  0.29153526524E+02  0.47000000000E+01 0.  1.
          5    1    3    3  503    0  0.54297382672E+02  0.13303255154E+03  0.93320615652E+02  0.17139630346E+03  0.47000000000E+01 0. -1.
         -5    1    3    3    0  503 -0.29117083054E+02  0.36200599704E+02 -0.22748027369E+02  0.51940838400E+02  0.47000000000E+01 0. -1.
<mgrwt>
<rscale>  0 0.21189281E+03</rscale>
<asrwt>0</asrwt>
<pdfrwt beam="1">  1        5 0.47539210E-01 0.21189381E+03</pdfrwt>
<pdfrwt beam="2">  1       -5 0.22407207E-01 0.21189381E+03</pdfrwt>
<totfact> 0.64591481E+01</totfact>
</mgrwt>
</event>
<event>
 8    1  0.3674342E-007  0.1468920E+03  0.7546771E-02  0.1204346E+00
          5   -1    0    0  501    0  0.00000000000E+00  0.00000000000E+00  0.44730708503E+03  0.44733177656E+03  0.47000000000E+01 0.  1.
         -5   -1    0    0    0  501 -0.00000000000E+00 -0.00000000000E+00 -0.54357278867E+02  0.54560093162E+02  0.47000000000E+01 0.  1.
         25    2    1    2    0    0  0.74001311866E+02 -0.21816807263E+02  0.11149908072E+03  0.18441611370E+03  0.12500036301E+03 0.  0.
         25    2    1    2    0    0 -0.74001311866E+02  0.21816807263E+02  0.28145072545E+03  0.31747575602E+03  0.12499671024E+03 0.  0.
          5    1    3    3  502    0  0.41297254566E+02 -0.25973032677E+02 -0.16842342345E+02  0.51824860413E+02  0.47000000000E+01 0.  1.
         -5    1    3    3    0  502  0.32704057300E+02  0.41562254142E+01  0.12834142306E+03  0.13259125328E+03  0.47000000000E+01 0.  1.
          5    1    4    4  503    0 -0.26003540989E+02  0.36835767711E+02  0.17273933601E+02  0.48513263226E+02  0.47000000000E+01 0. -1.
         -5    1    4    4    0  503 -0.47997770878E+02 -0.15018960448E+02  0.26417679184E+03  0.26896249280E+03  0.47000000000E+01 0. -1.
<mgrwt>
<rscale>  0 0.14689122E+03</rscale>
<asrwt>0</asrwt>
<pdfrwt beam="1">  1        5 0.68833976E-01 0.14689199E+03</pdfrwt>
<pdfrwt beam="2">  1       -5 0.83801587E-02 0.14689199E+03</pdfrwt>
<totfact> 0.15300020E+02</totfact>
</mgrwt>
</event>
<event>
 8    1  0.3674342E-007  0.1301909E+03  0.7546771E-02  0.1227177E+00
          5   -1    0    0  501    0  0.00000000000E+00  0.00000000000E+00  0.13296464911E+02  0.14102694038E+02  0.47000000000E+01 0. -1.
         -5   -1    0    0    0  501 -0.00000000000E+00 -0.00000000000E+00 -0.12717885337E+04  0.12717972183E+04  0.47000000000E+01 0. -1.
         25    2    1    2    0    0  0.56537161376E+00 -0.36378672557E+02 -0.73654617127E+03  0.74796201438E+03  0.12499274014E+03 0.  0.
         25    2    1    2    0    0 -0.56537161376E+00  0.36378672557E+02 -0.52194589752E+03  0.53793789794E+03  0.12500373853E+03 0.  0.
          5    1    3    3  502    0 -0.35708710258E+02 -0.20665016529E+02 -0.79323023821E+02  0.89534278377E+02  0.47000000000E+01 0.  1.
         -5    1    3    3    0  502  0.36274081871E+02 -0.15713656028E+02 -0.65722314745E+03  0.65842773601E+03  0.47000000000E+01 0.  1.
          5    1    4    4  503    0  0.35932846257E+02  0.66308513957E+02 -0.22817291041E+03  0.24036005389E+03  0.47000000000E+01 0. -1.
         -5    1    4    4    0  503 -0.36498217871E+02 -0.29929841401E+02 -0.29377298711E+03  0.29757784405E+03  0.47000000000E+01 0. -1.
<mgrwt>
<rscale>  0 0.13018823E+03</rscale>
<asrwt>0</asrwt>
<pdfrwt beam="1">  1        5 0.21082967E-02 0.13019087E+03</pdfrwt>
<pdfrwt beam="2">  1       -5 0.19572237E+00 0.13019087E+03</pdfrwt>
<totfact> 0.98088370E+01</totfact>
</mgrwt>
</event>
<event>
 8    1  0.3674342E-007  0.1447942E+03  0.7546771E-02  0.1207022E+00
         -5   -1    0    0    0  501 -0.00000000000E+00  0.00000000000E+00  0.41003354335E+03  0.41006047928E+03  0.47000000000E+01 0.  1.
          5   -1    0    0  501    0  0.00000000000E+00 -0.00000000000E+00 -0.55474546127E+02  0.55673290436E+02  0.47000000000E+01 0.  1.
         25    2    1    2    0    0 -0.52364597927E+02 -0.50951185332E+02  0.24333420003E+03  0.28315140614E+03  0.12500044597E+03 0.  0.
         25    2    1    2    0    0  0.52364597927E+02  0.50951185332E+02  0.11122479719E+03  0.18258236358E+03  0.12500915797E+03 0.  0.
          5    1    3    3  502    0 -0.78329702060E+02 -0.15177593827E+02  0.77008195995E+02  0.11098762917E+03  0.47000000000E+01 0.  1.
         -5    1    3    3    0  502  0.25965104133E+02 -0.35773591505E+02  0.16632600403E+03  0.17216377697E+03  0.47000000000E+01 0.  1.
          5    1    4    4  503    0  0.45565726602E+02  0.82018824954E+02  0.11686526973E+03  0.14994300370E+03  0.47000000000E+01 0. -1.
         -5    1    4    4    0  503  0.67988713256E+01 -0.31067639622E+02 -0.56404725418E+01  0.32639359882E+02  0.47000000000E+01 0. -1.
<mgrwt>
<rscale>  0 0.14479233E+03</rscale>
<asrwt>0</asrwt>
<pdfrwt beam="2">  1        5 0.85519058E-02 0.14479421E+03</pdfrwt>
<pdfrwt beam="1">  1       -5 0.63099442E-01 0.14479421E+03</pdfrwt>
<totfact> 0.17852313E+02</totfact>
</mgrwt>
</event>
<event>
 8    1  0.3674342E-007  0.1257222E+03  0.7546771E-02  0.1233946E+00
         -5   -1    0    0    0  501 -0.00000000000E+00  0.00000000000E+00  0.17295730991E+04  0.17295794851E+04  0.47000000000E+01 0.  1.
          5   -1    0    0  501    0  0.00000000000E+00 -0.00000000000E+00 -0.11154735319E+02  0.12104466946E+02  0.47000000000E+01 0.  1.
         25    2    1    2    0    0  0.11609143907E+02  0.67772471948E+01  0.12626757014E+04  0.12689192276E+04  0.12500150387E+03 0.  0.
         25    2    1    2    0    0 -0.11609143907E+02 -0.67772471948E+01  0.45574266238E+03  0.47276472440E+03  0.12499762807E+03 0.  0.
          5    1    4    4  502    0 -0.67574840948E+02 -0.93316253777E+01  0.28104237559E+03  0.28924098126E+03  0.47000000000E+01 0.  1.
         -5    1    4    4    0  502  0.55965697041E+02  0.25543781830E+01  0.17470028680E+03  0.18352374315E+03  0.47000000000E+01 0.  1.
          5    1    3    3  503    0  0.61316232194E+02 -0.25131590469E+02  0.65246164495E+03  0.65583501378E+03  0.47000000000E+01 0. -1.
         -5    1    3    3    0  503 -0.49707088287E+02  0.31908837664E+02  0.61021405645E+03  0.61308421382E+03  0.47000000000E+01 0. -1.
<mgrwt>
<rscale>  0 0.12572127E+03</rscale>
<asrwt>0</asrwt>
<pdfrwt beam="2">  1        5 0.17896616E-02 0.12572223E+03</pdfrwt>
<pdfrwt beam="1">  1       -5 0.26616157E+00 0.12572223E+03</pdfrwt>
<totfact> 0.44177004E+01</totfact>
</mgrwt>
</event>
<event>
 8    1  0.3674342E-007  0.1372500E+03  0.7546771E-02  0.1217079E+00
         -5   -1    0    0    0  501 -0.00000000000E+00  0.00000000000E+00  0.21943149535E+03  0.21948182420E+03  0.47000000000E+01 0. -1.
          5   -1    0    0  501    0  0.00000000000E+00 -0.00000000000E+00 -0.88819776003E+02  0.88944042011E+02  0.47000000000E+01 0. -1.
         25    2    1    2    0    0  0.52654117208E+02  0.20950820730E+02  0.94085273745E+02  0.16639856478E+03  0.12500020271E+03 0.  0.
         25    2    1    2    0    0 -0.52654117208E+02 -0.20950820730E+02  0.36526445606E+02  0.14202730143E+03  0.12500472061E+03 0.  0.
          5    1    3    3  502    0 -0.37195426775E+02 -0.86123831756E+01  0.99859640238E+01  0.39742702405E+02  0.47000000000E+01 0.  1.
         -5    1    3    3    0  502  0.89849543983E+02  0.29563203906E+02  0.84099309721E+02  0.12665586238E+03  0.47000000000E+01 0.  1.
          5    1    4    4  503    0 -0.23227300108E+01 -0.66002050438E+02  0.33610146457E+02  0.74252257081E+02  0.47000000000E+01 0. -1.
         -5    1    4    4    0  503 -0.50331387197E+02  0.45051229708E+02  0.29162991485E+01  0.67775044346E+02  0.47000000000E+01 0. -1.
<mgrwt>
<rscale>  0 0.13724901E+03</rscale>
<asrwt>0</asrwt>
<pdfrwt beam="2">  1        5 0.13678012E-01 0.13725004E+03</pdfrwt>
<pdfrwt beam="1">  1       -5 0.33772121E-01 0.13725004E+03</pdfrwt>
<totfact> 0.28466870E+02</totfact>
</mgrwt>
</event>
<event>
 8    1  0.3674342E-007  0.1261277E+03  0.7546771E-02  0.1233324E+00
         -5   -1    0    0    0  501 -0.00000000000E+00  0.00000000000E+00  0.12045760214E+04  0.12045851905E+04  0.47000000000E+01 0.  1.
          5   -1    0    0  501    0  0.00000000000E+00 -0.00000000000E+00 -0.14406023337E+02  0.15153333244E+02  0.47000000000E+01 0.  1.
         25    2    1    2    0    0 -0.14385006759E+02  0.87406346002E+01  0.79465781215E+03  0.80460229939E+03  0.12498197730E+03 0.  0.
         25    2    1    2    0    0  0.14385006759E+02 -0.87406346002E+01  0.39551218588E+03  0.41513622439E+03  0.12499947404E+03 0.  0.
          5    1    3    3  502    0 -0.42118101782E+02 -0.29054824148E+02  0.65892157229E+03  0.66092196645E+03  0.47000000000E+01 0.  1.
         -5    1    3    3    0  502  0.27733095023E+02  0.37795458748E+02  0.13573623986E+03  0.14368033294E+03  0.47000000000E+01 0.  1.
          5    1    4    4  503    0  0.56582125085E+02 -0.37754452167E+02  0.28796041017E+03  0.29592266449E+03  0.47000000000E+01 0. -1.
         -5    1    4    4    0  503 -0.42197118326E+02  0.29013817567E+02  0.10755177571E+03  0.11921355990E+03  0.47000000000E+01 0. -1.
<mgrwt>
<rscale>  0 0.12612336E+03</rscale>
<asrwt>0</asrwt>
<pdfrwt beam="2">  1        5 0.22745023E-02 0.12612770E+03</pdfrwt>
<pdfrwt beam="1">  1       -5 0.18537755E+00 0.12612770E+03</pdfrwt>
<totfact> 0.10141452E+02</totfact>
</mgrwt>
</event>
<event>
 8    1  0.3674342E-007  0.1253671E+03  0.7546771E-02  0.1234497E+00
         -5   -1    0    0    0  501 -0.00000000000E+00  0.00000000000E+00  0.33267622139E+02  0.33597986291E+02  0.47000000000E+01 0. -1.
          5   -1    0    0  501    0  0.00000000000E+00 -0.00000000000E+00 -0.47252047461E+03  0.47254384868E+03  0.47000000000E+01 0. -1.
         25    2    1    2    0    0  0.41724700193E+01 -0.86323511604E+01 -0.20029707203E+03  0.23629602205E+03  0.12499986391E+03 0.  0.
         25    2    1    2    0    0 -0.41724700193E+01  0.86323511604E+01 -0.23895578044E+03  0.26984581292E+03  0.12499988302E+03 0.  0.
          5    1    4    4  502    0 -0.35919706577E+02 -0.43588642636E+01 -0.93795540232E+01  0.37673479424E+02  0.47000000000E+01 0.  1.
         -5    1    4    4    0  502  0.31747236558E+02  0.12991215424E+02 -0.22957622642E+03  0.23217233350E+03  0.47000000000E+01 0.  1.
          5    1    3    3  503    0 -0.16265332540E+02  0.10008062016E+02 -0.20660381679E+03  0.20753782658E+03  0.47000000000E+01 0.  1.
         -5    1    3    3    0  503  0.20437802559E+02 -0.18640413176E+02  0.63067447647E+01  0.28758195464E+02  0.47000000000E+01 0.  1.
<mgrwt>
<rscale>  0 0.12536705E+03</rscale>
<asrwt>0</asrwt>
<pdfrwt beam="2">  1        5 0.72722663E-01 0.12536705E+03</pdfrwt>
<pdfrwt beam="1">  1       -5 0.51453067E-02 0.12536705E+03</pdfrwt>
<totfact> 0.29211566E+02</totfact>
</mgrwt>
</event>
<event>
 8    1  0.3674342E-007  0.1338952E+03  0.7546771E-02  0.1221788E+00
         -5   -1    0    0    0  501 -0.00000000000E+00  0.00000000000E+00  0.70533533864E+02  0.70689952605E+02  0.47000000000E+01 0.  1.
          5   -1    0    0  501    0  0.00000000000E+00 -0.00000000000E+00 -0.26962886099E+03  0.26966982160E+03  0.47000000000E+01 0.  1.
         25    2    1    2    0    0  0.16245478154E+02  0.45158873895E+02 -0.58216529730E+02  0.14600370372E+03  0.12499871084E+03 0.  0.
         25    2    1    2    0    0 -0.16245478154E+02 -0.45158873895E+02 -0.14087879740E+03  0.19435607049E+03  0.12499682847E+03 0.  0.
          5    1    4    4  502    0 -0.85490796207E+01  0.41063692668E+02 -0.23109774156E+02  0.48119281784E+02  0.47000000000E+01 0. -1.
         -5    1    4    4    0  502 -0.76963985329E+01 -0.86222566562E+02 -0.11776902324E+03  0.14623678870E+03  0.47000000000E+01 0. -1.
          5    1    3    3  503    0  0.21549642552E+02  0.19149003961E+02  0.36945436979E+02  0.47096993114E+02  0.47000000000E+01 0.  1.
         -5    1    3    3    0  503 -0.53041643982E+01  0.26009869934E+02 -0.95161966709E+02  0.98906710601E+02  0.47000000000E+01 0.  1.
<mgrwt>
<rscale>  0 0.13389473E+03</rscale>
<asrwt>0</asrwt>
<pdfrwt beam="2">  1        5 0.41496546E-01 0.13389517E+03</pdfrwt>
<pdfrwt beam="1">  1       -5 0.10866496E-01 0.13389517E+03</pdfrwt>
<totfact> 0.27985564E+02</totfact>
</mgrwt>
</event>
<event>
 8    1  0.3674342E-007  0.1339442E+03  0.7546771E-02  0.1221723E+00
         -5   -1    0    0    0  501 -0.00000000000E+00  0.00000000000E+00  0.91520518425E+02  0.91641122280E+02  0.47000000000E+01 0. -1.
          5   -1    0    0  501    0  0.00000000000E+00 -0.00000000000E+00 -0.20891682341E+03  0.20896968465E+03  0.47000000000E+01 0. -1.
         25    2    1    2    0    0 -0.26322115740E+01  0.48044302953E+02 -0.20962661072E+02  0.13557463346E+03  0.12500345793E+03 0.  0.
         25    2    1    2    0    0  0.26322115740E+01 -0.48044302953E+02 -0.96433643915E+02  0.16503617347E+03  0.12498922871E+03 0.  0.
          5    1    4    4  502    0 -0.42576692278E+01 -0.45716017500E+02 -0.12602149050E+03  0.13420725789E+03  0.47000000000E+01 0.  1.
         -5    1    4    4    0  502  0.68898808018E+01 -0.23282854528E+01  0.29587846584E+02  0.30828915584E+02  0.47000000000E+01 0.  1.
          5    1    3    3  503    0 -0.38779680992E+02  0.29065002948E+01  0.36770273299E+02  0.53725733129E+02  0.47000000000E+01 0.  1.
         -5    1    3    3    0  503  0.36147469418E+02  0.45137802658E+02 -0.57732934370E+02  0.81848900329E+02  0.47000000000E+01 0.  1.
<mgrwt>
<rscale>  0 0.13394088E+03</rscale>
<asrwt>0</asrwt>
<pdfrwt beam="2">  1        5 0.32154393E-01 0.13394420E+03</pdfrwt>
<pdfrwt beam="1">  1       -5 0.14093423E-01 0.13394420E+03</pdfrwt>
<totfact> 0.29493924E+02</totfact>
</mgrwt>
</event>
<event>
 8    1  0.3674342E-007  0.1352651E+03  0.7546771E-02  0.1219850E+00
          5   -1    0    0  501    0  0.00000000000E+00  0.00000000000E+00  0.66884215824E+03  0.66885867165E+03  0.47000000000E+01 0. -1.
         -5   -1    0    0    0  501 -0.00000000000E+00 -0.00000000000E+00 -0.27424120477E+02  0.27823953420E+02  0.47000000000E+01 0. -1.
         25    2    1    2    0    0  0.45841077650E+02 -0.23876745190E+02  0.28519527840E+03  0.31564696202E+03  0.12500061780E+03 0.  0.
         25    2    1    2    0    0 -0.45841077650E+02  0.23876745190E+02  0.35622275937E+03  0.38103566305E+03  0.12498807488E+03 0.  0.
          5    1    4    4  502    0 -0.39976037878E+02  0.55977114984E+02  0.93070713736E+02  0.11582645968E+03  0.47000000000E+01 0. -1.
         -5    1    4    4    0  502 -0.58650397723E+01 -0.32100369795E+02  0.26315204563E+03  0.26520920337E+03  0.47000000000E+01 0. -1.
          5    1    3    3  503    0 -0.41618092482E+02 -0.12102405464E+02  0.12921762533E+03  0.13637381910E+03  0.47000000000E+01 0.  1.
         -5    1    3    3    0  503  0.87459170132E+02 -0.11774339725E+02  0.15597765306E+03  0.17927314292E+03  0.47000000000E+01 0.  1.
<mgrwt>
<rscale>  0 0.13526224E+03</rscale>
<asrwt>0</asrwt>
<pdfrwt beam="1">  1        5 0.10293081E+00 0.13526514E+03</pdfrwt>
<pdfrwt beam="2">  1       -5 0.42511225E-02 0.13526514E+03</pdfrwt>
<totfact> 0.18168159E+02</totfact>
</mgrwt>
</event>
<event>
 8    1  0.3674342E-007  0.1271825E+03  0.7546771E-02  0.1231699E+00
          5   -1    0    0  501    0  0.00000000000E+00  0.00000000000E+00  0.36358960431E+02  0.36661478471E+02  0.47000000000E+01 0.  1.
         -5   -1    0    0    0  501 -0.00000000000E+00 -0.00000000000E+00 -0.46527448671E+03  0.46529822478E+03  0.47000000000E+01 0.  1.
         25    2    1    2    0    0 -0.20169360239E+02 -0.11960156848E+02 -0.26970656952E+03  0.29818803730E+03  0.12499849400E+03 0.  0.
         25    2    1    2    0    0  0.20169360239E+02  0.11960156848E+02 -0.15920895676E+03  0.20377166595E+03  0.12500220593E+03 0.  0.
          5    1    4    4  502    0  0.18159762267E+02  0.40687197957E+02 -0.30463350494E+01  0.44906516236E+02  0.47000000000E+01 0.  1.
         -5    1    4    4    0  502  0.20095979725E+01 -0.28727041109E+02 -0.15616262171E+03  0.15886514971E+03  0.47000000000E+01 0.  1.
          5    1    3    3  503    0  0.26116102714E+02 -0.25479464838E+02 -0.16378940132E+02  0.40269264076E+02  0.47000000000E+01 0. -1.
         -5    1    3    3    0  503 -0.46285462953E+02  0.13519307990E+02 -0.25332762939E+03  0.25791877322E+03  0.47000000000E+01 0. -1.
<mgrwt>
<rscale>  0 0.12718163E+03</rscale>
<asrwt>0</asrwt>
<pdfrwt beam="1">  1        5 0.56187832E-02 0.12718255E+03</pdfrwt>
<pdfrwt beam="2">  1       -5 0.71605782E-01 0.12718255E+03</pdfrwt>
<totfact> 0.26261912E+02</totfact>
</mgrwt>
</event>
<event>
 8    1  0.3674342E-007  0.1368113E+03  0.7546771E-02  0.1217688E+00
          5   -1    0    0  501    0  0.00000000000E+00  0.00000000000E+00  0.13505102602E+03  0.13513278517E+03  0.47000000000E+01 0. -1.
         -5   -1    0    0    0  501 -0.00000000000E+00 -0.00000000000E+00 -0.16316386892E+03  0.16323154757E+03  0.47000000000E+01 0. -1.
         25    2    1    2    0    0  0.36172905369E+02  0.42232381818E+02 -0.72119725948E+02  0.15465637369E+03  0.12500114357E+03 0.  0.
         25    2    1    2    0    0 -0.36172905369E+02 -0.42232381818E+02  0.44006883046E+02  0.14370795905E+03  0.12499327415E+03 0.  0.
          5    1    3    3  502    0  0.29274139017E+02  0.84607274930E+01 -0.10338411272E+03  0.10788384443E+03  0.47000000000E+01 0. -1.
         -5    1    3    3    0  502  0.68987663517E+01  0.33771654325E+02  0.31264386774E+02  0.46772529261E+02  0.47000000000E+01 0. -1.
          5    1    4    4  503    0  0.75012175454E+01 -0.60370044217E+01  0.77118732042E+02  0.77859504999E+02  0.47000000000E+01 0. -1.
         -5    1    4    4    0  503 -0.43674122914E+02 -0.36195377397E+02 -0.33111848996E+02  0.65848454053E+02  0.47000000000E+01 0. -1.
<mgrwt>
<rscale>  0 0.13680953E+03</rscale>
<asrwt>0</asrwt>
<pdfrwt beam="1">  1        5 0.20788576E-01 0.13681133E+03</pdfrwt>
<pdfrwt beam="2">  1       -5 0.25113629E-01 0.13681133E+03</pdfrwt>
<totfact> 0.23560525E+02</totfact>
</mgrwt>
</event>
<event>
 8    1  0.3674342E-007  0.1529573E+03  0.7546771E-02  0.1196886E+00
         -5   -1    0    0    0  501 -0.00000000000E+00  0.00000000000E+00  0.37501999869E+03  0.37504944929E+03  0.47000000000E+01 0.  1.
          5   -1    0    0  501    0  0.00000000000E+00 -0.00000000000E+00 -0.62266668319E+02  0.62443798600E+02  0.47000000000E+01 0.  1.
         25    2    1    2    0    0  0.39789268416E+01 -0.88059023158E+02  0.15519574455E+03  0.21790194638E+03  0.12500126276E+03 0.  0.
         25    2    1    2    0    0 -0.39789268416E+01  0.88059023158E+02  0.15755758581E+03  0.21959130151E+03  0.12500289370E+03 0.  0.
          5    1    4    4  502    0  0.39047213727E+02  0.50891113444E+02  0.15001775739E+02  0.66043422101E+02  0.47000000000E+01 0.  1.
         -5    1    4    4    0  502 -0.43026140569E+02  0.37167909714E+02  0.14255581007E+03  0.15354787941E+03  0.47000000000E+01 0.  1.
          5    1    3    3  503    0  0.63871461706E+02 -0.54621422826E+02  0.87471585751E+02  0.12139370563E+03  0.47000000000E+01 0. -1.
         -5    1    3    3    0  503 -0.59892534864E+02 -0.33437600332E+02  0.67724158804E+02  0.96508240758E+02  0.47000000000E+01 0. -1.
<mgrwt>
<rscale>  0 0.15295700E+03</rscale>
<asrwt>0</asrwt>
<pdfrwt beam="2">  1        5 0.95953783E-02 0.15295734E+03</pdfrwt>
<pdfrwt beam="1">  1       -5 0.57711275E-01 0.15295734E+03</pdfrwt>
<totfact> 0.18107224E+02</totfact>
</mgrwt>
</event>
<event>
 8    1  0.3674342E-007  0.1548110E+03  0.7546771E-02  0.1194684E+00
         -5   -1    0    0    0  501 -0.00000000000E+00  0.00000000000E+00  0.11468099197E+03  0.11477726220E+03  0.47000000000E+01 0. -1.
          5   -1    0    0  501    0  0.00000000000E+00 -0.00000000000E+00 -0.22058398414E+03  0.22063405009E+03  0.47000000000E+01 0. -1.
         25    2    1    2    0    0 -0.45950642828E+02 -0.78929023630E+02 -0.14151254858E+02  0.15545648530E+03  0.12500083384E+03 0.  0.
         25    2    1    2    0    0  0.45950642828E+02  0.78929023630E+02 -0.91751737317E+02  0.17995482699E+03  0.12499642439E+03 0.  0.
          5    1    4    4  502    0  0.15385000709E+02 -0.38965217678E+01 -0.90018212567E+02  0.91527316810E+02  0.47000000000E+01 0. -1.
         -5    1    4    4    0  502  0.30565642120E+02  0.82825545398E+02 -0.17335247498E+01  0.88427510181E+02  0.47000000000E+01 0. -1.
          5    1    3    3  503    0 -0.24015119754E+02 -0.10206917731E+03  0.21770727124E+02  0.10719560389E+03  0.47000000000E+01 0.  1.
         -5    1    3    3    0  503 -0.21935523074E+02  0.23140153681E+02 -0.35921981982E+02  0.48260881409E+02  0.47000000000E+01 0.  1.
<mgrwt>
<rscale>  0 0.15481016E+03</rscale>
<asrwt>0</asrwt>
<pdfrwt beam="2">  1        5 0.33947254E-01 0.15481105E+03</pdfrwt>
<pdfrwt beam="1">  1       -5 0.17654486E-01 0.15481105E+03</pdfrwt>
<totfact> 0.18438626E+02</totfact>
</mgrwt>
</event>
<event>
 8    1  0.3674342E-007  0.1392820E+03  0.7546771E-02  0.1214300E+00
         -5   -1    0    0    0  501 -0.00000000000E+00  0.00000000000E+00  0.16468680779E+03  0.16475386083E+03  0.47000000000E+01 0.  1.
          5   -1    0    0  501    0  0.00000000000E+00 -0.00000000000E+00 -0.11765530692E+03  0.11774914541E+03  0.47000000000E+01 0.  1.
         25    2    1    2    0    0 -0.57777747642E+02 -0.20867054379E+02  0.23678541586E+02  0.14128042507E+03  0.12500313235E+03 0.  0.
         25    2    1    2    0    0  0.57777747642E+02  0.20867054379E+02  0.23352959285E+02  0.14122258118E+03  0.12499901858E+03 0.  0.
          5    1    4    4  502    0  0.49027060779E+02  0.55752802947E+02 -0.27022107039E+02  0.79147406742E+02  0.47000000000E+01 0. -1.
         -5    1    4    4    0  502  0.87506868626E+01 -0.34885748568E+02  0.50375066325E+02  0.62075174433E+02  0.47000000000E+01 0. -1.
          5    1    3    3  503    0 -0.47923256208E+02 -0.56148251559E+02  0.55544259081E+02  0.92501455964E+02  0.47000000000E+01 0.  1.
         -5    1    3    3    0  503 -0.98544914336E+01  0.35281197180E+02 -0.31865717495E+02  0.48778969109E+02  0.47000000000E+01 0.  1.
<mgrwt>
<rscale>  0 0.13928111E+03</rscale>
<asrwt>0</asrwt>
<pdfrwt beam="2">  1        5 0.18113193E-01 0.13928203E+03</pdfrwt>
<pdfrwt beam="1">  1       -5 0.25348808E-01 0.13928203E+03</pdfrwt>
<totfact> 0.30085388E+02</totfact>
</mgrwt>
</event>
<event>
 8    1  0.3674342E-007  0.1627707E+03  0.7546771E-02  0.1185604E+00
          5   -1    0    0  501    0  0.00000000000E+00  0.00000000000E+00  0.21543448809E+03  0.21548575047E+03  0.47000000000E+01 0.  1.
         -5   -1    0    0    0  501 -0.00000000000E+00 -0.00000000000E+00 -0.20561524981E+03  0.20566895962E+03  0.47000000000E+01 0.  1.
         25    2    1    2    0    0 -0.14493370522E+01  0.10424700195E+03 -0.12863499378E+03  0.20746386961E+03  0.12499903030E+03 0.  0.
         25    2    1    2    0    0  0.14493370522E+01 -0.10424700195E+03  0.13845423206E+03  0.21369084048E+03  0.12499865174E+03 0.  0.
          5    1    3    3  502    0  0.36312999125E+00  0.13315802670E+03 -0.10910647556E+03  0.17221354461E+03  0.47000000000E+01 0. -1.
         -5    1    3    3    0  502 -0.18124670434E+01 -0.28911024749E+02 -0.19528518220E+02  0.35250325001E+02  0.47000000000E+01 0. -1.
          5    1    4    4  503    0  0.59370789164E+02 -0.49254939907E+02  0.95590746111E+02  0.12292526369E+03  0.47000000000E+01 0.  1.
         -5    1    4    4    0  503 -0.57921452112E+02 -0.54992062045E+02  0.42863485951E+02  0.90765576793E+02  0.47000000000E+01 0.  1.
<mgrwt>
<rscale>  0 0.16277061E+03</rscale>
<asrwt>0</asrwt>
<pdfrwt beam="1">  1        5 0.33151842E-01 0.16277068E+03</pdfrwt>
<pdfrwt beam="2">  1       -5 0.31641190E-01 0.16277068E+03</pdfrwt>
<totfact> 0.64430212E+01</totfact>
</mgrwt>
</event>
<event>
 8    1  0.3674342E-007  0.1403686E+03  0.7546771E-02  0.1212834E+00
          5   -1    0    0  501    0  0.00000000000E+00  0.00000000000E+00  0.63757412697E+02  0.63930412745E+02  0.47000000000E+01 0. -1.
         -5   -1    0    0    0  501 -0.00000000000E+00 -0.00000000000E+00 -0.38763647082E+03  0.38766496297E+03  0.47000000000E+01 0. -1.
         25    2    1    2    0    0  0.14302618582E+02  0.62236035809E+02 -0.26398376182E+03  0.29898215095E+03  0.12500004413E+03 0.  0.
         25    2    1    2    0    0 -0.14302618582E+02 -0.62236035809E+02 -0.59895296311E+02  0.15261322476E+03  0.12500184319E+03 0.  0.
          5    1    4    4  502    0  0.47730363779E+02 -0.21692991077E+02  0.64542414978E+01  0.53033203954E+02  0.47000000000E+01 0.  1.
         -5    1    4    4    0  502 -0.62032982361E+02 -0.40543044732E+02 -0.66349537809E+02  0.99580020808E+02  0.47000000000E+01 0.  1.
          5    1    3    3  503    0  0.81780964132E+01 -0.36208291346E+02 -0.43386779286E+02  0.57292444876E+02  0.47000000000E+01 0.  1.
         -5    1    3    3    0  503  0.61245221686E+01  0.98444327154E+02 -0.22059698253E+03  0.24168970607E+03  0.47000000000E+01 0.  1.
<mgrwt>
<rscale>  0 0.14036822E+03</rscale>
<asrwt>0</asrwt>
<pdfrwt beam="1">  1        5 0.98243323E-02 0.14036862E+03</pdfrwt>
<pdfrwt beam="2">  1       -5 0.59651878E-01 0.14036862E+03</pdfrwt>
<totfact> 0.15720771E+02</totfact>
</mgrwt>
</event>
<event>
 8    1  0.3674342E-007  0.1278149E+03  0.7546771E-02  0.1230735E+00
          5   -1    0    0  501    0  0.00000000000E+00  0.00000000000E+00  0.67802861388E+02  0.67965564902E+02  0.47000000000E+01 0.  1.
         -5   -1    0    0    0  501 -0.00000000000E+00 -0.00000000000E+00 -0.24088110143E+03  0.24092694956E+03  0.47000000000E+01 0.  1.
         25    2    1    2    0    0  0.25487269110E+02  0.80641389782E+01 -0.92927426917E+02  0.15802570673E+03  0.12498794378E+03 0.  0.
         25    2    1    2    0    0 -0.25487269110E+02 -0.80641389782E+01 -0.80150813120E+02  0.15086680773E+03  0.12498803786E+03 0.  0.
          5    1    4    4  502    0 -0.19940509720E+02  0.94796975139E+01 -0.11174615757E+03  0.11400343120E+03  0.47000000000E+01 0.  1.
         -5    1    4    4    0  502 -0.55467593899E+01 -0.17543836492E+02  0.31595344451E+02  0.36863376535E+02  0.47000000000E+01 0.  1.
          5    1    3    3  503    0 -0.39180608671E+02  0.29716387044E+02 -0.97317810723E+01  0.50348597971E+02  0.47000000000E+01 0. -1.
         -5    1    3    3    0  503  0.64667877781E+02 -0.21652248065E+02 -0.83195645845E+02  0.10767710876E+03  0.47000000000E+01 0. -1.
<mgrwt>
<rscale>  0 0.12781485E+03</rscale>
<asrwt>0</asrwt>
<pdfrwt beam="1">  1        5 0.10447252E-01 0.12781487E+03</pdfrwt>
<pdfrwt beam="2">  1       -5 0.37074673E-01 0.12781487E+03</pdfrwt>
<totfact> 0.37092022E+02</totfact>
</mgrwt>
</event>
<event>
 8    1  0.3674342E-007  0.1273365E+03  0.7546771E-02  0.1231463E+00
         -5   -1    0    0    0  501 -0.00000000000E+00  0.00000000000E+00  0.21386736071E+03  0.21391899863E+03  0.47000000000E+01 0.  1.
          5   -1    0    0  501    0  0.00000000000E+00 -0.00000000000E+00 -0.98663169149E+02  0.98775052248E+02  0.47000000000E+01 0.  1.
         25    2    1    2    0    0 -0.18180084174E+02  0.16097851178E+02  0.13298988134E+03  0.18412149207E+03  0.12499903612E+03 0.  0.
         25    2    1    2    0    0  0.18180084174E+02 -0.16097851178E+02 -0.17785689782E+02  0.12857255881E+03  0.12499966338E+03 0.  0.
          5    1    4    4  502    0  0.14926539377E+02 -0.68488081954E+02 -0.26636611455E+02  0.75133334927E+02  0.47000000000E+01 0.  1.
         -5    1    4    4    0  502  0.32535447977E+01  0.52390230775E+02  0.88509216734E+01  0.53439223880E+02  0.47000000000E+01 0.  1.
          5    1    3    3  503    0 -0.90772603387E+01 -0.37102914306E+02 -0.21303972314E+01  0.38544149979E+02  0.47000000000E+01 0.  1.
         -5    1    3    3    0  503 -0.91028238356E+01  0.53200765484E+02  0.13512027857E+03  0.14557734210E+03  0.47000000000E+01 0.  1.
<mgrwt>
<rscale>  0 0.12733630E+03</rscale>
<asrwt>0</asrwt>
<pdfrwt beam="2">  1        5 0.15191528E-01 0.12733645E+03</pdfrwt>
<pdfrwt beam="1">  1       -5 0.32915249E-01 0.12733645E+03</pdfrwt>
<totfact> 0.24151473E+02</totfact>
</mgrwt>
</event>
<event>
 8    1  0.3674342E-007  0.1468438E+03  0.7546771E-02  0.1204408E+00
         -5   -1    0    0    0  501 -0.00000000000E+00  0.00000000000E+00  0.71223912287E+02  0.71378818157E+02  0.47000000000E+01 0. -1.
          5   -1    0    0  501    0  0.00000000000E+00 -0.00000000000E+00 -0.31089945409E+03  0.31093497802E+03  0.47000000000E+01 0. -1.
         25    2    1    2    0    0  0.42791043822E+02 -0.64064956167E+02 -0.87941539710E+02  0.17116309872E+03  0.12501079920E+03 0.  0.
         25    2    1    2    0    0 -0.42791043822E+02  0.64064956167E+02 -0.15173400210E+03  0.21115069746E+03  0.12500407036E+03 0.  0.
          5    1    4    4  502    0 -0.82266178841E+02  0.60481617820E+02 -0.83008284937E+02  0.13167465832E+03  0.47000000000E+01 0.  1.
         -5    1    4    4    0  502  0.39475135018E+02  0.35833383470E+01 -0.68725717161E+02  0.79476039142E+02  0.47000000000E+01 0.  1.
          5    1    3    3  503    0  0.35931522063E+02 -0.81662026882E+02 -0.89261549568E+01  0.89786007565E+02  0.47000000000E+01 0.  1.
         -5    1    3    3    0  503  0.68595217588E+01  0.17597070714E+02 -0.79015384753E+02  0.81377091151E+02  0.47000000000E+01 0.  1.
<mgrwt>
<rscale>  0 0.14684234E+03</rscale>
<asrwt>0</asrwt>
<pdfrwt beam="2">  1        5 0.47845333E-01 0.14684377E+03</pdfrwt>
<pdfrwt beam="1">  1       -5 0.10972174E-01 0.14684377E+03</pdfrwt>
<totfact> 0.21105086E+02</totfact>
</mgrwt>
</event>
<event>
 8    1  0.3674342E-007  0.1263701E+03  0.7546771E-02  0.1232944E+00
          5   -1    0    0  501    0  0.00000000000E+00  0.00000000000E+00  0.46120052129E+03  0.46122446904E+03  0.47000000000E+01 0.  1.
         -5   -1    0    0    0  501 -0.00000000000E+00 -0.00000000000E+00 -0.38600317905E+02  0.38885402690E+02  0.47000000000E+01 0.  1.
         25    2    1    2    0    0 -0.17941648353E+02 -0.46833369843E+01  0.12955960177E+03  0.18098264678E+03  0.12500076653E+03 0.  0.
         25    2    1    2    0    0  0.17941648353E+02  0.46833369843E+01  0.29304060161E+03  0.31912722494E+03  0.12500222045E+03 0.  0.
          5    1    3    3  502    0 -0.12955744319E+02 -0.60265888610E+02  0.34887280513E+02  0.70986202761E+02  0.47000000000E+01 0.  1.
         -5    1    3    3    0  502 -0.49859040343E+01  0.55582551625E+02  0.94672321261E+02  0.10999644402E+03  0.47000000000E+01 0.  1.
          5    1    4    4  503    0 -0.50342484689E+02  0.19982593289E+02  0.15563208701E+03  0.16485480371E+03  0.47000000000E+01 0. -1.
         -5    1    4    4    0  503  0.68284133042E+02 -0.15299256304E+02  0.13740851460E+03  0.15427242123E+03  0.47000000000E+01 0. -1.
<mgrwt>
<rscale>  0 0.12636970E+03</rscale>
<asrwt>0</asrwt>
<pdfrwt beam="1">  1        5 0.70977697E-01 0.12637006E+03</pdfrwt>
<pdfrwt beam="2">  1       -5 0.59622823E-02 0.12637006E+03</pdfrwt>
<totfact> 0.24200480E+02</totfact>
</mgrwt>
</event>
<event>
 8    1  0.3674342E-007  0.1310797E+03  0.7546771E-02  0.1225863E+00
         -5   -1    0    0    0  501 -0.00000000000E+00  0.00000000000E+00  0.22855230944E+03  0.22860063025E+03  0.47000000000E+01 0. -1.
          5   -1    0    0  501    0  0.00000000000E+00 -0.00000000000E+00 -0.76733751569E+02  0.76877556087E+02  0.47000000000E+01 0. -1.
         25    2    1    2    0    0 -0.36046106964E+02  0.16061167505E+02  0.98528537294E+02  0.16398096475E+03  0.12499840483E+03 0.  0.
         25    2    1    2    0    0  0.36046106964E+02 -0.16061167505E+02  0.53290020577E+02  0.14149722159E+03  0.12499741795E+03 0.  0.
          5    1    3    3  502    0  0.14857749808E+02  0.17148494257E+02 -0.22683120611E+02  0.32425877710E+02  0.47000000000E+01 0. -1.
         -5    1    3    3    0  502 -0.50903856772E+02 -0.10873267519E+01  0.12121165791E+03  0.13155508704E+03  0.47000000000E+01 0. -1.
          5    1    4    4  503    0 -0.30156065957E+02 -0.14639987579E+02  0.65752028740E+02  0.73953612716E+02  0.47000000000E+01 0. -1.
         -5    1    4    4    0  503  0.66202172921E+02 -0.14211799262E+01 -0.12462008164E+02  0.67543608871E+02  0.47000000000E+01 0. -1.
<mgrwt>
<rscale>  0 0.13107945E+03</rscale>
<asrwt>0</asrwt>
<pdfrwt beam="2">  1        5 0.11819972E-01 0.13107969E+03</pdfrwt>
<pdfrwt beam="1">  1       -5 0.35176672E-01 0.13107969E+03</pdfrwt>
<totfact> 0.33490351E+02</totfact>
</mgrwt>
</event>
<event>
 8    1  0.3674342E-007  0.1457214E+03  0.7546771E-02  0.1205835E+00
          5   -1    0    0  501    0  0.00000000000E+00  0.00000000000E+00  0.64046392277E+02  0.64218613841E+02  0.47000000000E+01 0.  1.
         -5   -1    0    0    0  501 -0.00000000000E+00 -0.00000000000E+00 -0.36855093551E+03  0.36858090301E+03  0.47000000000E+01 0.  1.
         25    2    1    2    0    0  0.53676647156E+02  0.52224988382E+02 -0.22140373232E+03  0.26504831201E+03  0.12498945217E+03 0.  0.
         25    2    1    2    0    0 -0.53676647156E+02 -0.52224988382E+02 -0.83100810914E+02  0.16775120484E+03  0.12500436029E+03 0.  0.
          5    1    4    4  502    0 -0.40527556829E+02  0.34127556933E+02 -0.10825916087E+02  0.54281336239E+02  0.47000000000E+01 0.  1.
         -5    1    4    4    0  502 -0.13149090326E+02 -0.86352545314E+02 -0.72274894827E+02  0.11346986860E+03  0.47000000000E+01 0.  1.
          5    1    3    3  503    0  0.33684979640E+02  0.92493107563E+02 -0.13053830434E+03  0.16356036103E+03  0.47000000000E+01 0. -1.
         -5    1    3    3    0  503  0.19991667516E+02 -0.40268119182E+02 -0.90865427974E+02  0.10148795098E+03  0.47000000000E+01 0. -1.
<mgrwt>
<rscale>  0 0.14571819E+03</rscale>
<asrwt>0</asrwt>
<pdfrwt beam="1">  1        5 0.98688443E-02 0.14572138E+03</pdfrwt>
<pdfrwt beam="2">  1       -5 0.56715696E-01 0.14572138E+03</pdfrwt>
<totfact> 0.17624562E+02</totfact>
</mgrwt>
</event>
<event>
 8    1  0.3674342E-007  0.1425925E+03  0.7546771E-02  0.1209888E+00
         -5   -1    0    0    0  501 -0.00000000000E+00  0.00000000000E+00  0.36921147859E+02  0.37219096701E+02  0.47000000000E+01 0. -1.
          5   -1    0    0  501    0  0.00000000000E+00 -0.00000000000E+00 -0.58192286715E+03  0.58194184702E+03  0.47000000000E+01 0. -1.
         25    2    1    2    0    0  0.60253995875E+02  0.32809687603E+02 -0.19792252823E+03  0.24393840611E+03  0.12500239669E+03 0.  0.
         25    2    1    2    0    0 -0.60253995875E+02 -0.32809687603E+02 -0.34707919106E+03  0.37522253760E+03  0.12498387192E+03 0.  0.
          5    1    4    4  502    0 -0.33437980797E+02  0.47181828040E+02 -0.13603171317E+03  0.14788827014E+03  0.47000000000E+01 0. -1.
         -5    1    4    4    0  502 -0.26816015078E+02 -0.79991515643E+02 -0.21104747789E+03  0.22733426747E+03  0.47000000000E+01 0. -1.
          5    1    3    3  503    0  0.58340305375E+02 -0.74233922595E+01 -0.21307921522E+02  0.62728107763E+02  0.47000000000E+01 0. -1.
         -5    1    3    3    0  503  0.19136905004E+01  0.40233079863E+02 -0.17661460671E+03  0.18121029835E+03  0.47000000000E+01 0. -1.
<mgrwt>
<rscale>  0 0.14258843E+03</rscale>
<asrwt>0</asrwt>
<pdfrwt beam="2">  1        5 0.89550968E-01 0.14259249E+03</pdfrwt>
<pdfrwt beam="1">  1       -5 0.57045561E-02 0.14259249E+03</pdfrwt>
<totfact> 0.15867453E+02</totfact>
</mgrwt>
</event>
<event>
 8    1  0.3674342E-007  0.1593383E+03  0.7546771E-02  0.1189453E+00
          5   -1    0    0  501    0  0.00000000000E+00  0.00000000000E+00  0.10725351924E+03  0.10735645015E+03  0.47000000000E+01 0. -1.
         -5   -1    0    0    0  501 -0.00000000000E+00 -0.00000000000E+00 -0.23711862372E+03  0.23716519921E+03  0.47000000000E+01 0. -1.
         25    2    1    2    0    0  0.92888967668E+02  0.33630287639E+02 -0.74141046512E+02  0.17572043741E+03  0.12498568232E+03 0.  0.
         25    2    1    2    0    0 -0.92888967668E+02 -0.33630287639E+02 -0.55724057975E+02  0.16880121195E+03  0.12501728663E+03 0.  0.
          5    1    4    4  502    0 -0.49370333144E+02 -0.77003991297E+02 -0.10140182580E+02  0.92151819153E+02  0.47000000000E+01 0. -1.
         -5    1    4    4    0  502 -0.43518634524E+02  0.43373703658E+02 -0.45583875395E+02  0.76649392795E+02  0.47000000000E+01 0. -1.
          5    1    3    3  503    0  0.65313217043E+01 -0.27479922885E+02  0.19268253627E+02  0.34513184767E+02  0.47000000000E+01 0.  1.
         -5    1    3    3    0  503  0.86357645964E+02  0.61110210524E+02 -0.93409300139E+02  0.14120725264E+03  0.47000000000E+01 0.  1.
<mgrwt>
<rscale>  0 0.15933205E+03</rscale>
<asrwt>0</asrwt>
<pdfrwt beam="1">  1        5 0.16512042E-01 0.15933825E+03</pdfrwt>
<pdfrwt beam="2">  1       -5 0.36491289E-01 0.15933825E+03</pdfrwt>
<totfact> 0.18200819E+02</totfact>
</mgrwt>
</event>
<event>
 8    1  0.3674342E-007  0.1328592E+03  0.7546771E-02  0.1223277E+00
          5   -1    0    0  501    0  0.00000000000E+00  0.00000000000E+00  0.85745400511E+03  0.85746688617E+03  0.47000000000E+01 0. -1.
         -5   -1    0    0    0  501 -0.00000000000E+00 -0.00000000000E+00 -0.20328502449E+02  0.20864755254E+02  0.47000000000E+01 0. -1.
         25    2    1    2    0    0  0.52828362206E+01 -0.44708233841E+02  0.43387986641E+03  0.45376569570E+03  0.12499933434E+03 0.  0.
         25    2    1    2    0    0 -0.52828362206E+01  0.44708233841E+02  0.40324563626E+03  0.42456594573E+03  0.12498985792E+03 0.  0.
          5    1    4    4  502    0  0.16890945062E+02 -0.30963178629E+02  0.43252474165E+02  0.56007936735E+02  0.47000000000E+01 0. -1.
         -5    1    4    4    0  502 -0.22173781283E+02  0.75671412471E+02  0.35999316209E+03  0.36855800900E+03  0.47000000000E+01 0. -1.
          5    1    3    3  503    0  0.13788461449E+02 -0.63998898143E+01  0.40376393158E+03  0.40407732268E+03  0.47000000000E+01 0. -1.
         -5    1    3    3    0  503 -0.85056252285E+01 -0.38308344027E+02  0.30115934826E+02  0.49688373017E+02  0.47000000000E+01 0. -1.
<mgrwt>
<rscale>  0 0.13285698E+03</rscale>
<asrwt>0</asrwt>
<pdfrwt beam="1">  1        5 0.13195822E+00 0.13285920E+03</pdfrwt>
<pdfrwt beam="2">  1       -5 0.31697035E-02 0.13285920E+03</pdfrwt>
<totfact> 0.15565985E+02</totfact>
</mgrwt>
</event>
<event>
 8    1  0.3674342E-007  0.1309383E+03  0.7546771E-02  0.1226096E+00
          5   -1    0    0  501    0  0.00000000000E+00  0.00000000000E+00  0.14225614157E+04  0.14225691798E+04  0.47000000000E+01 0. -1.
         -5   -1    0    0    0  501 -0.00000000000E+00 -0.00000000000E+00 -0.13682400220E+02  0.14467137789E+02  0.47000000000E+01 0. -1.
         25    2    1    2    0    0  0.36496883276E+02 -0.12990473018E+02  0.43100136952E+03  0.45043126977E+03  0.12500149353E+03 0.  0.
         25    2    1    2    0    0 -0.36496883276E+02  0.12990473018E+02  0.97787764595E+03  0.98660504785E+03  0.12507619722E+03 0.  0.
          5    1    4    4  502    0  0.44280579673E+02 -0.96973308416E+01  0.41383115780E+03  0.41633294985E+03  0.47000000000E+01 0.  1.
         -5    1    4    4    0  502 -0.80777462949E+02  0.22687803860E+02  0.56404648815E+03  0.57027209800E+03  0.47000000000E+01 0.  1.
          5    1    3    3  503    0  0.22012547846E+02 -0.68643479132E+02  0.26589045864E+03  0.27552913727E+03  0.47000000000E+01 0.  1.
         -5    1    3    3    0  503  0.14484335430E+02  0.55653006113E+02  0.16511091088E+03  0.17490213250E+03  0.47000000000E+01 0.  1.
<mgrwt>
<rscale>  0 0.13092042E+03</rscale>
<asrwt>0</asrwt>
<pdfrwt beam="1">  1        5 0.21891654E+00 0.13093827E+03</pdfrwt>
<pdfrwt beam="2">  1       -5 0.21659465E-02 0.13093827E+03</pdfrwt>
<totfact> 0.66002635E+01</totfact>
</mgrwt>
</event>
<event>
 8    1  0.3674342E-007  0.1682298E+03  0.7546771E-02  0.1179714E+00
          5   -1    0    0  501    0  0.00000000000E+00  0.00000000000E+00  0.37896571623E+02  0.38186910594E+02  0.47000000000E+01 0. -1.
         -5   -1    0    0    0  501 -0.00000000000E+00 -0.00000000000E+00 -0.93600380492E+03  0.93601560501E+03  0.47000000000E+01 0. -1.
         25    2    1    2    0    0 -0.11189844925E+03 -0.12121744593E+02 -0.66987086972E+03  0.69066575727E+03  0.12499602606E+03 0.  0.
         25    2    1    2    0    0  0.11189844925E+03  0.12121744593E+02 -0.22823636358E+03  0.28353675834E+03  0.12503221997E+03 0.  0.
          5    1    3    3  502    0 -0.13669694250E+03 -0.12705341010E+02 -0.61658712789E+03  0.63170345579E+03  0.47000000000E+01 0. -1.
         -5    1    3    3    0  502  0.24798493251E+02  0.58359641710E+00 -0.53283741822E+02  0.58962301472E+02  0.47000000000E+01 0. -1.
          5    1    4    4  503    0  0.45051669690E+02 -0.60027260604E+01 -0.75449557871E+00  0.45698412725E+02  0.47000000000E+01 0. -1.
         -5    1    4    4    0  503  0.66846779562E+02  0.18124470653E+02 -0.22748186800E+03  0.23783834561E+03  0.47000000000E+01 0. -1.
<mgrwt>
<rscale>  0 0.16822305E+03</rscale>
<asrwt>0</asrwt>
<pdfrwt beam="1">  1        5 0.58534839E-02 0.16822977E+03</pdfrwt>
<pdfrwt beam="2">  1       -5 0.14402381E+00 0.16822977E+03</pdfrwt>
<totfact> 0.48128621E+01</totfact>
</mgrwt>
</event>
<event>
 8    1  0.3674342E-007  0.1441565E+03  0.7546771E-02  0.1207844E+00
          5   -1    0    0  501    0  0.00000000000E+00  0.00000000000E+00  0.12383966892E+03  0.12392882472E+03  0.47000000000E+01 0.  1.
         -5   -1    0    0    0  501 -0.00000000000E+00 -0.00000000000E+00 -0.16936183959E+03  0.16942704244E+03  0.47000000000E+01 0.  1.
         25    2    1    2    0    0 -0.28774443496E+02  0.65783656312E+02 -0.37628358391E+02  0.14898658842E+03  0.12500260852E+03 0.  0.
         25    2    1    2    0    0  0.28774443496E+02 -0.65783656312E+02 -0.78938122845E+01  0.14436927875E+03  0.12499887335E+03 0.  0.
          5    1    3    3  502    0 -0.75107458548E+02  0.26347445051E+02 -0.37141454608E+02  0.87959626197E+02  0.47000000000E+01 0.  1.
         -5    1    3    3    0  502  0.46333015052E+02  0.39436211261E+02 -0.48690378308E+00  0.61026962219E+02  0.47000000000E+01 0.  1.
          5    1    4    4  503    0  0.76276769321E+02 -0.24432213839E+02 -0.11794881852E+02  0.81094314529E+02  0.47000000000E+01 0.  1.
         -5    1    4    4    0  503 -0.47502325825E+02 -0.41351442473E+02  0.39010695680E+01  0.63274964221E+02  0.47000000000E+01 0.  1.
<mgrwt>
<rscale>  0 0.14415574E+03</rscale>
<asrwt>0</asrwt>
<pdfrwt beam="1">  1        5 0.19064131E-01 0.14415655E+03</pdfrwt>
<pdfrwt beam="2">  1       -5 0.26067541E-01 0.14415655E+03</pdfrwt>
<totfact> 0.26237195E+02</totfact>
</mgrwt>
</event>
<event>
 8    1  0.3674342E-007  0.1302802E+03  0.7546771E-02  0.1227041E+00
         -5   -1    0    0    0  501 -0.00000000000E+00  0.00000000000E+00  0.54062314649E+01  0.71636121232E+01  0.47000000000E+01 0. -1.
          5   -1    0    0  501    0  0.00000000000E+00 -0.00000000000E+00 -0.26988124079E+04  0.26988165004E+04  0.47000000000E+01 0. -1.
         25    2    1    2    0    0  0.36088167211E+02  0.67789421478E+01 -0.13415705825E+04  0.13478812895E+04  0.12499613182E+03 0.  0.
         25    2    1    2    0    0 -0.36088167211E+02 -0.67789421478E+01 -0.13518355939E+04  0.13580988230E+04  0.12499852085E+03 0.  0.
          5    1    3    3  502    0  0.36148576266E+02  0.60812976301E+01 -0.13425257866E+04  0.13430343552E+04  0.47000000000E+01 0.  1.
         -5    1    3    3    0  502 -0.60409054775E-01  0.69764451778E+00  0.95520407817E+00  0.48469342845E+01  0.47000000000E+01 0.  1.
          5    1    4    4  503    0 -0.31958221700E+02 -0.57289005165E+02 -0.44475152499E+03  0.44958799698E+03  0.47000000000E+01 0. -1.
         -5    1    4    4    0  503 -0.41299455114E+01  0.50510063017E+02 -0.90708406896E+03  0.90851082606E+03  0.47000000000E+01 0. -1.
<mgrwt>
<rscale>  0 0.13027966E+03</rscale>
<asrwt>0</asrwt>
<pdfrwt beam="2">  1        5 0.41533648E+00 0.13028024E+03</pdfrwt>
<pdfrwt beam="1">  1       -5 0.96722801E-03 0.13028024E+03</pdfrwt>
<totfact> 0.12164759E+01</totfact>
</mgrwt>
</event>
<event>
 8    1  0.3674342E-007  0.1266545E+03  0.7546771E-02  0.1232506E+00
          5   -1    0    0  501    0  0.00000000000E+00  0.00000000000E+00  0.27762934912E+03  0.27766912953E+03  0.47000000000E+01 0.  1.
         -5   -1    0    0    0  501 -0.00000000000E+00 -0.00000000000E+00 -0.60116182745E+02  0.60299630412E+02  0.47000000000E+01 0.  1.
         25    2    1    2    0    0 -0.12948237687E+02  0.15776992719E+02  0.74523634741E+02  0.14695206635E+03  0.12499826923E+03 0.  0.
         25    2    1    2    0    0  0.12948237687E+02 -0.15776992719E+02  0.14298953164E+03  0.19101669360E+03  0.12499920286E+03 0.  0.
          5    1    3    3  502    0  0.43138163912E+02 -0.23735253945E+02  0.58002680209E+02  0.76227713969E+02  0.47000000000E+01 0.  1.
         -5    1    3    3    0  502 -0.56086401600E+02  0.39512246664E+02  0.16520954532E+02  0.70724352379E+02  0.47000000000E+01 0.  1.
          5    1    4    4  503    0  0.63476508968E+02 -0.94782549930E+01  0.39299696865E+02  0.75403320101E+02  0.47000000000E+01 0.  1.
         -5    1    4    4    0  503 -0.50528271281E+02 -0.62987377255E+01  0.10368983477E+03  0.11561337349E+03  0.47000000000E+01 0.  1.
<mgrwt>
<rscale>  0 0.12665430E+03</rscale>
<asrwt>0</asrwt>
<pdfrwt beam="1">  1        5 0.42729379E-01 0.12665453E+03</pdfrwt>
<pdfrwt beam="2">  1       -5 0.92658150E-02 0.12665453E+03</pdfrwt>
<totfact> 0.34098139E+02</totfact>
</mgrwt>
</event>
<event>
 8    1  0.3674342E-007  0.1298235E+03  0.7546771E-02  0.1227723E+00
         -5   -1    0    0    0  501 -0.00000000000E+00  0.00000000000E+00  0.14128389003E+02  0.14889639882E+02  0.47000000000E+01 0. -1.
          5   -1    0    0  501    0  0.00000000000E+00 -0.00000000000E+00 -0.11890590105E+04  0.11890682993E+04  0.47000000000E+01 0. -1.
         25    2    1    2    0    0 -0.28564934257E+02 -0.20371183592E+02 -0.49454750525E+03  0.51129978465E+03  0.12497717488E+03 0.  0.
         25    2    1    2    0    0  0.28564934257E+02  0.20371183592E+02 -0.68038311622E+03  0.69265815453E+03  0.12499277423E+03 0.  0.
          5    1    3    3  502    0 -0.31451861894E+02 -0.43006061600E+02 -0.80814548385E+02  0.96911414093E+02  0.47000000000E+01 0. -1.
         -5    1    3    3    0  502  0.28869276376E+01  0.22634878008E+02 -0.41373295686E+03  0.41438837055E+03  0.47000000000E+01 0. -1.
          5    1    4    4  503    0  0.50232394597E+02 -0.37119201256E+01 -0.10715610209E+03  0.11849722374E+03  0.47000000000E+01 0.  1.
         -5    1    4    4    0  503 -0.21667460341E+02  0.24083103718E+02 -0.57322701412E+03  0.57416093079E+03  0.47000000000E+01 0.  1.
<mgrwt>
<rscale>  0 0.12981972E+03</rscale>
<asrwt>0</asrwt>
<pdfrwt beam="2">  1        5 0.18299135E+00 0.12982347E+03</pdfrwt>
<pdfrwt beam="1">  1       -5 0.22328715E-02 0.12982347E+03</pdfrwt>
<totfact> 0.10954724E+02</totfact>
</mgrwt>
</event>
<event>
 8    1  0.3674342E-007  0.1654597E+03  0.7546771E-02  0.1182668E+00
          5   -1    0    0  501    0  0.00000000000E+00  0.00000000000E+00  0.29636337396E+03  0.29640064005E+03  0.47000000000E+01 0.  1.
         -5   -1    0    0    0  501 -0.00000000000E+00 -0.00000000000E+00 -0.10808130299E+03  0.10818344631E+03  0.47000000000E+01 0.  1.
         25    2    1    2    0    0  0.10828214652E+03 -0.50110409988E+01  0.16822426418E+02  0.16630835378E+03  0.12500136287E+03 0.  0.
         25    2    1    2    0    0 -0.10828214652E+03  0.50110409988E+01  0.17145964455E+03  0.23827573258E+03  0.12500712476E+03 0.  0.
          5    1    3    3  502    0  0.69418639220E+02  0.10896355649E+02 -0.50614166948E+02  0.86726938914E+02  0.47000000000E+01 0.  1.
         -5    1    3    3    0  502  0.38863507301E+02 -0.15907396647E+02  0.67436593366E+02  0.79581414869E+02  0.47000000000E+01 0.  1.
          5    1    4    4  503    0 -0.10199213886E+03  0.47273725347E+02  0.82642827317E+02  0.13960346845E+03  0.47000000000E+01 0.  1.
         -5    1    4    4    0  503 -0.62900076617E+01 -0.42262684348E+02  0.88816817232E+02  0.98672264126E+02  0.47000000000E+01 0.  1.
<mgrwt>
<rscale>  0 0.16545862E+03</rscale>
<asrwt>0</asrwt>
<pdfrwt beam="1">  1        5 0.45605090E-01 0.16545971E+03</pdfrwt>
<pdfrwt beam="2">  1       -5 0.16638616E-01 0.16545971E+03</pdfrwt>
<totfact> 0.11474266E+02</totfact>
</mgrwt>
</event>
<event>
 8    1  0.3674342E-007  0.1391096E+03  0.7546771E-02  0.1214533E+00
          5   -1    0    0  501    0  0.00000000000E+00  0.00000000000E+00  0.27711719705E+03  0.27715705097E+03  0.47000000000E+01 0. -1.
         -5   -1    0    0    0  501 -0.00000000000E+00 -0.00000000000E+00 -0.81733675921E+02  0.81868698411E+02  0.47000000000E+01 0. -1.
         25    2    1    2    0    0  0.42684815495E+02  0.43644094516E+02  0.28909620775E+02  0.14208186515E+03  0.12499875907E+03 0.  0.
         25    2    1    2    0    0 -0.42684815495E+02 -0.43644094516E+02  0.16647390035E+03  0.21694388423E+03  0.12499715575E+03 0.  0.
          5    1    3    3  502    0 -0.48305281990E+01 -0.74835235520E+01  0.63323524051E+02  0.64119387284E+02  0.47000000000E+01 0. -1.
         -5    1    3    3    0  502  0.47515343694E+02  0.51127618068E+02 -0.34413903276E+02  0.77962477862E+02  0.47000000000E+01 0. -1.
          5    1    4    4  503    0  0.27788398621E+02 -0.57928488398E+02  0.57799015784E+02  0.86548951996E+02  0.47000000000E+01 0.  1.
         -5    1    4    4    0  503 -0.70473214117E+02  0.14284393881E+02  0.10867488457E+03  0.13039493223E+03  0.47000000000E+01 0.  1.
<mgrwt>
<rscale>  0 0.13910927E+03</rscale>
<asrwt>0</asrwt>
<pdfrwt beam="1">  1        5 0.42646867E-01 0.13910963E+03</pdfrwt>
<pdfrwt beam="2">  1       -5 0.12587864E-01 0.13910963E+03</pdfrwt>
<totfact> 0.20661277E+02</totfact>
</mgrwt>
</event>
<event>
 8    1  0.3674342E-007  0.1330804E+03  0.7546771E-02  0.1222960E+00
         -5   -1    0    0    0  501 -0.00000000000E+00  0.00000000000E+00  0.37560622525E+02  0.37853538335E+02  0.47000000000E+01 0. -1.
          5   -1    0    0  501    0  0.00000000000E+00 -0.00000000000E+00 -0.48689279916E+03  0.48691548329E+03  0.47000000000E+01 0. -1.
         25    2    1    2    0    0  0.22916977753E+02 -0.39464219623E+02 -0.17484818358E+03  0.21972499108E+03  0.12499828761E+03 0.  0.
         25    2    1    2    0    0 -0.22916977753E+02  0.39464219623E+02 -0.27448399305E+03  0.30504403055E+03  0.12501114202E+03 0.  0.
          5    1    3    3  502    0 -0.57622718111E+01 -0.81382332585E+02 -0.99915169583E+02  0.12907911894E+03  0.47000000000E+01 0.  1.
         -5    1    3    3    0  502  0.28679249564E+02  0.41918112963E+02 -0.74933013998E+02  0.90645872144E+02  0.47000000000E+01 0.  1.
          5    1    4    4  503    0 -0.66281388491E+02  0.35397715867E+01 -0.20473621592E+03  0.21527833275E+03  0.47000000000E+01 0.  1.
         -5    1    4    4    0  503  0.43364410739E+02  0.35924448036E+02 -0.69747777130E+02  0.89765697791E+02  0.47000000000E+01 0.  1.
<mgrwt>
<rscale>  0 0.13307740E+03</rscale>
<asrwt>0</asrwt>
<pdfrwt beam="2">  1        5 0.74930857E-01 0.13308042E+03</pdfrwt>
<pdfrwt beam="1">  1       -5 0.58028346E-02 0.13308042E+03</pdfrwt>
<totfact> 0.22811931E+02</totfact>
</mgrwt>
</event>
<event>
 8    1  0.3674342E-007  0.1439814E+03  0.7546771E-02  0.1208070E+00
         -5   -1    0    0    0  501 -0.00000000000E+00  0.00000000000E+00  0.27636568292E+03  0.27640564519E+03  0.47000000000E+01 0.  1.
          5   -1    0    0  501    0  0.00000000000E+00 -0.00000000000E+00 -0.83596464306E+02  0.83728482875E+02  0.47000000000E+01 0.  1.
         25    2    1    2    0    0  0.57185243572E+02 -0.42841412916E+02  0.15442514793E+03  0.21113438312E+03  0.12500025071E+03 0.  0.
         25    2    1    2    0    0 -0.57185243572E+02  0.42841412916E+02  0.38344070680E+02  0.14899974495E+03  0.12500046998E+03 0.  0.
          5    1    3    3  502    0 -0.11651383133E+02 -0.59916192403E+02  0.11391375356E+03  0.12932183919E+03  0.47000000000E+01 0.  1.
         -5    1    3    3    0  502  0.68836626705E+02  0.17074779486E+02  0.40511394376E+02  0.81812543934E+02  0.47000000000E+01 0.  1.
          5    1    4    4  503    0 -0.41600834390E+02  0.59426871025E+02  0.75734454013E+02  0.10497609226E+03  0.47000000000E+01 0.  1.
         -5    1    4    4    0  503 -0.15584409182E+02 -0.16585458109E+02 -0.37390383333E+02  0.44023652688E+02  0.47000000000E+01 0.  1.
<mgrwt>
<rscale>  0 0.14398140E+03</rscale>
<asrwt>0</asrwt>
<pdfrwt beam="2">  1        5 0.12874224E-01 0.14398144E+03</pdfrwt>
<pdfrwt beam="1">  1       -5 0.42531027E-01 0.14398144E+03</pdfrwt>
<totfact> 0.20191275E+02</totfact>
</mgrwt>
</event>
<event>
 8    1  0.3674342E-007  0.1571643E+03  0.7546771E-02  0.1191937E+00
         -5   -1    0    0    0  501 -0.00000000000E+00  0.00000000000E+00  0.57462603270E+03  0.57464525357E+03  0.47000000000E+01 0.  1.
          5   -1    0    0  501    0  0.00000000000E+00 -0.00000000000E+00 -0.42835947987E+02  0.43093020780E+02  0.47000000000E+01 0.  1.
         25    2    1    2    0    0  0.62893614170E+02  0.71545959581E+02  0.26624511354E+03  0.30916941389E+03  0.12499933987E+03 0.  0.
         25    2    1    2    0    0 -0.62893614170E+02 -0.71545959581E+02  0.26554497117E+03  0.30856886046E+03  0.12500471549E+03 0.  0.
          5    1    4    4  502    0 -0.10986315392E+02 -0.40451280326E+01  0.20155697667E+03  0.20195139770E+03  0.47000000000E+01 0.  1.
         -5    1    4    4    0  502 -0.51907298777E+02 -0.67500831548E+02  0.63987994502E+02  0.10661746276E+03  0.47000000000E+01 0.  1.
          5    1    3    3  503    0  0.79519106866E+02  0.87157248388E+02  0.25922354435E+03  0.28484839871E+03  0.47000000000E+01 0.  1.
         -5    1    3    3    0  503 -0.16625492696E+02 -0.15611288808E+02  0.70215691916E+01  0.24321015183E+02  0.47000000000E+01 0.  1.
<mgrwt>
<rscale>  0 0.15716321E+03</rscale>
<asrwt>0</asrwt>
<pdfrwt beam="2">  1        5 0.66113995E-02 0.15716428E+03</pdfrwt>
<pdfrwt beam="1">  1       -5 0.88425255E-01 0.15716428E+03</pdfrwt>
<totfact> 0.13153408E+02</totfact>
</mgrwt>
</event>
<event>
 8    1  0.3674342E-007  0.1606618E+03  0.7546771E-02  0.1187952E+00
          5   -1    0    0  501    0  0.00000000000E+00  0.00000000000E+00  0.36857950012E+03  0.36860946530E+03  0.47000000000E+01 0.  1.
         -5   -1    0    0    0  501 -0.00000000000E+00 -0.00000000000E+00 -0.71499205091E+02  0.71653515815E+02  0.47000000000E+01 0.  1.
         25    2    1    2    0    0 -0.10087595440E+03  0.34921176257E+01  0.11585421833E+03  0.19807679991E+03  0.12499626273E+03 0.  0.
         25    2    1    2    0    0  0.10087595440E+03 -0.34921176257E+01  0.18122607670E+03  0.24218618120E+03  0.12499240947E+03 0.  0.
          5    1    4    4  502    0  0.93632612754E+02 -0.54539920975E+02  0.13073739610E+03  0.16987061515E+03  0.47000000000E+01 0.  1.
         -5    1    4    4    0  502  0.72433416508E+01  0.51047803349E+02  0.50488680592E+02  0.72315566049E+02  0.47000000000E+01 0.  1.
          5    1    3    3  503    0  0.10818114823E+02 -0.43430193263E+01 -0.18971247164E+02  0.22757232788E+02  0.47000000000E+01 0.  1.
         -5    1    3    3    0  503 -0.11169406923E+03  0.78351369520E+01  0.13482546549E+03  0.17531956712E+03  0.47000000000E+01 0.  1.
<mgrwt>
<rscale>  0 0.16066107E+03</rscale>
<asrwt>0</asrwt>
<pdfrwt beam="1">  1        5 0.56718714E-01 0.16066181E+03</pdfrwt>
<pdfrwt beam="2">  1       -5 0.11014053E-01 0.16066181E+03</pdfrwt>
<totfact> 0.15000159E+02</totfact>
</mgrwt>
</event>
<event>
 8    1  0.3674342E-007  0.1467618E+03  0.7546771E-02  0.1204514E+00
          5   -1    0    0  501    0  0.00000000000E+00  0.00000000000E+00  0.19892837570E+03  0.19898389045E+03  0.47000000000E+01 0.  1.
         -5   -1    0    0    0  501 -0.00000000000E+00 -0.00000000000E+00 -0.14759774232E+03  0.14767255513E+03  0.47000000000E+01 0.  1.
         25    2    1    2    0    0  0.74769792702E+02  0.17845627620E+02 -0.63905541846E+02  0.16005951067E+03  0.12500456132E+03 0.  0.
         25    2    1    2    0    0 -0.74769792702E+02 -0.17845627620E+02  0.11523617523E+03  0.18659693491E+03  0.12502020521E+03 0.  0.
          5    1    3    3  502    0 -0.17812748167E+02 -0.34065071997E+02 -0.28445696167E+02  0.48051750830E+02  0.47000000000E+01 0.  1.
         -5    1    3    3    0  502  0.92582540869E+02  0.51910699617E+02 -0.35459845679E+02  0.11200775984E+03  0.47000000000E+01 0.  1.
          5    1    4    4  503    0 -0.54607272241E+02  0.46057909926E+02  0.28895386136E+02  0.77203099603E+02  0.47000000000E+01 0.  1.
         -5    1    4    4    0  503 -0.20162520461E+02 -0.63903537546E+02  0.86340789091E+02  0.10939383531E+03  0.47000000000E+01 0.  1.
<mgrwt>
<rscale>  0 0.14675852E+03</rscale>
<asrwt>0</asrwt>
<pdfrwt beam="1">  1        5 0.30614391E-01 0.14676185E+03</pdfrwt>
<pdfrwt beam="2">  1       -5 0.22717370E-01 0.14676185E+03</pdfrwt>
<totfact> 0.13883985E+02</totfact>
</mgrwt>
</event>
<event>
 8    1  0.3674342E-007  0.1509867E+03  0.7546771E-02  0.1199270E+00
         -5   -1    0    0    0  501 -0.00000000000E+00  0.00000000000E+00  0.36480638278E+03  0.36483665785E+03  0.47000000000E+01 0.  1.
          5   -1    0    0  501    0  0.00000000000E+00 -0.00000000000E+00 -0.82134980863E+02  0.82269344724E+02  0.47000000000E+01 0.  1.
         25    2    1    2    0    0  0.58974853679E+02 -0.60741310729E+02  0.25088818684E+03  0.29281033285E+03  0.12500187411E+03 0.  0.
         25    2    1    2    0    0 -0.58974853679E+02  0.60741310729E+02  0.31783215073E+02  0.15429566973E+03  0.12501776170E+03 0.  0.
          5    1    3    3  502    0  0.86313317084E+01 -0.10478549206E+02 -0.13052517979E+02  0.19410257755E+02  0.47000000000E+01 0. -1.
         -5    1    3    3    0  502  0.50343521970E+02 -0.50262761522E+02  0.26394070482E+03  0.27340007509E+03  0.47000000000E+01 0. -1.
          5    1    4    4  503    0  0.37826487689E+02  0.21805461950E+02  0.22762780730E+02  0.49462668026E+02  0.47000000000E+01 0.  1.
         -5    1    4    4    0  503 -0.96801341367E+02  0.38935848779E+02  0.90204343434E+01  0.10483300170E+03  0.47000000000E+01 0.  1.
<mgrwt>
<rscale>  0 0.15098340E+03</rscale>
<asrwt>0</asrwt>
<pdfrwt beam="2">  1        5 0.12648815E-01 0.15098669E+03</pdfrwt>
<pdfrwt beam="1">  1       -5 0.56136723E-01 0.15098669E+03</pdfrwt>
<totfact> 0.11766107E+02</totfact>
</mgrwt>
</event>
<event>
 8    1  0.3674342E-007  0.1606091E+03  0.7546771E-02  0.1188011E+00
          5   -1    0    0  501    0  0.00000000000E+00  0.00000000000E+00  0.20192368251E+03  0.20197837399E+03  0.47000000000E+01 0. -1.
         -5   -1    0    0    0  501 -0.00000000000E+00 -0.00000000000E+00 -0.28258758404E+03  0.28262666657E+03  0.47000000000E+01 0. -1.
         25    2    1    2    0    0  0.99512120048E+02  0.16360077190E+02 -0.21972040163E+03  0.27216215563E+03  0.12499947962E+03 0.  0.
         25    2    1    2    0    0 -0.99512120048E+02 -0.16360077190E+02  0.13905650010E+03  0.21244288492E+03  0.12499981989E+03 0.  0.
          5    1    3    3  502    0  0.54381883894E+02 -0.45777101628E+02 -0.53805127844E+02  0.89274935517E+02  0.47000000000E+01 0. -1.
         -5    1    3    3    0  502  0.45130236154E+02  0.62137178818E+02 -0.16591527379E+03  0.18288722012E+03  0.47000000000E+01 0. -1.
          5    1    4    4  503    0  0.70133234956E+01  0.38645291930E+02  0.24340826554E+02  0.46445787022E+02  0.47000000000E+01 0.  1.
         -5    1    4    4    0  503 -0.10652544354E+03 -0.55005369120E+02  0.11471567355E+03  0.16599709790E+03  0.47000000000E+01 0.  1.
<mgrwt>
<rscale>  0 0.16060899E+03</rscale>
<asrwt>0</asrwt>
<pdfrwt beam="1">  1        5 0.31072395E-01 0.16060906E+03</pdfrwt>
<pdfrwt beam="2">  1       -5 0.43482226E-01 0.16060906E+03</pdfrwt>
<totfact> 0.38304114E+01</totfact>
</mgrwt>
</event>
<event>
 8    1  0.3674342E-007  0.1250207E+03  0.7546771E-02  0.1235038E+00
         -5   -1    0    0    0  501 -0.00000000000E+00  0.00000000000E+00  0.49426187516E+02  0.49649149161E+02  0.47000000000E+01 0.  1.
          5   -1    0    0  501    0  0.00000000000E+00 -0.00000000000E+00 -0.32091221239E+03  0.32094662806E+03  0.47000000000E+01 0.  1.
         25    2    1    2    0    0 -0.75319159188E+00 -0.20147214087E+01 -0.16029486195E+03  0.20328275093E+03  0.12499923063E+03 0.  0.
         25    2    1    2    0    0  0.75319159188E+00  0.20147214087E+01 -0.11119116292E+03  0.16731302629E+03  0.12500219060E+03 0.  0.
          5    1    4    4  502    0 -0.41037979053E+02  0.33488968092E+02 -0.10050960554E+03  0.11370970721E+03  0.47000000000E+01 0. -1.
         -5    1    4    4    0  502  0.41791170645E+02 -0.31474246683E+02 -0.10681557385E+02  0.53603319079E+02  0.47000000000E+01 0. -1.
          5    1    3    3  503    0  0.49097664054E+02 -0.38669872456E+02 -0.73637118765E+02  0.96697750291E+02  0.47000000000E+01 0. -1.
         -5    1    3    3    0  503 -0.49850855645E+02  0.36655151047E+02 -0.86657743185E+02  0.10658500064E+03  0.47000000000E+01 0. -1.
<mgrwt>
<rscale>  0 0.12501995E+03</rscale>
<asrwt>0</asrwt>
<pdfrwt beam="2">  1        5 0.49390906E-01 0.12502069E+03</pdfrwt>
<pdfrwt beam="1">  1       -5 0.76238273E-02 0.12502069E+03</pdfrwt>
<totfact> 0.35068561E+02</totfact>
</mgrwt>
</event>
<event>
 8    1  0.3674342E-007  0.1751106E+03  0.7546771E-02  0.1172622E+00
         -5   -1    0    0    0  501 -0.00000000000E+00  0.00000000000E+00  0.40065976596E+03  0.40068733205E+03  0.47000000000E+01 0.  1.
          5   -1    0    0  501    0  0.00000000000E+00 -0.00000000000E+00 -0.79427739219E+02  0.79566674917E+02  0.47000000000E+01 0.  1.
         25    2    1    2    0    0 -0.44035473904E+02  0.11444991502E+03  0.20722082898E+03  0.27129884250E+03  0.12499873587E+03 0.  0.
         25    2    1    2    0    0  0.44035473904E+02 -0.11444991502E+03  0.11401119777E+03  0.20895516446E+03  0.12500320608E+03 0.  0.
          5    1    3    3  502    0 -0.28637780854E+02  0.49589906026E+01 -0.69270048214E+01  0.30245453804E+02  0.47000000000E+01 0. -1.
         -5    1    3    3    0  502 -0.15397693050E+02  0.10949092442E+03  0.21414783380E+03  0.24105338870E+03  0.47000000000E+01 0. -1.
          5    1    4    4  503    0 -0.24587124283E+02 -0.71406923822E+02  0.89300351090E+01  0.76192591354E+02  0.47000000000E+01 0.  1.
         -5    1    4    4    0  503  0.68622598186E+02 -0.43042991197E+02  0.10508116266E+03  0.13276257311E+03  0.47000000000E+01 0.  1.
<mgrwt>
<rscale>  0 0.17510976E+03</rscale>
<asrwt>0</asrwt>
<pdfrwt beam="2">  1        5 0.12232460E-01 0.17511056E+03</pdfrwt>
<pdfrwt beam="1">  1       -5 0.61652772E-01 0.17511056E+03</pdfrwt>
<totfact> 0.10642191E+02</totfact>
</mgrwt>
</event>
<event>
 8    1  0.3674342E-007  0.1807217E+03  0.7546771E-02  0.1167108E+00
         -5   -1    0    0    0  501 -0.00000000000E+00  0.00000000000E+00  0.91752080177E+02  0.91872380054E+02  0.47000000000E+01 0.  1.
          5   -1    0    0  501    0  0.00000000000E+00 -0.00000000000E+00 -0.36694284712E+03  0.36697294594E+03  0.47000000000E+01 0.  1.
         25    2    1    2    0    0  0.11171389749E+03  0.67482273680E+02 -0.97235642393E+02  0.20521496993E+03  0.12499824629E+03 0.  0.
         25    2    1    2    0    0 -0.11171389749E+03 -0.67482273680E+02 -0.17795512455E+03  0.25363035607E+03  0.12500591591E+03 0.  0.
          5    1    3    3  502    0  0.43567043037E+02  0.89661278787E+02 -0.87529079864E+02  0.13274284152E+03  0.47000000000E+01 0. -1.
         -5    1    3    3    0  502  0.68146854455E+02 -0.22179005107E+02 -0.97065625288E+01  0.72472128407E+02  0.47000000000E+01 0. -1.
          5    1    4    4  503    0 -0.87917613084E+02 -0.10291796973E+03 -0.15140487641E+03  0.20314315589E+03  0.47000000000E+01 0. -1.
         -5    1    4    4    0  503 -0.23796284408E+02  0.35435696046E+02 -0.26550248143E+02  0.50487200183E+02  0.47000000000E+01 0. -1.
<mgrwt>
<rscale>  0 0.18072037E+03</rscale>
<asrwt>0</asrwt>
<pdfrwt beam="2">  1        5 0.56464314E-01 0.18072170E+03</pdfrwt>
<pdfrwt beam="1">  1       -5 0.14127274E-01 0.18072170E+03</pdfrwt>
<totfact> 0.10055998E+02</totfact>
</mgrwt>
</event>
<event>
 8    1  0.3674342E-007  0.1403695E+03  0.7546771E-02  0.1212855E+00
          5   -1    0    0  501    0  0.00000000000E+00  0.00000000000E+00  0.80003994177E+03  0.80005374722E+03  0.47000000000E+01 0.  1.
         -5   -1    0    0    0  501 -0.00000000000E+00 -0.00000000000E+00 -0.57030609684E+02  0.57223949889E+02  0.47000000000E+01 0. -1.
         25    2    1    2    0    0  0.53359742803E+01 -0.63497688447E+02  0.48076853720E+02  0.14831031849E+03  0.12499655054E+03 0.  0.
         25    2    1    2    0    0 -0.53359742803E+01  0.63497688447E+02  0.69493247837E+03  0.70896737861E+03  0.12507264043E+03 0.  0.
          5    1    4    4  502    0 -0.25884597131E+02  0.55571156771E+02  0.67802405301E+03  0.68080604602E+03  0.47000000000E+01 0. -1.
         -5    1    4    4    0  502  0.20548622850E+02  0.79265316757E+01  0.16908425361E+02  0.28161332597E+02  0.47000000000E+01 0. -1.
          5    1    3    3  503    0  0.12139658154E+02  0.70932178111E+01  0.71852123363E+02  0.73365541440E+02  0.47000000000E+01 0. -1.
         -5    1    3    3    0  503 -0.68036838736E+01 -0.70590906258E+02 -0.23775269643E+02  0.74944777051E+02  0.47000000000E+01 0. -1.
<mgrwt>
<rscale>  0 0.14035254E+03</rscale>
<asrwt>0</asrwt>
<pdfrwt beam="1">  1        5 0.12309899E+00 0.14036949E+03</pdfrwt>
<pdfrwt beam="2">  1       -5 0.87898751E-02 0.14036949E+03</pdfrwt>
<totfact> 0.34557471E+01</totfact>
</mgrwt>
</event>
<event>
 8    1  0.3674342E-007  0.1468542E+03  0.7546771E-02  0.1204394E+00
         -5   -1    0    0    0  501 -0.00000000000E+00  0.00000000000E+00  0.12947001928E+02  0.13773701715E+02  0.47000000000E+01 0. -1.
          5   -1    0    0  501    0  0.00000000000E+00 -0.00000000000E+00 -0.17679707119E+04  0.17679769591E+04  0.47000000000E+01 0. -1.
         25    2    1    2    0    0 -0.45968322252E+02 -0.61863451326E+02 -0.61406910942E+03  0.63138396035E+03  0.12499864392E+03 0.  0.
         25    2    1    2    0    0  0.45968322252E+02  0.61863451326E+02 -0.11409546005E+04  0.11503667005E+04  0.12500388756E+03 0.  0.
          5    1    3    3  502    0 -0.38234168237E+00 -0.11850369640E+02  0.80487397557E+00  0.12779486213E+02  0.47000000000E+01 0. -1.
         -5    1    3    3    0  502 -0.45585980570E+02 -0.50013081686E+02 -0.61487398340E+03  0.61860447414E+03  0.47000000000E+01 0. -1.
          5    1    4    4  503    0 -0.23532375201E+02  0.70740363528E+02 -0.68057991252E+03  0.68466713010E+03  0.47000000000E+01 0. -1.
         -5    1    4    4    0  503  0.69500697453E+02 -0.88769122028E+01 -0.46037468799E+03  0.46569957039E+03  0.47000000000E+01 0. -1.
<mgrwt>
<rscale>  0 0.14685305E+03</rscale>
<asrwt>0</asrwt>
<pdfrwt beam="2">  1        5 0.27205938E+00 0.14685416E+03</pdfrwt>
<pdfrwt beam="1">  1       -5 0.20559207E-02 0.14685416E+03</pdfrwt>
<totfact> 0.33924359E+01</totfact>
</mgrwt>
</event>
<event>
 8    1  0.3674342E-007  0.1487598E+03  0.7546771E-02  0.1202005E+00
         -5   -1    0    0    0  501 -0.00000000000E+00  0.00000000000E+00  0.44533802601E+02  0.44781129666E+02  0.47000000000E+01 0. -1.
          5   -1    0    0  501    0  0.00000000000E+00 -0.00000000000E+00 -0.60460583110E+03  0.60462409892E+03  0.47000000000E+01 0. -1.
         25    2    1    2    0    0  0.72462538489E+02  0.35401261478E+02 -0.14199132522E+03  0.20564747218E+03  0.12500111031E+03 0.  0.
         25    2    1    2    0    0 -0.72462538489E+02 -0.35401261478E+02 -0.41808070328E+03  0.44375775641E+03  0.12500161247E+03 0.  0.
          5    1    3    3  502    0  0.40081527967E+02 -0.17234652434E+02 -0.13655475212E+03  0.14343239681E+03  0.47000000000E+01 0.  1.
         -5    1    3    3    0  502  0.32381010522E+02  0.52635913912E+02 -0.54365730952E+01  0.62215075366E+02  0.47000000000E+01 0.  1.
          5    1    4    4  503    0 -0.10336419530E+03 -0.42534251566E+02 -0.36486472525E+03  0.38163028857E+03  0.47000000000E+01 0.  1.
         -5    1    4    4    0  503  0.30901656816E+02  0.71329900880E+01 -0.53215978031E+02  0.62127467833E+02  0.47000000000E+01 0.  1.
<mgrwt>
<rscale>  0 0.14875967E+03</rscale>
<asrwt>0</asrwt>
<pdfrwt beam="2">  1        5 0.93036707E-01 0.14875978E+03</pdfrwt>
<pdfrwt beam="1">  1       -5 0.68717850E-02 0.14875978E+03</pdfrwt>
<totfact> 0.10727001E+02</totfact>
</mgrwt>
</event>
<event>
 8    1  0.3674342E-007  0.1358904E+03  0.7546771E-02  0.1218968E+00
         -5   -1    0    0    0  501 -0.00000000000E+00  0.00000000000E+00  0.68939589761E+03  0.68941191870E+03  0.47000000000E+01 0. -1.
          5   -1    0    0  501    0  0.00000000000E+00 -0.00000000000E+00 -0.26644960010E+02  0.27056309688E+02  0.47000000000E+01 0. -1.
         25    2    1    2    0    0 -0.11818793181E+02 -0.51978753315E+02  0.31171171383E+03  0.34004468830E+03  0.12499889134E+03 0.  0.
         25    2    1    2    0    0  0.11818793181E+02  0.51978753315E+02  0.35103922377E+03  0.37642354008E+03  0.12499868093E+03 0.  0.
          5    1    4    4  502    0 -0.19919791233E+02  0.82239088803E+02  0.16824431428E+03  0.18838339921E+03  0.47000000000E+01 0. -1.
         -5    1    4    4    0  502  0.31738584413E+02 -0.30260335488E+02  0.18279490949E+03  0.18804014087E+03  0.47000000000E+01 0. -1.
          5    1    3    3  503    0  0.37145987406E+02 -0.73093992516E+02  0.17883987576E+03  0.19679519121E+03  0.47000000000E+01 0.  1.
         -5    1    3    3    0  503 -0.48964780587E+02  0.21115239201E+02  0.13287183807E+03  0.14324949709E+03  0.47000000000E+01 0.  1.
<mgrwt>
<rscale>  0 0.13589034E+03</rscale>
<asrwt>0</asrwt>
<pdfrwt beam="2">  1        5 0.41320993E-02 0.13589039E+03</pdfrwt>
<pdfrwt beam="1">  1       -5 0.10609378E+00 0.13589039E+03</pdfrwt>
<totfact> 0.17695298E+02</totfact>
</mgrwt>
</event>
<event>
 8    1  0.3674342E-007  0.1291512E+03  0.7546771E-02  0.1228724E+00
          5   -1    0    0  501    0  0.00000000000E+00  0.00000000000E+00  0.48639213719E+02  0.48865766250E+02  0.47000000000E+01 0. -1.
         -5   -1    0    0    0  501 -0.00000000000E+00 -0.00000000000E+00 -0.35492086894E+03  0.35495198719E+03  0.47000000000E+01 0. -1.
         25    2    1    2    0    0 -0.26586339276E+02  0.18604947673E+02 -0.19184009371E+03  0.23125786568E+03  0.12499840546E+03 0.  0.
         25    2    1    2    0    0  0.26586339276E+02 -0.18604947673E+02 -0.11444156151E+03  0.17255988776E+03  0.12500826513E+03 0.  0.
          5    1    3    3  502    0 -0.36163033941E+02 -0.37644013424E+01  0.11539479111E+01  0.36679113090E+02  0.47000000000E+01 0. -1.
         -5    1    3    3    0  502  0.95766946652E+01  0.22369349015E+02 -0.19299404163E+03  0.19457875259E+03  0.47000000000E+01 0. -1.
          5    1    4    4  503    0  0.28725376497E+02 -0.67138591552E+02 -0.95251507184E+02  0.12011526694E+03  0.47000000000E+01 0. -1.
         -5    1    4    4    0  503 -0.21390372210E+01  0.48533643879E+02 -0.19190054323E+02  0.52444620824E+02  0.47000000000E+01 0. -1.
<mgrwt>
<rscale>  0 0.12914886E+03</rscale>
<asrwt>0</asrwt>
<pdfrwt beam="1">  1        5 0.75027770E-02 0.12915124E+03</pdfrwt>
<pdfrwt beam="2">  1       -5 0.54623030E-01 0.12915124E+03</pdfrwt>
<totfact> 0.29430447E+02</totfact>
</mgrwt>
</event>
<event>
 8    1  0.3674342E-007  0.1734926E+03  0.7546771E-02  0.1174254E+00
         -5   -1    0    0    0  501 -0.00000000000E+00  0.00000000000E+00  0.34978870019E+03  0.34982027497E+03  0.47000000000E+01 0.  1.
          5   -1    0    0  501    0  0.00000000000E+00 -0.00000000000E+00 -0.95989464874E+02  0.96104460702E+02  0.47000000000E+01 0.  1.
         25    2    1    2    0    0  0.61799253929E+02 -0.10322493535E+03  0.19894433488E+03  0.26396667688E+03  0.12500009224E+03 0.  0.
         25    2    1    2    0    0 -0.61799253929E+02  0.10322493535E+03  0.54854900438E+02  0.18195805879E+03  0.12500055997E+03 0.  0.
          5    1    3    3  502    0 -0.27333630380E+02 -0.74043029563E+02  0.80823630323E+02  0.11306655914E+03  0.47000000000E+01 0. -1.
         -5    1    3    3    0  502  0.89132884309E+02 -0.29181905785E+02  0.11812070455E+03  0.15090011774E+03  0.47000000000E+01 0. -1.
          5    1    4    4  503    0  0.25067129210E+02  0.79243846354E+02  0.27163326630E+02  0.87566457422E+02  0.47000000000E+01 0.  1.
         -5    1    4    4    0  503 -0.86866383139E+02  0.23981088994E+02  0.27691573808E+02  0.94391601369E+02  0.47000000000E+01 0.  1.
<mgrwt>
<rscale>  0 0.17349250E+03</rscale>
<asrwt>0</asrwt>
<pdfrwt beam="2">  1        5 0.14778885E-01 0.17349258E+03</pdfrwt>
<pdfrwt beam="1">  1       -5 0.53824920E-01 0.17349258E+03</pdfrwt>
<totfact> 0.10157999E+02</totfact>
</mgrwt>
</event>
<event>
 8    1  0.3674342E-007  0.1263685E+03  0.7546771E-02  0.1232946E+00
          5   -1    0    0  501    0  0.00000000000E+00  0.00000000000E+00  0.14910561545E+04  0.14910635619E+04  0.47000000000E+01 0. -1.
         -5   -1    0    0    0  501 -0.00000000000E+00 -0.00000000000E+00 -0.10467841455E+02  0.11474567736E+02  0.47000000000E+01 0. -1.
         25    2    1    2    0    0  0.86178882897E+01 -0.16334531228E+02  0.62271329863E+03  0.63540575991E+03  0.12501016968E+03 0.  0.
         25    2    1    2    0    0 -0.86178882897E+01  0.16334531228E+02  0.85787501437E+03  0.86713236976E+03  0.12501168548E+03 0.  0.
          5    1    3    3  502    0  0.34904042623E+02 -0.62831492528E+02  0.32298132952E+03  0.33091557513E+03  0.47000000000E+01 0. -1.
         -5    1    3    3    0  502 -0.26286154334E+02  0.46496961300E+02  0.29973196911E+03  0.30449018478E+03  0.47000000000E+01 0. -1.
          5    1    4    4  503    0 -0.20733345676E+02  0.66993222814E+02  0.59239644994E+03  0.59655142899E+03  0.47000000000E+01 0. -1.
         -5    1    4    4    0  503  0.12115457386E+02 -0.50658691586E+02  0.26547856442E+03  0.27058094077E+03  0.47000000000E+01 0. -1.
<mgrwt>
<rscale>  0 0.12636816E+03</rscale>
<asrwt>0</asrwt>
<pdfrwt beam="1">  1        5 0.22947119E+00 0.12636853E+03</pdfrwt>
<pdfrwt beam="2">  1       -5 0.16884480E-02 0.12636853E+03</pdfrwt>
<totfact> 0.82724027E+01</totfact>
</mgrwt>
</event>
<event>
 8    1  0.3674342E-007  0.1320020E+03  0.7546771E-02  0.1224516E+00
          5   -1    0    0  501    0  0.00000000000E+00  0.00000000000E+00  0.70597723374E+03  0.70599287855E+03  0.47000000000E+01 0.  1.
         -5   -1    0    0    0  501 -0.00000000000E+00 -0.00000000000E+00 -0.27778200882E+02  0.28173009144E+02  0.47000000000E+01 0.  1.
         25    2    1    2    0    0  0.38114408490E+02 -0.18576572860E+02  0.21285781813E+03  0.25046552227E+03  0.12500691946E+03 0.  0.
         25    2    1    2    0    0 -0.38114408490E+02  0.18576572860E+02  0.46534121473E+03  0.48370036542E+03  0.12500320072E+03 0.  0.
          5    1    3    3  502    0  0.22841381515E+02 -0.31740561895E+02  0.29038546865E+01  0.39493219050E+02  0.47000000000E+01 0.  1.
         -5    1    3    3    0  502  0.15273026975E+02  0.13163989035E+02  0.20995396345E+03  0.21097230322E+03  0.47000000000E+01 0.  1.
          5    1    4    4  503    0 -0.57770000233E+02  0.17276936730E+02  0.93803682775E+02  0.11161131830E+03  0.47000000000E+01 0.  1.
         -5    1    4    4    0  503  0.19655591743E+02  0.12996361300E+01  0.37153753195E+03  0.37208904712E+03  0.47000000000E+01 0.  1.
<mgrwt>
<rscale>  0 0.13200112E+03</rscale>
<asrwt>0</asrwt>
<pdfrwt beam="1">  1        5 0.10864346E+00 0.13200200E+03</pdfrwt>
<pdfrwt beam="2">  1       -5 0.43051427E-02 0.13200200E+03</pdfrwt>
<totfact> 0.15449059E+02</totfact>
</mgrwt>
</event>
<event>
 8    1  0.3674342E-007  0.1377740E+03  0.7546771E-02  0.1216358E+00
         -5   -1    0    0    0  501 -0.00000000000E+00  0.00000000000E+00  0.11492404011E+03  0.11502010692E+03  0.47000000000E+01 0. -1.
          5   -1    0    0  501    0  0.00000000000E+00 -0.00000000000E+00 -0.19003420691E+03  0.19009231914E+03  0.47000000000E+01 0. -1.
         25    2    1    2    0    0  0.57383893247E+02  0.79598597723E+01  0.17836525650E+02  0.13891743157E+03  0.12499456219E+03 0.  0.
         25    2    1    2    0    0 -0.57383893247E+02 -0.79598597723E+01 -0.92946692450E+02  0.16619499449E+03  0.12500167192E+03 0.  0.
          5    1    3    3  502    0  0.64221352167E+02  0.57719818191E+02  0.38226345515E+01  0.86560164170E+02  0.47000000000E+01 0.  1.
         -5    1    3    3    0  502 -0.68374589194E+01 -0.49759958419E+02  0.14013891099E+02  0.52357267404E+02  0.47000000000E+01 0.  1.
          5    1    4    4  503    0 -0.65364695144E+02  0.42919548408E+02 -0.28039022452E+02  0.83204013046E+02  0.47000000000E+01 0. -1.
         -5    1    4    4    0  503  0.79808018969E+01 -0.50879408181E+02 -0.64907669999E+02  0.82990981440E+02  0.47000000000E+01 0. -1.
<mgrwt>
<rscale>  0 0.13777244E+03</rscale>
<asrwt>0</asrwt>
<pdfrwt beam="2">  1        5 0.29247892E-01 0.13777405E+03</pdfrwt>
<pdfrwt beam="1">  1       -5 0.17692482E-01 0.13777405E+03</pdfrwt>
<totfact> 0.23723277E+02</totfact>
</mgrwt>
</event>
<event>
 8    1  0.3674342E-007  0.1326793E+03  0.7546771E-02  0.1223536E+00
          5   -1    0    0  501    0  0.00000000000E+00  0.00000000000E+00  0.81676150887E+02  0.81811268317E+02  0.47000000000E+01 0. -1.
         -5   -1    0    0    0  501 -0.00000000000E+00 -0.00000000000E+00 -0.22836337697E+03  0.22841173775E+03  0.47000000000E+01 0. -1.
         25    2    1    2    0    0 -0.34855611689E+02 -0.27611621292E+02 -0.11059397844E+03  0.17272206916E+03  0.12499827922E+03 0.  0.
         25    2    1    2    0    0  0.34855611689E+02  0.27611621292E+02 -0.36093247643E+02  0.13750093691E+03  0.12500587918E+03 0.  0.
          5    1    3    3  502    0  0.36967796336E+02 -0.44416512817E+02 -0.39408174930E+02  0.70103771853E+02  0.47000000000E+01 0. -1.
         -5    1    3    3    0  502 -0.71823408025E+02  0.16804891525E+02 -0.71185803514E+02  0.10261829730E+03  0.47000000000E+01 0. -1.
          5    1    4    4  503    0  0.44640908920E+01 -0.99264567530E+01 -0.74610133970E+02  0.75546176224E+02  0.47000000000E+01 0. -1.
         -5    1    4    4    0  503  0.30391520797E+02  0.37538078045E+02  0.38516886326E+02  0.61954760689E+02  0.47000000000E+01 0. -1.
<mgrwt>
<rscale>  0 0.13267747E+03</rscale>
<asrwt>0</asrwt>
<pdfrwt beam="1">  1        5 0.12579675E-01 0.13267926E+03</pdfrwt>
<pdfrwt beam="2">  1       -5 0.35146941E-01 0.13267926E+03</pdfrwt>
<totfact> 0.30170892E+02</totfact>
</mgrwt>
</event>
<event>
 8    1  0.3674342E-007  0.1378162E+03  0.7546771E-02  0.1216298E+00
          5   -1    0    0  501    0  0.00000000000E+00  0.00000000000E+00  0.43126692719E+03  0.43129253702E+03  0.47000000000E+01 0.  1.
         -5   -1    0    0    0  501 -0.00000000000E+00 -0.00000000000E+00 -0.45340395591E+02  0.45583346437E+02  0.47000000000E+01 0.  1.
         25    2    1    2    0    0 -0.66576263739E+01 -0.57652413189E+02  0.15041761740E+03  0.20400679476E+03  0.12500075179E+03 0.  0.
         25    2    1    2    0    0  0.66576263739E+01  0.57652413189E+02  0.23550891421E+03  0.27286908870E+03  0.12499986465E+03 0.  0.
          5    1    3    3  502    0 -0.53689893479E+02 -0.44532990802E+02  0.34136026380E+02  0.77801993731E+02  0.47000000000E+01 0.  1.
         -5    1    3    3    0  502  0.47032267105E+02 -0.13119422387E+02  0.11628159102E+03  0.12620480103E+03  0.47000000000E+01 0.  1.
          5    1    4    4  503    0 -0.50982129087E+02  0.54956383278E+02  0.96493409132E+02  0.12228020917E+03  0.47000000000E+01 0. -1.
         -5    1    4    4    0  503  0.57639755461E+02  0.26960299115E+01  0.13901550507E+03  0.15058887953E+03  0.47000000000E+01 0. -1.
<mgrwt>
<rscale>  0 0.13781603E+03</rscale>
<asrwt>0</asrwt>
<pdfrwt beam="1">  1        5 0.66369414E-01 0.13781623E+03</pdfrwt>
<pdfrwt beam="2">  1       -5 0.69961043E-02 0.13781623E+03</pdfrwt>
<totfact> 0.22136059E+02</totfact>
</mgrwt>
</event>
<event>
 8    1  0.3674342E-007  0.1491722E+03  0.7546771E-02  0.1201495E+00
          5   -1    0    0  501    0  0.00000000000E+00  0.00000000000E+00  0.58424840105E+03  0.58426730537E+03  0.47000000000E+01 0.  1.
         -5   -1    0    0    0  501 -0.00000000000E+00 -0.00000000000E+00 -0.50134730718E+02  0.50354555148E+02  0.47000000000E+01 0.  1.
         25    2    1    2    0    0 -0.36400906754E+02  0.72803695069E+02  0.11087129064E+03  0.18586230830E+03  0.12500780188E+03 0.  0.
         25    2    1    2    0    0  0.36400906754E+02 -0.72803695069E+02  0.42324237969E+03  0.44875955222E+03  0.12500247883E+03 0.  0.
          5    1    3    3  502    0  0.29055401190E+02  0.16398824151E+02 -0.11836078509E+02  0.35711630127E+02  0.47000000000E+01 0.  1.
         -5    1    3    3    0  502 -0.65456307943E+02  0.56404870918E+02  0.12270736915E+03  0.15015067818E+03  0.47000000000E+01 0.  1.
          5    1    4    4  503    0  0.64137725302E+01 -0.69710474306E+02  0.89971066698E+02  0.11409456406E+03  0.47000000000E+01 0.  1.
         -5    1    4    4    0  503  0.29987134223E+02 -0.30932207625E+01  0.33327131299E+03  0.33466498815E+03  0.47000000000E+01 0.  1.
<mgrwt>
<rscale>  0 0.14917112E+03</rscale>
<asrwt>0</asrwt>
<pdfrwt beam="1">  1        5 0.89902732E-01 0.14917223E+03</pdfrwt>
<pdfrwt beam="2">  1       -5 0.77313993E-02 0.14917223E+03</pdfrwt>
<totfact> 0.95288013E+01</totfact>
</mgrwt>
</event>
<event>
 8    1  0.3674342E-007  0.1565712E+03  0.7546771E-02  0.1192625E+00
          5   -1    0    0  501    0  0.00000000000E+00  0.00000000000E+00  0.54859094835E+03  0.54861108138E+03  0.47000000000E+01 0. -1.
         -5   -1    0    0    0  501 -0.00000000000E+00 -0.00000000000E+00 -0.44868378439E+02  0.45113871301E+02  0.47000000000E+01 0. -1.
         25    2    1    2    0    0  0.72832220622E+02  0.59875854688E+02  0.22655789754E+03  0.27539609187E+03  0.12499950457E+03 0.  0.
         25    2    1    2    0    0 -0.72832220622E+02 -0.59875854688E+02  0.27716467237E+03  0.31832886081E+03  0.12499343054E+03 0.  0.
          5    1    3    3  502    0  0.69147010606E+02  0.13644185820E+02  0.21646705345E+03  0.22770056678E+03  0.47000000000E+01 0.  1.
         -5    1    3    3    0  502  0.36852100161E+01  0.46231668868E+02  0.10090844090E+02  0.47695525090E+02  0.47000000000E+01 0.  1.
          5    1    4    4  503    0  0.31931612666E+02 -0.35165652736E+01  0.97803455064E+02  0.10305144318E+03  0.47000000000E+01 0. -1.
         -5    1    4    4    0  503 -0.10476383329E+03 -0.56359289414E+02  0.17936121731E+03  0.21527741763E+03  0.47000000000E+01 0. -1.
<mgrwt>
<rscale>  0 0.15656994E+03</rscale>
<asrwt>0</asrwt>
<pdfrwt beam="1">  1        5 0.84419041E-01 0.15657115E+03</pdfrwt>
<pdfrwt beam="2">  1       -5 0.69232601E-02 0.15657115E+03</pdfrwt>
<totfact> 0.13551880E+02</totfact>
</mgrwt>
</event>
<event>
 8    1  0.3674342E-007  0.1666905E+03  0.7546771E-02  0.1181345E+00
         -5   -1    0    0    0  501 -0.00000000000E+00  0.00000000000E+00  0.40907979707E+03  0.40910679580E+03  0.47000000000E+01 0. -1.
          5   -1    0    0  501    0  0.00000000000E+00 -0.00000000000E+00 -0.68718460539E+02  0.68879001291E+02  0.47000000000E+01 0. -1.
         25    2    1    2    0    0  0.75110340089E+02 -0.80738914703E+02  0.14274173327E+03  0.21945600681E+03  0.12500160389E+03 0.  0.
         25    2    1    2    0    0 -0.75110340089E+02  0.80738914703E+02  0.19761960326E+03  0.25852979028E+03  0.12499523724E+03 0.  0.
          5    1    3    3  502    0  0.73468485860E+01 -0.13755466871E+02 -0.23022205480E+02  0.28201081507E+02  0.47000000000E+01 0.  1.
         -5    1    3    3    0  502  0.67763491503E+02 -0.66983447832E+02  0.16576393875E+03  0.19125492531E+03  0.47000000000E+01 0.  1.
          5    1    4    4  503    0 -0.55994020950E+02  0.11389973031E+03  0.16354345076E+03  0.20706769240E+03  0.47000000000E+01 0.  1.
         -5    1    4    4    0  503 -0.19116319139E+02 -0.33160815609E+02  0.34076152493E+02  0.51462097878E+02  0.47000000000E+01 0.  1.
<mgrwt>
<rscale>  0 0.16668935E+03</rscale>
<asrwt>0</asrwt>
<pdfrwt beam="2">  1        5 0.10586497E-01 0.16669054E+03</pdfrwt>
<pdfrwt beam="1">  1       -5 0.62949780E-01 0.16669054E+03</pdfrwt>
<totfact> 0.12937768E+02</totfact>
</mgrwt>
</event>
<event>
 8    1  0.3674342E-007  0.1257416E+03  0.7546771E-02  0.1233915E+00
          5   -1    0    0  501    0  0.00000000000E+00  0.00000000000E+00  0.76782704470E+02  0.76926417476E+02  0.47000000000E+01 0.  1.
         -5   -1    0    0    0  501 -0.00000000000E+00 -0.00000000000E+00 -0.20865420169E+03  0.20870712944E+03  0.47000000000E+01 0.  1.
         25    2    1    2    0    0  0.72191447249E+01  0.11591087272E+02 -0.48534764569E+02  0.13478272899E+03  0.12499716520E+03 0.  0.
         25    2    1    2    0    0 -0.72191447249E+01 -0.11591087272E+02 -0.83336732647E+02  0.15085081793E+03  0.12499795561E+03 0.  0.
          5    1    4    4  502    0 -0.60924506575E+02  0.32436164514E+01 -0.70742427810E+02  0.93535542129E+02  0.47000000000E+01 0.  1.
         -5    1    4    4    0  502  0.53705361850E+02 -0.14834703724E+02 -0.12594304837E+02  0.57315275803E+02  0.47000000000E+01 0.  1.
          5    1    3    3  503    0 -0.19621558900E+01  0.10273567950E+02 -0.90665523509E+02  0.91387763992E+02  0.47000000000E+01 0. -1.
         -5    1    3    3    0  503  0.91813006149E+01  0.13175193220E+01  0.42130758941E+02  0.43394964997E+02  0.47000000000E+01 0. -1.
<mgrwt>
<rscale>  0 0.12574144E+03</rscale>
<asrwt>0</asrwt>
<pdfrwt beam="1">  1        5 0.11827850E-01 0.12574163E+03</pdfrwt>
<pdfrwt beam="2">  1       -5 0.32115772E-01 0.12574163E+03</pdfrwt>
<totfact> 0.39487485E+02</totfact>
</mgrwt>
</event>
<event>
 8    1  0.3674342E-007  0.1266232E+03  0.7546771E-02  0.1232557E+00
          5   -1    0    0  501    0  0.00000000000E+00  0.00000000000E+00  0.32539338720E+02  0.32877021829E+02  0.47000000000E+01 0.  1.
         -5   -1    0    0    0  501 -0.00000000000E+00 -0.00000000000E+00 -0.48995053944E+03  0.48997308202E+03  0.47000000000E+01 0.  1.
         25    2    1    2    0    0 -0.14531769117E+02 -0.14036286873E+02 -0.22441712213E+03  0.25767514800E+03  0.12500099011E+03 0.  0.
         25    2    1    2    0    0  0.14531769117E+02  0.14036286873E+02 -0.23299407860E+03  0.26517495585E+03  0.12499330737E+03 0.  0.
          5    1    3    3  502    0  0.19554902392E+01 -0.68342262349E+02 -0.10517565713E+03  0.12553285474E+03  0.47000000000E+01 0. -1.
         -5    1    3    3    0  502 -0.16487259357E+02  0.54305975476E+02 -0.11924146500E+03  0.13214229326E+03  0.47000000000E+01 0. -1.
          5    1    4    4  503    0  0.38071533380E+02  0.41733722399E+02 -0.21854673769E+03  0.22577845733E+03  0.47000000000E+01 0. -1.
         -5    1    4    4    0  503 -0.23539764262E+02 -0.27697435526E+02 -0.14447340901E+02  0.39396498517E+02  0.47000000000E+01 0. -1.
<mgrwt>
<rscale>  0 0.12662131E+03</rscale>
<asrwt>0</asrwt>
<pdfrwt beam="1">  1        5 0.50337621E-02 0.12662321E+03</pdfrwt>
<pdfrwt beam="2">  1       -5 0.75404711E-01 0.12662321E+03</pdfrwt>
<totfact> 0.28000748E+02</totfact>
</mgrwt>
</event>
<event>
 8    1  0.3674342E-007  0.1386587E+03  0.7546771E-02  0.1215174E+00
          5   -1    0    0  501    0  0.00000000000E+00  0.00000000000E+00  0.37846261614E+02  0.38136983600E+02  0.47000000000E+01 0. -1.
         -5   -1    0    0    0  501 -0.00000000000E+00 -0.00000000000E+00 -0.50975149973E+03  0.50977316669E+03  0.47000000000E+01 0. -1.
         25    2    1    2    0    0  0.34154649224E+02 -0.49343943882E+02 -0.26116962201E+03  0.29569548549E+03  0.12499953527E+03 0.  0.
         25    2    1    2    0    0 -0.34154649224E+02  0.49343943882E+02 -0.21073561611E+03  0.25221466481E+03  0.12490545378E+03 0.  0.
          5    1    3    3  502    0  0.68567162740E+02 -0.29847511492E+02 -0.77664427495E+02  0.10791748258E+03  0.47000000000E+01 0.  1.
         -5    1    3    3    0  502 -0.34412513516E+02 -0.19496432389E+02 -0.18350519451E+03  0.18777800291E+03  0.47000000000E+01 0.  1.
          5    1    4    4  503    0 -0.58645786633E+02  0.79622590727E+02 -0.15874865206E+03  0.18708904237E+03  0.47000000000E+01 0.  1.
         -5    1    4    4    0  503  0.24491137409E+02 -0.30278646845E+02 -0.51986964048E+02  0.65125622433E+02  0.47000000000E+01 0.  1.
<mgrwt>
<rscale>  0 0.13863754E+03</rscale>
<asrwt>0</asrwt>
<pdfrwt beam="1">  1        5 0.58465321E-02 0.13865875E+03</pdfrwt>
<pdfrwt beam="2">  1       -5 0.78447333E-01 0.13865875E+03</pdfrwt>
<totfact> 0.20558519E+02</totfact>
</mgrwt>
</event>
<event>
 8    1  0.3674342E-007  0.1272261E+03  0.7546771E-02  0.1231631E+00
          5   -1    0    0  501    0  0.00000000000E+00  0.00000000000E+00  0.32658897277E+03  0.32662279029E+03  0.47000000000E+01 0.  1.
         -5   -1    0    0    0  501 -0.00000000000E+00 -0.00000000000E+00 -0.49974836912E+02  0.50195361582E+02  0.47000000000E+01 0.  1.
         25    2    1    2    0    0  0.23508487542E+02  0.30654382837E+01  0.11839732340E+03  0.17379343729E+03  0.12499674699E+03 0.  0.
         25    2    1    2    0    0 -0.23508487542E+02 -0.30654382837E+01  0.15821681246E+03  0.20302471458E+03  0.12499771633E+03 0.  0.
          5    1    3    3  502    0  0.42028262741E+02 -0.51801673299E+02  0.79455171043E+02  0.10385086630E+03  0.47000000000E+01 0. -1.
         -5    1    3    3    0  502 -0.18519775199E+02  0.54867111583E+02  0.38942152358E+02  0.69942570993E+02  0.47000000000E+01 0. -1.
          5    1    4    4  503    0  0.11699530124E+02  0.23958536872E+02  0.15600653448E+03  0.15833830647E+03  0.47000000000E+01 0. -1.
         -5    1    4    4    0  503 -0.35208017666E+02 -0.27023975155E+02  0.22102779777E+01  0.44686408111E+02  0.47000000000E+01 0. -1.
<mgrwt>
<rscale>  0 0.12722584E+03</rscale>
<asrwt>0</asrwt>
<pdfrwt beam="1">  1        5 0.50264022E-01 0.12722608E+03</pdfrwt>
<pdfrwt beam="2">  1       -5 0.77080012E-02 0.12722608E+03</pdfrwt>
<totfact> 0.33379442E+02</totfact>
</mgrwt>
</event>
<event>
 8    1  0.3674342E-007  0.1455673E+03  0.7546771E-02  0.1206037E+00
          5   -1    0    0  501    0  0.00000000000E+00  0.00000000000E+00  0.31380686985E+03  0.31384206469E+03  0.47000000000E+01 0. -1.
         -5   -1    0    0    0  501 -0.00000000000E+00 -0.00000000000E+00 -0.72951825178E+02  0.73103069681E+02  0.47000000000E+01 0. -1.
         25    2    1    2    0    0 -0.57418861716E+02 -0.47539643020E+02  0.67093828980E+02  0.16028547466E+03  0.12503162864E+03 0.  0.
         25    2    1    2    0    0  0.57418861716E+02  0.47539643020E+02  0.17376121570E+03  0.22665965971E+03  0.12499879168E+03 0.  0.
          5    1    4    4  502    0  0.25599585294E+02 -0.22294631636E+01  0.16464500906E+03  0.16670446389E+03  0.47000000000E+01 0.  1.
         -5    1    4    4    0  502  0.31819276423E+02  0.49769106184E+02  0.91162066369E+01  0.59955195820E+02  0.47000000000E+01 0.  1.
          5    1    3    3  503    0 -0.12630183409E+02  0.38384008526E+02  0.45246398474E+02  0.60845543948E+02  0.47000000000E+01 0.  1.
         -5    1    3    3    0  503 -0.44788678308E+02 -0.85923651546E+02  0.21847430506E+02  0.99439930708E+02  0.47000000000E+01 0.  1.
<mgrwt>
<rscale>  0 0.14556029E+03</rscale>
<asrwt>0</asrwt>
<pdfrwt beam="1">  1        5 0.48292321E-01 0.14556734E+03</pdfrwt>
<pdfrwt beam="2">  1       -5 0.11237699E-01 0.14556734E+03</pdfrwt>
<totfact> 0.19784138E+02</totfact>
</mgrwt>
</event>
<event>
 8    1  0.3674342E-007  0.1466987E+03  0.7546771E-02  0.1204597E+00
          5   -1    0    0  501    0  0.00000000000E+00  0.00000000000E+00  0.27450296773E+03  0.27454320114E+03  0.47000000000E+01 0.  1.
         -5   -1    0    0    0  501 -0.00000000000E+00 -0.00000000000E+00 -0.92319829701E+02  0.92439390717E+02  0.47000000000E+01 0.  1.
         25    2    1    2    0    0  0.69499741358E+02 -0.32668363657E+02  0.19568206234E+02  0.14797548246E+03  0.12496556598E+03 0.  0.
         25    2    1    2    0    0 -0.69499741358E+02  0.32668363657E+02  0.16261493179E+03  0.21900710940E+03  0.12499224733E+03 0.  0.
          5    1    3    3  502    0 -0.79101747685E+00  0.28775099348E+02  0.42668908647E+02  0.51685179851E+02  0.47000000000E+01 0. -1.
         -5    1    3    3    0  502  0.70290758835E+02 -0.61443463005E+02 -0.23100702413E+02  0.96290302604E+02  0.47000000000E+01 0. -1.
          5    1    4    4  503    0 -0.79953108875E+02  0.15274088836E+01  0.16730549850E+03  0.18549407652E+03  0.47000000000E+01 0.  1.
         -5    1    4    4    0  503  0.10453367517E+02  0.31140954774E+02 -0.46905667063E+01  0.33513032878E+02  0.47000000000E+01 0.  1.
<mgrwt>
<rscale>  0 0.14669298E+03</rscale>
<asrwt>0</asrwt>
<pdfrwt beam="1">  1        5 0.42243518E-01 0.14669866E+03</pdfrwt>
<pdfrwt beam="2">  1       -5 0.14215342E-01 0.14669866E+03</pdfrwt>
<totfact> 0.17246855E+02</totfact>
</mgrwt>
</event>
<event>
 8    1  0.3674342E-007  0.1435642E+03  0.7546771E-02  0.1208612E+00
          5   -1    0    0  501    0  0.00000000000E+00  0.00000000000E+00  0.11083556232E+03  0.11093516969E+03  0.47000000000E+01 0. -1.
         -5   -1    0    0    0  501 -0.00000000000E+00 -0.00000000000E+00 -0.21898703490E+03  0.21903746587E+03  0.47000000000E+01 0. -1.
         25    2    1    2    0    0 -0.35772810794E+02  0.60867753377E+02 -0.11833485491E+03  0.18604772178E+03  0.12500415792E+03 0.  0.
         25    2    1    2    0    0  0.35772810794E+02 -0.60867753377E+02  0.10183382330E+02  0.14392491378E+03  0.12500440848E+03 0.  0.
          5    1    3    3  502    0 -0.47207334741E+02 -0.27160461496E+02 -0.45916443311E+02  0.71390705896E+02  0.47000000000E+01 0.  1.
         -5    1    3    3    0  502  0.11434523946E+02  0.88028214873E+02 -0.72418411601E+02  0.11465701588E+03  0.47000000000E+01 0.  1.
          5    1    4    4  503    0  0.49788996911E+02 -0.11233489720E+02 -0.45027859573E+02  0.68225608406E+02  0.47000000000E+01 0.  1.
         -5    1    4    4    0  503 -0.14016186116E+02 -0.49634263657E+02  0.55211241903E+02  0.75699305376E+02  0.47000000000E+01 0.  1.
<mgrwt>
<rscale>  0 0.14356415E+03</rscale>
<asrwt>0</asrwt>
<pdfrwt beam="1">  1        5 0.17063166E-01 0.14356420E+03</pdfrwt>
<pdfrwt beam="2">  1       -5 0.33701854E-01 0.14356420E+03</pdfrwt>
<totfact> 0.19429877E+02</totfact>
</mgrwt>
</event>
<event>
 8    1  0.3674342E-007  0.1416177E+03  0.7546771E-02  0.1211172E+00
         -5   -1    0    0    0  501 -0.00000000000E+00  0.00000000000E+00  0.68152584718E+02  0.68314455306E+02  0.47000000000E+01 0. -1.
          5   -1    0    0  501    0  0.00000000000E+00 -0.00000000000E+00 -0.31123187078E+03  0.31126735677E+03  0.47000000000E+01 0. -1.
         25    2    1    2    0    0  0.45607066940E+02  0.48464104037E+02 -0.76540612281E+02  0.16097836104E+03  0.12500717364E+03 0.  0.
         25    2    1    2    0    0 -0.45607066940E+02 -0.48464104037E+02 -0.16653867378E+03  0.21860345103E+03  0.12499425988E+03 0.  0.
          5    1    3    3  502    0  0.61875503962E+02  0.24998840359E+02 -0.10230247731E+03  0.12223504765E+03  0.47000000000E+01 0.  1.
         -5    1    3    3    0  502 -0.16268437022E+02  0.23465263678E+02  0.25761865032E+02  0.38743313391E+02  0.47000000000E+01 0.  1.
          5    1    4    4  503    0 -0.78990446677E+02 -0.69318881017E+01 -0.13463063596E+03  0.15631711320E+03  0.47000000000E+01 0. -1.
         -5    1    4    4    0  503  0.33383379737E+02 -0.41532215936E+02 -0.31908037819E+02  0.62286337833E+02  0.47000000000E+01 0. -1.
<mgrwt>
<rscale>  0 0.14161483E+03</rscale>
<asrwt>0</asrwt>
<pdfrwt beam="2">  1        5 0.47897007E-01 0.14161768E+03</pdfrwt>
<pdfrwt beam="1">  1       -5 0.10500194E-01 0.14161768E+03</pdfrwt>
<totfact> 0.22475524E+02</totfact>
</mgrwt>
</event>
<event>
 8    1  0.3674342E-007  0.1511655E+03  0.7546771E-02  0.1199049E+00
         -5   -1    0    0    0  501 -0.00000000000E+00  0.00000000000E+00  0.79235159447E+02  0.79374432235E+02  0.47000000000E+01 0.  1.
          5   -1    0    0  501    0  0.00000000000E+00 -0.00000000000E+00 -0.28971879956E+03  0.28975692023E+03  0.47000000000E+01 0.  1.
         25    2    1    2    0    0 -0.38819517064E+02 -0.75623879317E+02 -0.11953342771E+03  0.19271434922E+03  0.12499861610E+03 0.  0.
         25    2    1    2    0    0  0.38819517064E+02  0.75623879317E+02 -0.90950212407E+02  0.17641700325E+03  0.12500036748E+03 0.  0.
          5    1    4    4  502    0  0.34050417179E+02  0.62439372262E+02 -0.12241356761E+03  0.14165195959E+03  0.47000000000E+01 0.  1.
         -5    1    4    4    0  502  0.47690998850E+01  0.13184507055E+02  0.31463355206E+02  0.34765043661E+02  0.47000000000E+01 0.  1.
          5    1    3    3  503    0  0.20330389241E+02  0.21124775994E+02 -0.54087297692E+02  0.61701755722E+02  0.47000000000E+01 0.  1.
         -5    1    3    3    0  503 -0.59149906305E+02 -0.96748655311E+02 -0.65446130018E+02  0.13101259350E+03  0.47000000000E+01 0.  1.
<mgrwt>
<rscale>  0 0.15116517E+03</rscale>
<asrwt>0</asrwt>
<pdfrwt beam="2">  1        5 0.44585768E-01 0.15116553E+03</pdfrwt>
<pdfrwt beam="1">  1       -5 0.12203670E-01 0.15116553E+03</pdfrwt>
<totfact> 0.20465146E+02</totfact>
</mgrwt>
</event>
<event>
 8    1  0.3674342E-007  0.1742798E+03  0.7546771E-02  0.1173457E+00
          5   -1    0    0  501    0  0.00000000000E+00  0.00000000000E+00  0.17555592934E+03  0.17561883249E+03  0.47000000000E+01 0.  1.
         -5   -1    0    0    0  501 -0.00000000000E+00 -0.00000000000E+00 -0.17309545753E+03  0.17315925450E+03  0.47000000000E+01 0.  1.
         25    2    1    2    0    0  0.11325983176E+03 -0.43829008478E+02 -0.48586373011E+01  0.17434462661E+03  0.12499468387E+03 0.  0.
         25    2    1    2    0    0 -0.11325983176E+03  0.43829008478E+02  0.73191091050E+01  0.17443346038E+03  0.12499876507E+03 0.  0.
          5    1    3    3  502    0  0.16283207331E+02 -0.71279902336E+02 -0.51484241827E+01  0.73447692882E+02  0.47000000000E+01 0. -1.
         -5    1    3    3    0  502  0.96976624424E+02  0.27450893859E+02  0.28978688154E+00  0.10089693372E+03  0.47000000000E+01 0. -1.
          5    1    4    4  503    0 -0.16620673723E+02  0.69103143279E+02  0.19090588141E+02  0.73743011612E+02  0.47000000000E+01 0. -1.
         -5    1    4    4    0  503 -0.96639158033E+02 -0.25274134801E+02 -0.11771479036E+02  0.10069044877E+03  0.47000000000E+01 0. -1.
<mgrwt>
<rscale>  0 0.17427911E+03</rscale>
<asrwt>0</asrwt>
<pdfrwt beam="1">  1        5 0.27018351E-01 0.17427984E+03</pdfrwt>
<pdfrwt beam="2">  1       -5 0.26639817E-01 0.17427984E+03</pdfrwt>
<totfact> 0.13781156E+02</totfact>
</mgrwt>
</event>
<event>
 8    1  0.3674342E-007  0.1443507E+03  0.7546771E-02  0.1207593E+00
         -5   -1    0    0    0  501 -0.00000000000E+00  0.00000000000E+00  0.41415869679E+02  0.41681701756E+02  0.47000000000E+01 0. -1.
          5   -1    0    0  501    0  0.00000000000E+00 -0.00000000000E+00 -0.53821642309E+03  0.53823694418E+03  0.47000000000E+01 0. -1.
         25    2    1    2    0    0 -0.30099088685E+02  0.65612338969E+02 -0.17240202377E+03  0.22485309562E+03  0.12500209056E+03 0.  0.
         25    2    1    2    0    0  0.30099088685E+02 -0.65612338969E+02 -0.32439852964E+03  0.35506555032E+03  0.12500481921E+03 0.  0.
          5    1    3    3  502    0 -0.44137888036E+02  0.59242461627E+02 -0.18823027813E+03  0.20226356574E+03  0.47000000000E+01 0. -1.
         -5    1    3    3    0  502  0.14038799351E+02  0.63698773419E+01  0.15828254354E+02  0.22589529886E+02  0.47000000000E+01 0. -1.
          5    1    4    4  503    0 -0.29996067688E+02 -0.76076317005E+02 -0.20844696960E+03  0.22396338813E+03  0.47000000000E+01 0. -1.
         -5    1    4    4    0  503  0.60095156374E+02  0.10463978036E+02 -0.11595156003E+03  0.13110216219E+03  0.47000000000E+01 0. -1.
<mgrwt>
<rscale>  0 0.14435016E+03</rscale>
<asrwt>0</asrwt>
<pdfrwt beam="2">  1        5 0.82824549E-01 0.14435075E+03</pdfrwt>
<pdfrwt beam="1">  1       -5 0.63936998E-02 0.14435075E+03</pdfrwt>
<totfact> 0.15799552E+02</totfact>
</mgrwt>
</event>
<event>
 8    1  0.3674342E-007  0.1596852E+03  0.7546771E-02  0.1189054E+00
         -5   -1    0    0    0  501 -0.00000000000E+00  0.00000000000E+00  0.30093071586E+03  0.30096741642E+03  0.47000000000E+01 0.  1.
          5   -1    0    0  501    0  0.00000000000E+00 -0.00000000000E+00 -0.85026409523E+02  0.85156211261E+02  0.47000000000E+01 0.  1.
         25    2    1    2    0    0  0.25287988803E+01 -0.99334256935E+02  0.94706427332E+02  0.18565342822E+03  0.12499679439E+03 0.  0.
         25    2    1    2    0    0 -0.25287988803E+01  0.99334256935E+02  0.12119787900E+03  0.20047019946E+03  0.12500274226E+03 0.  0.
          5    1    4    4  502    0 -0.34353980053E+02  0.10867548421E+03  0.12191845107E+03  0.16696333587E+03  0.47000000000E+01 0. -1.
         -5    1    4    4    0  502  0.31825181173E+02 -0.93412272729E+01 -0.72057206800E+00  0.33506863592E+02  0.47000000000E+01 0. -1.
          5    1    3    3  503    0  0.21038790665E+02 -0.24416704216E+02  0.10287656941E+03  0.10790961353E+03  0.47000000000E+01 0.  1.
         -5    1    3    3    0  503 -0.18509991785E+02 -0.74917552719E+02 -0.81701420807E+01  0.77743814692E+02  0.47000000000E+01 0.  1.
<mgrwt>
<rscale>  0 0.15968407E+03</rscale>
<asrwt>0</asrwt>
<pdfrwt beam="2">  1        5 0.13093794E-01 0.15968524E+03</pdfrwt>
<pdfrwt beam="1">  1       -5 0.46309840E-01 0.15968524E+03</pdfrwt>
<totfact> 0.16972494E+02</totfact>
</mgrwt>
</event>
<event>
 8    1  0.3674342E-007  0.1392598E+03  0.7546771E-02  0.1214330E+00
         -5   -1    0    0    0  501 -0.00000000000E+00  0.00000000000E+00  0.20546937939E+03  0.20552312733E+03  0.47000000000E+01 0.  1.
          5   -1    0    0  501    0  0.00000000000E+00 -0.00000000000E+00 -0.11051194115E+03  0.11061183995E+03  0.47000000000E+01 0.  1.
         25    2    1    2    0    0 -0.57994516535E+02 -0.20083241819E+02  0.10805651381E+03  0.17626541708E+03  0.12500634597E+03 0.  0.
         25    2    1    2    0    0  0.57994516535E+02  0.20083241819E+02 -0.13099075577E+02  0.13986955019E+03  0.12500081896E+03 0.  0.
          5    1    3    3  502    0  0.14512054735E+02  0.23947683523E+02 -0.10618691318E+02  0.30313988257E+02  0.47000000000E+01 0. -1.
         -5    1    3    3    0  502 -0.72506571270E+02 -0.44030925343E+02  0.11867520513E+03  0.14595142883E+03  0.47000000000E+01 0. -1.
          5    1    4    4  503    0  0.82452581952E+02 -0.23901022753E+02  0.51513090899E+01  0.86129629888E+02  0.47000000000E+01 0. -1.
         -5    1    4    4    0  503 -0.24458065418E+02  0.43984264572E+02 -0.18250384667E+02  0.53739920305E+02  0.47000000000E+01 0. -1.
<mgrwt>
<rscale>  0 0.13925854E+03</rscale>
<asrwt>0</asrwt>
<pdfrwt beam="2">  1        5 0.17013656E-01 0.13925978E+03</pdfrwt>
<pdfrwt beam="1">  1       -5 0.31622492E-01 0.13925978E+03</pdfrwt>
<totfact> 0.21943449E+02</totfact>
</mgrwt>
</event>
<event>
 8    1  0.3674342E-007  0.1462038E+03  0.7546771E-02  0.1205217E+00
         -5   -1    0    0    0  501 -0.00000000000E+00  0.00000000000E+00  0.19008096685E+04  0.19008154791E+04  0.47000000000E+01 0. -1.
          5   -1    0    0  501    0  0.00000000000E+00 -0.00000000000E+00 -0.12751844487E+02  0.13590420811E+02  0.47000000000E+01 0. -1.
         25    2    1    2    0    0  0.58745510166E+02  0.47960081481E+02  0.13105067081E+04  0.13186367749E+04  0.12499563002E+03 0.  0.
         25    2    1    2    0    0 -0.58745510166E+02 -0.47960081481E+02  0.57755111584E+03  0.59576912510E+03  0.12499741852E+03 0.  0.
          5    1    4    4  502    0 -0.57434575100E+02  0.23169730876E+02  0.39385301548E+03  0.39872027118E+03  0.47000000000E+01 0. -1.
         -5    1    4    4    0  502 -0.13109350662E+01 -0.71129812357E+02  0.18369810036E+03  0.19704885393E+03  0.47000000000E+01 0. -1.
          5    1    3    3  503    0  0.62532433147E+01  0.77360966905E+02  0.94379543649E+03  0.94699299796E+03  0.47000000000E+01 0.  1.
         -5    1    3    3    0  503  0.52492266852E+02 -0.29400885424E+02  0.36671127166E+03  0.37164377690E+03  0.47000000000E+01 0.  1.
<mgrwt>
<rscale>  0 0.14620344E+03</rscale>
<asrwt>0</asrwt>
<pdfrwt beam="2">  1        5 0.20267771E-02 0.14620383E+03</pdfrwt>
<pdfrwt beam="1">  1       -5 0.29249692E+00 0.14620383E+03</pdfrwt>
<totfact> 0.25763771E+01</totfact>
</mgrwt>
</event>
<event>
 8    1  0.3674342E-007  0.1352205E+03  0.7546771E-02  0.1219911E+00
          5   -1    0    0  501    0  0.00000000000E+00  0.00000000000E+00  0.32765165084E+03  0.32768535869E+03  0.47000000000E+01 0. -1.
         -5   -1    0    0    0  501 -0.00000000000E+00 -0.00000000000E+00 -0.57160188865E+02  0.57353092254E+02  0.47000000000E+01 0. -1.
         25    2    1    2    0    0  0.41553377516E+02  0.30527659544E+02  0.10419183599E+03  0.17070194342E+03  0.12499837447E+03 0.  0.
         25    2    1    2    0    0 -0.41553377516E+02 -0.30527659544E+02  0.16629962599E+03  0.21433650753E+03  0.12500380664E+03 0.  0.
          5    1    4    4  502    0 -0.82517411452E+02 -0.40671498856E+02  0.12324076758E+03  0.15386250617E+03  0.47000000000E+01 0.  1.
         -5    1    4    4    0  502  0.40964033936E+02  0.10143839312E+02  0.43058858406E+02  0.60474001352E+02  0.47000000000E+01 0.  1.
          5    1    3    3  503    0  0.34427455307E+02  0.62205978836E+02  0.11244619141E+02  0.72134353408E+02  0.47000000000E+01 0.  1.
         -5    1    3    3    0  503  0.71259222083E+01 -0.31678319292E+02  0.92947216847E+02  0.98567590009E+02  0.47000000000E+01 0.  1.
<mgrwt>
<rscale>  0 0.13521920E+03</rscale>
<asrwt>0</asrwt>
<pdfrwt beam="1">  1        5 0.50425379E-01 0.13522046E+03</pdfrwt>
<pdfrwt beam="2">  1       -5 0.88113067E-02 0.13522046E+03</pdfrwt>
<totfact> 0.26928794E+02</totfact>
</mgrwt>
</event>
<event>
 8    1  0.3674342E-007  0.1362945E+03  0.7546771E-02  0.1218436E+00
         -5   -1    0    0    0  501 -0.00000000000E+00  0.00000000000E+00  0.11822342734E+03  0.11831681526E+03  0.47000000000E+01 0. -1.
          5   -1    0    0  501    0  0.00000000000E+00 -0.00000000000E+00 -0.15887054426E+03  0.15894005107E+03  0.47000000000E+01 0. -1.
         25    2    1    2    0    0 -0.52828759214E+02 -0.12458582159E+02 -0.46356468033E+01  0.13637331095E+03  0.12502038493E+03 0.  0.
         25    2    1    2    0    0  0.52828759214E+02  0.12458582159E+02 -0.36011470115E+02  0.14088355538E+03  0.12492099954E+03 0.  0.
          5    1    3    3  502    0 -0.91441816369E+02  0.43554556875E+01 -0.14650568151E+02  0.92829439954E+02  0.47000000000E+01 0. -1.
         -5    1    3    3    0  502  0.38613057155E+02 -0.16814037847E+02  0.10014921347E+02  0.43543870994E+02  0.47000000000E+01 0. -1.
          5    1    4    4  503    0  0.67804701074E+02  0.55874304905E+02 -0.35042784666E+02  0.94707455850E+02  0.47000000000E+01 0. -1.
         -5    1    4    4    0  503 -0.14975941860E+02 -0.43415722746E+02 -0.96868544949E+00  0.46176099528E+02  0.47000000000E+01 0. -1.
<mgrwt>
<rscale>  0 0.13627170E+03</rscale>
<asrwt>0</asrwt>
<pdfrwt beam="2">  1        5 0.24454153E-01 0.13629450E+03</pdfrwt>
<pdfrwt beam="1">  1       -5 0.18200750E-01 0.13629450E+03</pdfrwt>
<totfact> 0.31706159E+02</totfact>
</mgrwt>
</event>
<event>
 8    1  0.3674342E-007  0.2565287E+03  0.7546771E-02  0.1109247E+00
          5   -1    0    0  501    0  0.00000000000E+00  0.00000000000E+00  0.19117873094E+03  0.19123649538E+03  0.47000000000E+01 0. -1.
         -5   -1    0    0    0  501 -0.00000000000E+00 -0.00000000000E+00 -0.36542408668E+03  0.36545431058E+03  0.47000000000E+01 0. -1.
         25    2    1    2    0    0 -0.37222486324E+02  0.22089776427E+03 -0.15437081055E+03  0.29939334736E+03  0.12499877417E+03 0.  0.
         25    2    1    2    0    0  0.37222486324E+02 -0.22089776427E+03 -0.19874545182E+02  0.25729745861E+03  0.12500259562E+03 0.  0.
          5    1    4    4  502    0  0.67449529930E+02 -0.18564325195E+03  0.16301006391E+02  0.19824396307E+03  0.47000000000E+01 0. -1.
         -5    1    4    4    0  502 -0.30227043607E+02 -0.35254512315E+02 -0.36175551573E+02  0.59053495539E+02  0.47000000000E+01 0. -1.
          5    1    3    3  503    0 -0.42128973025E+02  0.15769891529E+03 -0.16810741882E+03  0.23436295038E+03  0.47000000000E+01 0.  1.
         -5    1    3    3    0  503  0.49064867009E+01  0.63198848981E+02  0.13736608262E+02  0.65030396976E+02  0.47000000000E+01 0.  1.
<mgrwt>
<rscale>  0 0.25652826E+03</rscale>
<asrwt>0</asrwt>
<pdfrwt beam="1">  1        5 0.29418881E-01 0.25652872E+03</pdfrwt>
<pdfrwt beam="2">  1       -5 0.56225858E-01 0.25652872E+03</pdfrwt>
<totfact> 0.27790687E+01</totfact>
</mgrwt>
</event>
<event>
 8    1  0.3674342E-007  0.1254570E+03  0.7546771E-02  0.1234366E+00
          5   -1    0    0  501    0  0.00000000000E+00  0.00000000000E+00  0.30130094767E+03  0.30133760314E+03  0.47000000000E+01 0.  1.
         -5   -1    0    0    0  501 -0.00000000000E+00 -0.00000000000E+00 -0.60573145474E+02  0.60755213378E+02  0.47000000000E+01 0.  1.
         25    2    1    2    0    0 -0.89005132549E+00  0.10519767349E+02  0.52702455624E+02  0.13605522032E+03  0.12498806523E+03 0.  0.
         25    2    1    2    0    0  0.89005132549E+00 -0.10519767349E+02  0.18802534657E+03  0.22603759620E+03  0.12501202441E+03 0.  0.
          5    1    3    3  502    0 -0.19351777138E+02 -0.13001309453E+02  0.87069630193E+02  0.90259270039E+02  0.47000000000E+01 0.  1.
         -5    1    3    3    0  502  0.18461725813E+02  0.23521076802E+02 -0.34367174570E+02  0.45795950277E+02  0.47000000000E+01 0.  1.
          5    1    4    4  503    0 -0.10599838218E+02  0.68373160883E+01  0.20074432384E+03  0.20119512672E+03  0.47000000000E+01 0.  1.
         -5    1    4    4    0  503  0.11489889543E+02 -0.17357083437E+02 -0.12718977269E+02  0.24842469482E+02  0.47000000000E+01 0.  1.
<mgrwt>
<rscale>  0 0.12545105E+03</rscale>
<asrwt>0</asrwt>
<pdfrwt beam="1">  1        5 0.46370816E-01 0.12545702E+03</pdfrwt>
<pdfrwt beam="2">  1       -5 0.93357704E-02 0.12545702E+03</pdfrwt>
<totfact> 0.28302071E+02</totfact>
</mgrwt>
</event>
<event>
 8    1  0.3674342E-007  0.1377189E+03  0.7546771E-02  0.1216433E+00
         -5   -1    0    0    0  501 -0.00000000000E+00  0.00000000000E+00  0.27382070757E+03  0.27386104122E+03  0.47000000000E+01 0. -1.
          5   -1    0    0  501    0  0.00000000000E+00 -0.00000000000E+00 -0.74966419005E+02  0.75113607146E+02  0.47000000000E+01 0. -1.
         25    2    1    2    0    0  0.28323076668E+02 -0.50383750565E+02  0.14801368665E+03  0.20217453489E+03  0.12500308848E+03 0.  0.
         25    2    1    2    0    0 -0.28323076668E+02  0.50383750565E+02  0.50840601922E+02  0.14680011347E+03  0.12499915007E+03 0.  0.
          5    1    4    4  502    0  0.19837562573E+02  0.39671559635E+02  0.78320393464E+02  0.90130658297E+02  0.47000000000E+01 0. -1.
         -5    1    4    4    0  502 -0.48160639241E+02  0.10712190930E+02 -0.27479791542E+02  0.56669455175E+02  0.47000000000E+01 0. -1.
          5    1    3    3  503    0 -0.26763332173E+02 -0.43145153749E+02  0.81889878250E+01  0.51642325302E+02  0.47000000000E+01 0.  1.
         -5    1    3    3    0  503  0.55086408842E+02 -0.72385968167E+01  0.13982469882E+03  0.15053220959E+03  0.47000000000E+01 0.  1.
<mgrwt>
<rscale>  0 0.13771799E+03</rscale>
<asrwt>0</asrwt>
<pdfrwt beam="2">  1        5 0.11547720E-01 0.13771888E+03</pdfrwt>
<pdfrwt beam="1">  1       -5 0.42140687E-01 0.13771888E+03</pdfrwt>
<totfact> 0.24593046E+02</totfact>
</mgrwt>
</event>
<event>
 8    1  0.3674342E-007  0.1283737E+03  0.7546771E-02  0.1229896E+00
         -5   -1    0    0    0  501 -0.00000000000E+00  0.00000000000E+00  0.10412381800E+03  0.10422983966E+03  0.47000000000E+01 0.  1.
          5   -1    0    0  501    0  0.00000000000E+00 -0.00000000000E+00 -0.16316656375E+03  0.16323424128E+03  0.47000000000E+01 0.  1.
         25    2    1    2    0    0  0.28130277639E+02  0.76635173971E+01 -0.57964081684E+01  0.12848575819E+03  0.12499979877E+03 0.  0.
         25    2    1    2    0    0 -0.28130277639E+02 -0.76635173971E+01 -0.53246337576E+02  0.13897832274E+03  0.12501903738E+03 0.  0.
          5    1    3    3  502    0 -0.31578714758E+02  0.46325250813E+02 -0.96980595354E+01  0.57091036490E+02  0.47000000000E+01 0.  1.
         -5    1    3    3    0  502  0.59708992397E+02 -0.38661733416E+02  0.39016513671E+01  0.71394721704E+02  0.47000000000E+01 0.  1.
          5    1    4    4  503    0 -0.18504264682E+02 -0.65043234970E+02 -0.15723222976E+02  0.69586923826E+02  0.47000000000E+01 0. -1.
         -5    1    4    4    0  503 -0.96260129567E+01  0.57379717573E+02 -0.37523114601E+02  0.69391398916E+02  0.47000000000E+01 0. -1.
<mgrwt>
<rscale>  0 0.12836900E+03</rscale>
<asrwt>0</asrwt>
<pdfrwt beam="2">  1        5 0.25115910E-01 0.12837368E+03</pdfrwt>
<pdfrwt beam="1">  1       -5 0.16032410E-01 0.12837368E+03</pdfrwt>
<totfact> 0.37209113E+02</totfact>
</mgrwt>
</event>
<event>
 8    1  0.3674342E-007  0.1579440E+03  0.7546771E-02  0.1191043E+00
         -5   -1    0    0    0  501 -0.00000000000E+00  0.00000000000E+00  0.23399343335E+03  0.23404063077E+03  0.47000000000E+01 0.  1.
          5   -1    0    0  501    0  0.00000000000E+00 -0.00000000000E+00 -0.10775390776E+03  0.10785636114E+03  0.47000000000E+01 0.  1.
         25    2    1    2    0    0  0.37216806482E+02 -0.89086593170E+02  0.81628758735E+02  0.17779079872E+03  0.12499920836E+03 0.  0.
         25    2    1    2    0    0 -0.37216806482E+02  0.89086593170E+02  0.44610766856E+02  0.16410619319E+03  0.12497683928E+03 0.  0.
          5    1    3    3  502    0  0.46574093746E+02 -0.37881343818E+01  0.78887103682E+02  0.91808285561E+02  0.47000000000E+01 0. -1.
         -5    1    3    3    0  502 -0.93572872645E+01 -0.85298458788E+02  0.27416550526E+01  0.85982513158E+02  0.47000000000E+01 0. -1.
          5    1    4    4  503    0 -0.64848793142E+02  0.29195392558E+02  0.63370597073E+02  0.95371166984E+02  0.47000000000E+01 0. -1.
         -5    1    4    4    0  503  0.27631986660E+02  0.59891200612E+02 -0.18759830217E+02  0.68735026204E+02  0.47000000000E+01 0. -1.
<mgrwt>
<rscale>  0 0.15793960E+03</rscale>
<asrwt>0</asrwt>
<pdfrwt beam="2">  1        5 0.16589036E-01 0.15794402E+03</pdfrwt>
<pdfrwt beam="1">  1       -5 0.36010501E-01 0.15794402E+03</pdfrwt>
<totfact> 0.18483550E+02</totfact>
</mgrwt>
</event>
<event>
 8    1  0.3674342E-007  0.2046549E+03  0.7546771E-02  0.1145871E+00
          5   -1    0    0  501    0  0.00000000000E+00  0.00000000000E+00  0.40497887748E+03  0.40500614959E+03  0.47000000000E+01 0. -1.
         -5   -1    0    0    0  501 -0.00000000000E+00 -0.00000000000E+00 -0.14116719833E+03  0.14124541722E+03  0.47000000000E+01 0. -1.
         25    2    1    2    0    0 -0.55251317498E+01 -0.16195160872E+03 -0.94254882578E+01  0.20486881658E+03  0.12499416599E+03 0.  0.
         25    2    1    2    0    0  0.55251317498E+01  0.16195160872E+03  0.27323716741E+03  0.34138275023E+03  0.12499912741E+03 0.  0.
          5    1    4    4  502    0  0.62161040377E+02  0.10498460137E+03  0.14030180709E+03  0.18599045281E+03  0.47000000000E+01 0. -1.
         -5    1    4    4    0  502 -0.56635908627E+02  0.56967007343E+02  0.13293536032E+03  0.15539229741E+03  0.47000000000E+01 0. -1.
          5    1    3    3  503    0  0.20505997828E+02 -0.14483668462E+03 -0.48948303933E+02  0.15432494165E+03  0.47000000000E+01 0. -1.
         -5    1    3    3    0  503 -0.26031129578E+02 -0.17114924100E+02  0.39522815675E+02  0.50543874930E+02  0.47000000000E+01 0. -1.
<mgrwt>
<rscale>  0 0.20465415E+03</rscale>
<asrwt>0</asrwt>
<pdfrwt beam="1">  1        5 0.62312556E-01 0.20465491E+03</pdfrwt>
<pdfrwt beam="2">  1       -5 0.21726146E-01 0.20465491E+03</pdfrwt>
<totfact> 0.37755586E+01</totfact>
</mgrwt>
</event>
<event>
 8    1  0.3674342E-007  0.2367476E+03  0.7546771E-02  0.1121983E+00
          5   -1    0    0  501    0  0.00000000000E+00  0.00000000000E+00  0.35902374236E+02  0.36208707182E+02  0.47000000000E+01 0. -1.
         -5   -1    0    0    0  501 -0.00000000000E+00 -0.00000000000E+00 -0.16219028412E+04  0.16219096511E+04  0.47000000000E+01 0. -1.
         25    2    1    2    0    0 -0.60986479045E+02 -0.19158923460E+03 -0.96262139757E+03  0.99130690345E+03  0.12499454518E+03 0.  0.
         25    2    1    2    0    0  0.60986479045E+02  0.19158923460E+03 -0.62337906939E+03  0.66681145482E+03  0.12494105282E+03 0.  0.
          5    1    4    4  502    0  0.92692922492E+02  0.16430079375E+03 -0.55807889397E+03  0.58911872369E+03  0.47000000000E+01 0.  1.
         -5    1    4    4    0  502 -0.31706443447E+02  0.27288440850E+02 -0.65300175419E+02  0.77692731126E+02  0.47000000000E+01 0.  1.
          5    1    3    3  503    0  0.29373509807E+02 -0.88106290326E+02 -0.28180507960E+03  0.29675194078E+03  0.47000000000E+01 0.  1.
         -5    1    3    3    0  503 -0.90359988853E+02 -0.10348294428E+03 -0.68081631797E+03  0.69455496266E+03  0.47000000000E+01 0.  1.
<mgrwt>
<rscale>  0 0.23674053E+03</rscale>
<asrwt>0</asrwt>
<pdfrwt beam="1">  1        5 0.55475314E-02 0.23674759E+03</pdfrwt>
<pdfrwt beam="2">  1       -5 0.24954755E+00 0.23674759E+03</pdfrwt>
<totfact> 0.10314953E+01</totfact>
</mgrwt>
</event>
<event>
 8    1  0.3674342E-007  0.1313572E+03  0.7546771E-02  0.1225459E+00
          5   -1    0    0  501    0  0.00000000000E+00  0.00000000000E+00  0.16219446185E+02  0.16886694009E+02  0.47000000000E+01 0.  1.
         -5   -1    0    0    0  501 -0.00000000000E+00 -0.00000000000E+00 -0.11779034868E+04  0.11779128636E+04  0.47000000000E+01 0.  1.
         25    2    1    2    0    0 -0.14491743921E+01 -0.40339124648E+02 -0.78399373314E+03  0.79492193211E+03  0.12500143785E+03 0.  0.
         25    2    1    2    0    0  0.14491743921E+01  0.40339124648E+02 -0.37769030752E+03  0.39987762554E+03  0.12499120739E+03 0.  0.
          5    1    3    3  502    0 -0.19564458032E+02  0.10366484135E+02 -0.23929883306E+02  0.32938751137E+02  0.47000000000E+01 0.  1.
         -5    1    3    3    0  502  0.18115283640E+02 -0.50705608783E+02 -0.76006384983E+03  0.76198318097E+03  0.47000000000E+01 0.  1.
          5    1    4    4  503    0 -0.14863419440E+02 -0.43229619126E+02 -0.12429778804E+03  0.13252075807E+03  0.47000000000E+01 0. -1.
         -5    1    4    4    0  503  0.16312593832E+02  0.83568743774E+02 -0.25339251948E+03  0.26735686747E+03  0.47000000000E+01 0. -1.
<mgrwt>
<rscale>  0 0.13135473E+03</rscale>
<asrwt>0</asrwt>
<pdfrwt beam="1">  1        5 0.25473484E-02 0.13135716E+03</pdfrwt>
<pdfrwt beam="2">  1       -5 0.18126790E+00 0.13135716E+03</pdfrwt>
<totfact> 0.91633381E+01</totfact>
</mgrwt>
</event>
<event>
 8    1  0.3674342E-007  0.1459392E+03  0.7546771E-02  0.1205555E+00
          5   -1    0    0  501    0  0.00000000000E+00  0.00000000000E+00  0.36203498540E+03  0.36206549222E+03  0.47000000000E+01 0.  1.
         -5   -1    0    0    0  501 -0.00000000000E+00 -0.00000000000E+00 -0.61978406941E+02  0.62156358701E+02  0.47000000000E+01 0.  1.
         25    2    1    2    0    0 -0.22672749697E+02  0.71835367418E+02  0.10133663095E+03  0.17767207121E+03  0.12499551402E+03 0.  0.
         25    2    1    2    0    0  0.22672749697E+02 -0.71835367418E+02  0.19871994751E+03  0.24654977971E+03  0.12499121067E+03 0.  0.
          5    1    4    4  502    0  0.47201884443E+02 -0.74274049410E+02  0.62509629980E+02  0.10804719409E+03  0.47000000000E+01 0. -1.
         -5    1    4    4    0  502 -0.24529134746E+02  0.24386819922E+01  0.13621031753E+03  0.13850258562E+03  0.47000000000E+01 0. -1.
          5    1    3    3  503    0 -0.12692015418E+02 -0.15984785079E+02  0.85157116674E+02  0.87695069016E+02  0.47000000000E+01 0. -1.
         -5    1    3    3    0  503 -0.99807342788E+01  0.87820152497E+02  0.16179514275E+02  0.89977002193E+02  0.47000000000E+01 0. -1.
<mgrwt>
<rscale>  0 0.14593829E+03</rscale>
<asrwt>0</asrwt>
<pdfrwt beam="1">  1        5 0.55713724E-01 0.14593921E+03</pdfrwt>
<pdfrwt beam="2">  1       -5 0.95511750E-02 0.14593921E+03</pdfrwt>
<totfact> 0.19402378E+02</totfact>
</mgrwt>
</event>
<event>
 8    1  0.3674342E-007  0.1275315E+03  0.7546771E-02  0.1231166E+00
         -5   -1    0    0    0  501 -0.00000000000E+00  0.00000000000E+00  0.27628679102E+03  0.27632676471E+03  0.47000000000E+01 0. -1.
          5   -1    0    0  501    0  0.00000000000E+00 -0.00000000000E+00 -0.58746258840E+02  0.58933970914E+02  0.47000000000E+01 0. -1.
         25    2    1    2    0    0  0.85782078391E+01  0.23778040553E+02  0.10581097984E+03  0.16571134688E+03  0.12500122466E+03 0.  0.
         25    2    1    2    0    0 -0.85782078391E+01 -0.23778040553E+02  0.11172955234E+03  0.16954938874E+03  0.12499808596E+03 0.  0.
          5    1    4    4  502    0 -0.55084198258E+01 -0.66933987346E+02  0.23743247786E+02  0.71388606699E+02  0.47000000000E+01 0. -1.
         -5    1    4    4    0  502 -0.30697880133E+01  0.43155946792E+02  0.87986304555E+02  0.98160782042E+02  0.47000000000E+01 0. -1.
          5    1    3    3  503    0 -0.21211166534E+01  0.48627363777E+02  0.12364825107E+03  0.13296653578E+03  0.47000000000E+01 0. -1.
         -5    1    3    3    0  503  0.10699324492E+02 -0.24849323224E+02 -0.17837271229E+02  0.32744811103E+02  0.47000000000E+01 0. -1.
<mgrwt>
<rscale>  0 0.12753074E+03</rscale>
<asrwt>0</asrwt>
<pdfrwt beam="2">  1        5 0.90554007E-02 0.12753151E+03</pdfrwt>
<pdfrwt beam="1">  1       -5 0.42523172E-01 0.12753151E+03</pdfrwt>
<totfact> 0.35927667E+02</totfact>
</mgrwt>
</event>
<event>
 8    1  0.3674342E-007  0.1260830E+03  0.7546771E-02  0.1233394E+00
          5   -1    0    0  501    0  0.00000000000E+00  0.00000000000E+00  0.23769927485E+03  0.23774573659E+03  0.47000000000E+01 0. -1.
         -5   -1    0    0    0  501 -0.00000000000E+00 -0.00000000000E+00 -0.81258054750E+02  0.81393866242E+02  0.47000000000E+01 0. -1.
         25    2    1    2    0    0 -0.46308648868E+01 -0.15699279663E+02  0.10829067436E+02  0.12652648843E+03  0.12499508503E+03 0.  0.
         25    2    1    2    0    0  0.46308648868E+01  0.15699279663E+02  0.14561215267E+03  0.19261311440E+03  0.12501600114E+03 0.  0.
          5    1    4    4  502    0 -0.27585190370E+02 -0.39507552566E+02  0.10786478389E+03  0.11823151459E+03  0.47000000000E+01 0. -1.
         -5    1    4    4    0  502  0.32216055256E+02  0.55206832228E+02  0.37747368775E+02  0.74381599811E+02  0.47000000000E+01 0. -1.
          5    1    3    3  503    0 -0.49076217120E+02  0.67479789177E+01  0.44073145079E+02  0.66472117640E+02  0.47000000000E+01 0.  1.
         -5    1    3    3    0  503  0.44445352234E+02 -0.22447258580E+02 -0.33244077644E+02  0.60054370793E+02  0.47000000000E+01 0.  1.
<mgrwt>
<rscale>  0 0.12607778E+03</rscale>
<asrwt>0</asrwt>
<pdfrwt beam="1">  1        5 0.36583140E-01 0.12608296E+03</pdfrwt>
<pdfrwt beam="2">  1       -5 0.12515260E-01 0.12608296E+03</pdfrwt>
<totfact> 0.27577497E+02</totfact>
</mgrwt>
</event>
<event>
 8    1  0.3674342E-007  0.1268661E+03  0.7546771E-02  0.1232182E+00
         -5   -1    0    0    0  501 -0.00000000000E+00  0.00000000000E+00  0.28533956739E+03  0.28537827303E+03  0.47000000000E+01 0. -1.
          5   -1    0    0  501    0  0.00000000000E+00 -0.00000000000E+00 -0.56276387733E+02  0.56472310173E+02  0.47000000000E+01 0. -1.
         25    2    1    2    0    0  0.18606749412E+02 -0.11120915001E+02  0.11689752159E+03  0.17251030497E+03  0.12499955556E+03 0.  0.
         25    2    1    2    0    0 -0.18606749412E+02  0.11120915001E+02  0.11216565806E+03  0.16934027824E+03  0.12500043644E+03 0.  0.
          5    1    4    4  502    0  0.35028498589E+02 -0.61457707265E+01 -0.78060840087E+01  0.36712275314E+02  0.47000000000E+01 0. -1.
         -5    1    4    4    0  502 -0.53635248000E+02  0.17266685727E+02  0.11997174207E+03  0.13262800292E+03  0.47000000000E+01 0. -1.
          5    1    3    3  503    0 -0.43343222602E+01 -0.62959445761E+02  0.33618064234E+02  0.71658512423E+02  0.47000000000E+01 0.  1.
         -5    1    3    3    0  503  0.22941071672E+02  0.51838530760E+02  0.83279457361E+02  0.10085179254E+03  0.47000000000E+01 0.  1.
<mgrwt>
<rscale>  0 0.12686583E+03</rscale>
<asrwt>0</asrwt>
<pdfrwt beam="2">  1        5 0.86759542E-02 0.12686605E+03</pdfrwt>
<pdfrwt beam="1">  1       -5 0.43916443E-01 0.12686605E+03</pdfrwt>
<totfact> 0.36118917E+02</totfact>
</mgrwt>
</event>
<event>
 8    1  0.3674342E-007  0.1324542E+03  0.7546771E-02  0.1223860E+00
         -5   -1    0    0    0  501 -0.00000000000E+00  0.00000000000E+00  0.98663961973E+01  0.10928667527E+02  0.47000000000E+01 0.  1.
          5   -1    0    0  501    0  0.00000000000E+00 -0.00000000000E+00 -0.19460698750E+04  0.19460755505E+04  0.47000000000E+01 0.  1.
         25    2    1    2    0    0  0.15555882140E+02  0.40967085780E+02 -0.61065210949E+03  0.62485162312E+03  0.12499305784E+03 0.  0.
         25    2    1    2    0    0 -0.15555882140E+02 -0.40967085780E+02 -0.13255513693E+04  0.13321525949E+04  0.12499526362E+03 0.  0.
          5    1    3    3  502    0  0.69532286707E+01  0.69139692033E+02 -0.17752186334E+03  0.19069542828E+03  0.47000000000E+01 0. -1.
         -5    1    3    3    0  502  0.86026534691E+01 -0.28172606253E+02 -0.43313024615E+03  0.43415619484E+03  0.47000000000E+01 0. -1.
          5    1    4    4  503    0  0.90563121695E+01 -0.75053979384E+02 -0.11041880295E+04  0.11067829106E+04  0.47000000000E+01 0.  1.
         -5    1    4    4    0  503 -0.24612194309E+02  0.34086893603E+02 -0.22136333976E+03  0.22536968433E+03  0.47000000000E+01 0.  1.
<mgrwt>
<rscale>  0 0.13245364E+03</rscale>
<asrwt>0</asrwt>
<pdfrwt beam="2">  1        5 0.29947723E+00 0.13245416E+03</pdfrwt>
<pdfrwt beam="1">  1       -5 0.16000584E-02 0.13245416E+03</pdfrwt>
<totfact> 0.33006789E+01</totfact>
</mgrwt>
</event>
<event>
 8    1  0.3674342E-007  0.1446933E+03  0.7546771E-02  0.1207154E+00
         -5   -1    0    0    0  501 -0.00000000000E+00  0.00000000000E+00  0.32033140523E+03  0.32036588329E+03  0.47000000000E+01 0. -1.
          5   -1    0    0  501    0  0.00000000000E+00 -0.00000000000E+00 -0.67305468870E+02  0.67469371864E+02  0.47000000000E+01 0. -1.
         25    2    1    2    0    0 -0.41899532763E+02  0.59626499437E+02  0.16052656824E+03  0.21611320368E+03  0.12500098965E+03 0.  0.
         25    2    1    2    0    0  0.41899532763E+02 -0.59626499437E+02  0.92499368123E+02  0.17172205148E+03  0.12498575751E+03 0.  0.
          5    1    3    3  502    0  0.40920757645E+01 -0.32842897063E+02  0.74366158204E+02  0.81534142895E+02  0.47000000000E+01 0.  1.
         -5    1    3    3    0  502 -0.45991608527E+02  0.92469396500E+02  0.86160410032E+02  0.13457906078E+03  0.47000000000E+01 0.  1.
          5    1    4    4  503    0 -0.38198723692E+02  0.46313987530E+01  0.42126540747E+02  0.57247950019E+02  0.47000000000E+01 0. -1.
         -5    1    4    4    0  503  0.80098256455E+02 -0.64257898190E+02  0.50372827375E+02  0.11447410146E+03  0.47000000000E+01 0. -1.
<mgrwt>
<rscale>  0 0.14468996E+03</rscale>
<asrwt>0</asrwt>
<pdfrwt beam="2">  1        5 0.10369947E-01 0.14469325E+03</pdfrwt>
<pdfrwt beam="1">  1       -5 0.49297015E-01 0.14469325E+03</pdfrwt>
<totfact> 0.21772474E+02</totfact>
</mgrwt>
</event>
<event>
 8    1  0.3674342E-007  0.2046507E+03  0.7546771E-02  0.1145874E+00
         -5   -1    0    0    0  501 -0.00000000000E+00  0.00000000000E+00  0.34689073464E+03  0.34692257317E+03  0.47000000000E+01 0.  1.
          5   -1    0    0  501    0  0.00000000000E+00 -0.00000000000E+00 -0.12380943686E+03  0.12389861442E+03  0.47000000000E+01 0.  1.
         25    2    1    2    0    0  0.14254399268E+03  0.77057195773E+02  0.14911795500E+03  0.25321489664E+03  0.12500007242E+03 0.  0.
         25    2    1    2    0    0 -0.14254399268E+03 -0.77057195773E+02  0.73963342780E+02  0.21760629095E+03  0.12500128205E+03 0.  0.
          5    1    3    3  502    0 -0.18534908663E+02 -0.96480584082E+01  0.19521590754E+02  0.28979481979E+02  0.47000000000E+01 0.  1.
         -5    1    3    3    0  502  0.16107890135E+03  0.86705254181E+02  0.12959636425E+03  0.22423541466E+03  0.47000000000E+01 0.  1.
          5    1    4    4  503    0 -0.84424711945E+02 -0.82594515398E+02  0.98733773363E+02  0.15401244743E+03  0.47000000000E+01 0. -1.
         -5    1    4    4    0  503 -0.58119280740E+02  0.55373196249E+01 -0.24770430584E+02  0.63593843520E+02  0.47000000000E+01 0. -1.
<mgrwt>
<rscale>  0 0.20465055E+03</rscale>
<asrwt>0</asrwt>
<pdfrwt beam="2">  1        5 0.19056915E-01 0.20465073E+03</pdfrwt>
<pdfrwt beam="1">  1       -5 0.53377114E-01 0.20465073E+03</pdfrwt>
<totfact> 0.67822715E+01</totfact>
</mgrwt>
</event>
<event>
 8    1  0.3674342E-007  0.1607835E+03  0.7546771E-02  0.1187816E+00
         -5   -1    0    0    0  501 -0.00000000000E+00  0.00000000000E+00  0.49598496771E+03  0.49600723603E+03  0.47000000000E+01 0.  1.
          5   -1    0    0  501    0  0.00000000000E+00 -0.00000000000E+00 -0.52007751888E+02  0.52219692229E+02  0.47000000000E+01 0.  1.
         25    2    1    2    0    0 -0.99901267792E+02  0.15667718558E+02  0.22694141724E+03  0.27812542940E+03  0.12500242761E+03 0.  0.
         25    2    1    2    0    0  0.99901267792E+02 -0.15667718558E+02  0.21703579858E+03  0.27010149886E+03  0.12499816442E+03 0.  0.
          5    1    3    3  502    0 -0.77104000256E+01 -0.23897245138E+02  0.14852444454E+03  0.15070543858E+03  0.47000000000E+01 0.  1.
         -5    1    3    3    0  502 -0.92190867767E+02  0.39564963696E+02  0.78416972707E+02  0.12741999082E+03  0.47000000000E+01 0.  1.
          5    1    4    4  503    0  0.42036125558E+02 -0.64490720359E+02  0.67780753253E+02  0.10267623569E+03  0.47000000000E+01 0. -1.
         -5    1    4    4    0  503  0.57865142235E+02  0.48823001801E+02  0.14925504533E+03  0.16742526317E+03  0.47000000000E+01 0. -1.
<mgrwt>
<rscale>  0 0.16078271E+03</rscale>
<asrwt>0</asrwt>
<pdfrwt beam="2">  1        5 0.80192090E-02 0.16078354E+03</pdfrwt>
<pdfrwt beam="1">  1       -5 0.76323393E-01 0.16078354E+03</pdfrwt>
<totfact> 0.13432007E+02</totfact>
</mgrwt>
</event>
<event>
 8    1  0.3674342E-007  0.1346785E+03  0.7546771E-02  0.1220683E+00
          5   -1    0    0  501    0  0.00000000000E+00  0.00000000000E+00  0.13038575047E+03  0.13047043315E+03  0.47000000000E+01 0. -1.
         -5   -1    0    0    0  501 -0.00000000000E+00 -0.00000000000E+00 -0.15776024633E+03  0.15783024210E+03  0.47000000000E+01 0. -1.
         25    2    1    2    0    0  0.42188403938E+02 -0.27014473538E+02 -0.63478240864E+02  0.14886692820E+03  0.12498892768E+03 0.  0.
         25    2    1    2    0    0 -0.42188403938E+02  0.27014473538E+02  0.36103745012E+02  0.13943374705E+03  0.12501458396E+03 0.  0.
          5    1    4    4  502    0 -0.43535738896E+02 -0.19925976894E+02 -0.31120435382E+02  0.57297265334E+02  0.47000000000E+01 0. -1.
         -5    1    4    4    0  502  0.13473349576E+01  0.46940450432E+02  0.67224180394E+02  0.82136481712E+02  0.47000000000E+01 0. -1.
          5    1    3    3  503    0 -0.34674297493E+02 -0.26518585185E+02 -0.56485964510E+02  0.71542270396E+02  0.47000000000E+01 0.  1.
         -5    1    3    3    0  503  0.76862701432E+02 -0.49588835368E+00 -0.69922763545E+01  0.77324657809E+02  0.47000000000E+01 0.  1.
<mgrwt>
<rscale>  0 0.13467251E+03</rscale>
<asrwt>0</asrwt>
<pdfrwt beam="1">  1        5 0.20071244E-01 0.13467847E+03</pdfrwt>
<pdfrwt beam="2">  1       -5 0.24282706E-01 0.13467847E+03</pdfrwt>
<totfact> 0.26689204E+02</totfact>
</mgrwt>
</event>
<event>
 8    1  0.3674342E-007  0.1279843E+03  0.7546771E-02  0.1230478E+00
          5   -1    0    0  501    0  0.00000000000E+00  0.00000000000E+00  0.15476012069E+03  0.15483147276E+03  0.47000000000E+01 0.  1.
         -5   -1    0    0    0  501 -0.00000000000E+00 -0.00000000000E+00 -0.10759349177E+03  0.10769609776E+03  0.47000000000E+01 0.  1.
         25    2    1    2    0    0 -0.40242607439E+01 -0.27152377588E+02  0.61526563745E+01  0.12813214227E+03  0.12500617752E+03 0.  0.
         25    2    1    2    0    0  0.40242607439E+01  0.27152377588E+02  0.41013972542E+02  0.13439542824E+03  0.12500615547E+03 0.  0.
          5    1    3    3  502    0  0.31556941176E+02 -0.31529706012E+02  0.52691635642E+02  0.69198709267E+02  0.47000000000E+01 0. -1.
         -5    1    3    3    0  502 -0.35581201920E+02  0.43773284236E+01 -0.46538979268E+02  0.58933433003E+02  0.47000000000E+01 0. -1.
          5    1    4    4  503    0  0.92580862952E+01  0.76485758874E+02  0.32901723602E+02  0.83907072934E+02  0.47000000000E+01 0. -1.
         -5    1    4    4    0  503 -0.52338255513E+01 -0.49333381286E+02  0.81122489407E+01  0.50488355310E+02  0.47000000000E+01 0. -1.
<mgrwt>
<rscale>  0 0.12798433E+03</rscale>
<asrwt>0</asrwt>
<pdfrwt beam="1">  1        5 0.23822631E-01 0.12798434E+03</pdfrwt>
<pdfrwt beam="2">  1       -5 0.16566226E-01 0.12798434E+03</pdfrwt>
<totfact> 0.38729757E+02</totfact>
</mgrwt>
</event>
<event>
 8    1  0.3674342E-007  0.1421551E+03  0.7546771E-02  0.1210461E+00
         -5   -1    0    0    0  501 -0.00000000000E+00  0.00000000000E+00  0.92135054322E+03  0.92136253098E+03  0.47000000000E+01 0.  1.
          5   -1    0    0  501    0  0.00000000000E+00 -0.00000000000E+00 -0.47712650064E+02  0.47943581178E+02  0.47000000000E+01 0.  1.
         25    2    1    2    0    0  0.52304546756E+02 -0.42980724575E+02  0.79347407962E+03  0.80610588090E+03  0.12498987113E+03 0.  0.
         25    2    1    2    0    0 -0.52304546756E+02  0.42980724575E+02  0.80163813534E+02  0.16320023126E+03  0.12499988075E+03 0.  0.
          5    1    4    4  502    0 -0.78553930406E+02  0.59108497510E+02  0.86924711080E+02  0.13131081394E+03  0.47000000000E+01 0.  1.
         -5    1    4    4    0  502  0.26249383650E+02 -0.16127772935E+02 -0.67608975461E+01  0.31889417327E+02  0.47000000000E+01 0.  1.
          5    1    3    3  503    0 -0.35645996217E+02  0.11258246110E+02  0.17152378605E+03  0.17561288202E+03  0.47000000000E+01 0. -1.
         -5    1    3    3    0  503  0.87950542974E+02 -0.54238970685E+02  0.62195029358E+03  0.63049299888E+03  0.47000000000E+01 0. -1.
<mgrwt>
<rscale>  0 0.14215292E+03</rscale>
<asrwt>0</asrwt>
<pdfrwt beam="2">  1        5 0.73590940E-02 0.14215512E+03</pdfrwt>
<pdfrwt beam="1">  1       -5 0.14176492E+00 0.14215512E+03</pdfrwt>
<totfact> 0.32503083E+01</totfact>
</mgrwt>
</event>
<event>
 8    1  0.3674342E-007  0.1707313E+03  0.7546771E-02  0.1177087E+00
         -5   -1    0    0    0  501 -0.00000000000E+00  0.00000000000E+00  0.10099398403E+04  0.10099507766E+04  0.47000000000E+01 0.  1.
          5   -1    0    0  501    0  0.00000000000E+00 -0.00000000000E+00 -0.36267341615E+02  0.36570617548E+02  0.47000000000E+01 0.  1.
         25    2    1    2    0    0 -0.10886255681E+03  0.40896756315E+02  0.72532868566E+03  0.74515147700E+03  0.12500168194E+03 0.  0.
         25    2    1    2    0    0  0.10886255681E+03 -0.40896756315E+02  0.24834381305E+03  0.30136991711E+03  0.12500230599E+03 0.  0.
          5    1    4    4  502    0  0.62690500913E+02  0.41253857763E+02  0.92731435815E+02  0.11938671984E+03  0.47000000000E+01 0. -1.
         -5    1    4    4    0  502  0.46172055897E+02 -0.82150614078E+02  0.15561237724E+03  0.18198319727E+03  0.47000000000E+01 0. -1.
          5    1    3    3  503    0 -0.54548792000E+02  0.84396282301E+02  0.45269476228E+03  0.46373800898E+03  0.47000000000E+01 0. -1.
         -5    1    3    3    0  503 -0.54313764810E+02 -0.43499525986E+02  0.27263392338E+03  0.28141346802E+03  0.47000000000E+01 0. -1.
<mgrwt>
<rscale>  0 0.17073119E+03</rscale>
<asrwt>0</asrwt>
<pdfrwt beam="2">  1        5 0.56037613E-02 0.17073130E+03</pdfrwt>
<pdfrwt beam="1">  1       -5 0.15539953E+00 0.17073130E+03</pdfrwt>
<totfact> 0.42210381E+01</totfact>
</mgrwt>
</event>
<event>
 8    1  0.3674342E-007  0.1261927E+03  0.7546771E-02  0.1233220E+00
         -5   -1    0    0    0  501 -0.00000000000E+00  0.00000000000E+00  0.47757497884E+03  0.47759810553E+03  0.47000000000E+01 0. -1.
          5   -1    0    0  501    0  0.00000000000E+00 -0.00000000000E+00 -0.33780566386E+02  0.34105962314E+02  0.47000000000E+01 0. -1.
         25    2    1    2    0    0  0.95890460545E+01  0.14380749143E+02  0.25659139809E+03  0.28594359026E+03  0.12500334191E+03 0.  0.
         25    2    1    2    0    0 -0.95890460545E+01 -0.14380749143E+02  0.18720301436E+03  0.22576047758E+03  0.12499627556E+03 0.  0.
          5    1    4    4  502    0  0.24970580142E+02  0.25396713876E+02  0.52916516780E+01  0.36312732282E+02  0.47000000000E+01 0. -1.
         -5    1    4    4    0  502 -0.34559626197E+02 -0.39777463018E+02  0.18191136268E+03  0.18944774530E+03  0.47000000000E+01 0. -1.
          5    1    3    3  503    0  0.12061445804E+02 -0.21654373334E+01 -0.11403002166E+02  0.17386375474E+02  0.47000000000E+01 0.  1.
         -5    1    3    3    0  503 -0.24723997497E+01  0.16546186476E+02  0.26799440025E+03  0.26855721479E+03  0.47000000000E+01 0.  1.
<mgrwt>
<rscale>  0 0.12619093E+03</rscale>
<asrwt>0</asrwt>
<pdfrwt beam="2">  1        5 0.52238201E-02 0.12619268E+03</pdfrwt>
<pdfrwt beam="1">  1       -5 0.73499876E-01 0.12619268E+03</pdfrwt>
<totfact> 0.27873259E+02</totfact>
</mgrwt>
</event>
<event>
 8    1  0.3674342E-007  0.2106543E+03  0.7546771E-02  0.1141049E+00
          5   -1    0    0  501    0  0.00000000000E+00  0.00000000000E+00  0.35392652822E+03  0.35395773389E+03  0.47000000000E+01 0. -1.
         -5   -1    0    0    0  501 -0.00000000000E+00 -0.00000000000E+00 -0.12530900589E+03  0.12539711702E+03  0.47000000000E+01 0. -1.
         25    2    1    2    0    0 -0.12621295548E+03 -0.11322537887E+03  0.11201870474E+03  0.23858415575E+03  0.12499805043E+03 0.  0.
         25    2    1    2    0    0  0.12621295548E+03  0.11322537887E+03  0.11659881760E+03  0.24077069516E+03  0.12500218731E+03 0.  0.
          5    1    3    3  502    0 -0.90471388653E+02 -0.12886213633E+03  0.12057276289E+03  0.19836936129E+03  0.47000000000E+01 0.  1.
         -5    1    3    3    0  502 -0.35741566824E+02  0.15636757459E+02 -0.85540581528E+01  0.40214794463E+02  0.47000000000E+01 0.  1.
          5    1    4    4  503    0  0.13094001118E+03  0.76849312736E+02  0.42143060936E+02  0.15763638850E+03  0.47000000000E+01 0. -1.
         -5    1    4    4    0  503 -0.47270557007E+01  0.36376066137E+02  0.74455756661E+02  0.83134306656E+02  0.47000000000E+01 0. -1.
<mgrwt>
<rscale>  0 0.21065371E+03</rscale>
<asrwt>0</asrwt>
<pdfrwt beam="1">  1        5 0.54459412E-01 0.21065432E+03</pdfrwt>
<pdfrwt beam="2">  1       -5 0.19287487E-01 0.21065432E+03</pdfrwt>
<totfact> 0.63976451E+01</totfact>
</mgrwt>
</event>
<event>
 8    1  0.3674342E-007  0.1562496E+03  0.7546771E-02  0.1192998E+00
          5   -1    0    0  501    0  0.00000000000E+00  0.00000000000E+00  0.37875145066E+02  0.38165647037E+02  0.47000000000E+01 0.  1.
         -5   -1    0    0    0  501 -0.00000000000E+00 -0.00000000000E+00 -0.67807742975E+03  0.67809371825E+03  0.47000000000E+01 0.  1.
         25    2    1    2    0    0  0.56726250032E+02 -0.74640795935E+02 -0.40290990103E+03  0.43214619913E+03  0.12499933285E+03 0.  0.
         25    2    1    2    0    0 -0.56726250032E+02  0.74640795935E+02 -0.23729238365E+03  0.28411316616E+03  0.12499399980E+03 0.  0.
          5    1    4    4  502    0 -0.79614908988E+02  0.72343284701E+01 -0.16004554067E+03  0.17896238245E+03  0.47000000000E+01 0.  1.
         -5    1    4    4    0  502  0.22888658956E+02  0.67406467465E+02 -0.77246842974E+02  0.10515078371E+03  0.47000000000E+01 0.  1.
          5    1    3    3  503    0  0.25716344001E+02  0.27683790993E+02 -0.46971377981E+02  0.60465882793E+02  0.47000000000E+01 0.  1.
         -5    1    3    3    0  503  0.31009906031E+02 -0.10232458693E+03 -0.35593852305E+03  0.37168031634E+03  0.47000000000E+01 0.  1.
<mgrwt>
<rscale>  0 0.15624857E+03</rscale>
<asrwt>0</asrwt>
<pdfrwt beam="1">  1        5 0.58505452E-02 0.15624964E+03</pdfrwt>
<pdfrwt beam="2">  1       -5 0.10434320E+00 0.15624964E+03</pdfrwt>
<totfact> 0.10816915E+02</totfact>
</mgrwt>
</event>
<event>
 8    1  0.3674342E-007  0.1975757E+03  0.7546771E-02  0.1151801E+00
         -5   -1    0    0    0  501 -0.00000000000E+00  0.00000000000E+00  0.22966723460E+03  0.22971532088E+03  0.47000000000E+01 0. -1.
          5   -1    0    0  501    0  0.00000000000E+00 -0.00000000000E+00 -0.24643975473E+03  0.24648456891E+03  0.47000000000E+01 0. -1.
         25    2    1    2    0    0  0.77419386299E+02  0.13197104270E+03  0.12430606827E+03  0.23342565488E+03  0.12500168103E+03 0.  0.
         25    2    1    2    0    0 -0.77419386299E+02 -0.13197104270E+03 -0.14107858840E+03  0.24277423491E+03  0.12500417410E+03 0.  0.
          5    1    4    4  502    0 -0.98539643320E+02 -0.94838435874E+02 -0.56788181534E+02  0.14815997363E+03  0.47000000000E+01 0. -1.
         -5    1    4    4    0  502  0.21120257021E+02 -0.37132606827E+02 -0.84290406871E+02  0.94614261276E+02  0.47000000000E+01 0. -1.
          5    1    3    3  503    0  0.80333393467E+02  0.89546834139E+02  0.14283308031E+03  0.18680328809E+03  0.47000000000E+01 0. -1.
         -5    1    3    3    0  503 -0.29140071680E+01  0.42424208562E+02 -0.18527012040E+02  0.46622366789E+02  0.47000000000E+01 0. -1.
<mgrwt>
<rscale>  0 0.19757532E+03</rscale>
<asrwt>0</asrwt>
<pdfrwt beam="2">  1        5 0.37920955E-01 0.19757571E+03</pdfrwt>
<pdfrwt beam="1">  1       -5 0.35340567E-01 0.19757571E+03</pdfrwt>
<totfact> 0.41545604E+01</totfact>
</mgrwt>
</event>
<event>
 8    1  0.3674342E-007  0.1254988E+03  0.7546771E-02  0.1234293E+00
          5   -1    0    0  501    0  0.00000000000E+00  0.00000000000E+00  0.33843647912E+03  0.33846911292E+03  0.47000000000E+01 0. -1.
         -5   -1    0    0    0  501 -0.00000000000E+00 -0.00000000000E+00 -0.77838160586E+02  0.77979928465E+02  0.47000000000E+01 0. -1.
         25    2    1    2    0    0 -0.96395545589E+01  0.55536727811E+01 -0.18798786614E+01  0.12551290023E+03  0.12500475946E+03 0.  0.
         25    2    1    2    0    0  0.96395545589E+01 -0.55536727811E+01  0.26247819719E+03  0.29093614115E+03  0.12500107972E+03 0.  0.
          5    1    4    4  502    0  0.59816597407E+02  0.25088537500E+02  0.15973740898E+03  0.17246909830E+03  0.47000000000E+01 0. -1.
         -5    1    4    4    0  502 -0.50177042848E+02 -0.30642210281E+02  0.10274078821E+03  0.11846704285E+03  0.47000000000E+01 0. -1.
          5    1    3    3  503    0 -0.60660978992E+02  0.28435294309E+01 -0.29018718812E+02  0.67468630291E+02  0.47000000000E+01 0.  1.
         -5    1    3    3    0  503  0.51021424433E+02  0.27101433502E+01  0.27138840150E+02  0.58044269940E+02  0.47000000000E+01 0.  1.
<mgrwt>
<rscale>  0 0.12549791E+03</rscale>
<asrwt>0</asrwt>
<pdfrwt beam="1">  1        5 0.52080565E-01 0.12549882E+03</pdfrwt>
<pdfrwt beam="2">  1       -5 0.11988517E-01 0.12549882E+03</pdfrwt>
<totfact> 0.14300128E+02</totfact>
</mgrwt>
</event>
<event>
 8    1  0.3674342E-007  0.1281675E+03  0.7546771E-02  0.1230210E+00
          5   -1    0    0  501    0  0.00000000000E+00  0.00000000000E+00  0.23034598502E+02  0.23509205179E+02  0.47000000000E+01 0. -1.
         -5   -1    0    0    0  501 -0.00000000000E+00 -0.00000000000E+00 -0.70942764969E+03  0.70944321840E+03  0.47000000000E+01 0. -1.
         25    2    1    2    0    0 -0.22739300528E+02 -0.16885391522E+02 -0.37127503317E+03  0.39276679662E+03  0.12497365336E+03 0.  0.
         25    2    1    2    0    0  0.22739300528E+02  0.16885391522E+02 -0.31511801802E+03  0.34018562697E+03  0.12499881312E+03 0.  0.
          5    1    4    4  502    0 -0.24948071236E+02 -0.20456306087E+02 -0.24605606566E+03  0.24820665617E+03  0.47000000000E+01 0.  1.
         -5    1    4    4    0  502  0.47687371764E+02  0.37341697609E+02 -0.69061952355E+02  0.91978970799E+02  0.47000000000E+01 0.  1.
          5    1    3    3  503    0 -0.59972687010E+02  0.20039960224E+02 -0.11678395843E+03  0.13288681703E+03  0.47000000000E+01 0. -1.
         -5    1    3    3    0  503  0.37233386482E+02 -0.36925351746E+02 -0.25449107473E+03  0.25987997959E+03  0.47000000000E+01 0. -1.
<mgrwt>
<rscale>  0 0.12816132E+03</rscale>
<asrwt>0</asrwt>
<pdfrwt beam="1">  1        5 0.35814907E-02 0.12816745E+03</pdfrwt>
<pdfrwt beam="2">  1       -5 0.10918040E+00 0.12816745E+03</pdfrwt>
<totfact> 0.20413967E+02</totfact>
</mgrwt>
</event>
<event>
 8    1  0.3674342E-007  0.1391798E+03  0.7546771E-02  0.1214442E+00
          5   -1    0    0  501    0  0.00000000000E+00  0.00000000000E+00  0.24809835418E+02  0.25251097669E+02  0.47000000000E+01 0. -1.
         -5   -1    0    0    0  501 -0.00000000000E+00 -0.00000000000E+00 -0.77971821556E+03  0.77973238081E+03  0.47000000000E+01 0. -1.
         25    2    1    2    0    0 -0.52963772979E+02  0.30687760064E+02 -0.41373758192E+03  0.43651567614E+03  0.12498099440E+03 0.  0.
         25    2    1    2    0    0  0.52963772979E+02 -0.30687760064E+02 -0.34117079823E+03  0.36846780234E+03  0.12499643166E+03 0.  0.
          5    1    3    3  502    0  0.40377165341E+02  0.43628543373E+01 -0.98002958113E+02  0.10618860475E+03  0.47000000000E+01 0. -1.
         -5    1    3    3    0  502 -0.93340938320E+02  0.26324905727E+02 -0.31573462380E+03  0.33032707140E+03  0.47000000000E+01 0. -1.
          5    1    4    4  503    0 -0.33930845471E+02  0.13351230797E+02 -0.14224685479E+03  0.14692111944E+03  0.47000000000E+01 0. -1.
         -5    1    4    4    0  503  0.86894618450E+02 -0.44038990861E+02 -0.19892394344E+03  0.22154668290E+03  0.47000000000E+01 0. -1.
<mgrwt>
<rscale>  0 0.13917630E+03</rscale>
<asrwt>0</asrwt>
<pdfrwt beam="1">  1        5 0.38519312E-02 0.13917977E+03</pdfrwt>
<pdfrwt beam="2">  1       -5 0.11999166E+00 0.13917977E+03</pdfrwt>
<totfact> 0.14704735E+02</totfact>
</mgrwt>
</event>
<event>
 8    1  0.3674342E-007  0.1332207E+03  0.7546771E-02  0.1222754E+00
          5   -1    0    0  501    0  0.00000000000E+00  0.00000000000E+00  0.15438646598E+04  0.15438718139E+04  0.47000000000E+01 0.  1.
         -5   -1    0    0    0  501 -0.00000000000E+00 -0.00000000000E+00 -0.11175533620E+02  0.12123636075E+02  0.47000000000E+01 0.  1.
         25    2    1    2    0    0 -0.29856410222E+02  0.35082460946E+02  0.67486774362E+03  0.68789114622E+03  0.12500229344E+03 0.  0.
         25    2    1    2    0    0  0.29856410222E+02 -0.35082460946E+02  0.85782138251E+03  0.86810430372E+03  0.12500149417E+03 0.  0.
          5    1    4    4  502    0  0.45901249032E+02  0.36890959888E+02  0.35466648060E+03  0.35955287517E+03  0.47000000000E+01 0.  1.
         -5    1    4    4    0  502 -0.16044838810E+02 -0.71973420834E+02  0.50315490191E+03  0.50855142855E+03  0.47000000000E+01 0.  1.
          5    1    3    3  503    0 -0.75368760584E+02  0.38075999127E+01  0.44909110014E+03  0.45541174130E+03  0.47000000000E+01 0. -1.
         -5    1    3    3    0  503  0.45512350363E+02  0.31274861033E+02  0.22577664348E+03  0.23247940491E+03  0.47000000000E+01 0. -1.
<mgrwt>
<rscale>  0 0.13322052E+03</rscale>
<asrwt>0</asrwt>
<pdfrwt beam="1">  1        5 0.23759116E+00 0.13322071E+03</pdfrwt>
<pdfrwt beam="2">  1       -5 0.17927938E-02 0.13322071E+03</pdfrwt>
<totfact> 0.67839777E+01</totfact>
</mgrwt>
</event>
<event>
 8    1  0.3674342E-007  0.1272076E+03  0.7546771E-02  0.1231662E+00
         -5   -1    0    0    0  501 -0.00000000000E+00  0.00000000000E+00  0.14173828366E+03  0.14181618756E+03  0.47000000000E+01 0.  1.
          5   -1    0    0  501    0  0.00000000000E+00 -0.00000000000E+00 -0.15295087861E+03  0.15302307430E+03  0.47000000000E+01 0.  1.
         25    2    1    2    0    0 -0.15348899054E+02 -0.17923714361E+02  0.68746452211E+02  0.14459546342E+03  0.12499970044E+03 0.  0.
         25    2    1    2    0    0  0.15348899054E+02  0.17923714361E+02 -0.79959047168E+02  0.15024379845E+03  0.12499160576E+03 0.  0.
          5    1    4    4  502    0  0.28462783013E+02 -0.39313367171E+02  0.25903302325E+01  0.48831042031E+02  0.47000000000E+01 0. -1.
         -5    1    4    4    0  502 -0.13113883959E+02  0.57237081532E+02 -0.82549377401E+02  0.10141275642E+03  0.47000000000E+01 0. -1.
          5    1    3    3  503    0 -0.60118776370E+02 -0.19491868492E+01 -0.66399283729E+00  0.60337363947E+02  0.47000000000E+01 0.  1.
         -5    1    3    3    0  503  0.44769877316E+02 -0.15974527512E+02  0.69410445048E+02  0.84258099468E+02  0.47000000000E+01 0.  1.
<mgrwt>
<rscale>  0 0.12720561E+03</rscale>
<asrwt>0</asrwt>
<pdfrwt beam="2">  1        5 0.23542450E-01 0.12720760E+03</pdfrwt>
<pdfrwt beam="1">  1       -5 0.21817436E-01 0.12720760E+03</pdfrwt>
<totfact> 0.23725409E+02</totfact>
</mgrwt>
</event>
<event>
 8    1  0.3674342E-007  0.1262396E+03  0.7546771E-02  0.1233152E+00
          5   -1    0    0  501    0  0.00000000000E+00  0.00000000000E+00  0.45092710001E+02  0.45336988158E+02  0.47000000000E+01 0.  1.
         -5   -1    0    0    0  501 -0.00000000000E+00 -0.00000000000E+00 -0.61438697285E+03  0.61440494986E+03  0.47000000000E+01 0.  1.
         25    2    1    2    0    0  0.76149108126E+01  0.15945330225E+02 -0.50012342576E+03  0.51580993372E+03  0.12499682515E+03 0.  0.
         25    2    1    2    0    0 -0.76149108126E+01 -0.15945330225E+02 -0.69170837085E+02  0.14393200430E+03  0.12497830506E+03 0.  0.
          5    1    4    4  502    0  0.58178592001E+02 -0.29763476751E+00 -0.29780554138E+02  0.65527158937E+02  0.47000000000E+01 0.  1.
         -5    1    4    4    0  502 -0.65793502813E+02 -0.15647695458E+02 -0.39390282947E+02  0.78404845362E+02  0.47000000000E+01 0.  1.
          5    1    3    3  503    0  0.53982544482E+02 -0.17495970876E+02 -0.35877835101E+03  0.36326879753E+03  0.47000000000E+01 0. -1.
         -5    1    3    3    0  503 -0.46367633669E+02  0.33441301101E+02 -0.14134507476E+03  0.15254113619E+03  0.47000000000E+01 0. -1.
<mgrwt>
<rscale>  0 0.12623506E+03</rscale>
<asrwt>0</asrwt>
<pdfrwt beam="1">  1        5 0.69575139E-02 0.12623964E+03</pdfrwt>
<pdfrwt beam="2">  1       -5 0.94541240E-01 0.12623964E+03</pdfrwt>
<totfact> 0.95852949E+01</totfact>
</mgrwt>
</event>
<event>
 8    1  0.3674342E-007  0.1493979E+03  0.7546771E-02  0.1201215E+00
         -5   -1    0    0    0  501 -0.00000000000E+00  0.00000000000E+00  0.23942699670E+03  0.23947312323E+03  0.47000000000E+01 0. -1.
          5   -1    0    0  501    0  0.00000000000E+00 -0.00000000000E+00 -0.10586587993E+03  0.10597015870E+03  0.47000000000E+01 0. -1.
         25    2    1    2    0    0  0.71180737327E+02 -0.40341395814E+02  0.12669879557E+03  0.19588781540E+03  0.12500130335E+03 0.  0.
         25    2    1    2    0    0 -0.71180737327E+02  0.40341395814E+02  0.68623211993E+01  0.14955546653E+03  0.12500248211E+03 0.  0.
          5    1    3    3  502    0  0.85367629172E+02  0.23484267239E+01  0.32688840170E+02  0.91563079296E+02  0.47000000000E+01 0. -1.
         -5    1    3    3    0  502 -0.14186891846E+02 -0.42689822538E+02  0.94009955397E+02  0.10432473610E+03  0.47000000000E+01 0. -1.
          5    1    4    4  503    0  0.26217914732E+02 -0.95785495586E+01  0.25899206547E+02  0.38366477090E+02  0.47000000000E+01 0. -1.
         -5    1    4    4    0  503 -0.97398652058E+02  0.49919945373E+02 -0.19036885348E+02  0.11118898944E+03  0.47000000000E+01 0. -1.
<mgrwt>
<rscale>  0 0.14939770E+03</rscale>
<asrwt>0</asrwt>
<pdfrwt beam="2">  1        5 0.16298628E-01 0.14939795E+03</pdfrwt>
<pdfrwt beam="1">  1       -5 0.36846492E-01 0.14939795E+03</pdfrwt>
<totfact> 0.17897969E+02</totfact>
</mgrwt>
</event>
<event>
 8    1  0.3674342E-007  0.1267428E+03  0.7546771E-02  0.1232371E+00
         -5   -1    0    0    0  501 -0.00000000000E+00  0.00000000000E+00  0.14322363875E+03  0.14330073515E+03  0.47000000000E+01 0.  1.
          5   -1    0    0  501    0  0.00000000000E+00 -0.00000000000E+00 -0.13978927616E+03  0.13986826563E+03  0.47000000000E+01 0.  1.
         25    2    1    2    0    0 -0.30528292848E+01 -0.20706845451E+02  0.64806737038E+02  0.14235049413E+03  0.12500262716E+03 0.  0.
         25    2    1    2    0    0  0.30528292848E+01  0.20706845451E+02 -0.61372374452E+02  0.14081850666E+03  0.12500076102E+03 0.  0.
          5    1    4    4  502    0  0.26116753036E+02  0.69684804141E+01 -0.94221922184E+02  0.98135137074E+02  0.47000000000E+01 0. -1.
         -5    1    4    4    0  502 -0.23063923751E+02  0.13738365037E+02  0.32849547732E+02  0.42683369582E+02  0.47000000000E+01 0. -1.
          5    1    3    3  503    0 -0.50982419454E+02  0.24776288551E+02  0.13229999267E+02  0.58396870193E+02  0.47000000000E+01 0.  1.
         -5    1    3    3    0  503  0.47929590169E+02 -0.45483134002E+02  0.51576737771E+02  0.83953623933E+02  0.47000000000E+01 0.  1.
<mgrwt>
<rscale>  0 0.12674239E+03</rscale>
<asrwt>0</asrwt>
<pdfrwt beam="2">  1        5 0.21518049E-01 0.12674285E+03</pdfrwt>
<pdfrwt beam="1">  1       -5 0.22046412E-01 0.12674285E+03</pdfrwt>
<totfact> 0.27533683E+02</totfact>
</mgrwt>
</event>
<event>
 8    1  0.3674342E-007  0.1395713E+03  0.7546771E-02  0.1213912E+00
         -5   -1    0    0    0  501 -0.00000000000E+00  0.00000000000E+00  0.68520008325E+03  0.68521620244E+03  0.47000000000E+01 0. -1.
          5   -1    0    0  501    0  0.00000000000E+00 -0.00000000000E+00 -0.33126594559E+02  0.33458351230E+02  0.47000000000E+01 0. -1.
         25    2    1    2    0    0 -0.47010996890E+02  0.40518148069E+02  0.46361897917E+03  0.48417218063E+03  0.12501355328E+03 0.  0.
         25    2    1    2    0    0  0.47010996890E+02 -0.40518148069E+02  0.18845450952E+03  0.23450237304E+03  0.12499802658E+03 0.  0.
          5    1    4    4  502    0  0.15638590611E+02  0.36925412245E+02  0.17186181371E+02  0.43880592702E+02  0.47000000000E+01 0. -1.
         -5    1    4    4    0  502  0.31372406279E+02 -0.77443560314E+02  0.17126832815E+03  0.19062178033E+03  0.47000000000E+01 0. -1.
          5    1    3    3  503    0  0.20264827224E+02  0.41016675436E+02  0.34223160719E+03  0.34530796956E+03  0.47000000000E+01 0. -1.
         -5    1    3    3    0  503 -0.67275824114E+02 -0.49852736708E+00  0.12138737198E+03  0.13886421107E+03  0.47000000000E+01 0. -1.
<mgrwt>
<rscale>  0 0.13956780E+03</rscale>
<asrwt>0</asrwt>
<pdfrwt beam="2">  1        5 0.51231592E-02 0.13957128E+03</pdfrwt>
<pdfrwt beam="1">  1       -5 0.10544215E+00 0.13957128E+03</pdfrwt>
<totfact> 0.12702259E+02</totfact>
</mgrwt>
</event>
<event>
 8    1  0.3674342E-007  0.1296247E+03  0.7546771E-02  0.1228015E+00
         -5   -1    0    0    0  501 -0.00000000000E+00  0.00000000000E+00  0.38360255087E+02  0.38647110763E+02  0.47000000000E+01 0.  1.
          5   -1    0    0  501    0  0.00000000000E+00 -0.00000000000E+00 -0.44135867501E+03  0.44138369930E+03  0.47000000000E+01 0.  1.
         25    2    1    2    0    0  0.33595727924E+02 -0.69886930559E+01 -0.17524746064E+03  0.21797534885E+03  0.12499626186E+03 0.  0.
         25    2    1    2    0    0 -0.33595727924E+02  0.69886930559E+01 -0.22775095928E+03  0.26205546122E+03  0.12500020214E+03 0.  0.
          5    1    4    4  502    0  0.42658463651E+02  0.17223520432E+02 -0.48909225161E+02  0.67309705711E+02  0.47000000000E+01 0. -1.
         -5    1    4    4    0  502 -0.76254191575E+02 -0.10234827376E+02 -0.17884173412E+03  0.19474575551E+03  0.47000000000E+01 0. -1.
          5    1    3    3  503    0 -0.28074659061E+02  0.12401502109E+02  0.80557195001E-01  0.31049641309E+02  0.47000000000E+01 0.  1.
         -5    1    3    3    0  503  0.61670386986E+02 -0.19390195165E+02 -0.17532801784E+03  0.18692570754E+03  0.47000000000E+01 0.  1.
<mgrwt>
<rscale>  0 0.12962376E+03</rscale>
<asrwt>0</asrwt>
<pdfrwt beam="2">  1        5 0.67925322E-01 0.12962471E+03</pdfrwt>
<pdfrwt beam="1">  1       -5 0.59255688E-02 0.12962471E+03</pdfrwt>
<totfact> 0.27237481E+02</totfact>
</mgrwt>
</event>
<event>
 8    1  0.3674342E-007  0.1312864E+03  0.7546771E-02  0.1225560E+00
          5   -1    0    0  501    0  0.00000000000E+00  0.00000000000E+00  0.95481704725E+02  0.95597311350E+02  0.47000000000E+01 0.  1.
         -5   -1    0    0    0  501 -0.00000000000E+00 -0.00000000000E+00 -0.18383621810E+03  0.18389628894E+03  0.47000000000E+01 0.  1.
         25    2    1    2    0    0  0.26964869234E+02  0.29733585653E+02 -0.63659896980E+02  0.14590650857E+03  0.12499974589E+03 0.  0.
         25    2    1    2    0    0 -0.26964869234E+02 -0.29733585653E+02 -0.24694616392E+02  0.13358709171E+03  0.12499798680E+03 0.  0.
          5    1    3    3  502    0 -0.24549951364E+02  0.61766701483E+02 -0.50622922077E+02  0.83681513871E+02  0.47000000000E+01 0.  1.
         -5    1    3    3    0  502  0.51514820598E+02 -0.32033115831E+02 -0.13036974904E+02  0.62224994702E+02  0.47000000000E+01 0.  1.
          5    1    4    4  503    0 -0.76958326891E+02 -0.19074523504E+02 -0.20812894524E+02  0.82107783451E+02  0.47000000000E+01 0.  1.
         -5    1    4    4    0  503  0.49993457657E+02 -0.10659062149E+02 -0.38817218683E+01  0.51479308261E+02  0.47000000000E+01 0.  1.
<mgrwt>
<rscale>  0 0.13128601E+03</rscale>
<asrwt>0</asrwt>
<pdfrwt beam="1">  1        5 0.14703007E-01 0.13128643E+03</pdfrwt>
<pdfrwt beam="2">  1       -5 0.28296009E-01 0.13128643E+03</pdfrwt>
<totfact> 0.34870441E+02</totfact>
</mgrwt>
</event>
<event>
 8    1  0.3674342E-007  0.1277085E+03  0.7546771E-02  0.1230897E+00
         -5   -1    0    0    0  501 -0.00000000000E+00  0.00000000000E+00  0.18319692229E+02  0.18912988219E+02  0.47000000000E+01 0. -1.
          5   -1    0    0  501    0  0.00000000000E+00 -0.00000000000E+00 -0.91961949526E+03  0.91963150558E+03  0.47000000000E+01 0. -1.
         25    2    1    2    0    0 -0.21639562430E+02 -0.14685211972E+02 -0.34785604420E+03  0.37055807537E+03  0.12500213447E+03 0.  0.
         25    2    1    2    0    0  0.21639562430E+02  0.14685211972E+02 -0.55344375883E+03  0.56798641843E+03  0.12499860489E+03 0.  0.
          5    1    4    4  502    0  0.58446179472E+02 -0.32999775190E+02 -0.29271888062E+03  0.30035208361E+03  0.47000000000E+01 0.  1.
         -5    1    4    4    0  502 -0.36806617042E+02  0.47684987162E+02 -0.26072487821E+03  0.26763433482E+03  0.47000000000E+01 0.  1.
          5    1    3    3  503    0  0.79969777660E+01 -0.64799500847E+02 -0.13823079019E+03  0.15294694609E+03  0.47000000000E+01 0.  1.
         -5    1    3    3    0  503 -0.29636540196E+02  0.50114288875E+02 -0.20962525401E+03  0.21761112928E+03  0.47000000000E+01 0.  1.
<mgrwt>
<rscale>  0 0.12770763E+03</rscale>
<asrwt>0</asrwt>
<pdfrwt beam="2">  1        5 0.14152645E+00 0.12770850E+03</pdfrwt>
<pdfrwt beam="1">  1       -5 0.28649769E-02 0.12770850E+03</pdfrwt>
<totfact> 0.15030440E+02</totfact>
</mgrwt>
</event>
<event>
 8    1  0.3674342E-007  0.1413258E+03  0.7546771E-02  0.1211559E+00
         -5   -1    0    0    0  501 -0.00000000000E+00  0.00000000000E+00  0.23499011849E+03  0.23503711577E+03  0.47000000000E+01 0. -1.
          5   -1    0    0  501    0  0.00000000000E+00 -0.00000000000E+00 -0.84948189903E+02  0.85078110979E+02  0.47000000000E+01 0. -1.
         25    2    1    2    0    0  0.26037183857E+02 -0.60556443692E+02  0.70150938637E+02  0.15777873155E+03  0.12501182393E+03 0.  0.
         25    2    1    2    0    0 -0.26037183857E+02  0.60556443692E+02  0.79890989949E+02  0.16233649519E+03  0.12500219830E+03 0.  0.
          5    1    4    4  502    0 -0.12064300549E+02 -0.36458135360E+02  0.42114358934E+02  0.57187867683E+02  0.47000000000E+01 0.  1.
         -5    1    4    4    0  502 -0.13972883308E+02  0.97014579052E+02  0.37776631015E+02  0.10514862751E+03  0.47000000000E+01 0.  1.
          5    1    3    3  503    0  0.47265435020E+02 -0.71858381936E+02  0.91219709832E+02  0.12546224079E+03  0.47000000000E+01 0.  1.
         -5    1    3    3    0  503 -0.21228251163E+02  0.11301938244E+02 -0.21068771195E+02  0.32316490762E+02  0.47000000000E+01 0.  1.
<mgrwt>
<rscale>  0 0.14132364E+03</rscale>
<asrwt>0</asrwt>
<pdfrwt beam="2">  1        5 0.13082562E-01 0.14132577E+03</pdfrwt>
<pdfrwt beam="1">  1       -5 0.36165934E-01 0.14132577E+03</pdfrwt>
<totfact> 0.27142957E+02</totfact>
</mgrwt>
</event>
<event>
 8    1  0.3674342E-007  0.1409531E+03  0.7546771E-02  0.1212055E+00
         -5   -1    0    0    0  501 -0.00000000000E+00  0.00000000000E+00  0.71819367207E+02  0.71972991504E+02  0.47000000000E+01 0. -1.
          5   -1    0    0  501    0  0.00000000000E+00 -0.00000000000E+00 -0.52207119872E+03  0.52209235441E+03  0.47000000000E+01 0. -1.
         25    2    1    2    0    0 -0.53075590328E+02 -0.37744844055E+02 -0.21297409950E+02  0.14254605329E+03  0.12499642434E+03 0.  0.
         25    2    1    2    0    0  0.53075590328E+02  0.37744844055E+02 -0.42895442157E+03  0.45151929262E+03  0.12500433708E+03 0.  0.
          5    1    3    3  502    0 -0.81998221846E+02 -0.44847311283E+02 -0.45338611302E+02  0.10398398622E+03  0.47000000000E+01 0. -1.
         -5    1    3    3    0  502  0.28922631518E+02  0.71024672280E+01  0.24041201351E+02  0.38562067074E+02  0.47000000000E+01 0. -1.
          5    1    4    4  503    0  0.56619037844E+02  0.50625100449E+02 -0.11905740565E+03  0.14129887502E+03  0.47000000000E+01 0. -1.
         -5    1    4    4    0  503 -0.35434475156E+01 -0.12880256394E+02 -0.30989701591E+03  0.31022041760E+03  0.47000000000E+01 0. -1.
<mgrwt>
<rscale>  0 0.14095134E+03</rscale>
<asrwt>0</asrwt>
<pdfrwt beam="2">  1        5 0.80332088E-01 0.14095310E+03</pdfrwt>
<pdfrwt beam="1">  1       -5 0.11062578E-01 0.14095310E+03</pdfrwt>
<totfact> 0.65450629E+01</totfact>
</mgrwt>
</event>
<event>
 8    1  0.3674342E-007  0.1254244E+03  0.7546771E-02  0.1234414E+00
         -5   -1    0    0    0  501 -0.00000000000E+00  0.00000000000E+00  0.24768481149E+03  0.24772940044E+03  0.47000000000E+01 0.  1.
          5   -1    0    0  501    0  0.00000000000E+00 -0.00000000000E+00 -0.63386235301E+02  0.63560245638E+02  0.47000000000E+01 0.  1.
         25    2    1    2    0    0  0.48152028401E+01 -0.90763468971E+01  0.89453423232E+02  0.15405583475E+03  0.12500287613E+03 0.  0.
         25    2    1    2    0    0 -0.48152028401E+01  0.90763468971E+01  0.94845152959E+02  0.15723381133E+03  0.12498520766E+03 0.  0.
          5    1    4    4  502    0 -0.59972008073E+02  0.20282910049E+02  0.27079981994E+02  0.69017777544E+02  0.47000000000E+01 0.  1.
         -5    1    4    4    0  502  0.55156805233E+02 -0.11206563151E+02  0.67765170965E+02  0.88216033787E+02  0.47000000000E+01 0.  1.
          5    1    3    3  503    0 -0.89725352845E+01  0.35891292840E+02  0.99037063875E+02  0.10582590095E+03  0.47000000000E+01 0.  1.
         -5    1    3    3    0  503  0.13787738125E+02 -0.44967639738E+02 -0.95836406429E+01  0.48229933798E+02  0.47000000000E+01 0.  1.
<mgrwt>
<rscale>  0 0.12542002E+03</rscale>
<asrwt>0</asrwt>
<pdfrwt beam="2">  1        5 0.97685437E-02 0.12542442E+03</pdfrwt>
<pdfrwt beam="1">  1       -5 0.38122171E-01 0.12542442E+03</pdfrwt>
<totfact> 0.39142540E+02</totfact>
</mgrwt>
</event>
<event>
 8    1  0.3674342E-007  0.1300996E+03  0.7546771E-02  0.1227309E+00
         -5   -1    0    0    0  501 -0.00000000000E+00  0.00000000000E+00  0.41073685579E+03  0.41076374560E+03  0.47000000000E+01 0.  1.
          5   -1    0    0  501    0  0.00000000000E+00 -0.00000000000E+00 -0.44947994912E+02  0.45193055292E+02  0.47000000000E+01 0.  1.
         25    2    1    2    0    0  0.31373095299E+02 -0.17784979134E+02  0.11592484385E+03  0.17425141524E+03  0.12499763877E+03 0.  0.
         25    2    1    2    0    0 -0.31373095299E+02  0.17784979134E+02  0.24986401703E+03  0.28170538566E+03  0.12500128285E+03 0.  0.
          5    1    3    3  502    0 -0.34636386857E+02 -0.41806412442E+02  0.26952483199E+02  0.60794586654E+02  0.47000000000E+01 0. -1.
         -5    1    3    3    0  502  0.66009482156E+02  0.24021433308E+02  0.88972360651E+02  0.11345682858E+03  0.47000000000E+01 0. -1.
          5    1    4    4  503    0 -0.44955472903E+02 -0.29007633184E+02  0.21500497738E+03  0.22161152412E+03  0.47000000000E+01 0. -1.
         -5    1    4    4    0  503  0.13582377604E+02  0.46792612318E+02  0.34859039646E+02  0.60093861534E+02  0.47000000000E+01 0. -1.
<mgrwt>
<rscale>  0 0.13009869E+03</rscale>
<asrwt>0</asrwt>
<pdfrwt beam="2">  1        5 0.69359953E-02 0.13009957E+03</pdfrwt>
<pdfrwt beam="1">  1       -5 0.63211206E-01 0.13009957E+03</pdfrwt>
<totfact> 0.24537797E+02</totfact>
</mgrwt>
</event>
<event>
 8    1  0.3674342E-007  0.1988597E+03  0.7546771E-02  0.1150706E+00
         -5   -1    0    0    0  501 -0.00000000000E+00  0.00000000000E+00  0.67741230582E+02  0.67904081768E+02  0.47000000000E+01 0. -1.
          5   -1    0    0  501    0  0.00000000000E+00 -0.00000000000E+00 -0.58346882964E+03  0.58348775922E+03  0.47000000000E+01 0. -1.
         25    2    1    2    0    0  0.12505908707E+03  0.90991947443E+02 -0.26820352466E+03  0.33388064617E+03  0.12499538187E+03 0.  0.
         25    2    1    2    0    0 -0.12505908707E+03 -0.90991947443E+02 -0.24752407439E+03  0.31751119481E+03  0.12500352662E+03 0.  0.
          5    1    4    4  502    0 -0.89613778061E+01  0.28842459998E+02 -0.25913353586E+02  0.40072255801E+02  0.47000000000E+01 0.  1.
         -5    1    4    4    0  502 -0.11609770927E+03 -0.11983440744E+03 -0.22161072081E+03  0.27743893901E+03  0.47000000000E+01 0.  1.
          5    1    3    3  503    0  0.93646375844E+02 -0.40154720358E+01 -0.93393914745E+02  0.13240196764E+03  0.47000000000E+01 0. -1.
         -5    1    3    3    0  503  0.31412711228E+02  0.95007419479E+02 -0.17480960992E+03  0.20147867853E+03  0.47000000000E+01 0. -1.
<mgrwt>
<rscale>  0 0.19885845E+03</rscale>
<asrwt>0</asrwt>
<pdfrwt beam="2">  1        5 0.89778415E-01 0.19885973E+03</pdfrwt>
<pdfrwt beam="1">  1       -5 0.10435711E-01 0.19885973E+03</pdfrwt>
<totfact> 0.61665751E+01</totfact>
</mgrwt>
</event>
<event>
 8    1  0.3674342E-007  0.1673508E+03  0.7546771E-02  0.1180644E+00
         -5   -1    0    0    0  501 -0.00000000000E+00  0.00000000000E+00  0.11396791306E+03  0.11406478513E+03  0.47000000000E+01 0. -1.
          5   -1    0    0  501    0  0.00000000000E+00 -0.00000000000E+00 -0.36868982896E+03  0.36871978517E+03  0.47000000000E+01 0. -1.
         25    2    1    2    0    0 -0.98721180274E+02  0.51314208607E+02  0.12149705531E+02  0.16779129654E+03  0.12500913731E+03 0.  0.
         25    2    1    2    0    0  0.98721180274E+02 -0.51314208607E+02 -0.26687162143E+03  0.31499327376E+03  0.12498512213E+03 0.  0.
          5    1    3    3  502    0 -0.10452990256E+03  0.39394238468E+02 -0.36134147390E+02  0.11749967303E+03  0.47000000000E+01 0. -1.
         -5    1    3    3    0  502  0.58087222893E+01  0.11919970139E+02  0.48283852920E+02  0.50291623513E+02  0.47000000000E+01 0. -1.
          5    1    4    4  503    0  0.10497741576E+03  0.68251718073E+00 -0.22297405420E+03  0.24649592795E+03  0.47000000000E+01 0. -1.
         -5    1    4    4    0  503 -0.62562354867E+01 -0.51996725787E+02 -0.43897567229E+02  0.68497345815E+02  0.47000000000E+01 0. -1.
<mgrwt>
<rscale>  0 0.16734636E+03</rscale>
<asrwt>0</asrwt>
<pdfrwt beam="2">  1        5 0.56731268E-01 0.16735084E+03</pdfrwt>
<pdfrwt beam="1">  1       -5 0.17543281E-01 0.16735084E+03</pdfrwt>
<totfact> 0.65545661E+01</totfact>
</mgrwt>
</event>
<event>
 8    1  0.3674342E-007  0.1265161E+03  0.7546771E-02  0.1232721E+00
          5   -1    0    0  501    0  0.00000000000E+00  0.00000000000E+00  0.48319508490E+02  0.48547552984E+02  0.47000000000E+01 0.  1.
         -5   -1    0    0    0  501 -0.00000000000E+00 -0.00000000000E+00 -0.35919532511E+03  0.35922607308E+03  0.47000000000E+01 0.  1.
         25    2    1    2    0    0  0.18959259424E+02 -0.46323058026E+01 -0.21331918855E+03  0.24801252522E+03  0.12499689871E+03 0.  0.
         25    2    1    2    0    0 -0.18959259424E+02  0.46323058026E+01 -0.97556628070E+02  0.15976110085E+03  0.12500160754E+03 0.  0.
          5    1    4    4  502    0 -0.71188901548E+02  0.15160002928E+02 -0.53257542847E+02  0.90311357328E+02  0.47000000000E+01 0. -1.
         -5    1    4    4    0  502  0.52229642124E+02 -0.10527697125E+02 -0.44299085223E+02  0.69449743518E+02  0.47000000000E+01 0. -1.
          5    1    3    3  503    0 -0.45538197296E+02 -0.15034644317E+02 -0.14743582722E+03  0.15511022240E+03  0.47000000000E+01 0. -1.
         -5    1    3    3    0  503  0.64497456720E+02  0.10402338515E+02 -0.65883361328E+02  0.92902302823E+02  0.47000000000E+01 0. -1.
<mgrwt>
<rscale>  0 0.12651490E+03</rscale>
<asrwt>0</asrwt>
<pdfrwt beam="1">  1        5 0.74536779E-02 0.12651606E+03</pdfrwt>
<pdfrwt beam="2">  1       -5 0.55280725E-01 0.12651606E+03</pdfrwt>
<totfact> 0.28788727E+02</totfact>
</mgrwt>
</event>
<event>
 8    1  0.3674342E-007  0.1807405E+03  0.7546771E-02  0.1167088E+00
         -5   -1    0    0    0  501 -0.00000000000E+00  0.00000000000E+00  0.10067842997E+04  0.10067952703E+04  0.47000000000E+01 0.  1.
          5   -1    0    0  501    0  0.00000000000E+00 -0.00000000000E+00 -0.37546413890E+02  0.37839439689E+02  0.47000000000E+01 0.  1.
         25    2    1    2    0    0  0.57197104349E+02  0.11734840403E+03  0.67965586743E+03  0.70327729654E+03  0.12499880406E+03 0.  0.
         25    2    1    2    0    0 -0.57197104349E+02 -0.11734840403E+03  0.28958201842E+03  0.34135741341E+03  0.12499992649E+03 0.  0.
          5    1    3    3  502    0  0.23059731507E+02  0.37081594711E+02  0.45889598120E+02  0.63519611925E+02  0.47000000000E+01 0. -1.
         -5    1    3    3    0  502  0.34137372842E+02  0.80266809317E+02  0.63376626931E+03  0.63975768461E+03  0.47000000000E+01 0. -1.
          5    1    4    4  503    0 -0.87673598536E+02 -0.42554153916E+02  0.13112215415E+03  0.16343997432E+03  0.47000000000E+01 0. -1.
         -5    1    4    4    0  503  0.30476494186E+02 -0.74794250111E+02  0.15845986427E+03  0.17791743909E+03  0.47000000000E+01 0. -1.
<mgrwt>
<rscale>  0 0.18074033E+03</rscale>
<asrwt>0</asrwt>
<pdfrwt beam="2">  1        5 0.57997547E-02 0.18074053E+03</pdfrwt>
<pdfrwt beam="1">  1       -5 0.15491330E+00 0.18074053E+03</pdfrwt>
<totfact> 0.40791963E+01</totfact>
</mgrwt>
</event>
<event>
 8    1  0.3674342E-007  0.1251139E+03  0.7546771E-02  0.1234896E+00
         -5   -1    0    0    0  501 -0.00000000000E+00  0.00000000000E+00  0.39253065089E+03  0.39255878782E+03  0.47000000000E+01 0. -1.
          5   -1    0    0  501    0  0.00000000000E+00 -0.00000000000E+00 -0.42000625843E+02  0.42262779974E+02  0.47000000000E+01 0. -1.
         25    2    1    2    0    0 -0.20501017477E+01 -0.49203403492E+01  0.22588661877E+03  0.25821619691E+03  0.12498970814E+03 0.  0.
         25    2    1    2    0    0  0.20501017477E+01  0.49203403492E+01  0.12464340628E+03  0.17660537088E+03  0.12500026251E+03 0.  0.
          5    1    4    4  502    0 -0.52425919024E+02 -0.60437516523E+00  0.16274723540E+02  0.55098084188E+02  0.47000000000E+01 0. -1.
         -5    1    4    4    0  502  0.54476020772E+02  0.55247155145E+01  0.10836868274E+03  0.12150728670E+03  0.47000000000E+01 0. -1.
          5    1    3    3  503    0 -0.34881023320E+02  0.49877035446E+02  0.11147997520E+03  0.12709948593E+03  0.47000000000E+01 0. -1.
         -5    1    3    3    0  503  0.32830921572E+02 -0.54797375795E+02  0.11440664357E+03  0.13111671098E+03  0.47000000000E+01 0. -1.
<mgrwt>
<rscale>  0 0.12511123E+03</rscale>
<asrwt>0</asrwt>
<pdfrwt beam="2">  1        5 0.64839646E-02 0.12511386E+03</pdfrwt>
<pdfrwt beam="1">  1       -5 0.60411663E-01 0.12511386E+03</pdfrwt>
<totfact> 0.29950850E+02</totfact>
</mgrwt>
</event>
<event>
 8    1  0.3674342E-007  0.1299647E+03  0.7546771E-02  0.1227509E+00
         -5   -1    0    0    0  501 -0.00000000000E+00  0.00000000000E+00  0.10542899150E+04  0.10543003911E+04  0.47000000000E+01 0.  1.
          5   -1    0    0  501    0  0.00000000000E+00 -0.00000000000E+00 -0.16663365657E+02  0.17313513653E+02  0.47000000000E+01 0.  1.
         25    2    1    2    0    0  0.11510710732E+01 -0.35540923593E+02  0.64733653479E+03  0.66025382722E+03  0.12500417942E+03 0.  0.
         25    2    1    2    0    0 -0.11510710732E+01  0.35540923593E+02  0.39029001451E+03  0.41136007758E+03  0.12500534303E+03 0.  0.
          5    1    4    4  502    0  0.26146520944E+02  0.60626470841E+02  0.35080354385E+03  0.35699359364E+03  0.47000000000E+01 0. -1.
         -5    1    4    4    0  502 -0.27297592017E+02 -0.25085547248E+02  0.39486470660E+02  0.54366483939E+02  0.47000000000E+01 0. -1.
          5    1    3    3  503    0 -0.20689302822E+02  0.42833644210E+02  0.20791995047E+03  0.21334376985E+03  0.47000000000E+01 0.  1.
         -5    1    3    3    0  503  0.21840373895E+02 -0.78374567802E+02  0.43941658432E+03  0.44691005738E+03  0.47000000000E+01 0.  1.
<mgrwt>
<rscale>  0 0.12996440E+03</rscale>
<asrwt>0</asrwt>
<pdfrwt beam="2">  1        5 0.26144110E-02 0.12996468E+03</pdfrwt>
<pdfrwt beam="1">  1       -5 0.16224933E+00 0.12996468E+03</pdfrwt>
<totfact> 0.12049029E+02</totfact>
</mgrwt>
</event>
<event>
 8    1  0.3674342E-007  0.1379220E+03  0.7546771E-02  0.1216153E+00
         -5   -1    0    0    0  501 -0.00000000000E+00  0.00000000000E+00  0.54210886044E+03  0.54212923419E+03  0.47000000000E+01 0. -1.
          5   -1    0    0  501    0  0.00000000000E+00 -0.00000000000E+00 -0.35777219986E+02  0.36084615419E+02  0.47000000000E+01 0. -1.
         25    2    1    2    0    0 -0.49063713926E+02 -0.31464931660E+02  0.29795151941E+03  0.32832540911E+03  0.12500070560E+03 0.  0.
         25    2    1    2    0    0  0.49063713926E+02  0.31464931660E+02  0.20838012103E+03  0.24988844049E+03  0.12499867160E+03 0.  0.
          5    1    4    4  502    0  0.90454675234E+01 -0.36869279249E+02  0.14007631735E+03  0.14520547138E+03  0.47000000000E+01 0.  1.
         -5    1    4    4    0  502  0.40018246403E+02  0.68334210908E+02  0.68303803684E+02  0.10468296912E+03  0.47000000000E+01 0.  1.
          5    1    3    3  503    0 -0.53536864011E+02 -0.55558251683E+02  0.88966150348E+02  0.11785576374E+03  0.47000000000E+01 0.  1.
         -5    1    3    3    0  503  0.44731500847E+01  0.24093320024E+02  0.20898536907E+03  0.21046964538E+03  0.47000000000E+01 0.  1.
<mgrwt>
<rscale>  0 0.13792150E+03</rscale>
<asrwt>0</asrwt>
<pdfrwt beam="2">  1        5 0.55294007E-02 0.13792196E+03</pdfrwt>
<pdfrwt beam="1">  1       -5 0.83426576E-01 0.13792196E+03</pdfrwt>
<totfact> 0.19534458E+02</totfact>
</mgrwt>
</event>
<event>
 8    1  0.3674342E-007  0.1898859E+03  0.7546771E-02  0.1158565E+00
          5   -1    0    0  501    0  0.00000000000E+00  0.00000000000E+00  0.80631636368E+03  0.80633006166E+03  0.47000000000E+01 0. -1.
         -5   -1    0    0    0  501 -0.00000000000E+00 -0.00000000000E+00 -0.44584689969E+02  0.44831736300E+02  0.47000000000E+01 0. -1.
         25    2    1    2    0    0 -0.13821431024E+03 -0.36449475209E+02  0.38549303356E+03  0.42972261317E+03  0.12499954219E+03 0.  0.
         25    2    1    2    0    0  0.13821431024E+03  0.36449475209E+02  0.37623864016E+03  0.42143918480E+03  0.12499484924E+03 0.  0.
          5    1    3    3  502    0 -0.10407327039E+03  0.32899529419E+02  0.26318704338E+03  0.28496163680E+03  0.47000000000E+01 0. -1.
         -5    1    3    3    0  502 -0.34141039852E+02 -0.69349004628E+02  0.12230599017E+03  0.14476097636E+03  0.47000000000E+01 0. -1.
          5    1    4    4  503    0  0.24424722263E+02 -0.38690528200E+02  0.50652003016E+02  0.68419583742E+02  0.47000000000E+01 0. -1.
         -5    1    4    4    0  503  0.11378958798E+03  0.75140003408E+02  0.32558663714E+03  0.35301960105E+03  0.47000000000E+01 0. -1.
<mgrwt>
<rscale>  0 0.18988510E+03</rscale>
<asrwt>0</asrwt>
<pdfrwt beam="1">  1        5 0.12406873E+00 0.18988587E+03</pdfrwt>
<pdfrwt beam="2">  1       -5 0.68792404E-02 0.18988587E+03</pdfrwt>
<totfact> 0.56123190E+01</totfact>
</mgrwt>
</event>
<event>
 8    1  0.3674342E-007  0.1754696E+03  0.7546771E-02  0.1172261E+00
          5   -1    0    0  501    0  0.00000000000E+00  0.00000000000E+00  0.45555592401E+03  0.45558016847E+03  0.47000000000E+01 0.  1.
         -5   -1    0    0    0  501 -0.00000000000E+00 -0.00000000000E+00 -0.69409527643E+02  0.69568473662E+02  0.47000000000E+01 0.  1.
         25    2    1    2    0    0  0.27252204011E+02  0.12009104349E+03  0.14933859096E+03  0.23041565625E+03  0.12499927419E+03 0.  0.
         25    2    1    2    0    0 -0.27252204011E+02 -0.12009104349E+03  0.23680780541E+03  0.29473298588E+03  0.12500021965E+03 0.  0.
          5    1    4    4  502    0 -0.51053757334E+02 -0.94868327891E+02  0.80536620015E+02  0.13459094672E+03  0.47000000000E+01 0. -1.
         -5    1    4    4    0  502  0.23801553323E+02 -0.25222715595E+02  0.15627118539E+03  0.16014203916E+03  0.47000000000E+01 0. -1.
          5    1    3    3  503    0  0.23717385442E+02  0.14274034213E+03  0.10043078894E+03  0.17619805053E+03  0.47000000000E+01 0.  1.
         -5    1    3    3    0  503  0.35348185691E+01 -0.22649298646E+02  0.48907802024E+02  0.54217605722E+02  0.47000000000E+01 0.  1.
<mgrwt>
<rscale>  0 0.17546948E+03</rscale>
<asrwt>0</asrwt>
<pdfrwt beam="1">  1        5 0.70099617E-01 0.17546964E+03</pdfrwt>
<pdfrwt beam="2">  1       -5 0.10692481E-01 0.17546964E+03</pdfrwt>
<totfact> 0.10142430E+02</totfact>
</mgrwt>
</event>
<event>
 8    1  0.3674342E-007  0.1455458E+03  0.7546771E-02  0.1206057E+00
          5   -1    0    0  501    0  0.00000000000E+00  0.00000000000E+00  0.22968875469E+03  0.22973683647E+03  0.47000000000E+01 0.  1.
         -5   -1    0    0    0  501 -0.00000000000E+00 -0.00000000000E+00 -0.92140499682E+02  0.92260293093E+02  0.47000000000E+01 0.  1.
         25    2    1    2    0    0 -0.15841403370E+02 -0.72855980273E+02  0.71822306851E+02  0.16229905533E+03  0.12499438259E+03 0.  0.
         25    2    1    2    0    0  0.15841403370E+02  0.72855980273E+02  0.65725948158E+02  0.15969807423E+03  0.12499852291E+03 0.  0.
          5    1    3    3  502    0 -0.70634034987E+02 -0.41082215273E+02  0.36406592613E+02  0.89579268227E+02  0.47000000000E+01 0. -1.
         -5    1    3    3    0  502  0.54792631618E+02 -0.31773765000E+02  0.35415714238E+02  0.72719787107E+02  0.47000000000E+01 0. -1.
          5    1    4    4  503    0 -0.29919238383E+02  0.70358607353E+02  0.80691031719E+02  0.11125927851E+03  0.47000000000E+01 0. -1.
         -5    1    4    4    0  503  0.45760641753E+02  0.24973729201E+01 -0.14965083561E+02  0.48438795724E+02  0.47000000000E+01 0. -1.
<mgrwt>
<rscale>  0 0.14554489E+03</rscale>
<asrwt>0</asrwt>
<pdfrwt beam="1">  1        5 0.35349645E-01 0.14554578E+03</pdfrwt>
<pdfrwt beam="2">  1       -5 0.14188375E-01 0.14554578E+03</pdfrwt>
<totfact> 0.24811840E+02</totfact>
</mgrwt>
</event>
<event>
 8    1  0.3674342E-007  0.1354483E+03  0.7546771E-02  0.1219588E+00
          5   -1    0    0  501    0  0.00000000000E+00  0.00000000000E+00  0.59943606257E+02  0.60127580453E+02  0.47000000000E+01 0. -1.
         -5   -1    0    0    0  501 -0.00000000000E+00 -0.00000000000E+00 -0.41959959285E+03  0.41962591474E+03  0.47000000000E+01 0. -1.
         25    2    1    2    0    0 -0.43358550544E+02 -0.29016213313E+02 -0.30494509285E+03  0.33367313060E+03  0.12499737554E+03 0.  0.
         25    2    1    2    0    0  0.43358550544E+02  0.29016213313E+02 -0.54710893743E+02  0.14608036459E+03  0.12499714591E+03 0.  0.
          5    1    3    3  502    0  0.35525683930E+02 -0.35748454483E+02 -0.75413946367E+02  0.90826094947E+02  0.47000000000E+01 0. -1.
         -5    1    3    3    0  502 -0.78884234474E+02  0.67322411705E+01 -0.22953114649E+03  0.24284703566E+03  0.47000000000E+01 0. -1.
          5    1    4    4  503    0 -0.21277165267E+00  0.69254409343E+02 -0.51622053881E+02  0.86505172863E+02  0.47000000000E+01 0. -1.
         -5    1    4    4    0  503  0.43571322197E+02 -0.40238196030E+02 -0.30888398622E+01  0.59575191728E+02  0.47000000000E+01 0. -1.
<mgrwt>
<rscale>  0 0.13544827E+03</rscale>
<asrwt>0</asrwt>
<pdfrwt beam="1">  1        5 0.92382702E-02 0.13544832E+03</pdfrwt>
<pdfrwt beam="2">  1       -5 0.64569958E-01 0.13544832E+03</pdfrwt>
<totfact> 0.14523063E+02</totfact>
</mgrwt>
</event>
<event>
 8    1  0.3674342E-007  0.1465609E+03  0.7546771E-02  0.1204766E+00
         -5   -1    0    0    0  501 -0.00000000000E+00  0.00000000000E+00  0.22740256587E+03  0.22745113094E+03  0.47000000000E+01 0. -1.
          5   -1    0    0  501    0  0.00000000000E+00 -0.00000000000E+00 -0.10744807061E+03  0.10755081533E+03  0.47000000000E+01 0. -1.
         25    2    1    2    0    0 -0.66959592517E+02 -0.37019631249E+02  0.11844784093E+03  0.18844090456E+03  0.12500417339E+03 0.  0.
         25    2    1    2    0    0  0.66959592517E+02  0.37019631249E+02  0.15066543376E+01  0.14656104171E+03  0.12499531516E+03 0.  0.
          5    1    3    3  502    0  0.62003513585E+01 -0.63371435173E+02  0.29899197519E+02  0.70501313216E+02  0.47000000000E+01 0.  1.
         -5    1    3    3    0  502 -0.73159943876E+02  0.26351803924E+02  0.88548643407E+02  0.11793959135E+03  0.47000000000E+01 0.  1.
          5    1    4    4  503    0 -0.27644639647E+02 -0.21356040063E+02  0.18488527525E+01  0.35296101837E+02  0.47000000000E+01 0.  1.
         -5    1    4    4    0  503  0.94604232165E+02  0.58375671312E+02 -0.34219841494E+00  0.11126493987E+03  0.47000000000E+01 0.  1.
<mgrwt>
<rscale>  0 0.14655896E+03</rscale>
<asrwt>0</asrwt>
<pdfrwt beam="2">  1        5 0.16542112E-01 0.14656085E+03</pdfrwt>
<pdfrwt beam="1">  1       -5 0.34996649E-01 0.14656085E+03</pdfrwt>
<totfact> 0.19202501E+02</totfact>
</mgrwt>
</event>
<event>
 8    1  0.3674342E-007  0.1455210E+03  0.7546771E-02  0.1206088E+00
         -5   -1    0    0    0  501 -0.00000000000E+00  0.00000000000E+00  0.39816137218E+03  0.39818911122E+03  0.47000000000E+01 0.  1.
          5   -1    0    0  501    0  0.00000000000E+00 -0.00000000000E+00 -0.67388804472E+02  0.67552505270E+02  0.47000000000E+01 0.  1.
         25    2    1    2    0    0 -0.48380324447E+02  0.56661318646E+02  0.27263047662E+03  0.30903678558E+03  0.12500078894E+03 0.  0.
         25    2    1    2    0    0  0.48380324447E+02 -0.56661318646E+02  0.58142091090E+02  0.15670483091E+03  0.12499896180E+03 0.  0.
          5    1    4    4  502    0  0.55905585467E+02 -0.57750060180E+02 -0.15946843210E+02  0.82078594929E+02  0.47000000000E+01 0.  1.
         -5    1    4    4    0  502 -0.75252610199E+01  0.10887415334E+01  0.74088934300E+02  0.74626235985E+02  0.47000000000E+01 0.  1.
          5    1    3    3  503    0  0.34315039845E+02 -0.13265959277E+02  0.66684215784E+02  0.76304536365E+02  0.47000000000E+01 0.  1.
         -5    1    3    3    0  503 -0.82695364292E+02  0.69927277923E+02  0.20594626083E+03  0.23273224921E+03  0.47000000000E+01 0.  1.
<mgrwt>
<rscale>  0 0.14552060E+03</rscale>
<asrwt>0</asrwt>
<pdfrwt beam="2">  1        5 0.10382234E-01 0.14552099E+03</pdfrwt>
<pdfrwt beam="1">  1       -5 0.61270324E-01 0.14552099E+03</pdfrwt>
<totfact> 0.13619051E+02</totfact>
</mgrwt>
</event>
<event>
 8    1  0.3674342E-007  0.1367837E+03  0.7546771E-02  0.1217734E+00
          5   -1    0    0  501    0  0.00000000000E+00  0.00000000000E+00  0.36542993031E+03  0.36546015373E+03  0.47000000000E+01 0. -1.
         -5   -1    0    0    0  501 -0.00000000000E+00 -0.00000000000E+00 -0.64390103081E+02  0.64561407782E+02  0.47000000000E+01 0. -1.
         25    2    1    2    0    0  0.55468476341E+02  0.48623296351E+00  0.52801193022E+02  0.14659221863E+03  0.12499729713E+03 0.  0.
         25    2    1    2    0    0 -0.55468476341E+02 -0.48623296351E+00  0.24823863421E+03  0.28342934288E+03  0.12503113453E+03 0.  0.
          5    1    4    4  502    0 -0.24363706426E+02  0.23033324663E+02  0.18250366756E+01  0.33904940565E+02  0.47000000000E+01 0.  1.
         -5    1    4    4    0  502 -0.31104769916E+02 -0.23519557627E+02  0.24641359753E+03  0.24952440231E+03  0.47000000000E+01 0.  1.
          5    1    3    3  503    0  0.64049541854E+01  0.30178695536E+02 -0.31619956106E+02  0.44426216657E+02  0.47000000000E+01 0.  1.
         -5    1    3    3    0  503  0.49063522156E+02 -0.29692462572E+02  0.84421149127E+02  0.10216600198E+03  0.47000000000E+01 0.  1.
<mgrwt>
<rscale>  0 0.13677594E+03</rscale>
<asrwt>0</asrwt>
<pdfrwt beam="1">  1        5 0.56235491E-01 0.13678367E+03</pdfrwt>
<pdfrwt beam="2">  1       -5 0.99216720E-02 0.13678367E+03</pdfrwt>
<totfact> 0.17418299E+02</totfact>
</mgrwt>
</event>
<event>
 8    1  0.3674342E-007  0.1263990E+03  0.7546771E-02  0.1232900E+00
         -5   -1    0    0    0  501 -0.00000000000E+00  0.00000000000E+00  0.42866396720E+02  0.43123287998E+02  0.47000000000E+01 0.  1.
          5   -1    0    0  501    0  0.00000000000E+00 -0.00000000000E+00 -0.58300588541E+03  0.58302483002E+03  0.47000000000E+01 0.  1.
         25    2    1    2    0    0  0.15876063611E+02 -0.99801444710E+01 -0.81463499185E+02  0.15037468149E+03  0.12499836181E+03 0.  0.
         25    2    1    2    0    0 -0.15876063611E+02  0.99801444710E+01 -0.45867598950E+03  0.47577343653E+03  0.12500018751E+03 0.  0.
          5    1    3    3  502    0  0.25193525734E+02 -0.30628261301E+02  0.21146212162E+02  0.45189118359E+02  0.47000000000E+01 0.  1.
         -5    1    3    3    0  502 -0.93174621230E+01  0.20648116830E+02 -0.10260971135E+03  0.10518556313E+03  0.47000000000E+01 0.  1.
          5    1    4    4  503    0 -0.59368738241E+02  0.28585859834E+02 -0.15634964968E+03  0.16973244068E+03  0.47000000000E+01 0. -1.
         -5    1    4    4    0  503  0.43492674630E+02 -0.18605715363E+02 -0.30232633982E+03  0.30604099585E+03  0.47000000000E+01 0. -1.
<mgrwt>
<rscale>  0 0.12639852E+03</rscale>
<asrwt>0</asrwt>
<pdfrwt beam="2">  1        5 0.89714426E-01 0.12639897E+03</pdfrwt>
<pdfrwt beam="1">  1       -5 0.66160488E-02 0.12639897E+03</pdfrwt>
<totfact> 0.11828370E+02</totfact>
</mgrwt>
</event>
<event>
 8    1  0.3674342E-007  0.1897246E+03  0.7546771E-02  0.1158710E+00
         -5   -1    0    0    0  501 -0.00000000000E+00  0.00000000000E+00  0.18995808115E+03  0.19001621666E+03  0.47000000000E+01 0.  1.
          5   -1    0    0  501    0  0.00000000000E+00 -0.00000000000E+00 -0.20751424908E+03  0.20756746751E+03  0.47000000000E+01 0.  1.
         25    2    1    2    0    0 -0.32200247825E+02  0.13904488436E+03  0.49980125693E+02  0.19619743560E+03  0.12500033978E+03 0.  0.
         25    2    1    2    0    0  0.32200247825E+02 -0.13904488436E+03 -0.67536293620E+02  0.20138624858E+03  0.12499973734E+03 0.  0.
          5    1    3    3  502    0 -0.76713456149E+02  0.11327894396E+03  0.26361340770E+02  0.13940618274E+03  0.47000000000E+01 0. -1.
         -5    1    3    3    0  502  0.44513208324E+02  0.25765940392E+02  0.23618784923E+02  0.56791252855E+02  0.47000000000E+01 0. -1.
          5    1    4    4  503    0  0.43548535055E+02 -0.15872727922E+03 -0.49316843745E+02  0.17188678003E+03  0.47000000000E+01 0. -1.
         -5    1    4    4    0  503 -0.11348287230E+02  0.19682394863E+02 -0.18219449875E+02  0.29499468543E+02  0.47000000000E+01 0. -1.
<mgrwt>
<rscale>  0 0.18972449E+03</rscale>
<asrwt>0</asrwt>
<pdfrwt beam="2">  1        5 0.31933835E-01 0.18972459E+03</pdfrwt>
<pdfrwt beam="1">  1       -5 0.29232886E-01 0.18972459E+03</pdfrwt>
<totfact> 0.84814418E+01</totfact>
</mgrwt>
</event>
<event>
 8    1  0.3674342E-007  0.1356138E+03  0.7546771E-02  0.1219359E+00
         -5   -1    0    0    0  501 -0.00000000000E+00  0.00000000000E+00  0.58683049292E+02  0.58870962913E+02  0.47000000000E+01 0. -1.
          5   -1    0    0  501    0  0.00000000000E+00 -0.00000000000E+00 -0.32302737210E+03  0.32306156244E+03  0.47000000000E+01 0. -1.
         25    2    1    2    0    0 -0.22544447775E+02  0.47514954514E+02 -0.97994841567E+02  0.16731433693E+03  0.12500070137E+03 0.  0.
         25    2    1    2    0    0  0.22544447775E+02 -0.47514954514E+02 -0.16634948124E+03  0.21461818842E+03  0.12499157517E+03 0.  0.
          5    1    3    3  502    0  0.30286680537E+02  0.88696690858E+01 -0.96536666533E+02  0.10167286773E+03  0.47000000000E+01 0. -1.
         -5    1    3    3    0  502 -0.52831128312E+02  0.38645285428E+02 -0.14581750337E+01  0.65641469202E+02  0.47000000000E+01 0. -1.
          5    1    4    4  503    0 -0.32980930091E+02 -0.68119335332E+02 -0.10102640237E+03  0.12631868259E+03  0.47000000000E+01 0.  1.
         -5    1    4    4    0  503  0.55525377866E+02  0.20604380818E+02 -0.65323078865E+02  0.88299505822E+02  0.47000000000E+01 0.  1.
<mgrwt>
<rscale>  0 0.13561168E+03</rscale>
<asrwt>0</asrwt>
<pdfrwt beam="2">  1        5 0.49713603E-01 0.13561378E+03</pdfrwt>
<pdfrwt beam="1">  1       -5 0.90452465E-02 0.13561378E+03</pdfrwt>
<totfact> 0.26549606E+02</totfact>
</mgrwt>
</event>
<event>
 8    1  0.3674342E-007  0.1325646E+03  0.7546771E-02  0.1223699E+00
         -5   -1    0    0    0  501 -0.00000000000E+00  0.00000000000E+00  0.64823549344E+02  0.64993711615E+02  0.47000000000E+01 0.  1.
          5   -1    0    0  501    0  0.00000000000E+00 -0.00000000000E+00 -0.27190440273E+03  0.27194502059E+03  0.47000000000E+01 0.  1.
         25    2    1    2    0    0 -0.39346344072E+02  0.20034291653E+02 -0.91645851757E+02  0.16115938026E+03  0.12499550419E+03 0.  0.
         25    2    1    2    0    0  0.39346344072E+02 -0.20034291653E+02 -0.11543500163E+03  0.17577935194E+03  0.12499453322E+03 0.  0.
          5    1    3    3  502    0 -0.26003571310E+02 -0.45956807193E+02 -0.74656334086E+02  0.91563486541E+02  0.47000000000E+01 0. -1.
         -5    1    3    3    0  502 -0.13342772761E+02  0.65991098846E+02 -0.16989517670E+02  0.69595893719E+02  0.47000000000E+01 0. -1.
          5    1    4    4  503    0  0.40468481796E+02 -0.26431101806E+02 -0.14092529095E+03  0.14905813896E+03  0.47000000000E+01 0. -1.
         -5    1    4    4    0  503 -0.11221377245E+01  0.63968101537E+01  0.25490289325E+02  0.26721212980E+02  0.47000000000E+01 0. -1.
<mgrwt>
<rscale>  0 0.13256441E+03</rscale>
<asrwt>0</asrwt>
<pdfrwt beam="2">  1        5 0.41847660E-01 0.13256464E+03</pdfrwt>
<pdfrwt beam="1">  1       -5 0.99890678E-02 0.13256464E+03</pdfrwt>
<totfact> 0.31761713E+02</totfact>
</mgrwt>
</event>
<event>
 8    1  0.3674342E-007  0.1300546E+03  0.7546771E-02  0.1227391E+00
          5   -1    0    0  501    0  0.00000000000E+00  0.00000000000E+00  0.13164389914E+03  0.13172777300E+03  0.47000000000E+01 0. -1.
         -5   -1    0    0    0  501 -0.00000000000E+00 -0.00000000000E+00 -0.12831817661E+03  0.12840422286E+03  0.47000000000E+01 0. -1.
         25    2    1    2    0    0 -0.40168478330E+01  0.35535085168E+02  0.40739517540E+01  0.13011839483E+03  0.12504128217E+03 0.  0.
         25    2    1    2    0    0  0.40168478330E+01 -0.35535085168E+02 -0.74822922481E+00  0.13001360102E+03  0.12499639699E+03 0.  0.
          5    1    4    4  502    0  0.12847325492E+02  0.41638824124E+01  0.57257112389E+02  0.59015748815E+02  0.47000000000E+01 0. -1.
         -5    1    4    4    0  502 -0.88304776593E+01 -0.39698967581E+02 -0.58005341614E+02  0.70997852210E+02  0.47000000000E+01 0. -1.
          5    1    3    3  503    0 -0.41490186396E+02 -0.19948148780E+02 -0.29695640912E+02  0.54984409573E+02  0.47000000000E+01 0. -1.
         -5    1    3    3    0  503  0.37473338563E+02  0.55483233948E+02  0.33769592666E+02  0.75133985261E+02  0.47000000000E+01 0. -1.
<mgrwt>
<rscale>  0 0.13004381E+03</rscale>
<asrwt>0</asrwt>
<pdfrwt beam="1">  1        5 0.20265978E-01 0.13005460E+03</pdfrwt>
<pdfrwt beam="2">  1       -5 0.19754329E-01 0.13005460E+03</pdfrwt>
<totfact> 0.38197829E+02</totfact>
</mgrwt>
</event>
<event>
 8    1  0.3674342E-007  0.1323387E+03  0.7546771E-02  0.1224030E+00
         -5   -1    0    0    0  501 -0.00000000000E+00  0.00000000000E+00  0.21734931140E+03  0.21740012228E+03  0.47000000000E+01 0. -1.
          5   -1    0    0  501    0  0.00000000000E+00 -0.00000000000E+00 -0.84569490969E+02  0.84699992932E+02  0.47000000000E+01 0. -1.
         25    2    1    2    0    0  0.38448279094E+02 -0.20247144589E+02  0.99725836229E+02  0.16570688999E+03  0.12500125579E+03 0.  0.
         25    2    1    2    0    0 -0.38448279094E+02  0.20247144589E+02  0.33053984203E+02  0.13639322522E+03  0.12498931548E+03 0.  0.
          5    1    4    4  502    0 -0.37817164953E+02 -0.42997638901E+02  0.43567826866E+02  0.72105342756E+02  0.47000000000E+01 0. -1.
         -5    1    4    4    0  502 -0.63111414183E+00  0.63244783490E+02 -0.10513842663E+02  0.64287882461E+02  0.47000000000E+01 0. -1.
          5    1    3    3  503    0  0.33668355294E+02  0.19289887362E+02  0.11601588355E+03  0.12242317240E+03  0.47000000000E+01 0.  1.
         -5    1    3    3    0  503  0.47799238006E+01 -0.39537031951E+02 -0.16290047326E+02  0.43283717596E+02  0.47000000000E+01 0.  1.
<mgrwt>
<rscale>  0 0.13233588E+03</rscale>
<asrwt>0</asrwt>
<pdfrwt beam="2">  1        5 0.13024638E-01 0.13233870E+03</pdfrwt>
<pdfrwt beam="1">  1       -5 0.33452302E-01 0.13233870E+03</pdfrwt>
<totfact> 0.31272482E+02</totfact>
</mgrwt>
</event>
<event>
 8    1  0.3674342E-007  0.1355927E+03  0.7546771E-02  0.1219389E+00
         -5   -1    0    0    0  501 -0.00000000000E+00  0.00000000000E+00  0.12170104962E+04  0.12170195717E+04  0.47000000000E+01 0.  1.
          5   -1    0    0  501    0  0.00000000000E+00 -0.00000000000E+00 -0.16744636773E+02  0.17391746912E+02  0.47000000000E+01 0.  1.
         25    2    1    2    0    0  0.33662686175E+02 -0.40300184861E+02  0.80986098467E+03  0.82113348332E+03  0.12501240582E+03 0.  0.
         25    2    1    2    0    0 -0.33662686175E+02  0.40300184861E+02  0.39040487477E+03  0.41327783528E+03  0.12500128620E+03 0.  0.
          5    1    3    3  502    0  0.20800763211E+02 -0.35398289667E+02  0.71160606757E+02  0.82289930220E+02  0.47000000000E+01 0. -1.
         -5    1    3    3    0  502  0.12861922964E+02 -0.49018951944E+01  0.73870037791E+03  0.73884355310E+03  0.47000000000E+01 0. -1.
          5    1    4    4  503    0  0.35390988762E+02  0.49611749797E+02  0.23647362776E+03  0.24424519326E+03  0.47000000000E+01 0. -1.
         -5    1    4    4    0  503 -0.69053674937E+02 -0.93115649361E+01  0.15393124701E+03  0.16903264203E+03  0.47000000000E+01 0. -1.
<mgrwt>
<rscale>  0 0.13559015E+03</rscale>
<asrwt>0</asrwt>
<pdfrwt beam="2">  1        5 0.26265730E-02 0.13559271E+03</pdfrwt>
<pdfrwt beam="1">  1       -5 0.18728291E+00 0.13559271E+03</pdfrwt>
<totfact> 0.79935596E+01</totfact>
</mgrwt>
</event>
<event>
 8    1  0.3674342E-007  0.1437547E+03  0.7546771E-02  0.1208381E+00
          5   -1    0    0  501    0  0.00000000000E+00  0.00000000000E+00  0.81086143846E+03  0.81087505966E+03  0.47000000000E+01 0.  1.
         -5   -1    0    0    0  501 -0.00000000000E+00 -0.00000000000E+00 -0.26506914287E+02  0.26920373419E+02  0.47000000000E+01 0.  1.
         25    2    1    2    0    0  0.66375548340E+02  0.25173560971E+02  0.30148157906E+03  0.33397831206E+03  0.12494378264E+03 0.  0.
         25    2    1    2    0    0 -0.66375548340E+02 -0.25173560971E+02  0.48287294511E+03  0.50381712102E+03  0.12500395485E+03 0.  0.
          5    1    4    4  502    0 -0.18610061160E+02  0.25819416070E+02  0.25332700618E+02  0.40948899169E+02  0.47000000000E+01 0. -1.
         -5    1    4    4    0  502 -0.47765487180E+02 -0.50992977041E+02  0.45754024449E+03  0.46286822185E+03  0.47000000000E+01 0. -1.
          5    1    3    3  503    0 -0.21565080206E+02 -0.43082678747E+01  0.46578056419E+01  0.22965169491E+02  0.47000000000E+01 0. -1.
         -5    1    3    3    0  503  0.87940628546E+02  0.29481828846E+02  0.29682377342E+03  0.31101314257E+03  0.47000000000E+01 0. -1.
<mgrwt>
<rscale>  0 0.14374161E+03</rscale>
<asrwt>0</asrwt>
<pdfrwt beam="1">  1        5 0.12478073E+00 0.14375469E+03</pdfrwt>
<pdfrwt beam="2">  1       -5 0.41108402E-02 0.14375469E+03</pdfrwt>
<totfact> 0.12076353E+02</totfact>
</mgrwt>
</event>
<event>
 8    1  0.3674342E-007  0.1689765E+03  0.7546771E-02  0.1178925E+00
          5   -1    0    0  501    0  0.00000000000E+00  0.00000000000E+00  0.68422320814E+03  0.68423935035E+03  0.47000000000E+01 0.  1.
         -5   -1    0    0    0  501 -0.00000000000E+00 -0.00000000000E+00 -0.50061220803E+02  0.50281366611E+02  0.47000000000E+01 0.  1.
         25    2    1    2    0    0 -0.88456307036E+02 -0.71381950207E+02  0.16628676516E+03  0.23707453735E+03  0.12503258344E+03 0.  0.
         25    2    1    2    0    0  0.88456307036E+02  0.71381950207E+02  0.46787522218E+03  0.49744617961E+03  0.12500230800E+03 0.  0.
          5    1    4    4  502    0  0.18815979753E+02  0.21828341831E+02  0.88550307004E+01  0.30512606736E+02  0.47000000000E+01 0. -1.
         -5    1    4    4    0  502  0.69640327283E+02  0.49553608376E+02  0.45902019148E+03  0.46693357287E+03  0.47000000000E+01 0. -1.
          5    1    3    3  503    0 -0.38005153689E+02 -0.69969956862E+02  0.19969347009E+02  0.82225612738E+02  0.47000000000E+01 0. -1.
         -5    1    3    3    0  503 -0.50451153347E+02 -0.14119933454E+01  0.14631741815E+03  0.15484892461E+03  0.47000000000E+01 0. -1.
<mgrwt>
<rscale>  0 0.16897087E+03</rscale>
<asrwt>0</asrwt>
<pdfrwt beam="1">  1        5 0.10528328E+00 0.16897647E+03</pdfrwt>
<pdfrwt beam="2">  1       -5 0.77199025E-02 0.16897647E+03</pdfrwt>
<totfact> 0.67588810E+01</totfact>
</mgrwt>
</event>
<event>
 8    1  0.3674342E-007  0.1624101E+03  0.7546771E-02  0.1186002E+00
         -5   -1    0    0    0  501 -0.00000000000E+00  0.00000000000E+00  0.17682956388E+04  0.17683018849E+04  0.47000000000E+01 0. -1.
          5   -1    0    0  501    0  0.00000000000E+00 -0.00000000000E+00 -0.14691577644E+02  0.15425059276E+02  0.47000000000E+01 0. -1.
         25    2    1    2    0    0  0.94223033446E+02 -0.43292543761E+02  0.96519200697E+03  0.97876072774E+03  0.12499890988E+03 0.  0.
         25    2    1    2    0    0 -0.94223033446E+02  0.43292543761E+02  0.78841205416E+03  0.80496621642E+03  0.12499927226E+03 0.  0.
          5    1    4    4  502    0 -0.85119226741E+02  0.75688301503E+02  0.42684565725E+03  0.44180686601E+03  0.47000000000E+01 0. -1.
         -5    1    4    4    0  502 -0.91038067049E+01 -0.32395757742E+02  0.36156639691E+03  0.36315935041E+03  0.47000000000E+01 0. -1.
          5    1    3    3  503    0  0.91747708922E+02  0.18075187446E+02  0.71467487232E+03  0.72078194873E+03  0.47000000000E+01 0. -1.
         -5    1    3    3    0  503  0.24753245246E+01 -0.61367731207E+02  0.25051713465E+03  0.25797877900E+03  0.47000000000E+01 0. -1.
<mgrwt>
<rscale>  0 0.16241004E+03</rscale>
<asrwt>0</asrwt>
<pdfrwt beam="2">  1        5 0.23171443E-02 0.16241011E+03</pdfrwt>
<pdfrwt beam="1">  1       -5 0.27210245E+00 0.16241011E+03</pdfrwt>
<totfact> 0.28708502E+01</totfact>
</mgrwt>
</event>
<event>
 8    1  0.3674342E-007  0.1416802E+03  0.7546771E-02  0.1211088E+00
          5   -1    0    0  501    0  0.00000000000E+00  0.00000000000E+00  0.16822696677E+04  0.16822762333E+04  0.47000000000E+01 0.  1.
         -5   -1    0    0    0  501 -0.00000000000E+00 -0.00000000000E+00 -0.15456072601E+02  0.16154881004E+02  0.47000000000E+01 0.  1.
         25    2    1    2    0    0  0.66694385200E+02  0.49938834564E-01  0.41273022144E+03  0.43637085874E+03  0.12500058861E+03 0.  0.
         25    2    1    2    0    0 -0.66694385200E+02 -0.49938834564E-01  0.12540833737E+04  0.12620602555E+04  0.12499134725E+03 0.  0.
          5    1    4    4  502    0 -0.64750447598E+02 -0.25870661660E+01  0.26116277499E+03  0.26912338883E+03  0.47000000000E+01 0.  1.
         -5    1    4    4    0  502 -0.19439376025E+01  0.25371273315E+01  0.99292059870E+03  0.99293686669E+03  0.47000000000E+01 0.  1.
          5    1    3    3  503    0  0.54989294644E+02 -0.58634906344E+02  0.20874570073E+03  0.22373808871E+03  0.47000000000E+01 0. -1.
         -5    1    3    3    0  503  0.11705090556E+02  0.58684845179E+02  0.20398452071E+03  0.21263277002E+03  0.47000000000E+01 0. -1.
<mgrwt>
<rscale>  0 0.14167820E+03</rscale>
<asrwt>0</asrwt>
<pdfrwt beam="1">  1        5 0.25886474E+00 0.14168024E+03</pdfrwt>
<pdfrwt beam="2">  1       -5 0.24321191E-02 0.14168024E+03</pdfrwt>
<totfact> 0.31148394E+01</totfact>
</mgrwt>
</event>
<event>
 8    1  0.3674342E-007  0.1281659E+03  0.7546771E-02  0.1230203E+00
          5   -1    0    0  501    0  0.00000000000E+00  0.00000000000E+00  0.34080353148E+03  0.34083593864E+03  0.47000000000E+01 0.  1.
         -5   -1    0    0    0  501 -0.00000000000E+00 -0.00000000000E+00 -0.48050764422E+02  0.48280078309E+02  0.47000000000E+01 0.  1.
         25    2    1    2    0    0  0.27341365977E+02  0.73842619135E+01  0.14724474760E+03  0.19521147442E+03  0.12499770570E+03 0.  0.
         25    2    1    2    0    0 -0.27341365977E+02 -0.73842619135E+01  0.14550801945E+03  0.19390454253E+03  0.12499724105E+03 0.  0.
          5    1    4    4  502    0 -0.20280813572E+02 -0.48195513119E+02  0.14278685391E+03  0.15213249007E+03  0.47000000000E+01 0.  1.
         -5    1    4    4    0  502 -0.70605524054E+01  0.40811251206E+02  0.27211655437E+01  0.41772052465E+02  0.47000000000E+01 0.  1.
          5    1    3    3  503    0  0.37651262693E+02 -0.13458965856E+02 -0.55014163940E+01  0.40633938114E+02  0.47000000000E+01 0. -1.
         -5    1    3    3    0  503 -0.10309896716E+02  0.20843227770E+02  0.15274616399E+03  0.15457753630E+03  0.47000000000E+01 0. -1.
<mgrwt>
<rscale>  0 0.12816581E+03</rscale>
<asrwt>0</asrwt>
<pdfrwt beam="1">  1        5 0.52451444E-01 0.12816592E+03</pdfrwt>
<pdfrwt beam="2">  1       -5 0.74125578E-02 0.12816592E+03</pdfrwt>
<totfact> 0.32678632E+02</totfact>
</mgrwt>
</event>
<event>
 8    1  0.3674342E-007  0.1354341E+03  0.7546771E-02  0.1219610E+00
          5   -1    0    0  501    0  0.00000000000E+00  0.00000000000E+00  0.16921251105E+03  0.16927777142E+03  0.47000000000E+01 0.  1.
         -5   -1    0    0    0  501 -0.00000000000E+00 -0.00000000000E+00 -0.11757820224E+03  0.11767210223E+03  0.47000000000E+01 0.  1.
         25    2    1    2    0    0 -0.51911358020E+00  0.52123323120E+02 -0.14551261105E+02  0.13621352097E+03  0.12500109521E+03 0.  0.
         25    2    1    2    0    0  0.51911358020E+00 -0.52123323120E+02  0.66185569913E+02  0.15073635267E+03  0.12499523215E+03 0.  0.
          5    1    3    3  502    0  0.33138075411E+01  0.84458741611E+02  0.21566334139E+02  0.87358211538E+02  0.47000000000E+01 0. -1.
         -5    1    3    3    0  502 -0.38329211213E+01 -0.32335418491E+02 -0.36117595243E+02  0.48855309430E+02  0.47000000000E+01 0. -1.
          5    1    4    4  503    0 -0.24933177143E+02 -0.26761794371E+01  0.87385731980E+02  0.91033957469E+02  0.47000000000E+01 0. -1.
         -5    1    4    4    0  503  0.25452290724E+02 -0.49447143683E+02 -0.21200162067E+02  0.59702395205E+02  0.47000000000E+01 0. -1.
<mgrwt>
<rscale>  0 0.13543271E+03</rscale>
<asrwt>0</asrwt>
<pdfrwt beam="1">  1        5 0.26044937E-01 0.13543406E+03</pdfrwt>
<pdfrwt beam="2">  1       -5 0.18101197E-01 0.13543406E+03</pdfrwt>
<totfact> 0.28320718E+02</totfact>
</mgrwt>
</event>
<event>
 8    1  0.3674342E-007  0.1410995E+03  0.7546771E-02  0.1211857E+00
          5   -1    0    0  501    0  0.00000000000E+00  0.00000000000E+00  0.97096188620E+02  0.97209875242E+02  0.47000000000E+01 0.  1.
         -5   -1    0    0    0  501 -0.00000000000E+00 -0.00000000000E+00 -0.20507792069E+03  0.20513177120E+03  0.47000000000E+01 0.  1.
         25    2    1    2    0    0  0.77460887829E+01 -0.64990074159E+02 -0.59719197458E+02  0.15321699952E+03  0.12500141906E+03 0.  0.
         25    2    1    2    0    0 -0.77460887829E+01  0.64990074159E+02 -0.48262534609E+02  0.14912464692E+03  0.12500070576E+03 0.  0.
          5    1    3    3  502    0 -0.33116672829E+02 -0.76327021717E+02 -0.70561513448E+02  0.10919498818E+03  0.47000000000E+01 0.  1.
         -5    1    3    3    0  502  0.40862761612E+02  0.11336947558E+02  0.10842315989E+02  0.44022011341E+02  0.47000000000E+01 0.  1.
          5    1    4    4  503    0 -0.50150098968E+02  0.29119616688E+02 -0.68455735730E+02  0.89840204012E+02  0.47000000000E+01 0.  1.
         -5    1    4    4    0  503  0.42404010185E+02  0.35870457471E+02  0.20193201121E+02  0.59284442904E+02  0.47000000000E+01 0.  1.
<mgrwt>
<rscale>  0 0.14109933E+03</rscale>
<asrwt>0</asrwt>
<pdfrwt beam="1">  1        5 0.14950763E-01 0.14109949E+03</pdfrwt>
<pdfrwt beam="2">  1       -5 0.31563337E-01 0.14109949E+03</pdfrwt>
<totfact> 0.27997263E+02</totfact>
</mgrwt>
</event>
<event>
 8    1  0.3674342E-007  0.2611276E+03  0.7546771E-02  0.1106468E+00
          5   -1    0    0  501    0  0.00000000000E+00  0.00000000000E+00  0.85250457804E+03  0.85251753389E+03  0.47000000000E+01 0. -1.
         -5   -1    0    0    0  501 -0.00000000000E+00 -0.00000000000E+00 -0.80248831871E+02  0.80386348447E+02  0.47000000000E+01 0. -1.
         25    2    1    2    0    0 -0.90819873796E+02  0.21050740295E+03  0.41680532639E+03  0.49184786438E+03  0.12500410158E+03 0.  0.
         25    2    1    2    0    0  0.90819873796E+02 -0.21050740295E+03  0.35545041978E+03  0.44105601796E+03  0.12499517543E+03 0.  0.
          5    1    3    3  502    0 -0.38844089114E+02  0.23811410431E+02  0.18040595858E+03  0.18612964949E+03  0.47000000000E+01 0. -1.
         -5    1    3    3    0  502 -0.51975784682E+02  0.18669599252E+03  0.23639936781E+03  0.30571821489E+03  0.47000000000E+01 0. -1.
          5    1    4    4  503    0  0.30943694663E+02 -0.14177289840E+03  0.11941800895E+03  0.18798887685E+03  0.47000000000E+01 0. -1.
         -5    1    4    4    0  503  0.59876179133E+02 -0.68734504553E+02  0.23603241083E+03  0.25306714110E+03  0.47000000000E+01 0. -1.
<mgrwt>
<rscale>  0 0.26112657E+03</rscale>
<asrwt>0</asrwt>
<pdfrwt beam="1">  1        5 0.13116612E+00 0.26112763E+03</pdfrwt>
<pdfrwt beam="2">  1       -5 0.12357549E-01 0.26112763E+03</pdfrwt>
<totfact> 0.18761086E+01</totfact>
</mgrwt>
</event>
<event>
 8    1  0.3674342E-007  0.1520075E+03  0.7546771E-02  0.1198032E+00
         -5   -1    0    0    0  501 -0.00000000000E+00  0.00000000000E+00  0.21506900071E+02  0.22014466850E+02  0.47000000000E+01 0. -1.
          5   -1    0    0  501    0  0.00000000000E+00 -0.00000000000E+00 -0.10617966852E+04  0.10618070874E+04  0.47000000000E+01 0. -1.
         25    2    1    2    0    0 -0.85588275366E+02  0.12537852944E+02 -0.50748126853E+03  0.52975368500E+03  0.12497671077E+03 0.  0.
         25    2    1    2    0    0  0.85588275366E+02 -0.12537852944E+02 -0.53280851665E+03  0.55406786922E+03  0.12499495051E+03 0.  0.
          5    1    3    3  502    0  0.27851570001E+02  0.23281183336E+02 -0.15585347194E+03  0.16009409160E+03  0.47000000000E+01 0. -1.
         -5    1    3    3    0  502 -0.11343984537E+03 -0.10743330392E+02 -0.35162779658E+03  0.36965959340E+03  0.47000000000E+01 0. -1.
          5    1    4    4  503    0 -0.10704707535E+01 -0.74102433500E+01  0.43969276036E+01  0.98732257389E+01  0.47000000000E+01 0.  1.
         -5    1    4    4    0  503  0.86658746119E+02 -0.51276095940E+01 -0.53720544425E+03  0.54419464348E+03  0.47000000000E+01 0.  1.
<mgrwt>
<rscale>  0 0.15200378E+03</rscale>
<asrwt>0</asrwt>
<pdfrwt beam="2">  1        5 0.16339314E+00 0.15200753E+03</pdfrwt>
<pdfrwt beam="1">  1       -5 0.33485984E-02 0.15200753E+03</pdfrwt>
<totfact> 0.83093023E+01</totfact>
</mgrwt>
</event>
<event>
 8    1  0.3674342E-007  0.1354920E+03  0.7546771E-02  0.1219530E+00
         -5   -1    0    0    0  501 -0.00000000000E+00  0.00000000000E+00  0.79865811341E+03  0.79867194274E+03  0.47000000000E+01 0.  1.
          5   -1    0    0  501    0  0.00000000000E+00 -0.00000000000E+00 -0.26017199621E+02  0.26438318330E+02  0.47000000000E+01 0.  1.
         25    2    1    2    0    0 -0.35254593280E+02  0.38579757222E+02  0.53167778835E+03  0.54867052638E+03  0.12500716727E+03 0.  0.
         25    2    1    2    0    0  0.35254593280E+02 -0.38579757222E+02  0.24096312543E+03  0.27643973469E+03  0.12499766031E+03 0.  0.
          5    1    4    4  502    0  0.41634438477E+02 -0.30614744493E+02  0.20665114254E+02  0.55855402557E+02  0.47000000000E+01 0. -1.
         -5    1    4    4    0  502 -0.63798451973E+01 -0.79650127297E+01  0.22029801118E+03  0.22058433213E+03  0.47000000000E+01 0. -1.
          5    1    3    3  503    0 -0.39899249489E+02  0.81987321225E+02  0.37523116884E+03  0.38617922137E+03  0.47000000000E+01 0. -1.
         -5    1    3    3    0  503  0.46446562093E+01 -0.43407564002E+02  0.15644661952E+03  0.16249130500E+03  0.47000000000E+01 0. -1.
<mgrwt>
<rscale>  0 0.13548978E+03</rscale>
<asrwt>0</asrwt>
<pdfrwt beam="2">  1        5 0.40361041E-02 0.13549198E+03</pdfrwt>
<pdfrwt beam="1">  1       -5 0.12290392E+00 0.13549198E+03</pdfrwt>
<totfact> 0.12701052E+02</totfact>
</mgrwt>
</event>
<event>
 8    1  0.3674342E-007  0.1326373E+03  0.7546771E-02  0.1223594E+00
         -5   -1    0    0    0  501 -0.00000000000E+00  0.00000000000E+00  0.31173689620E+03  0.31177232471E+03  0.47000000000E+01 0.  1.
          5   -1    0    0  501    0  0.00000000000E+00 -0.00000000000E+00 -0.56955699268E+02  0.57149292901E+02  0.47000000000E+01 0.  1.
         25    2    1    2    0    0 -0.43996744962E+02  0.57852283018E+01  0.14718319887E+03  0.19813014286E+03  0.12499390803E+03 0.  0.
         25    2    1    2    0    0  0.43996744962E+02 -0.57852283018E+01  0.10759799806E+03  0.17079147475E+03  0.12499286470E+03 0.  0.
          5    1    3    3  502    0 -0.77648709855E+02 -0.29919790529E+02  0.91942689499E+02  0.12409699497E+03  0.47000000000E+01 0.  1.
         -5    1    3    3    0  502  0.33651964893E+02  0.35705018830E+02  0.55240509372E+02  0.74033147890E+02  0.47000000000E+01 0.  1.
          5    1    4    4  503    0 -0.16212019208E+02  0.15971960719E+02 -0.18229896242E+02  0.29535609237E+02  0.47000000000E+01 0. -1.
         -5    1    4    4    0  503  0.60208764170E+02 -0.21757189021E+02  0.12582789430E+03  0.14125586551E+03  0.47000000000E+01 0. -1.
<mgrwt>
<rscale>  0 0.13263708E+03</rscale>
<asrwt>0</asrwt>
<pdfrwt beam="2">  1        5 0.87800321E-02 0.13263732E+03</pdfrwt>
<pdfrwt beam="1">  1       -5 0.47977141E-01 0.13263732E+03</pdfrwt>
<totfact> 0.29900465E+02</totfact>
</mgrwt>
</event>
<event>
 8    1  0.3674342E-007  0.1384334E+03  0.7546771E-02  0.1215453E+00
         -5   -1    0    0    0  501 -0.00000000000E+00  0.00000000000E+00  0.33306714398E+03  0.33310030381E+03  0.47000000000E+01 0. -1.
          5   -1    0    0  501    0  0.00000000000E+00 -0.00000000000E+00 -0.72243517880E+02  0.72396242138E+02  0.47000000000E+01 0. -1.
         25    2    1    2    0    0  0.90809730317E+01 -0.58798880280E+02  0.22216925678E+03  0.26176774430E+03  0.12499360344E+03 0.  0.
         25    2    1    2    0    0 -0.90809730317E+01  0.58798880280E+02  0.38654369313E+02  0.14372880165E+03  0.12499614299E+03 0.  0.
          5    1    3    3  502    0  0.54814156878E+02 -0.47488150724E+02  0.64591056822E+02  0.97230709525E+02  0.47000000000E+01 0.  1.
         -5    1    3    3    0  502 -0.45733183846E+02 -0.11310729556E+02  0.15757819996E+03  0.16453703477E+03  0.47000000000E+01 0.  1.
          5    1    4    4  503    0 -0.15732285686E+02  0.19700002208E+02  0.81331482169E+02  0.85278924077E+02  0.47000000000E+01 0.  1.
         -5    1    4    4    0  503  0.66513126545E+01  0.39098878072E+02 -0.42677112857E+02  0.58449877573E+02  0.47000000000E+01 0.  1.
<mgrwt>
<rscale>  0 0.13843283E+03</rscale>
<asrwt>0</asrwt>
<pdfrwt beam="2">  1        5 0.11128686E-01 0.13843341E+03</pdfrwt>
<pdfrwt beam="1">  1       -5 0.51255398E-01 0.13843341E+03</pdfrwt>
<totfact> 0.17448437E+02</totfact>
</mgrwt>
</event>
<event>
 8    1  0.3674342E-007  0.1273034E+03  0.7546771E-02  0.1231514E+00
         -5   -1    0    0    0  501 -0.00000000000E+00  0.00000000000E+00  0.52273582298E+03  0.52275695177E+03  0.47000000000E+01 0.  1.
          5   -1    0    0  501    0  0.00000000000E+00 -0.00000000000E+00 -0.50538704982E+02  0.50756779855E+02  0.47000000000E+01 0.  1.
         25    2    1    2    0    0 -0.81463385800E+01  0.22674036085E+02  0.41475439229E+03  0.43385050542E+03  0.12499832155E+03 0.  0.
         25    2    1    2    0    0  0.81463385800E+01 -0.22674036085E+02  0.57442725714E+02  0.13966322621E+03  0.12500270106E+03 0.  0.
          5    1    4    4  502    0  0.37447542004E+02  0.35139123766E+02 -0.19812776045E+01  0.51605153639E+02  0.47000000000E+01 0. -1.
         -5    1    4    4    0  502 -0.29301203424E+02 -0.57813159850E+02  0.59424003318E+02  0.88058072568E+02  0.47000000000E+01 0. -1.
          5    1    3    3  503    0  0.49465656496E+02  0.29880090834E+02  0.29544343877E+03  0.30107903699E+03  0.47000000000E+01 0. -1.
         -5    1    3    3    0  503 -0.57611995076E+02 -0.72060547491E+01  0.11931095351E+03  0.13277146843E+03  0.47000000000E+01 0. -1.
<mgrwt>
<rscale>  0 0.12730230E+03</rscale>
<asrwt>0</asrwt>
<pdfrwt beam="2">  1        5 0.77935858E-02 0.12730338E+03</pdfrwt>
<pdfrwt beam="1">  1       -5 0.80439294E-01 0.12730338E+03</pdfrwt>
<totfact> 0.11586707E+02</totfact>
</mgrwt>
</event>
<event>
 8    1  0.3674342E-007  0.1730461E+03  0.7546771E-02  0.1174708E+00
          5   -1    0    0  501    0  0.00000000000E+00  0.00000000000E+00  0.47817564669E+03  0.47819874433E+03  0.47000000000E+01 0.  1.
         -5   -1    0    0    0  501 -0.00000000000E+00 -0.00000000000E+00 -0.63888980566E+02  0.64061625313E+02  0.47000000000E+01 0.  1.
         25    2    1    2    0    0 -0.45852255252E+02  0.11051669474E+03  0.16737500981E+03  0.24074748409E+03  0.12501435141E+03 0.  0.
         25    2    1    2    0    0  0.45852255252E+02 -0.11051669474E+03  0.24691165631E+03  0.30151288555E+03  0.12501313933E+03 0.  0.
          5    1    3    3  502    0  0.22524421658E+02  0.10088738851E+03  0.92650978854E+02  0.13889531531E+03  0.47000000000E+01 0.  1.
         -5    1    3    3    0  502 -0.68376676910E+02  0.96293062327E+01  0.74724030958E+02  0.10185216879E+03  0.47000000000E+01 0.  1.
          5    1    4    4  503    0  0.71171415759E+02 -0.65657426822E+02  0.76705754605E+02  0.12362091614E+03  0.47000000000E+01 0. -1.
         -5    1    4    4    0  503 -0.25319160507E+02 -0.44859267923E+02  0.17020590170E+03  0.17789196941E+03  0.47000000000E+01 0. -1.
<mgrwt>
<rscale>  0 0.17304589E+03</rscale>
<asrwt>0</asrwt>
<pdfrwt beam="1">  1        5 0.73580543E-01 0.17304611E+03</pdfrwt>
<pdfrwt beam="2">  1       -5 0.98441308E-02 0.17304611E+03</pdfrwt>
<totfact> 0.10460482E+02</totfact>
</mgrwt>
</event>
<event>
 8    1  0.3674342E-007  0.1506800E+03  0.7546771E-02  0.1199660E+00
         -5   -1    0    0    0  501 -0.00000000000E+00  0.00000000000E+00  0.91648265328E+02  0.91768701297E+02  0.47000000000E+01 0. -1.
          5   -1    0    0  501    0  0.00000000000E+00 -0.00000000000E+00 -0.24742732650E+03  0.24747196184E+03  0.47000000000E+01 0. -1.
         25    2    1    2    0    0 -0.81021748119E+02  0.22697349284E+02 -0.74360472636E+02  0.16797052000E+03  0.12491966365E+03 0.  0.
         25    2    1    2    0    0  0.81021748119E+02 -0.22697349284E+02 -0.81418588536E+02  0.17127014314E+03  0.12499912816E+03 0.  0.
          5    1    4    4  502    0  0.73856901666E+02 -0.66254492189E+02 -0.30916325387E+02  0.10403080714E+03  0.47000000000E+01 0. -1.
         -5    1    4    4    0  502  0.71648464526E+01  0.43557142905E+02 -0.50502263149E+02  0.67239336002E+02  0.47000000000E+01 0. -1.
          5    1    3    3  503    0 -0.21015410392E+02 -0.24924098726E+01 -0.96625724731E+02  0.99027674216E+02  0.47000000000E+01 0.  1.
         -5    1    3    3    0  503 -0.60006337727E+02  0.25189759157E+02  0.22265252095E+02  0.68942845783E+02  0.47000000000E+01 0.  1.
<mgrwt>
<rscale>  0 0.15066356E+03</rscale>
<asrwt>0</asrwt>
<pdfrwt beam="2">  1        5 0.38078440E-01 0.15068004E+03</pdfrwt>
<pdfrwt beam="1">  1       -5 0.14112431E-01 0.15068004E+03</pdfrwt>
<totfact> 0.21807141E+02</totfact>
</mgrwt>
</event>
<event>
 8    1  0.3674342E-007  0.2910971E+03  0.7546771E-02  0.1089778E+00
         -5   -1    0    0    0  501 -0.00000000000E+00  0.00000000000E+00  0.11482206496E+04  0.11482302688E+04  0.47000000000E+01 0. -1.
          5   -1    0    0  501    0  0.00000000000E+00 -0.00000000000E+00 -0.76570553874E+02  0.76714664313E+02  0.47000000000E+01 0. -1.
         25    2    1    2    0    0 -0.26288837221E+03 -0.13497748926E+01  0.65401024221E+03  0.71586795530E+03  0.12500165752E+03 0.  0.
         25    2    1    2    0    0  0.26288837221E+03  0.13497748926E+01  0.41763985355E+03  0.50907697784E+03  0.12499681576E+03 0.  0.
          5    1    3    3  502    0 -0.23886029315E+03 -0.41583585972E+02  0.51847096639E+03  0.57237895424E+03  0.47000000000E+01 0.  1.
         -5    1    3    3    0  502 -0.24028079060E+02  0.40233811080E+02  0.13553927582E+03  0.14348900107E+03  0.47000000000E+01 0.  1.
          5    1    4    4  503    0  0.16066074930E+03 -0.16152301468E+02  0.14400272330E+03  0.21640620953E+03  0.47000000000E+01 0. -1.
         -5    1    4    4    0  503  0.10222762292E+03  0.17502076360E+02  0.27363713026E+03  0.29267076830E+03  0.47000000000E+01 0. -1.
<mgrwt>
<rscale>  0 0.29109660E+03</rscale>
<asrwt>0</asrwt>
<pdfrwt beam="2">  1        5 0.11791912E-01 0.29109712E+03</pdfrwt>
<pdfrwt beam="1">  1       -5 0.17666114E+00 0.29109712E+03</pdfrwt>
<totfact> 0.90349489E+00</totfact>
</mgrwt>
</event>
<event>
 8    1  0.3674342E-007  0.1721585E+03  0.7546771E-02  0.1175616E+00
          5   -1    0    0  501    0  0.00000000000E+00  0.00000000000E+00  0.85381039086E+03  0.85382332689E+03  0.47000000000E+01 0. -1.
         -5   -1    0    0    0  501 -0.00000000000E+00 -0.00000000000E+00 -0.42906923570E+02  0.43163573650E+02  0.47000000000E+01 0. -1.
         25    2    1    2    0    0  0.65588165385E+02  0.98550187343E+02  0.20809354926E+03  0.27007514118E+03  0.12499483899E+03 0.  0.
         25    2    1    2    0    0 -0.65588165385E+02 -0.98550187343E+02  0.60280991803E+03  0.62691175936E+03  0.12499843953E+03 0.  0.
          5    1    4    4  502    0 -0.20475681646E+00  0.85035278638E+01 -0.13833394093E+01  0.98160857477E+01  0.47000000000E+01 0. -1.
         -5    1    4    4    0  502 -0.65383408568E+02 -0.10705371521E+03  0.60419325744E+03  0.61709567362E+03  0.47000000000E+01 0. -1.
          5    1    3    3  503    0  0.28384040815E+02  0.95641849138E+02  0.20986749554E+03  0.23242089571E+03  0.47000000000E+01 0. -1.
         -5    1    3    3    0  503  0.37204124570E+02  0.29083382049E+01 -0.17739462818E+01  0.37654245465E+02  0.47000000000E+01 0. -1.
<mgrwt>
<rscale>  0 0.17215787E+03</rscale>
<asrwt>0</asrwt>
<pdfrwt beam="1">  1        5 0.13137619E+00 0.17215852E+03</pdfrwt>
<pdfrwt beam="2">  1       -5 0.66218024E-02 0.17215852E+03</pdfrwt>
<totfact> 0.50231146E+01</totfact>
</mgrwt>
</event>
<event>
 8    1  0.3674342E-007  0.1261349E+03  0.7546771E-02  0.1233325E+00
          5   -1    0    0  501    0  0.00000000000E+00  0.00000000000E+00  0.15545187422E+03  0.15552290892E+03  0.47000000000E+01 0.  1.
         -5   -1    0    0    0  501 -0.00000000000E+00 -0.00000000000E+00 -0.11695938086E+03  0.11705377726E+03  0.47000000000E+01 0.  1.
         25    2    1    2    0    0  0.12244965630E+02 -0.11724938753E+02 -0.29203492654E+02  0.12942378506E+03  0.12494102122E+03 0.  0.
         25    2    1    2    0    0 -0.12244965630E+02  0.11724938753E+02  0.67695986013E+02  0.14315290112E+03  0.12499037245E+03 0.  0.
          5    1    4    4  502    0 -0.22526883627E+02  0.16809058328E+02 -0.31907727849E+02  0.42780813741E+02  0.47000000000E+01 0.  1.
         -5    1    4    4    0  502  0.10281917998E+02 -0.50841195758E+01  0.99603713862E+02  0.10037208738E+03  0.47000000000E+01 0.  1.
          5    1    3    3  503    0  0.42254362202E+02 -0.31350204621E+02  0.29479288806E+02  0.60492850184E+02  0.47000000000E+01 0. -1.
         -5    1    3    3    0  503 -0.30009396572E+02  0.19625265868E+02 -0.58682781461E+02  0.68930934877E+02  0.47000000000E+01 0. -1.
<mgrwt>
<rscale>  0 0.12612265E+03</rscale>
<asrwt>0</asrwt>
<pdfrwt beam="1">  1        5 0.23928399E-01 0.12613487E+03</pdfrwt>
<pdfrwt beam="2">  1       -5 0.18006476E-01 0.12613487E+03</pdfrwt>
<totfact> 0.32784240E+02</totfact>
</mgrwt>
</event>
<event>
 8    1  0.3674342E-007  0.1460317E+03  0.7546771E-02  0.1205438E+00
         -5   -1    0    0    0  501 -0.00000000000E+00  0.00000000000E+00  0.79996127377E+02  0.80134077615E+02  0.47000000000E+01 0.  1.
          5   -1    0    0  501    0  0.00000000000E+00 -0.00000000000E+00 -0.30598241897E+03  0.30601851368E+03  0.47000000000E+01 0.  1.
         25    2    1    2    0    0 -0.21527107677E+02  0.72360455808E+02 -0.43373221341E+02  0.15233044535E+03  0.12499550520E+03 0.  0.
         25    2    1    2    0    0  0.21527107677E+02 -0.72360455808E+02 -0.18261307025E+03  0.23382214595E+03  0.12500324228E+03 0.  0.
          5    1    3    3  502    0 -0.48999799826E+02  0.39014559576E+02 -0.75554009180E+02  0.98252809350E+02  0.47000000000E+01 0.  1.
         -5    1    3    3    0  502  0.27472692149E+02  0.33345896231E+02  0.32180787839E+02  0.54077636000E+02  0.47000000000E+01 0.  1.
          5    1    4    4  503    0 -0.78532192490E+01  0.33151218157E+02 -0.61496964378E+02  0.70460222435E+02  0.47000000000E+01 0.  1.
         -5    1    4    4    0  503  0.29380326926E+02 -0.10551167396E+03 -0.12111610587E+03  0.16336192351E+03  0.47000000000E+01 0.  1.
<mgrwt>
<rscale>  0 0.14603006E+03</rscale>
<asrwt>0</asrwt>
<pdfrwt beam="2">  1        5 0.47087606E-01 0.14603172E+03</pdfrwt>
<pdfrwt beam="1">  1       -5 0.12320485E-01 0.14603172E+03</pdfrwt>
<totfact> 0.17746490E+02</totfact>
</mgrwt>
</event>
<event>
 8    1  0.3674342E-007  0.1509727E+03  0.7546771E-02  0.1199283E+00
         -5   -1    0    0    0  501 -0.00000000000E+00  0.00000000000E+00  0.15640086809E+03  0.15647147197E+03  0.47000000000E+01 0.  1.
          5   -1    0    0  501    0  0.00000000000E+00 -0.00000000000E+00 -0.22141341843E+03  0.22146329687E+03  0.47000000000E+01 0.  1.
         25    2    1    2    0    0 -0.54616314432E+02  0.64682082128E+02  0.78041908131E+02  0.16995082675E+03  0.12500412209E+03 0.  0.
         25    2    1    2    0    0  0.54616314432E+02 -0.64682082128E+02 -0.14305445847E+03  0.20798394209E+03  0.12500411405E+03 0.  0.
          5    1    4    4  502    0  0.49117216361E+02 -0.10051184306E+03 -0.12284252499E+03  0.16621524444E+03  0.47000000000E+01 0. -1.
         -5    1    4    4    0  502  0.54990980710E+01  0.35829760935E+02 -0.20211933477E+02  0.41768697647E+02  0.47000000000E+01 0. -1.
          5    1    3    3  503    0 -0.23793088207E+02  0.13990379574E+01  0.94447067149E+02  0.97521314833E+02  0.47000000000E+01 0.  1.
         -5    1    3    3    0  503 -0.30823226226E+02  0.63283044171E+02 -0.16405159019E+02  0.72429511920E+02  0.47000000000E+01 0.  1.
<mgrwt>
<rscale>  0 0.15097266E+03</rscale>
<asrwt>0</asrwt>
<pdfrwt beam="2">  1        5 0.34072871E-01 0.15097266E+03</pdfrwt>
<pdfrwt beam="1">  1       -5 0.24070940E-01 0.15097266E+03</pdfrwt>
<totfact> 0.10147046E+02</totfact>
</mgrwt>
</event>
<event>
 8    1  0.3674342E-007  0.1501249E+03  0.7546771E-02  0.1200321E+00
          5   -1    0    0  501    0  0.00000000000E+00  0.00000000000E+00  0.57046333278E+02  0.57239620373E+02  0.47000000000E+01 0.  1.
         -5   -1    0    0    0  501 -0.00000000000E+00 -0.00000000000E+00 -0.40050549128E+03  0.40053306798E+03  0.47000000000E+01 0.  1.
         25    2    1    2    0    0  0.41588080866E+02  0.71989451439E+02 -0.20046631592E+03  0.25044808225E+03  0.12500179397E+03 0.  0.
         25    2    1    2    0    0 -0.41588080866E+02 -0.71989451439E+02 -0.14299284208E+03  0.20732460610E+03  0.12499795926E+03 0.  0.
          5    1    3    3  502    0  0.47770798742E+02  0.37412029886E+02 -0.16439639188E+02  0.63040153310E+02  0.47000000000E+01 0.  1.
         -5    1    3    3    0  502 -0.61827178765E+01  0.34577421553E+02 -0.18402667673E+03  0.18740792894E+03  0.47000000000E+01 0.  1.
          5    1    4    4  503    0 -0.64785645248E+02  0.43138950200E+01 -0.37949021626E+02  0.75352556446E+02  0.47000000000E+01 0. -1.
         -5    1    4    4    0  503  0.23197564383E+02 -0.76303346459E+02 -0.10504382046E+03  0.13197204965E+03  0.47000000000E+01 0. -1.
<mgrwt>
<rscale>  0 0.15012414E+03</rscale>
<asrwt>0</asrwt>
<pdfrwt beam="1">  1        5 0.87933487E-02 0.15012494E+03</pdfrwt>
<pdfrwt beam="2">  1       -5 0.61633217E-01 0.15012494E+03</pdfrwt>
<totfact> 0.18133520E+02</totfact>
</mgrwt>
</event>
<event>
 8    1  0.3674342E-007  0.1490942E+03  0.7546771E-02  0.1201592E+00
         -5   -1    0    0    0  501 -0.00000000000E+00  0.00000000000E+00  0.25869169404E+03  0.25873438613E+03  0.47000000000E+01 0. -1.
          5   -1    0    0  501    0  0.00000000000E+00 -0.00000000000E+00 -0.98141827746E+02  0.98254304503E+02  0.47000000000E+01 0. -1.
         25    2    1    2    0    0  0.36423683028E+02  0.72644079439E+02  0.14349073895E+03  0.20692674724E+03  0.12500095838E+03 0.  0.
         25    2    1    2    0    0 -0.36423683028E+02 -0.72644079439E+02  0.17059127342E+02  0.15006194339E+03  0.12499490416E+03 0.  0.
          5    1    4    4  502    0 -0.77447130856E+02 -0.41718007139E+02  0.35916628911E+02  0.95134349369E+02  0.47000000000E+01 0. -1.
         -5    1    4    4    0  502  0.41023447828E+02 -0.30926072300E+02 -0.18857501569E+02  0.54927594022E+02  0.47000000000E+01 0. -1.
          5    1    3    3  503    0 -0.37330633780E+02  0.44547525369E+02  0.10235958204E+03  0.11780336273E+03  0.47000000000E+01 0. -1.
         -5    1    3    3    0  503  0.73754316808E+02  0.28096554070E+02  0.41131156918E+02  0.89123384518E+02  0.47000000000E+01 0. -1.
<mgrwt>
<rscale>  0 0.14909295E+03</rscale>
<asrwt>0</asrwt>
<pdfrwt beam="2">  1        5 0.15110679E-01 0.14909422E+03</pdfrwt>
<pdfrwt beam="1">  1       -5 0.39810657E-01 0.14909422E+03</pdfrwt>
<totfact> 0.17538900E+02</totfact>
</mgrwt>
</event>
<event>
 8    1  0.3674342E-007  0.1273150E+03  0.7546771E-02  0.1231501E+00
         -5   -1    0    0    0  501 -0.00000000000E+00  0.00000000000E+00  0.13372611609E+03  0.13380868479E+03  0.47000000000E+01 0. -1.
          5   -1    0    0  501    0  0.00000000000E+00 -0.00000000000E+00 -0.12183214320E+03  0.12192276701E+03  0.47000000000E+01 0. -1.
         25    2    1    2    0    0  0.24051087331E+02 -0.12611877525E+01 -0.44113739488E+01  0.12739138881E+03  0.12501624025E+03 0.  0.
         25    2    1    2    0    0 -0.24051087331E+02  0.12611877525E+01  0.16305346845E+02  0.12834006299E+03  0.12500104814E+03 0.  0.
          5    1    3    3  502    0 -0.52866779648E+01  0.24254187837E+02  0.52525281856E+02  0.58285588490E+02  0.47000000000E+01 0. -1.
         -5    1    3    3    0  502  0.29337765296E+02 -0.25515375590E+02 -0.56936655805E+02  0.69105800323E+02  0.47000000000E+01 0. -1.
          5    1    4    4  503    0 -0.40375890642E+02  0.47008176084E+02 -0.22395096739E+02  0.66057637877E+02  0.47000000000E+01 0. -1.
         -5    1    4    4    0  503  0.16324803311E+02 -0.45746988332E+02  0.38700443584E+02  0.62282425115E+02  0.47000000000E+01 0. -1.
<mgrwt>
<rscale>  0 0.12731126E+03</rscale>
<asrwt>0</asrwt>
<pdfrwt beam="2">  1        5 0.18756729E-01 0.12731499E+03</pdfrwt>
<pdfrwt beam="1">  1       -5 0.20586571E-01 0.12731499E+03</pdfrwt>
<totfact> 0.40518532E+02</totfact>
</mgrwt>
</event>
<event>
 8    1  0.3674342E-007  0.1413632E+03  0.7546771E-02  0.1211510E+00
          5   -1    0    0  501    0  0.00000000000E+00  0.00000000000E+00  0.64673623556E+03  0.64675331340E+03  0.47000000000E+01 0.  1.
         -5   -1    0    0    0  501 -0.00000000000E+00 -0.00000000000E+00 -0.30858574669E+02  0.31214445864E+02  0.47000000000E+01 0.  1.
         25    2    1    2    0    0 -0.50729269543E+02 -0.42214973470E+02  0.33203805609E+03  0.36087396033E+03  0.12500072710E+03 0.  0.
         25    2    1    2    0    0  0.50729269543E+02  0.42214973470E+02  0.28383960480E+03  0.31709379893E+03  0.12501197261E+03 0.  0.
          5    1    3    3  502    0  0.16506250365E+02  0.28759484744E+02  0.36440026766E+02  0.49492724865E+02  0.47000000000E+01 0.  1.
         -5    1    3    3    0  502 -0.67235519909E+02 -0.70974458215E+02  0.29559802933E+03  0.31138123546E+03  0.47000000000E+01 0.  1.
          5    1    4    4  503    0 -0.36751253579E+02  0.37086783679E+02  0.12656722214E+03  0.13699429143E+03  0.47000000000E+01 0. -1.
         -5    1    4    4    0  503  0.87480523122E+02  0.51281897910E+01  0.15727238266E+03  0.18009950750E+03  0.47000000000E+01 0. -1.
<mgrwt>
<rscale>  0 0.14136072E+03</rscale>
<asrwt>0</asrwt>
<pdfrwt beam="1">  1        5 0.99526572E-01 0.14136321E+03</pdfrwt>
<pdfrwt beam="2">  1       -5 0.47761613E-02 0.14136321E+03</pdfrwt>
<totfact> 0.16511384E+02</totfact>
</mgrwt>
</event>
<event>
 8    1  0.3674342E-007  0.1524214E+03  0.7546771E-02  0.1197531E+00
          5   -1    0    0  501    0  0.00000000000E+00  0.00000000000E+00  0.90957861552E+02  0.91079210461E+02  0.47000000000E+01 0.  1.
         -5   -1    0    0    0  501 -0.00000000000E+00 -0.00000000000E+00 -0.25657116488E+03  0.25661420975E+03  0.47000000000E+01 0.  1.
         25    2    1    2    0    0  0.84063993252E+02  0.23178424020E+02 -0.96006350355E+02  0.18013743190E+03  0.12501312235E+03 0.  0.
         25    2    1    2    0    0 -0.84063993252E+02 -0.23178424020E+02 -0.69606952971E+02  0.16755598832E+03  0.12500354802E+03 0.  0.
          5    1    3    3  502    0  0.42367909230E+02 -0.40705437539E+02 -0.19926833468E+01  0.58974851968E+02  0.47000000000E+01 0.  1.
         -5    1    3    3    0  502  0.41696084022E+02  0.63883861559E+02 -0.94013667008E+02  0.12116257993E+03  0.47000000000E+01 0.  1.
          5    1    4    4  503    0 -0.88150799009E+02  0.29456718976E+02 -0.20480443418E+02  0.95287985713E+02  0.47000000000E+01 0. -1.
         -5    1    4    4    0  503  0.40868057565E+01 -0.52635142996E+02 -0.49126509553E+02  0.72268002604E+02  0.47000000000E+01 0. -1.
<mgrwt>
<rscale>  0 0.15241941E+03</rscale>
<asrwt>0</asrwt>
<pdfrwt beam="1">  1        5 0.14006163E-01 0.15242137E+03</pdfrwt>
<pdfrwt beam="2">  1       -5 0.39485132E-01 0.15242137E+03</pdfrwt>
<totfact> 0.20608242E+02</totfact>
</mgrwt>
</event>
<event>
 8    1  0.3674342E-007  0.1272369E+03  0.7546771E-02  0.1231617E+00
         -5   -1    0    0    0  501 -0.00000000000E+00  0.00000000000E+00  0.41384886569E+03  0.41387555332E+03  0.47000000000E+01 0.  1.
          5   -1    0    0  501    0  0.00000000000E+00 -0.00000000000E+00 -0.42204462243E+02  0.42465358037E+02  0.47000000000E+01 0.  1.
         25    2    1    2    0    0  0.12710077108E+02  0.20034455551E+02  0.24898947984E+03  0.27961578364E+03  0.12500519957E+03 0.  0.
         25    2    1    2    0    0 -0.12710077108E+02 -0.20034455551E+02  0.12265492361E+03  0.17672512771E+03  0.12499846003E+03 0.  0.
          5    1    3    3  502    0  0.17875786427E+02 -0.51124922742E+02  0.12819724938E+03  0.13924771529E+03  0.47000000000E+01 0.  1.
         -5    1    3    3    0  502 -0.51657093191E+01  0.71159378293E+02  0.12079223046E+03  0.14036806835E+03  0.47000000000E+01 0.  1.
          5    1    4    4  503    0 -0.51734446948E+02  0.22083329603E+01  0.12081044023E+03  0.13152407462E+03  0.47000000000E+01 0.  1.
         -5    1    4    4    0  503  0.39024369841E+02 -0.22242788511E+02  0.18444833789E+01  0.45201053098E+02  0.47000000000E+01 0.  1.
<mgrwt>
<rscale>  0 0.12723523E+03</rscale>
<asrwt>0</asrwt>
<pdfrwt beam="2">  1        5 0.65151159E-02 0.12723689E+03</pdfrwt>
<pdfrwt beam="1">  1       -5 0.63691179E-01 0.12723689E+03</pdfrwt>
<totfact> 0.26612804E+02</totfact>
</mgrwt>
</event>
<event>
 8    1  0.3674342E-007  0.1369102E+03  0.7546771E-02  0.1217550E+00
         -5   -1    0    0    0  501 -0.00000000000E+00  0.00000000000E+00  0.67343614334E+02  0.67507424715E+02  0.47000000000E+01 0. -1.
          5   -1    0    0  501    0  0.00000000000E+00 -0.00000000000E+00 -0.31190620851E+03  0.31194161778E+03  0.47000000000E+01 0. -1.
         25    2    1    2    0    0 -0.56617978233E+01  0.55544245624E+02 -0.59571974357E+02  0.14930914793E+03  0.12500872910E+03 0.  0.
         25    2    1    2    0    0  0.56617978233E+01 -0.55544245624E+02 -0.18499061982E+03  0.23013989457E+03  0.12500248987E+03 0.  0.
          5    1    4    4  502    0 -0.90214886300E+01 -0.75827622809E+02 -0.46942077287E+02  0.89760037087E+02  0.47000000000E+01 0.  1.
         -5    1    4    4    0  502  0.14683286453E+02  0.20283377185E+02 -0.13804854253E+03  0.14037985748E+03  0.47000000000E+01 0.  1.
          5    1    3    3  503    0  0.60383783889E+01  0.94502081567E+02 -0.32523727227E+02  0.10023466599E+03  0.47000000000E+01 0.  1.
         -5    1    3    3    0  503 -0.11700176212E+02 -0.38957835943E+02 -0.27048247129E+02  0.49074481939E+02  0.47000000000E+01 0.  1.
<mgrwt>
<rscale>  0 0.13690877E+03</rscale>
<asrwt>0</asrwt>
<pdfrwt beam="2">  1        5 0.48000894E-01 0.13691020E+03</pdfrwt>
<pdfrwt beam="1">  1       -5 0.10375881E-01 0.13691020E+03</pdfrwt>
<totfact> 0.22587127E+02</totfact>
</mgrwt>
</event>
<event>
 8    1  0.3674342E-007  0.1385055E+03  0.7546771E-02  0.1215361E+00
          5   -1    0    0  501    0  0.00000000000E+00  0.00000000000E+00  0.90803599313E+02  0.90925154100E+02  0.47000000000E+01 0. -1.
         -5   -1    0    0    0  501 -0.00000000000E+00 -0.00000000000E+00 -0.23186273894E+03  0.23191036999E+03  0.47000000000E+01 0. -1.
         25    2    1    2    0    0 -0.49405525728E+02  0.33402237041E+02 -0.11899875429E+03  0.18260468093E+03  0.12500860195E+03 0.  0.
         25    2    1    2    0    0  0.49405525728E+02 -0.33402237041E+02 -0.22060385334E+02  0.14023084316E+03  0.12498565262E+03 0.  0.
          5    1    4    4  502    0 -0.34395757211E+02 -0.33010367878E+02  0.12423498426E+02  0.49489249486E+02  0.47000000000E+01 0. -1.
         -5    1    4    4    0  502  0.83801282939E+02 -0.39186916282E+00 -0.34483883760E+02  0.90741593676E+02  0.47000000000E+01 0. -1.
          5    1    3    3  503    0 -0.25906713878E+02  0.17401899918E+02 -0.14216875863E+03  0.14562976988E+03  0.47000000000E+01 0.  1.
         -5    1    3    3    0  503 -0.23498811850E+02  0.16000337123E+02  0.23170004333E+02  0.36974911051E+02  0.47000000000E+01 0.  1.
<mgrwt>
<rscale>  0 0.13850029E+03</rscale>
<asrwt>0</asrwt>
<pdfrwt beam="1">  1        5 0.13982799E-01 0.13850547E+03</pdfrwt>
<pdfrwt beam="2">  1       -5 0.35684205E-01 0.13850547E+03</pdfrwt>
<totfact> 0.24580855E+02</totfact>
</mgrwt>
</event>
<event>
 8    1  0.3674342E-007  0.1311078E+03  0.7546771E-02  0.1225823E+00
         -5   -1    0    0    0  501 -0.00000000000E+00  0.00000000000E+00  0.23699272663E+03  0.23703932685E+03  0.47000000000E+01 0.  1.
          5   -1    0    0  501    0  0.00000000000E+00 -0.00000000000E+00 -0.79309648954E+02  0.79448791163E+02  0.47000000000E+01 0.  1.
         25    2    1    2    0    0  0.14926658807E+02 -0.36595202189E+02  0.12549620797E+03  0.18148721540E+03  0.12500518859E+03 0.  0.
         25    2    1    2    0    0 -0.14926658807E+02  0.36595202189E+02  0.32186869701E+02  0.13500090261E+03  0.12500894031E+03 0.  0.
          5    1    3    3  502    0  0.42965627262E+01 -0.48902159357E+02  0.14646151173E+03  0.15454108211E+03  0.47000000000E+01 0. -1.
         -5    1    3    3    0  502  0.10630096081E+02  0.12306957169E+02 -0.20965303763E+02  0.26946133291E+02  0.47000000000E+01 0. -1.
          5    1    4    4  503    0  0.13667865084E+02  0.12510087587E+02  0.75331153197E+02  0.77718630131E+02  0.47000000000E+01 0. -1.
         -5    1    4    4    0  503 -0.28594523891E+02  0.24085114601E+02 -0.43144283496E+02  0.57282272479E+02  0.47000000000E+01 0. -1.
<mgrwt>
<rscale>  0 0.13110688E+03</rscale>
<asrwt>0</asrwt>
<pdfrwt beam="2">  1        5 0.12215772E-01 0.13110778E+03</pdfrwt>
<pdfrwt beam="1">  1       -5 0.36474707E-01 0.13110778E+03</pdfrwt>
<totfact> 0.29376211E+02</totfact>
</mgrwt>
</event>
<event>
 8    1  0.3674342E-007  0.1694714E+03  0.7546771E-02  0.1178405E+00
          5   -1    0    0  501    0  0.00000000000E+00  0.00000000000E+00  0.97465981736E+03  0.97467114945E+03  0.47000000000E+01 0. -1.
         -5   -1    0    0    0  501 -0.00000000000E+00 -0.00000000000E+00 -0.46416903760E+02  0.46654249053E+02  0.47000000000E+01 0. -1.
         25    2    1    2    0    0 -0.11403635310E+03  0.91939868267E+01  0.15473986923E+03  0.22947471085E+03  0.12500158627E+03 0.  0.
         25    2    1    2    0    0  0.11403635310E+03 -0.91939868267E+01  0.77350304436E+03  0.79185068765E+03  0.12502692776E+03 0.  0.
          5    1    4    4  502    0  0.96347334218E+02 -0.21866248443E+02  0.26494089272E+03  0.28280153512E+03  0.47000000000E+01 0.  1.
         -5    1    4    4    0  502  0.17689018885E+02  0.12672261617E+02  0.50856215164E+03  0.50904915252E+03  0.47000000000E+01 0.  1.
          5    1    3    3  503    0 -0.13341587757E+03 -0.18831682413E+02  0.12803672008E+03  0.18592988017E+03  0.47000000000E+01 0.  1.
         -5    1    3    3    0  503  0.19379524467E+02  0.28025669239E+02  0.26703149154E+02  0.43544830688E+02  0.47000000000E+01 0.  1.
<mgrwt>
<rscale>  0 0.16946672E+03</rscale>
<asrwt>0</asrwt>
<pdfrwt beam="1">  1        5 0.14996679E+00 0.16947139E+03</pdfrwt>
<pdfrwt beam="2">  1       -5 0.71601914E-02 0.16947139E+03</pdfrwt>
<totfact> 0.30692414E+01</totfact>
</mgrwt>
</event>
<event>
 8    1  0.3674342E-007  0.1332250E+03  0.7546771E-02  0.1222751E+00
          5   -1    0    0  501    0  0.00000000000E+00  0.00000000000E+00  0.37600042654E+03  0.37602980036E+03  0.47000000000E+01 0.  1.
         -5   -1    0    0    0  501 -0.00000000000E+00 -0.00000000000E+00 -0.51399619921E+02  0.51614057466E+02  0.47000000000E+01 0.  1.
         25    2    1    2    0    0 -0.24407525202E+02  0.39087261862E+02  0.10026395909E+03  0.16673022073E+03  0.12499025437E+03 0.  0.
         25    2    1    2    0    0  0.24407525202E+02 -0.39087261862E+02  0.22433684753E+03  0.26091363709E+03  0.12500145412E+03 0.  0.
          5    1    4    4  502    0 -0.32291189667E+02 -0.55668596853E+02  0.16447733472E+03  0.17668219277E+03  0.47000000000E+01 0. -1.
         -5    1    4    4    0  502  0.56698714869E+02  0.16581334991E+02  0.59859512807E+02  0.84231444315E+02  0.47000000000E+01 0. -1.
          5    1    3    3  503    0  0.41261671693E+02 -0.37562852959E+01  0.31378613510E+01  0.41815922853E+02  0.47000000000E+01 0. -1.
         -5    1    3    3    0  503 -0.65669196895E+02  0.42843547158E+02  0.97126097735E+02  0.12491429788E+03  0.47000000000E+01 0. -1.
<mgrwt>
<rscale>  0 0.13322239E+03</rscale>
<asrwt>0</asrwt>
<pdfrwt beam="1">  1        5 0.57864974E-01 0.13322502E+03</pdfrwt>
<pdfrwt beam="2">  1       -5 0.79263886E-02 0.13322502E+03</pdfrwt>
<totfact> 0.23919662E+02</totfact>
</mgrwt>
</event>
<event>
 8    1  0.3674342E-007  0.1371821E+03  0.7546771E-02  0.1217174E+00
          5   -1    0    0  501    0  0.00000000000E+00  0.00000000000E+00  0.58039927363E+02  0.58229916437E+02  0.47000000000E+01 0.  1.
         -5   -1    0    0    0  501 -0.00000000000E+00 -0.00000000000E+00 -0.37141647948E+03  0.37144621580E+03  0.47000000000E+01 0.  1.
         25    2    1    2    0    0 -0.56319388385E+02  0.45031143705E+01 -0.23383736238E+03  0.27110305922E+03  0.12499922051E+03 0.  0.
         25    2    1    2    0    0  0.56319388385E+02 -0.45031143705E+01 -0.79539189736E+02  0.15857307301E+03  0.12500714073E+03 0.  0.
          5    1    3    3  502    0  0.25687652167E+01  0.43673085211E+02 -0.25092968603E+02  0.50652581375E+02  0.47000000000E+01 0. -1.
         -5    1    3    3    0  502 -0.58888153602E+02 -0.39169970841E+02 -0.20874439378E+03  0.22045047785E+03  0.47000000000E+01 0. -1.
          5    1    4    4  503    0  0.18575762200E+02  0.26327019416E+02  0.26366106786E+02  0.41897881566E+02  0.47000000000E+01 0.  1.
         -5    1    4    4    0  503  0.37743626185E+02 -0.30830133787E+02 -0.10590529652E+03  0.11667519144E+03  0.47000000000E+01 0.  1.
<mgrwt>
<rscale>  0 0.13718033E+03</rscale>
<asrwt>0</asrwt>
<pdfrwt beam="1">  1        5 0.89461218E-02 0.13718213E+03</pdfrwt>
<pdfrwt beam="2">  1       -5 0.57157897E-01 0.13718213E+03</pdfrwt>
<totfact> 0.20145968E+02</totfact>
</mgrwt>
</event>
<event>
 8    1  0.3674342E-007  0.1289025E+03  0.7546771E-02  0.1229099E+00
          5   -1    0    0  501    0  0.00000000000E+00  0.00000000000E+00  0.92054494923E+02  0.92174400109E+02  0.47000000000E+01 0.  1.
         -5   -1    0    0    0  501 -0.00000000000E+00 -0.00000000000E+00 -0.18605681372E+03  0.18611616784E+03  0.47000000000E+01 0.  1.
         25    2    1    2    0    0  0.27683435212E+02  0.14942670907E+02 -0.71655769447E+02  0.14748014788E+03  0.12500475480E+03 0.  0.
         25    2    1    2    0    0 -0.27683435212E+02 -0.14942670907E+02 -0.22346549348E+02  0.13081042007E+03  0.12498936648E+03 0.  0.
          5    1    4    4  502    0  0.28411578180E+02 -0.44408487855E+02 -0.38262206619E+02  0.65310167842E+02  0.47000000000E+01 0. -1.
         -5    1    4    4    0  502 -0.56095013391E+02  0.29465816948E+02  0.15915657271E+02  0.65500252230E+02  0.47000000000E+01 0. -1.
          5    1    3    3  503    0 -0.40301888205E+02  0.12348238849E+02  0.74224853873E+01  0.43056991127E+02  0.47000000000E+01 0.  1.
         -5    1    3    3    0  503  0.67985323417E+02  0.25944320586E+01 -0.79078254835E+02  0.10442315675E+03  0.47000000000E+01 0.  1.
<mgrwt>
<rscale>  0 0.12889873E+03</rscale>
<asrwt>0</asrwt>
<pdfrwt beam="1">  1        5 0.14176019E-01 0.12890246E+03</pdfrwt>
<pdfrwt beam="2">  1       -5 0.28637914E-01 0.12890246E+03</pdfrwt>
<totfact> 0.36136109E+02</totfact>
</mgrwt>
</event>
<event>
 8    1  0.3674342E-007  0.1294963E+03  0.7546771E-02  0.1228206E+00
         -5   -1    0    0    0  501 -0.00000000000E+00  0.00000000000E+00  0.15929118493E+03  0.15936050827E+03  0.47000000000E+01 0.  1.
          5   -1    0    0  501    0  0.00000000000E+00 -0.00000000000E+00 -0.12563182022E+03  0.12571970510E+03  0.47000000000E+01 0.  1.
         25    2    1    2    0    0 -0.22147983683E+02  0.25565060059E+02  0.74375396715E+02  0.14933519509E+03  0.12500078152E+03 0.  0.
         25    2    1    2    0    0  0.22147983683E+02 -0.25565060059E+02 -0.40716032003E+02  0.13574501828E+03  0.12499923699E+03 0.  0.
          5    1    3    3  502    0 -0.35394579608E+02  0.51470338031E+02 -0.67662317450E+01  0.63006696903E+02  0.47000000000E+01 0.  1.
         -5    1    3    3    0  502  0.13246595926E+02 -0.25905277972E+02  0.81141628460E+02  0.86328498189E+02  0.47000000000E+01 0.  1.
          5    1    4    4  503    0 -0.30477846286E+02  0.12525060153E+02 -0.59308006166E+02  0.68009601098E+02  0.47000000000E+01 0. -1.
         -5    1    4    4    0  503  0.52625829969E+02 -0.38090120212E+02  0.18591974163E+02  0.67735417183E+02  0.47000000000E+01 0. -1.
<mgrwt>
<rscale>  0 0.12949596E+03</rscale>
<asrwt>0</asrwt>
<pdfrwt beam="2">  1        5 0.19340065E-01 0.12949634E+03</pdfrwt>
<pdfrwt beam="1">  1       -5 0.24518429E-01 0.12949634E+03</pdfrwt>
<totfact> 0.27688381E+02</totfact>
</mgrwt>
</event>
<event>
 8    1  0.3674342E-007  0.1266027E+03  0.7546771E-02  0.1232591E+00
          5   -1    0    0  501    0  0.00000000000E+00  0.00000000000E+00  0.17142722201E+04  0.17142786631E+04  0.47000000000E+01 0. -1.
         -5   -1    0    0    0  501 -0.00000000000E+00 -0.00000000000E+00 -0.15722202376E+02  0.16409681519E+02  0.47000000000E+01 0. -1.
         25    2    1    2    0    0  0.19173389566E+02  0.59942001584E+01  0.28961133696E+03  0.31607429299E+03  0.12499873155E+03 0.  0.
         25    2    1    2    0    0 -0.19173389566E+02 -0.59942001584E+01  0.14089386808E+04  0.14146140516E+04  0.12498463703E+03 0.  0.
          5    1    4    4  502    0 -0.16682154261E+02  0.27833027920E+02  0.10021452648E+03  0.10544198894E+03  0.47000000000E+01 0.  1.
         -5    1    4    4    0  502 -0.24912353049E+01 -0.33827228078E+02  0.13087241543E+04  0.13091720627E+04  0.47000000000E+01 0.  1.
          5    1    3    3  503    0 -0.29479713083E+02  0.12161732254E+02  0.12428936961E+02  0.34547499024E+02  0.47000000000E+01 0. -1.
         -5    1    3    3    0  503  0.48653102648E+02 -0.61675320951E+01  0.27718240000E+03  0.28152679397E+03  0.47000000000E+01 0. -1.
<mgrwt>
<rscale>  0 0.12659918E+03</rscale>
<asrwt>0</asrwt>
<pdfrwt beam="1">  1        5 0.26378734E+00 0.12660265E+03</pdfrwt>
<pdfrwt beam="2">  1       -5 0.24721811E-02 0.12660265E+03</pdfrwt>
<totfact> 0.27438209E+01</totfact>
</mgrwt>
</event>
<event>
 8    1  0.3674342E-007  0.1347199E+03  0.7546771E-02  0.1220617E+00
         -5   -1    0    0    0  501 -0.00000000000E+00  0.00000000000E+00  0.43922201891E+02  0.44172953478E+02  0.47000000000E+01 0.  1.
          5   -1    0    0  501    0  0.00000000000E+00 -0.00000000000E+00 -0.41216760862E+03  0.41219440510E+03  0.47000000000E+01 0.  1.
         25    2    1    2    0    0 -0.42951666699E+02 -0.26050699865E+02 -0.17701447558E+03  0.22244702948E+03  0.12500028690E+03 0.  0.
         25    2    1    2    0    0  0.42951666699E+02  0.26050699865E+02 -0.19123093115E+03  0.23392032910E+03  0.12500386674E+03 0.  0.
          5    1    3    3  502    0 -0.71628566520E+02 -0.30451539195E+02 -0.17660564384E+03  0.19305333775E+03  0.47000000000E+01 0.  1.
         -5    1    3    3    0  502  0.28676899821E+02  0.44008393298E+01 -0.40883173983E+00  0.29393691730E+02  0.47000000000E+01 0.  1.
          5    1    4    4  503    0  0.21966972426E+02 -0.33155856384E+02 -0.89154234844E+01  0.41029665682E+02  0.47000000000E+01 0. -1.
         -5    1    4    4    0  503  0.20984694273E+02  0.59206556249E+02 -0.18231550767E+03  0.19289066342E+03  0.47000000000E+01 0. -1.
<mgrwt>
<rscale>  0 0.13471907E+03</rscale>
<asrwt>0</asrwt>
<pdfrwt beam="2">  1        5 0.63431749E-01 0.13471990E+03</pdfrwt>
<pdfrwt beam="1">  1       -5 0.67786119E-02 0.13471990E+03</pdfrwt>
<totfact> 0.25626102E+02</totfact>
</mgrwt>
</event>
<event>
 8    1  0.3674342E-007  0.1276033E+03  0.7546771E-02  0.1231059E+00
         -5   -1    0    0    0  501 -0.00000000000E+00  0.00000000000E+00  0.70208069898E+02  0.70365212135E+02  0.47000000000E+01 0.  1.
          5   -1    0    0  501    0  0.00000000000E+00 -0.00000000000E+00 -0.23391950512E+03  0.23396671745E+03  0.47000000000E+01 0.  1.
         25    2    1    2    0    0  0.12048091564E+02 -0.22630827260E+02 -0.97445533551E+02  0.16055604799E+03  0.12500120673E+03 0.  0.
         25    2    1    2    0    0 -0.12048091564E+02  0.22630827260E+02 -0.66265901669E+02  0.14377588160E+03  0.12499209396E+03 0.  0.
          5    1    3    3  502    0 -0.32748047555E+02 -0.25711440346E+02  0.10802847144E+02  0.43270131612E+02  0.47000000000E+01 0.  1.
         -5    1    3    3    0  502  0.44796139119E+02  0.30806130853E+01 -0.10824838069E+03  0.11728591638E+03  0.47000000000E+01 0.  1.
          5    1    4    4  503    0 -0.45568491256E+02  0.41281938378E+02  0.58641669362E+01  0.61944848740E+02  0.47000000000E+01 0. -1.
         -5    1    4    4    0  503  0.33520399692E+02 -0.18651111118E+02 -0.72130068605E+02  0.81831032857E+02  0.47000000000E+01 0. -1.
<mgrwt>
<rscale>  0 0.12760111E+03</rscale>
<asrwt>0</asrwt>
<pdfrwt beam="2">  1        5 0.36003335E-01 0.12760334E+03</pdfrwt>
<pdfrwt beam="1">  1       -5 0.10816961E-01 0.12760334E+03</pdfrwt>
<totfact> 0.37000865E+02</totfact>
</mgrwt>
</event>
<event>
 8    1  0.3674342E-007  0.1372880E+03  0.7546771E-02  0.1217027E+00
          5   -1    0    0  501    0  0.00000000000E+00  0.00000000000E+00  0.43435411069E+03  0.43437953851E+03  0.47000000000E+01 0.  1.
         -5   -1    0    0    0  501 -0.00000000000E+00 -0.00000000000E+00 -0.45244430535E+02  0.45487893933E+02  0.47000000000E+01 0.  1.
         25    2    1    2    0    0 -0.56762909237E+02  0.32760434914E+00  0.24492996766E+03  0.28078008035E+03  0.12499851708E+03 0.  0.
         25    2    1    2    0    0  0.56762909237E+02 -0.32760434914E+00  0.14417971250E+03  0.19908735210E+03  0.12500339627E+03 0.  0.
          5    1    4    4  502    0  0.83249132803E+02 -0.11482330271E+02  0.44433623358E+02  0.95177197404E+02  0.47000000000E+01 0. -1.
         -5    1    4    4    0  502 -0.26486223566E+02  0.11154725922E+02  0.99746089143E+02  0.10391015469E+03  0.47000000000E+01 0. -1.
          5    1    3    3  503    0 -0.24837192388E+02 -0.44332066399E+00 -0.74402501448E+01  0.26353936730E+02  0.47000000000E+01 0. -1.
         -5    1    3    3    0  503 -0.31925716849E+02  0.77092501313E+00  0.25237021780E+03  0.25442614362E+03  0.47000000000E+01 0. -1.
<mgrwt>
<rscale>  0 0.13728685E+03</rscale>
<asrwt>0</asrwt>
<pdfrwt beam="1">  1        5 0.66844392E-01 0.13728796E+03</pdfrwt>
<pdfrwt beam="2">  1       -5 0.69813657E-02 0.13728796E+03</pdfrwt>
<totfact> 0.21836708E+02</totfact>
</mgrwt>
</event>
<event>
 8    1  0.3674342E-007  0.1273145E+03  0.7546771E-02  0.1231500E+00
         -5   -1    0    0    0  501 -0.00000000000E+00  0.00000000000E+00  0.12564085739E+03  0.12572873596E+03  0.47000000000E+01 0.  1.
          5   -1    0    0  501    0  0.00000000000E+00 -0.00000000000E+00 -0.12901540387E+03  0.12910098542E+03  0.47000000000E+01 0.  1.
         25    2    1    2    0    0  0.23701522743E+02  0.44833622297E+01  0.32363598716E+01  0.12734369635E+03  0.12499632097E+03 0.  0.
         25    2    1    2    0    0 -0.23701522743E+02 -0.44833622297E+01 -0.66109063563E+01  0.12748602503E+03  0.12500847883E+03 0.  0.
          5    1    3    3  502    0 -0.23936809079E+02 -0.18514191950E+02 -0.45776619412E+02  0.55075720760E+02  0.47000000000E+01 0.  1.
         -5    1    3    3    0  502  0.47638331822E+02  0.22997554180E+02  0.49012979283E+02  0.72267975586E+02  0.47000000000E+01 0.  1.
          5    1    4    4  503    0 -0.15184603280E+02 -0.90642813511E+01  0.58602160040E+02  0.61392479462E+02  0.47000000000E+01 0. -1.
         -5    1    4    4    0  503 -0.85169194632E+01  0.45809191214E+01 -0.65213066396E+02  0.66093545570E+02  0.47000000000E+01 0. -1.
<mgrwt>
<rscale>  0 0.12731152E+03</rscale>
<asrwt>0</asrwt>
<pdfrwt beam="2">  1        5 0.19861867E-01 0.12731450E+03</pdfrwt>
<pdfrwt beam="1">  1       -5 0.19342706E-01 0.12731450E+03</pdfrwt>
<totfact> 0.40919543E+02</totfact>
</mgrwt>
</event>
<event>
 8    1  0.3674342E-007  0.1471273E+03  0.7546771E-02  0.1204050E+00
          5   -1    0    0  501    0  0.00000000000E+00  0.00000000000E+00  0.59581104031E+02  0.59766194103E+02  0.47000000000E+01 0.  1.
         -5   -1    0    0    0  501 -0.00000000000E+00 -0.00000000000E+00 -0.48223256425E+03  0.48225546759E+03  0.47000000000E+01 0.  1.
         25    2    1    2    0    0  0.49174835262E+02  0.60024848978E+02 -0.34632250677E+03  0.37627878908E+03  0.12500120600E+03 0.  0.
         25    2    1    2    0    0 -0.49174835262E+02 -0.60024848978E+02 -0.76328953451E+02  0.16574287261E+03  0.12499377492E+03 0.  0.
          5    1    3    3  502    0  0.37833772986E+01  0.67513819207E+02 -0.75197736168E+02  0.10123842775E+03  0.47000000000E+01 0.  1.
         -5    1    3    3    0  502  0.45391457964E+02 -0.74889702288E+01 -0.27112477060E+03  0.27504036134E+03  0.47000000000E+01 0.  1.
          5    1    4    4  503    0 -0.24000328198E+02  0.17300296631E+02  0.22650286928E+02  0.37555845285E+02  0.47000000000E+01 0. -1.
         -5    1    4    4    0  503 -0.25174507064E+02 -0.77325145609E+02 -0.98979240379E+02  0.12818702733E+03  0.47000000000E+01 0. -1.
<mgrwt>
<rscale>  0 0.14712574E+03</rscale>
<asrwt>0</asrwt>
<pdfrwt beam="1">  1        5 0.91823235E-02 0.14712732E+03</pdfrwt>
<pdfrwt beam="2">  1       -5 0.74205622E-01 0.14712732E+03</pdfrwt>
<totfact> 0.11024761E+02</totfact>
</mgrwt>
</event>
<event>
 8    1  0.3674342E-007  0.1577161E+03  0.7546771E-02  0.1191300E+00
         -5   -1    0    0    0  501 -0.00000000000E+00  0.00000000000E+00  0.44942106943E+02  0.45187199254E+02  0.47000000000E+01 0.  1.
          5   -1    0    0  501    0  0.00000000000E+00 -0.00000000000E+00 -0.63146400465E+03  0.63148149551E+03  0.47000000000E+01 0.  1.
         25    2    1    2    0    0 -0.84251591506E+02  0.46374711350E+02 -0.17304623955E+03  0.23413535568E+03  0.12500167691E+03 0.  0.
         25    2    1    2    0    0  0.84251591506E+02 -0.46374711350E+02 -0.41347565816E+03  0.44253333909E+03  0.12499876716E+03 0.  0.
          5    1    3    3  502    0 -0.58965152160E+02  0.88504110988E+02 -0.10055667395E+03  0.14643633944E+03  0.47000000000E+01 0.  1.
         -5    1    3    3    0  502 -0.25286439346E+02 -0.42129399638E+02 -0.72489565599E+02  0.87699016240E+02  0.47000000000E+01 0.  1.
          5    1    4    4  503    0 -0.98597845007E+01  0.13841040760E+02 -0.40229931754E+01  0.18084917301E+02  0.47000000000E+01 0. -1.
         -5    1    4    4    0  503  0.94111376007E+02 -0.60215752110E+02 -0.40945266498E+03  0.42444842179E+03  0.47000000000E+01 0. -1.
<mgrwt>
<rscale>  0 0.15771551E+03</rscale>
<asrwt>0</asrwt>
<pdfrwt beam="2">  1        5 0.97168501E-01 0.15771609E+03</pdfrwt>
<pdfrwt beam="1">  1       -5 0.69343695E-02 0.15771609E+03</pdfrwt>
<totfact> 0.96886071E+01</totfact>
</mgrwt>
</event>
<event>
 8    1  0.3674342E-007  0.1458948E+03  0.7546771E-02  0.1205618E+00
         -5   -1    0    0    0  501 -0.00000000000E+00  0.00000000000E+00  0.93978471256E+02  0.94095924777E+02  0.47000000000E+01 0.  1.
          5   -1    0    0  501    0  0.00000000000E+00 -0.00000000000E+00 -0.23732158657E+03  0.23736812224E+03  0.47000000000E+01 0.  1.
         25    2    1    2    0    0 -0.65514512136E+02 -0.36979634107E+02 -0.35752648157E+02  0.15018800939E+03  0.12497416403E+03 0.  0.
         25    2    1    2    0    0  0.65514512136E+02  0.36979634107E+02 -0.10759046716E+03  0.18127603762E+03  0.12500259419E+03 0.  0.
          5    1    4    4  502    0 -0.17789339411E+02 -0.26793702905E+02 -0.23292434083E+01  0.32586477056E+02  0.47000000000E+01 0. -1.
         -5    1    4    4    0  502  0.83303851547E+02  0.63773337012E+02 -0.10526122375E+03  0.14868956057E+03  0.47000000000E+01 0. -1.
          5    1    3    3  503    0 -0.15344618217E+02 -0.53864797283E+02  0.31533492488E+02  0.64446294254E+02  0.47000000000E+01 0. -1.
         -5    1    3    3    0  503 -0.50169893920E+02  0.16885163176E+02 -0.67286140645E+02  0.85741715135E+02  0.47000000000E+01 0. -1.
<mgrwt>
<rscale>  0 0.14588871E+03</rscale>
<asrwt>0</asrwt>
<pdfrwt beam="2">  1        5 0.36523628E-01 0.14589480E+03</pdfrwt>
<pdfrwt beam="1">  1       -5 0.14470841E-01 0.14589480E+03</pdfrwt>
<totfact> 0.22437668E+02</totfact>
</mgrwt>
</event>
<event>
 8    1  0.3674342E-007  0.1278272E+03  0.7546771E-02  0.1230726E+00
         -5   -1    0    0    0  501 -0.00000000000E+00  0.00000000000E+00  0.23061313555E+02  0.23535381511E+02  0.47000000000E+01 0.  1.
          5   -1    0    0  501    0  0.00000000000E+00 -0.00000000000E+00 -0.70093589971E+03  0.70095165704E+03  0.47000000000E+01 0.  1.
         25    2    1    2    0    0  0.20760743857E+02  0.16623145372E+02 -0.33239098312E+03  0.35612294285E+03  0.12502978571E+03 0.  0.
         25    2    1    2    0    0 -0.20760743857E+02 -0.16623145372E+02 -0.34548360303E+03  0.36836409570E+03  0.12500339830E+03 0.  0.
          5    1    4    4  502    0 -0.40888028886E+02 -0.47083758483E+02 -0.31326160147E+03  0.31944268997E+03  0.47000000000E+01 0.  1.
         -5    1    4    4    0  502  0.20127285029E+02  0.30460613111E+02 -0.32222001561E+02  0.48921405728E+02  0.47000000000E+01 0.  1.
          5    1    3    3  503    0  0.70256592402E+02  0.97742440225E+01 -0.13646540461E+03  0.15387144400E+03  0.47000000000E+01 0. -1.
         -5    1    3    3    0  503 -0.49495848545E+02  0.68489013495E+01 -0.19592557851E+03  0.20225149885E+03  0.47000000000E+01 0. -1.
<mgrwt>
<rscale>  0 0.12782071E+03</rscale>
<asrwt>0</asrwt>
<pdfrwt beam="2">  1        5 0.10787396E+00 0.12782717E+03</pdfrwt>
<pdfrwt beam="1">  1       -5 0.35855738E-02 0.12782717E+03</pdfrwt>
<totfact> 0.20973287E+02</totfact>
</mgrwt>
</event>
<event>
 8    1  0.3674342E-007  0.1330066E+03  0.7546771E-02  0.1223067E+00
         -5   -1    0    0    0  501 -0.00000000000E+00  0.00000000000E+00  0.17444648856E+03  0.17450979162E+03  0.47000000000E+01 0. -1.
          5   -1    0    0  501    0  0.00000000000E+00 -0.00000000000E+00 -0.11174006408E+03  0.11183886587E+03  0.47000000000E+01 0. -1.
         25    2    1    2    0    0  0.34561408541E+02  0.29457940935E+02  0.75159830897E+02  0.15276030699E+03  0.12499779985E+03 0.  0.
         25    2    1    2    0    0 -0.34561408541E+02 -0.29457940935E+02 -0.12453406411E+02  0.13358835050E+03  0.12501399447E+03 0.  0.
          5    1    3    3  502    0  0.55680101215E+01 -0.71064737319E+01  0.99431742326E+02  0.99951318589E+02  0.47000000000E+01 0. -1.
         -5    1    3    3    0  502  0.28993398419E+02  0.36564414667E+02 -0.24271911429E+02  0.52808988404E+02  0.47000000000E+01 0. -1.
          5    1    4    4  503    0 -0.18361065857E+01 -0.62643282592E+02 -0.44347651213E+02  0.76917854295E+02  0.47000000000E+01 0.  1.
         -5    1    4    4    0  503 -0.32725301955E+02  0.33185341657E+02  0.31894244802E+02  0.56670496207E+02  0.47000000000E+01 0.  1.
<mgrwt>
<rscale>  0 0.13300281E+03</rscale>
<asrwt>0</asrwt>
<pdfrwt beam="2">  1        5 0.17203249E-01 0.13300662E+03</pdfrwt>
<pdfrwt beam="1">  1       -5 0.26850391E-01 0.13300662E+03</pdfrwt>
<totfact> 0.29143767E+02</totfact>
</mgrwt>
</event>
<event>
 8    1  0.3674342E-007  0.1364568E+03  0.7546771E-02  0.1218180E+00
          5   -1    0    0  501    0  0.00000000000E+00  0.00000000000E+00  0.10011314577E+04  0.10011424902E+04  0.47000000000E+01 0.  1.
         -5   -1    0    0    0  501 -0.00000000000E+00 -0.00000000000E+00 -0.18292098633E+02  0.18886261472E+02  0.47000000000E+01 0.  1.
         25    2    1    2    0    0 -0.35266448309E+02 -0.41851804389E+02  0.49632356012E+03  0.51473866021E+03  0.12499406414E+03 0.  0.
         25    2    1    2    0    0  0.35266448309E+02  0.41851804389E+02  0.48651579897E+03  0.50529009145E+03  0.12500063184E+03 0.  0.
          5    1    3    3  502    0 -0.50399284126E+02 -0.67108051125E+02  0.46060142895E+03  0.46820865511E+03  0.47000000000E+01 0. -1.
         -5    1    3    3    0  502  0.15132835816E+02  0.25256246736E+02  0.35722131173E+02  0.46530005100E+02  0.47000000000E+01 0. -1.
          5    1    4    4  503    0  0.66136755482E+01 -0.43382266037E+02  0.11948835116E+03  0.12737863940E+03  0.47000000000E+01 0.  1.
         -5    1    4    4    0  503  0.28652772761E+02  0.85234070426E+02  0.36702744781E+03  0.37791145205E+03  0.47000000000E+01 0.  1.
<mgrwt>
<rscale>  0 0.13645528E+03</rscale>
<asrwt>0</asrwt>
<pdfrwt beam="1">  1        5 0.15406681E+00 0.13645678E+03</pdfrwt>
<pdfrwt beam="2">  1       -5 0.28607220E-02 0.13645678E+03</pdfrwt>
<totfact> 0.12230442E+02</totfact>
</mgrwt>
</event>
<event>
 8    1  0.3674342E-007  0.1540754E+03  0.7546771E-02  0.1195553E+00
         -5   -1    0    0    0  501 -0.00000000000E+00  0.00000000000E+00  0.23500908160E+03  0.23505607509E+03  0.47000000000E+01 0. -1.
          5   -1    0    0  501    0  0.00000000000E+00 -0.00000000000E+00 -0.13078695590E+03  0.13087137897E+03  0.47000000000E+01 0. -1.
         25    2    1    2    0    0  0.56029724061E+02 -0.70528811008E+02  0.13952415098E+03  0.20785950269E+03  0.12499976395E+03 0.  0.
         25    2    1    2    0    0 -0.56029724061E+02  0.70528811008E+02 -0.35302025276E+02  0.15806795137E+03  0.12500240438E+03 0.  0.
          5    1    4    4  502    0 -0.64383551539E+02  0.93624339640E+02  0.13115277871E+01  0.11373024570E+03  0.47000000000E+01 0. -1.
         -5    1    4    4    0  502  0.83538274777E+01 -0.23095528632E+02 -0.36613553063E+02  0.44337705671E+02  0.47000000000E+01 0. -1.
          5    1    3    3  503    0  0.17783484526E+02 -0.97203120257E+02  0.60434657457E+02  0.11592729071E+03  0.47000000000E+01 0.  1.
         -5    1    3    3    0  503  0.38246239535E+02  0.26674309249E+02  0.79089493525E+02  0.91932211974E+02  0.47000000000E+01 0.  1.
<mgrwt>
<rscale>  0 0.15407491E+03</rscale>
<asrwt>0</asrwt>
<pdfrwt beam="2">  1        5 0.20131179E-01 0.15407545E+03</pdfrwt>
<pdfrwt beam="1">  1       -5 0.36165352E-01 0.15407545E+03</pdfrwt>
<totfact> 0.12702884E+02</totfact>
</mgrwt>
</event>
<event>
 8    1  0.3674342E-007  0.1461699E+03  0.7546771E-02  0.1205264E+00
          5   -1    0    0  501    0  0.00000000000E+00  0.00000000000E+00  0.15270982571E+02  0.15977888117E+02  0.47000000000E+01 0.  1.
         -5   -1    0    0    0  501 -0.00000000000E+00 -0.00000000000E+00 -0.14870111496E+04  0.14870185772E+04  0.47000000000E+01 0.  1.
         25    2    1    2    0    0  0.70808268891E+02 -0.26991763414E+02 -0.94966773384E+03  0.96085089200E+03  0.12499306277E+03 0.  0.
         25    2    1    2    0    0 -0.70808268891E+02  0.26991763414E+02 -0.52207243318E+03  0.54214557334E+03  0.12497932214E+03 0.  0.
          5    1    3    3  502    0  0.13471100019E+01  0.27341419965E+02 -0.58437462446E+03  0.58503432349E+03  0.47000000000E+01 0.  1.
         -5    1    3    3    0  502  0.69461158889E+02 -0.54333183379E+02 -0.36529310938E+03  0.37581656851E+03  0.47000000000E+01 0.  1.
          5    1    4    4  503    0  0.27423608647E+02  0.20722400140E+02 -0.25732214860E+03  0.25965024617E+03  0.47000000000E+01 0.  1.
         -5    1    4    4    0  503 -0.98231877538E+02  0.62693632736E+01 -0.26475028459E+03  0.28249532716E+03  0.47000000000E+01 0.  1.
<mgrwt>
<rscale>  0 0.14616694E+03</rscale>
<asrwt>0</asrwt>
<pdfrwt beam="1">  1        5 0.24043318E-02 0.14616987E+03</pdfrwt>
<pdfrwt beam="2">  1       -5 0.22882578E+00 0.14616987E+03</pdfrwt>
<totfact> 0.49699438E+01</totfact>
</mgrwt>
</event>
<event>
 8    1  0.3674342E-007  0.1386494E+03  0.7546771E-02  0.1215163E+00
          5   -1    0    0  501    0  0.00000000000E+00  0.00000000000E+00  0.76899846345E+02  0.77043340840E+02  0.47000000000E+01 0.  1.
         -5   -1    0    0    0  501 -0.00000000000E+00 -0.00000000000E+00 -0.28721713981E+03  0.28725559247E+03  0.47000000000E+01 0.  1.
         25    2    1    2    0    0  0.41063223742E+02  0.43692363712E+02 -0.17108942396E+03  0.22020701293E+03  0.12499730621E+03 0.  0.
         25    2    1    2    0    0 -0.41063223742E+02 -0.43692363712E+02 -0.39227869506E+02  0.14409192038E+03  0.12501377837E+03 0.  0.
          5    1    3    3  502    0  0.64574339264E+02  0.23140464319E+01 -0.30309143250E+02  0.71525759464E+02  0.47000000000E+01 0. -1.
         -5    1    3    3    0  502 -0.23511115522E+02  0.41378317280E+02 -0.14078028071E+03  0.14868125346E+03  0.47000000000E+01 0. -1.
          5    1    4    4  503    0  0.15453334555E+02 -0.60439859464E+02  0.14473910616E+02  0.64213442902E+02  0.47000000000E+01 0.  1.
         -5    1    4    4    0  503 -0.56516558297E+02  0.16747495752E+02 -0.53701780122E+02  0.79878477477E+02  0.47000000000E+01 0.  1.
<mgrwt>
<rscale>  0 0.13864569E+03</rscale>
<asrwt>0</asrwt>
<pdfrwt beam="1">  1        5 0.11844742E-01 0.13864940E+03</pdfrwt>
<pdfrwt beam="2">  1       -5 0.44201248E-01 0.13864940E+03</pdfrwt>
<totfact> 0.21349162E+02</totfact>
</mgrwt>
</event>
<event>
 8    1  0.3674342E-007  0.1722077E+03  0.7546771E-02  0.1175571E+00
          5   -1    0    0  501    0  0.00000000000E+00  0.00000000000E+00  0.41312065203E+03  0.41314738670E+03  0.47000000000E+01 0.  1.
         -5   -1    0    0    0  501 -0.00000000000E+00 -0.00000000000E+00 -0.95029804701E+02  0.95145960406E+02  0.47000000000E+01 0.  1.
         25    2    1    2    0    0  0.62503846771E+02 -0.10059313328E+03  0.33133783891E+02  0.17534285737E+03  0.12498624193E+03 0.  0.
         25    2    1    2    0    0 -0.62503846771E+02  0.10059313328E+03  0.28495706344E+03  0.33295048974E+03  0.12501916369E+03 0.  0.
          5    1    4    4  502    0 -0.72757198277E+02  0.68816844396E+02  0.28177774504E+03  0.29908218866E+03  0.47000000000E+01 0. -1.
         -5    1    4    4    0  502  0.10253351507E+02  0.31776288880E+02  0.31793183953E+01  0.33868301073E+02  0.47000000000E+01 0. -1.
          5    1    3    3  503    0  0.13682017385E+02 -0.11826866916E+03  0.31220112181E+02  0.12317248519E+03  0.47000000000E+01 0.  1.
         -5    1    3    3    0  503  0.48821829386E+02  0.17675535881E+02  0.19136717100E+01  0.52170372173E+02  0.47000000000E+01 0.  1.
<mgrwt>
<rscale>  0 0.17220175E+03</rscale>
<asrwt>0</asrwt>
<pdfrwt beam="1">  1        5 0.63568016E-01 0.17220773E+03</pdfrwt>
<pdfrwt beam="2">  1       -5 0.14630961E-01 0.17220773E+03</pdfrwt>
<totfact> 0.71728308E+01</totfact>
</mgrwt>
</event>
<event>
 8    1  0.3674342E-007  0.1753121E+03  0.7546771E-02  0.1172419E+00
          5   -1    0    0  501    0  0.00000000000E+00  0.00000000000E+00  0.33908329310E+03  0.33911586466E+03  0.47000000000E+01 0.  1.
         -5   -1    0    0    0  501 -0.00000000000E+00 -0.00000000000E+00 -0.92868193330E+02  0.92987049272E+02  0.47000000000E+01 0.  1.
         25    2    1    2    0    0  0.82197873731E+02  0.91389437332E+02  0.88938055419E+02  0.19658139162E+03  0.12500298448E+03 0.  0.
         25    2    1    2    0    0 -0.82197873731E+02 -0.91389437332E+02  0.15727704435E+03  0.23552152231E+03  0.12500319631E+03 0.  0.
          5    1    4    4  502    0 -0.10182046062E+03 -0.71843288891E+02  0.68231159432E+02  0.14214937734E+03  0.47000000000E+01 0.  1.
         -5    1    4    4    0  502  0.19622586889E+02 -0.19546148441E+02  0.89045884921E+02  0.93372144971E+02  0.47000000000E+01 0.  1.
          5    1    3    3  503    0  0.50106697147E+02  0.50660441785E+02  0.11727447707E+03  0.13730460456E+03  0.47000000000E+01 0.  1.
         -5    1    3    3    0  503  0.32091176584E+02  0.40728995547E+02 -0.28336421648E+02  0.59276787064E+02  0.47000000000E+01 0.  1.
<mgrwt>
<rscale>  0 0.17531202E+03</rscale>
<asrwt>0</asrwt>
<pdfrwt beam="1">  1        5 0.52178309E-01 0.17531206E+03</pdfrwt>
<pdfrwt beam="2">  1       -5 0.14299063E-01 0.17531206E+03</pdfrwt>
<totfact> 0.11564566E+02</totfact>
</mgrwt>
</event>
<event>
 8    1  0.3674342E-007  0.1502974E+03  0.7546771E-02  0.1200111E+00
         -5   -1    0    0    0  501 -0.00000000000E+00  0.00000000000E+00  0.10109740995E+03  0.10120660205E+03  0.47000000000E+01 0.  1.
          5   -1    0    0  501    0  0.00000000000E+00 -0.00000000000E+00 -0.22545303399E+03  0.22550201891E+03  0.47000000000E+01 0.  1.
         25    2    1    2    0    0 -0.46143398895E+02  0.69517510265E+02 -0.45754043182E+02  0.15710740622E+03  0.12500962814E+03 0.  0.
         25    2    1    2    0    0  0.46143398895E+02 -0.69517510265E+02 -0.78601580856E+02  0.16960121474E+03  0.12499786411E+03 0.  0.
          5    1    4    4  502    0 -0.35982032617E+02 -0.18164498934E+02 -0.57468776706E+02  0.70352014817E+02  0.47000000000E+01 0. -1.
         -5    1    4    4    0  502  0.82125431512E+02 -0.51353011331E+02 -0.21132804150E+02  0.99249199921E+02  0.47000000000E+01 0. -1.
          5    1    3    3  503    0 -0.39153383760E+01  0.88752925668E+02  0.38156406595E+01  0.89045273894E+02  0.47000000000E+01 0.  1.
         -5    1    3    3    0  503 -0.42228060519E+02 -0.19235415403E+02 -0.49569683842E+02  0.68062132328E+02  0.47000000000E+01 0.  1.
<mgrwt>
<rscale>  0 0.15029494E+03</rscale>
<asrwt>0</asrwt>
<pdfrwt beam="2">  1        5 0.34697250E-01 0.15029739E+03</pdfrwt>
<pdfrwt beam="1">  1       -5 0.15565615E-01 0.15029739E+03</pdfrwt>
<totfact> 0.22013235E+02</totfact>
</mgrwt>
</event>
<event>
 8    1  0.3674342E-007  0.1573274E+03  0.7546771E-02  0.1191748E+00
          5   -1    0    0  501    0  0.00000000000E+00  0.00000000000E+00  0.13722220891E+04  0.13722301381E+04  0.47000000000E+01 0.  1.
         -5   -1    0    0    0  501 -0.00000000000E+00 -0.00000000000E+00 -0.18095657513E+02  0.18696064314E+02  0.47000000000E+01 0.  1.
         25    2    1    2    0    0 -0.58368551204E+02  0.75628345473E+02  0.57895920865E+03  0.59995474081E+03  0.12500156533E+03 0.  0.
         25    2    1    2    0    0  0.58368551204E+02 -0.75628345473E+02  0.77516722295E+03  0.79097146157E+03  0.12500038034E+03 0.  0.
          5    1    4    4  502    0  0.54976213140E+02 -0.15332370497E+02  0.64345048348E+03  0.64599387017E+03  0.47000000000E+01 0. -1.
         -5    1    4    4    0  502  0.33923380637E+01 -0.60295974976E+02  0.13171673946E+03  0.14497759141E+03  0.47000000000E+01 0. -1.
          5    1    3    3  503    0 -0.39200666996E+02  0.11027825186E+03  0.44796166439E+03  0.46302238379E+03  0.47000000000E+01 0. -1.
         -5    1    3    3    0  503 -0.19167884208E+02 -0.34649906392E+02  0.13099754426E+03  0.13693235702E+03  0.47000000000E+01 0. -1.
<mgrwt>
<rscale>  0 0.15732721E+03</rscale>
<asrwt>0</asrwt>
<pdfrwt beam="1">  1        5 0.21115790E+00 0.15732745E+03</pdfrwt>
<pdfrwt beam="2">  1       -5 0.28307515E-02 0.15732745E+03</pdfrwt>
<totfact> 0.50894637E+01</totfact>
</mgrwt>
</event>
<event>
 8    1  0.3674342E-007  0.1316506E+03  0.7546771E-02  0.1225028E+00
         -5   -1    0    0    0  501 -0.00000000000E+00  0.00000000000E+00  0.70009075984E+02  0.70166663881E+02  0.47000000000E+01 0. -1.
          5   -1    0    0  501    0  0.00000000000E+00 -0.00000000000E+00 -0.26640985279E+03  0.26645130824E+03  0.47000000000E+01 0. -1.
         25    2    1    2    0    0 -0.37851248468E+02 -0.16585534896E+02 -0.52903970410E+02  0.14187915737E+03  0.12499227269E+03 0.  0.
         25    2    1    2    0    0  0.37851248468E+02  0.16585534896E+02 -0.14349680640E+03  0.19473881476E+03  0.12499630214E+03 0.  0.
          5    1    4    4  502    0 -0.26663480944E+02  0.35163398666E+02 -0.10380706959E+02  0.45576911905E+02  0.47000000000E+01 0. -1.
         -5    1    4    4    0  502  0.64514729412E+02 -0.18577863771E+02 -0.13311609944E+03  0.14916190286E+03  0.47000000000E+01 0. -1.
          5    1    3    3  503    0 -0.33091232973E+02 -0.69502636510E+02 -0.21839554665E+02  0.80154240870E+02  0.47000000000E+01 0.  1.
         -5    1    3    3    0  503 -0.47600154955E+01  0.52917101614E+02 -0.31064415746E+02  0.61724916495E+02  0.47000000000E+01 0.  1.
<mgrwt>
<rscale>  0 0.13164961E+03</rscale>
<asrwt>0</asrwt>
<pdfrwt beam="2">  1        5 0.41001442E-01 0.13165057E+03</pdfrwt>
<pdfrwt beam="1">  1       -5 0.10785938E-01 0.13165057E+03</pdfrwt>
<totfact> 0.28889291E+02</totfact>
</mgrwt>
</event>
<event>
 8    1  0.3674342E-007  0.1684190E+03  0.7546771E-02  0.1179508E+00
          5   -1    0    0  501    0  0.00000000000E+00  0.00000000000E+00  0.22267258291E+04  0.22267307893E+04  0.47000000000E+01 0. -1.
         -5   -1    0    0    0  501 -0.00000000000E+00 -0.00000000000E+00 -0.12334475037E+02  0.13199593722E+02  0.47000000000E+01 0. -1.
         25    2    1    2    0    0 -0.11285248867E+03 -0.19193278219E+01  0.10495376696E+04  0.10629648554E+04  0.12500238319E+03 0.  0.
         25    2    1    2    0    0  0.11285248867E+03  0.19193278219E+01  0.11648536844E+04  0.11769655276E+04  0.12499751621E+03 0.  0.
          5    1    4    4  502    0  0.12266941640E+03  0.25146405083E+02  0.11016694581E+04  0.11087731113E+04  0.47000000000E+01 0. -1.
         -5    1    4    4    0  502 -0.98169277302E+01 -0.23227077261E+02  0.63184226331E+02  0.68192416332E+02  0.47000000000E+01 0. -1.
          5    1    3    3  503    0 -0.36923356996E+02  0.42981699801E+02  0.17564014147E+03  0.18461394884E+03  0.47000000000E+01 0. -1.
         -5    1    3    3    0  503 -0.75929131676E+02 -0.44901027623E+02  0.87389752814E+03  0.87835090653E+03  0.47000000000E+01 0. -1.
<mgrwt>
<rscale>  0 0.16841811E+03</rscale>
<asrwt>0</asrwt>
<pdfrwt beam="1">  1        5 0.34264008E+00 0.16841901E+03</pdfrwt>
<pdfrwt beam="2">  1       -5 0.19645410E-02 0.16841901E+03</pdfrwt>
<totfact> 0.13285129E+01</totfact>
</mgrwt>
</event>
<event>
 8    1  0.3674342E-007  0.1554905E+03  0.7546771E-02  0.1193885E+00
          5   -1    0    0  501    0  0.00000000000E+00  0.00000000000E+00  0.12173822516E+03  0.12182891883E+03  0.47000000000E+01 0.  1.
         -5   -1    0    0    0  501 -0.00000000000E+00 -0.00000000000E+00 -0.19910763654E+03  0.19916310132E+03  0.47000000000E+01 0.  1.
         25    2    1    2    0    0  0.17770062350E+02 -0.90743047793E+02 -0.29139237741E+02  0.15819736174E+03  0.12500893667E+03 0.  0.
         25    2    1    2    0    0 -0.17770062350E+02  0.90743047793E+02 -0.48230173642E+02  0.16279465841E+03  0.12500350123E+03 0.  0.
          5    1    3    3  502    0  0.53421827587E+02 -0.34694339496E+02 -0.57382517557E+02  0.85862868442E+02  0.47000000000E+01 0. -1.
         -5    1    3    3    0  502 -0.35651765237E+02 -0.56048708297E+02  0.28243279816E+02  0.72334493300E+02  0.47000000000E+01 0. -1.
          5    1    4    4  503    0 -0.66636009809E+02  0.20817241416E+02 -0.19143811624E+02  0.72541649188E+02  0.47000000000E+01 0.  1.
         -5    1    4    4    0  503  0.48865947459E+02  0.69925806376E+02 -0.29086362018E+02  0.90253009223E+02  0.47000000000E+01 0.  1.
<mgrwt>
<rscale>  0 0.15548945E+03</rscale>
<asrwt>0</asrwt>
<pdfrwt beam="1">  1        5 0.18740201E-01 0.15549055E+03</pdfrwt>
<pdfrwt beam="2">  1       -5 0.30643187E-01 0.15549055E+03</pdfrwt>
<totfact> 0.20263859E+02</totfact>
</mgrwt>
</event>
<event>
 8    1  0.3674342E-007  0.1813726E+03  0.7546771E-02  0.1166482E+00
          5   -1    0    0  501    0  0.00000000000E+00  0.00000000000E+00  0.10407973200E+04  0.10408079320E+04  0.47000000000E+01 0.  1.
         -5   -1    0    0    0  501 -0.00000000000E+00 -0.00000000000E+00 -0.31446737235E+02  0.31796026210E+02  0.47000000000E+01 0.  1.
         25    2    1    2    0    0  0.12219703056E+03 -0.48361352506E+02  0.52019615131E+03  0.55090666017E+03  0.12499271052E+03 0.  0.
         25    2    1    2    0    0 -0.12219703056E+03  0.48361352506E+02  0.48915443143E+03  0.52169729802E+03  0.12500031312E+03 0.  0.
          5    1    4    4  502    0  0.27103014477E+01 -0.10024515742E+02  0.21004025960E+03  0.21034932209E+03  0.47000000000E+01 0.  1.
         -5    1    4    4    0  502 -0.12490733201E+03  0.58385868248E+02  0.27911417183E+03  0.31134797593E+03  0.47000000000E+01 0.  1.
          5    1    3    3  503    0  0.68487800872E+02  0.37229097035E+02  0.26903954495E+03  0.28014451857E+03  0.47000000000E+01 0. -1.
         -5    1    3    3    0  503  0.53709229693E+02 -0.85590449541E+02  0.25115660636E+03  0.27076214160E+03  0.47000000000E+01 0. -1.
<mgrwt>
<rscale>  0 0.18137127E+03</rscale>
<asrwt>0</asrwt>
<pdfrwt beam="1">  1        5 0.16015037E+00 0.18137258E+03</pdfrwt>
<pdfrwt beam="2">  1       -5 0.48656438E-02 0.18137258E+03</pdfrwt>
<totfact> 0.49909477E+01</totfact>
</mgrwt>
</event>
<event>
 8    1  0.3674342E-007  0.1282431E+03  0.7546771E-02  0.1230087E+00
         -5   -1    0    0    0  501 -0.00000000000E+00  0.00000000000E+00  0.10784521081E+03  0.10794757753E+03  0.47000000000E+01 0.  1.
          5   -1    0    0  501    0  0.00000000000E+00 -0.00000000000E+00 -0.15334808045E+03  0.15342008923E+03  0.47000000000E+01 0.  1.
         25    2    1    2    0    0  0.11897707163E+02  0.26068528377E+02 -0.11882453418E+02  0.12879242024E+03  0.12500068481E+03 0.  0.
         25    2    1    2    0    0 -0.11897707163E+02 -0.26068528377E+02 -0.33620416230E+02  0.13257524652E+03  0.12499895997E+03 0.  0.
          5    1    3    3  502    0 -0.38206533088E+02  0.40581632666E+02 -0.40548156621E+02  0.69085824058E+02  0.47000000000E+01 0.  1.
         -5    1    3    3    0  502  0.50104240251E+02 -0.14513104289E+02  0.28665703203E+02  0.59706596180E+02  0.47000000000E+01 0.  1.
          5    1    4    4  503    0  0.27589421787E+02 -0.39167000380E+02 -0.64549031293E+02  0.80522652429E+02  0.47000000000E+01 0. -1.
         -5    1    4    4    0  503 -0.39487128951E+02  0.13098472003E+02  0.30928615063E+02  0.52052594088E+02  0.47000000000E+01 0. -1.
<mgrwt>
<rscale>  0 0.12824269E+03</rscale>
<asrwt>0</asrwt>
<pdfrwt beam="2">  1        5 0.23605426E-01 0.12824311E+03</pdfrwt>
<pdfrwt beam="1">  1       -5 0.16604984E-01 0.12824311E+03</pdfrwt>
<totfact> 0.39271611E+02</totfact>
</mgrwt>
</event>
<event>
 8    1  0.3674342E-007  0.1600601E+03  0.7546771E-02  0.1188631E+00
          5   -1    0    0  501    0  0.00000000000E+00  0.00000000000E+00  0.18983836830E+04  0.18983895011E+04  0.47000000000E+01 0.  1.
         -5   -1    0    0    0  501 -0.00000000000E+00 -0.00000000000E+00 -0.13336504132E+02  0.14140450575E+02  0.47000000000E+01 0.  1.
         25    2    1    2    0    0 -0.50790284668E+02  0.86099659190E+02  0.81358568806E+03  0.82917914905E+03  0.12499434017E+03 0.  0.
         25    2    1    2    0    0  0.50790284668E+02 -0.86099659190E+02  0.10714614908E+04  0.10833508026E+04  0.12500572358E+03 0.  0.
          5    1    4    4  502    0  0.34215190469E+02  0.27976557968E+02  0.27189785764E+03  0.27550662795E+03  0.47000000000E+01 0. -1.
         -5    1    4    4    0  502  0.16575094199E+02 -0.11407621716E+03  0.79956363315E+03  0.80784417465E+03  0.47000000000E+01 0. -1.
          5    1    3    3  503    0 -0.72811278496E+02  0.58598735804E+01  0.46780988583E+03  0.47350184760E+03  0.47000000000E+01 0.  1.
         -5    1    3    3    0  503  0.22020993828E+02  0.80239785610E+02  0.34577580223E+03  0.35567730146E+03  0.47000000000E+01 0.  1.
<mgrwt>
<rscale>  0 0.16005788E+03</rscale>
<asrwt>0</asrwt>
<pdfrwt beam="1">  1        5 0.29212105E+00 0.16006010E+03</pdfrwt>
<pdfrwt beam="2">  1       -5 0.21140614E-02 0.16006010E+03</pdfrwt>
<totfact> 0.24745329E+01</totfact>
</mgrwt>
</event>
<event>
 8    1  0.3674342E-007  0.1512527E+03  0.7546771E-02  0.1198946E+00
         -5   -1    0    0    0  501 -0.00000000000E+00  0.00000000000E+00  0.92610523949E+02  0.92729710158E+02  0.47000000000E+01 0.  1.
          5   -1    0    0  501    0  0.00000000000E+00 -0.00000000000E+00 -0.27018358435E+03  0.27022446087E+03  0.47000000000E+01 0.  1.
         25    2    1    2    0    0  0.11510457037E+02 -0.84372803635E+02 -0.35302250289E+02  0.15530455383E+03  0.12498797922E+03 0.  0.
         25    2    1    2    0    0 -0.11510457037E+02  0.84372803635E+02 -0.14227081012E+03  0.20764961721E+03  0.12500447792E+03 0.  0.
          5    1    4    4  502    0 -0.34072308409E+02  0.54820977952E+02 -0.15508243080E+03  0.16804437559E+03  0.47000000000E+01 0. -1.
         -5    1    4    4    0  502  0.22561851372E+02  0.29551825683E+02  0.12811620689E+02  0.39605241613E+02  0.47000000000E+01 0. -1.
          5    1    3    3  503    0 -0.36939201515E+02  0.13435768224E+02 -0.21880513294E+02  0.45231309271E+02  0.47000000000E+01 0. -1.
         -5    1    3    3    0  503  0.48449658552E+02 -0.97808571859E+02 -0.13421736995E+02  0.11007324456E+03  0.47000000000E+01 0. -1.
<mgrwt>
<rscale>  0 0.15124929E+03</rscale>
<asrwt>0</asrwt>
<pdfrwt beam="2">  1        5 0.41579018E-01 0.15125270E+03</pdfrwt>
<pdfrwt beam="1">  1       -5 0.14260086E-01 0.15125270E+03</pdfrwt>
<totfact> 0.17897859E+02</totfact>
</mgrwt>
</event>
<event>
 8    1  0.3674342E-007  0.1324359E+03  0.7546771E-02  0.1223887E+00
         -5   -1    0    0    0  501 -0.00000000000E+00  0.00000000000E+00  0.14616058031E+03  0.14623612836E+03  0.47000000000E+01 0. -1.
          5   -1    0    0  501    0  0.00000000000E+00 -0.00000000000E+00 -0.12368757658E+03  0.12377684194E+03  0.47000000000E+01 0. -1.
         25    2    1    2    0    0  0.32257767362E+02  0.29558459303E+02  0.35018593095E+02  0.13698417777E+03  0.12499638804E+03 0.  0.
         25    2    1    2    0    0 -0.32257767362E+02 -0.29558459303E+02 -0.12545589358E+02  0.13302879253E+03  0.12500000703E+03 0.  0.
          5    1    3    3  502    0  0.58712912645E+02  0.41161849860E+02 -0.20065778603E+02  0.74607167659E+02  0.47000000000E+01 0. -1.
         -5    1    3    3    0  502 -0.26455145284E+02 -0.11603390558E+02  0.55084371698E+02  0.62377010106E+02  0.47000000000E+01 0. -1.
          5    1    4    4  503    0 -0.62719574300E+02  0.21865702505E+02  0.13024877701E+02  0.67849770711E+02  0.47000000000E+01 0.  1.
         -5    1    4    4    0  503  0.30461806939E+02 -0.51424161808E+02 -0.25570467059E+02  0.65179021818E+02  0.47000000000E+01 0.  1.
<mgrwt>
<rscale>  0 0.13243505E+03</rscale>
<asrwt>0</asrwt>
<pdfrwt beam="2">  1        5 0.19041536E-01 0.13243590E+03</pdfrwt>
<pdfrwt beam="1">  1       -5 0.22498921E-01 0.13243590E+03</pdfrwt>
<totfact> 0.33830447E+02</totfact>
</mgrwt>
</event>
<event>
 8    1  0.3674342E-007  0.1352144E+03  0.7546771E-02  0.1219919E+00
         -5   -1    0    0    0  501 -0.00000000000E+00  0.00000000000E+00  0.94482885042E+02  0.94599712293E+02  0.47000000000E+01 0.  1.
          5   -1    0    0  501    0  0.00000000000E+00 -0.00000000000E+00 -0.19332003580E+03  0.19337716060E+03  0.47000000000E+01 0.  1.
         25    2    1    2    0    0  0.19230630080E+02  0.47824542786E+02 -0.52429010352E+02  0.14502321614E+03  0.12500371221E+03 0.  0.
         25    2    1    2    0    0 -0.19230630080E+02 -0.47824542786E+02 -0.46408140408E+02  0.14295365676E+03  0.12500011383E+03 0.  0.
          5    1    3    3  502    0 -0.60450884347E+01 -0.37799014554E+02 -0.38590725995E+02  0.54558617360E+02  0.47000000000E+01 0. -1.
         -5    1    3    3    0  502  0.25275718515E+02  0.85623557340E+02 -0.13838284357E+02  0.90464598777E+02  0.47000000000E+01 0. -1.
          5    1    4    4  503    0 -0.45760022513E+00  0.19237527706E+02 -0.67252553218E+02  0.70109113420E+02  0.47000000000E+01 0. -1.
         -5    1    4    4    0  503 -0.18773029855E+02 -0.67062070492E+02  0.20844412810E+02  0.72844543337E+02  0.47000000000E+01 0. -1.
<mgrwt>
<rscale>  0 0.13521356E+03</rscale>
<asrwt>0</asrwt>
<pdfrwt beam="2">  1        5 0.29754925E-01 0.13521439E+03</pdfrwt>
<pdfrwt beam="1">  1       -5 0.14549209E-01 0.13521439E+03</pdfrwt>
<totfact> 0.32552545E+02</totfact>
</mgrwt>
</event>
<event>
 8    1  0.3674342E-007  0.1266141E+03  0.7546771E-02  0.1232577E+00
         -5   -1    0    0    0  501 -0.00000000000E+00  0.00000000000E+00  0.60194639879E+01  0.76370116342E+01  0.47000000000E+01 0.  1.
          5   -1    0    0  501    0  0.00000000000E+00 -0.00000000000E+00 -0.23750216900E+04  0.23750263404E+04  0.47000000000E+01 0.  1.
         25    2    1    2    0    0  0.36228961972E+01  0.19685320328E+02 -0.10521121508E+04  0.10597005437E+04  0.12499850844E+03 0.  0.
         25    2    1    2    0    0 -0.36228961972E+01 -0.19685320328E+02 -0.13168900751E+04  0.13229628084E+04  0.12502193889E+03 0.  0.
          5    1    4    4  502    0  0.46695715862E+02  0.28262837088E+02 -0.70335631831E+03  0.70548669608E+03  0.47000000000E+01 0. -1.
         -5    1    4    4    0  502 -0.50318612059E+02 -0.47948157416E+02 -0.61353375682E+03  0.61747611232E+03  0.47000000000E+01 0. -1.
          5    1    3    3  503    0  0.14080820630E+01  0.11256513569E+02 -0.62260092323E+01  0.13767533686E+02  0.47000000000E+01 0. -1.
         -5    1    3    3    0  503  0.22148141342E+01  0.84288067595E+01 -0.10458861416E+04  0.10459330100E+04  0.47000000000E+01 0. -1.
<mgrwt>
<rscale>  0 0.12660828E+03</rscale>
<asrwt>0</asrwt>
<pdfrwt beam="2">  1        5 0.36551208E+00 0.12661407E+03</pdfrwt>
<pdfrwt beam="1">  1       -5 0.10508577E-02 0.12661407E+03</pdfrwt>
<totfact> 0.23483095E+01</totfact>
</mgrwt>
</event>
<event>
 8    1  0.3674342E-007  0.2078700E+03  0.7546771E-02  0.1143264E+00
          5   -1    0    0  501    0  0.00000000000E+00  0.00000000000E+00  0.44834310997E+03  0.44836774444E+03  0.47000000000E+01 0.  1.
         -5   -1    0    0    0  501 -0.00000000000E+00 -0.00000000000E+00 -0.96331884792E+02  0.96446472344E+02  0.47000000000E+01 0.  1.
         25    2    1    2    0    0  0.87362765005E+02 -0.14125293665E+03  0.18154616542E+03  0.27598721041E+03  0.12500114123E+03 0.  0.
         25    2    1    2    0    0 -0.87362765005E+02  0.14125293665E+03  0.17046505976E+03  0.26882700638E+03  0.12499991176E+03 0.  0.
          5    1    4    4  502    0 -0.10481638207E+03  0.57009681421E+02  0.79035963706E+02  0.14319689691E+03  0.47000000000E+01 0.  1.
         -5    1    4    4    0  502  0.17453617065E+02  0.84243255226E+02  0.91429096049E+02  0.12563010946E+03  0.47000000000E+01 0.  1.
          5    1    3    3  503    0  0.10569446818E+03 -0.88222816347E+02  0.78477278055E+02  0.15854134823E+03  0.47000000000E+01 0.  1.
         -5    1    3    3    0  503 -0.18331703174E+02 -0.53030120300E+02  0.10306888737E+03  0.11744586218E+03  0.47000000000E+01 0.  1.
<mgrwt>
<rscale>  0 0.20786980E+03</rscale>
<asrwt>0</asrwt>
<pdfrwt beam="1">  1        5 0.68986572E-01 0.20786998E+03</pdfrwt>
<pdfrwt beam="2">  1       -5 0.14830999E-01 0.20786998E+03</pdfrwt>
<totfact> 0.61331066E+01</totfact>
</mgrwt>
</event>
<event>
 8    1  0.3674342E-007  0.1624388E+03  0.7546771E-02  0.1185980E+00
         -5   -1    0    0    0  501 -0.00000000000E+00  0.00000000000E+00  0.96951249746E+03  0.96952388972E+03  0.47000000000E+01 0.  1.
          5   -1    0    0  501    0  0.00000000000E+00 -0.00000000000E+00 -0.27004910687E+02  0.27410859184E+02  0.47000000000E+01 0.  1.
         25    2    1    2    0    0 -0.13868834527E+02 -0.10275512858E+03  0.48028318140E+03  0.50700916563E+03  0.12504158782E+03 0.  0.
         25    2    1    2    0    0  0.13868834527E+02  0.10275512858E+03  0.46222440538E+03  0.48992558327E+03  0.12499886076E+03 0.  0.
          5    1    4    4  502    0  0.30368330634E+02  0.84796610954E+01  0.29867877598E+03  0.30037516771E+03  0.47000000000E+01 0.  1.
         -5    1    4    4    0  502 -0.16499496107E+02  0.94275467487E+02  0.16354562941E+03  0.18955041556E+03  0.47000000000E+01 0.  1.
          5    1    3    3  503    0  0.55433598020E+02 -0.41397090980E+02  0.22361471858E+03  0.23412013005E+03  0.47000000000E+01 0.  1.
         -5    1    3    3    0  503 -0.69302432547E+02 -0.61358037602E+02  0.25666846282E+03  0.27288903558E+03  0.47000000000E+01 0.  1.
<mgrwt>
<rscale>  0 0.16243056E+03</rscale>
<asrwt>0</asrwt>
<pdfrwt beam="2">  1        5 0.41867050E-02 0.16243879E+03</pdfrwt>
<pdfrwt beam="1">  1       -5 0.14918786E+00 0.16243879E+03</pdfrwt>
<totfact> 0.75685943E+01</totfact>
</mgrwt>
</event>
<event>
 8    1  0.3674342E-007  0.1325690E+03  0.7546771E-02  0.1223693E+00
         -5   -1    0    0    0  501 -0.00000000000E+00  0.00000000000E+00  0.54604445676E+02  0.54806345323E+02  0.47000000000E+01 0. -1.
          5   -1    0    0  501    0  0.00000000000E+00 -0.00000000000E+00 -0.32481856889E+03  0.32485257071E+03  0.47000000000E+01 0. -1.
         25    2    1    2    0    0 -0.32782264786E+02  0.29566253846E+02 -0.15557959975E+03  0.20440021690E+03  0.12500238620E+03 0.  0.
         25    2    1    2    0    0  0.32782264786E+02 -0.29566253846E+02 -0.11463452346E+03  0.17525869914E+03  0.12500278958E+03 0.  0.
          5    1    4    4  502    0 -0.23216225436E+02  0.20333357304E+02 -0.91419106461E+02  0.96602182009E+02  0.47000000000E+01 0. -1.
         -5    1    4    4    0  502  0.55998490222E+02 -0.49899611150E+02 -0.23215416999E+02  0.78656517127E+02  0.47000000000E+01 0. -1.
          5    1    3    3  503    0 -0.71849346455E+02  0.59649852226E+01 -0.46126141814E+02  0.85718262893E+02  0.47000000000E+01 0.  1.
         -5    1    3    3    0  503  0.39067081670E+02  0.23601268623E+02 -0.10945345794E+03  0.11868195400E+03  0.47000000000E+01 0.  1.
<mgrwt>
<rscale>  0 0.13256890E+03</rscale>
<asrwt>0</asrwt>
<pdfrwt beam="2">  1        5 0.49990232E-01 0.13256899E+03</pdfrwt>
<pdfrwt beam="1">  1       -5 0.84188304E-02 0.13256899E+03</pdfrwt>
<totfact> 0.29468180E+02</totfact>
</mgrwt>
</event>
<event>
 8    1  0.3674342E-007  0.1461314E+03  0.7546771E-02  0.1205313E+00
          5   -1    0    0  501    0  0.00000000000E+00  0.00000000000E+00  0.91964212182E+03  0.91965413184E+03  0.47000000000E+01 0. -1.
         -5   -1    0    0    0  501 -0.00000000000E+00 -0.00000000000E+00 -0.40106468901E+02  0.40380921828E+02  0.47000000000E+01 0. -1.
         25    2    1    2    0    0  0.40991382072E+02  0.63643571217E+02  0.12747308504E+03  0.19390681375E+03  0.12497866797E+03 0.  0.
         25    2    1    2    0    0 -0.40991382072E+02 -0.63643571217E+02  0.75206256787E+03  0.76612823992E+03  0.12499430567E+03 0.  0.
          5    1    4    4  502    0 -0.15897197943E+02  0.21413096490E+02  0.46159020936E+03  0.46238388054E+03  0.47000000000E+01 0.  1.
         -5    1    4    4    0  502 -0.25094184129E+02 -0.85056667707E+02  0.29047235851E+03  0.30374435938E+03  0.47000000000E+01 0.  1.
          5    1    3    3  503    0  0.34562116560E+02  0.54010999563E+02  0.15273836422E+03  0.16571911743E+03  0.47000000000E+01 0.  1.
         -5    1    3    3    0  503  0.64292655127E+01  0.96325716537E+01 -0.25265279183E+02  0.28187696321E+02  0.47000000000E+01 0.  1.
<mgrwt>
<rscale>  0 0.14612801E+03</rscale>
<asrwt>0</asrwt>
<pdfrwt beam="1">  1        5 0.14150544E+00 0.14613136E+03</pdfrwt>
<pdfrwt beam="2">  1       -5 0.61922617E-02 0.14613136E+03</pdfrwt>
<totfact> 0.44120975E+01</totfact>
</mgrwt>
</event>
<event>
 8    1  0.3674342E-007  0.1260495E+03  0.7546771E-02  0.1233438E+00
          5   -1    0    0  501    0  0.00000000000E+00  0.00000000000E+00  0.18103577884E+02  0.18703730436E+02  0.47000000000E+01 0. -1.
         -5   -1    0    0    0  501 -0.00000000000E+00 -0.00000000000E+00 -0.10188232360E+04  0.10188340768E+04  0.47000000000E+01 0. -1.
         25    2    1    2    0    0 -0.43126464824E+01  0.15638145489E+02 -0.70336160864E+03  0.71456701691E+03  0.12500127452E+03 0.  0.
         25    2    1    2    0    0  0.43126464824E+01 -0.15638145489E+02 -0.29735804943E+03  0.32297079036E+03  0.12500068541E+03 0.  0.
          5    1    3    3  502    0  0.99485765302E+01  0.22713574166E+02 -0.69591752964E+03  0.69637502732E+03  0.47000000000E+01 0.  1.
         -5    1    3    3    0  502 -0.14261223013E+02 -0.70754286778E+01 -0.74440790019E+01  0.18191989583E+02  0.47000000000E+01 0.  1.
          5    1    4    4  503    0 -0.33190506162E+02 -0.14541732882E+02 -0.17400930760E+02  0.40471645455E+02  0.47000000000E+01 0. -1.
         -5    1    4    4    0  503  0.37503152645E+02 -0.10964126067E+01 -0.27995711867E+03  0.28249914491E+03  0.47000000000E+01 0. -1.
<mgrwt>
<rscale>  0 0.12604932E+03</rscale>
<asrwt>0</asrwt>
<pdfrwt beam="1">  1        5 0.28321661E-02 0.12604947E+03</pdfrwt>
<pdfrwt beam="2">  1       -5 0.15678899E+00 0.12604947E+03</pdfrwt>
<totfact> 0.11542721E+02</totfact>
</mgrwt>
</event>
<event>
 8    1  0.3674342E-007  0.1480832E+03  0.7546771E-02  0.1202850E+00
         -5   -1    0    0    0  501 -0.00000000000E+00  0.00000000000E+00  0.11084987789E+03  0.11094947241E+03  0.47000000000E+01 0. -1.
          5   -1    0    0  501    0  0.00000000000E+00 -0.00000000000E+00 -0.19941005354E+03  0.19946543423E+03  0.47000000000E+01 0. -1.
         25    2    1    2    0    0  0.11059705046E+02 -0.78619067630E+02 -0.29496999791E+02  0.15098752979E+03  0.12499554506E+03 0.  0.
         25    2    1    2    0    0 -0.11059705046E+02  0.78619067630E+02 -0.59063175855E+02  0.15942737685E+03  0.12500141950E+03 0.  0.
          5    1    4    4  502    0  0.38118220590E+02  0.13650518049E+02 -0.65939276980E+02  0.77520407846E+02  0.47000000000E+01 0.  1.
         -5    1    4    4    0  502 -0.49177925636E+02  0.64968549581E+02  0.68761011247E+01  0.81906969003E+02  0.47000000000E+01 0.  1.
          5    1    3    3  503    0  0.64485954617E+01  0.22807849016E+02 -0.42127451938E+02  0.48565363861E+02  0.47000000000E+01 0. -1.
         -5    1    3    3    0  503  0.46111095842E+01 -0.10142691665E+03  0.12630452146E+02  0.10242216593E+03  0.47000000000E+01 0. -1.
<mgrwt>
<rscale>  0 0.14808195E+03</rscale>
<asrwt>0</asrwt>
<pdfrwt beam="2">  1        5 0.30690391E-01 0.14808319E+03</pdfrwt>
<pdfrwt beam="1">  1       -5 0.17065749E-01 0.14808319E+03</pdfrwt>
<totfact> 0.23629054E+02</totfact>
</mgrwt>
</event>
<event>
 8    1  0.3674342E-007  0.1383654E+03  0.7546771E-02  0.1215560E+00
         -5   -1    0    0    0  501 -0.00000000000E+00  0.00000000000E+00  0.10712165626E+04  0.10712268733E+04  0.47000000000E+01 0.  1.
          5   -1    0    0  501    0  0.00000000000E+00 -0.00000000000E+00 -0.44778826840E+02  0.45024807975E+02  0.47000000000E+01 0.  1.
         25    2    1    2    0    0 -0.59200225660E+02 -0.17963679797E+01  0.94629732246E+03  0.95635338281E+03  0.12500110667E+03 0.  0.
         25    2    1    2    0    0  0.59200225660E+02  0.17963679797E+01  0.80140413349E+02  0.15989829847E+03  0.12504833604E+03 0.  0.
          5    1    4    4  502    0  0.67188019233E+01 -0.35140986446E+02  0.87962020227E+02  0.95075960316E+02  0.47000000000E+01 0. -1.
         -5    1    4    4    0  502  0.52481423736E+02  0.36937354426E+02 -0.78216068779E+01  0.64822338152E+02  0.47000000000E+01 0. -1.
          5    1    3    3  503    0  0.10689457699E+02 -0.45776445704E+02  0.20082804869E+03  0.20630982194E+03  0.47000000000E+01 0.  1.
         -5    1    3    3    0  503 -0.69889683358E+02  0.43980077724E+02  0.74546927377E+03  0.75004356087E+03  0.47000000000E+01 0.  1.
<mgrwt>
<rscale>  0 0.13835471E+03</rscale>
<asrwt>0</asrwt>
<pdfrwt beam="2">  1        5 0.69087657E-02 0.13836539E+03</pdfrwt>
<pdfrwt beam="1">  1       -5 0.16482225E+00 0.13836539E+03</pdfrwt>
<totfact> 0.23719746E+01</totfact>
</mgrwt>
</event>
<event>
 8    1  0.3674342E-007  0.1545404E+03  0.7546771E-02  0.1195003E+00
          5   -1    0    0  501    0  0.00000000000E+00  0.00000000000E+00  0.14786039437E+02  0.15515055986E+02  0.47000000000E+01 0. -1.
         -5   -1    0    0    0  501 -0.00000000000E+00 -0.00000000000E+00 -0.16212207401E+04  0.16212275529E+04  0.47000000000E+01 0. -1.
         25    2    1    2    0    0 -0.13008042930E+02  0.89936480119E+02 -0.66599296669E+03  0.68368806875E+03  0.12499985618E+03 0.  0.
         25    2    1    2    0    0  0.13008042930E+02 -0.89936480119E+02 -0.94044173402E+03  0.95305454013E+03  0.12499808693E+03 0.  0.
          5    1    4    4  502    0 -0.29847022083E+02 -0.96404520563E+02 -0.47784735102E+03  0.48841054164E+03  0.47000000000E+01 0. -1.
         -5    1    4    4    0  502  0.42855065013E+02  0.64680404443E+01 -0.46259438300E+03  0.46464399848E+03  0.47000000000E+01 0. -1.
          5    1    3    3  503    0  0.52364262046E+02  0.45241171929E+02 -0.40529495818E+03  0.41118715046E+03  0.47000000000E+01 0.  1.
         -5    1    3    3    0  503 -0.65372304976E+02  0.44695308189E+02 -0.26069800850E+03  0.27250091829E+03  0.47000000000E+01 0.  1.
<mgrwt>
<rscale>  0 0.15454007E+03</rscale>
<asrwt>0</asrwt>
<pdfrwt beam="1">  1        5 0.23313788E-02 0.15454043E+03</pdfrwt>
<pdfrwt beam="2">  1       -5 0.24947504E+00 0.15454043E+03</pdfrwt>
<totfact> 0.39074399E+01</totfact>
</mgrwt>
</event>
<event>
 8    1  0.3674342E-007  0.1367930E+03  0.7546771E-02  0.1217720E+00
         -5   -1    0    0    0  501 -0.00000000000E+00  0.00000000000E+00  0.72049893791E+03  0.72051426740E+03  0.47000000000E+01 0.  1.
          5   -1    0    0  501    0  0.00000000000E+00 -0.00000000000E+00 -0.31424611983E+02  0.31774144179E+02  0.47000000000E+01 0.  1.
         25    2    1    2    0    0  0.74740632852E+01  0.55064257741E+02  0.50350699427E+03  0.52175087473E+03  0.12496698727E+03 0.  0.
         25    2    1    2    0    0 -0.74740632852E+01 -0.55064257741E+02  0.18556733166E+03  0.23053753685E+03  0.12499754883E+03 0.  0.
          5    1    3    3  502    0  0.29504939863E+02  0.16013746801E+02  0.27599156257E+02  0.43712526683E+02  0.47000000000E+01 0. -1.
         -5    1    3    3    0  502 -0.22030876577E+02  0.39050510940E+02  0.47590783801E+03  0.47803834805E+03  0.47000000000E+01 0. -1.
          5    1    4    4  503    0 -0.34892239556E+02 -0.74696073297E+02  0.64524649212E+02  0.10479738596E+03  0.47000000000E+01 0. -1.
         -5    1    4    4    0  503  0.27418176271E+02  0.19631815556E+02  0.12104268245E+03  0.12574015089E+03  0.47000000000E+01 0. -1.
<mgrwt>
<rscale>  0 0.13678601E+03</rscale>
<asrwt>0</asrwt>
<pdfrwt beam="2">  1        5 0.48626220E-02 0.13679299E+03</pdfrwt>
<pdfrwt beam="1">  1       -5 0.11087406E+00 0.13679299E+03</pdfrwt>
<totfact> 0.12151968E+02</totfact>
</mgrwt>
</event>
<event>
 8    1  0.3674342E-007  0.1384605E+03  0.7546771E-02  0.1215416E+00
         -5   -1    0    0    0  501 -0.00000000000E+00  0.00000000000E+00  0.13843404632E+04  0.13843484417E+04  0.47000000000E+01 0.  1.
          5   -1    0    0  501    0  0.00000000000E+00 -0.00000000000E+00 -0.14396244687E+02  0.15144037146E+02  0.47000000000E+01 0.  1.
         25    2    1    2    0    0  0.12279042004E+02 -0.58269147563E+02  0.86047490807E+03  0.87154367378E+03  0.12500095782E+03 0.  0.
         25    2    1    2    0    0 -0.12279042004E+02  0.58269147563E+02  0.50946931047E+03  0.52794880509E+03  0.12499957626E+03 0.  0.
          5    1    4    4  502    0 -0.22573879808E+02  0.89410409794E+02  0.45434634539E+03  0.46363400760E+03  0.47000000000E+01 0.  1.
         -5    1    4    4    0  502  0.10294837804E+02 -0.31141262231E+02  0.55122965073E+02  0.64314797498E+02  0.47000000000E+01 0.  1.
          5    1    3    3  503    0  0.52164480107E+02  0.14815416889E+02  0.29982363201E+03  0.30472435065E+03  0.47000000000E+01 0.  1.
         -5    1    3    3    0  503 -0.39885438103E+02 -0.73084564452E+02  0.56065127606E+03  0.56681932313E+03  0.47000000000E+01 0.  1.
<mgrwt>
<rscale>  0 0.13846018E+03</rscale>
<asrwt>0</asrwt>
<pdfrwt beam="2">  1        5 0.22729432E-02 0.13846049E+03</pdfrwt>
<pdfrwt beam="1">  1       -5 0.21303358E+00 0.13846049E+03</pdfrwt>
<totfact> 0.67882610E+01</totfact>
</mgrwt>
</event>
<event>
 8    1  0.3674342E-007  0.1308614E+03  0.7546771E-02  0.1226184E+00
         -5   -1    0    0    0  501 -0.00000000000E+00  0.00000000000E+00  0.75213684732E+02  0.75360389933E+02  0.47000000000E+01 0.  1.
          5   -1    0    0  501    0  0.00000000000E+00 -0.00000000000E+00 -0.23795277959E+03  0.23799919184E+03  0.47000000000E+01 0.  1.
         25    2    1    2    0    0  0.29683331520E+02  0.24844949907E+02 -0.48208159573E+02  0.13945718810E+03  0.12500363578E+03 0.  0.
         25    2    1    2    0    0 -0.29683331520E+02 -0.24844949907E+02 -0.11453093529E+03  0.17390239367E+03  0.12500534260E+03 0.  0.
          5    1    3    3  502    0  0.67039457095E+02  0.31036382684E+02 -0.64294997851E+02  0.98048368709E+02  0.47000000000E+01 0. -1.
         -5    1    3    3    0  502 -0.37356125575E+02 -0.61914327766E+01  0.16086838279E+02  0.41408819394E+02  0.47000000000E+01 0. -1.
          5    1    4    4  503    0 -0.46140653902E+02  0.24445937081E+02 -0.10959753489E+03  0.12149186572E+03  0.47000000000E+01 0. -1.
         -5    1    4    4    0  503  0.16457322382E+02 -0.49290886989E+02 -0.49334003958E+01  0.52410527946E+02  0.47000000000E+01 0. -1.
<mgrwt>
<rscale>  0 0.13086100E+03</rscale>
<asrwt>0</asrwt>
<pdfrwt beam="2">  1        5 0.36622975E-01 0.13086141E+03</pdfrwt>
<pdfrwt beam="1">  1       -5 0.11586191E-01 0.13086141E+03</pdfrwt>
<totfact> 0.31974916E+02</totfact>
</mgrwt>
</event>
<event>
 8    1  0.3674342E-007  0.1566966E+03  0.7546771E-02  0.1192489E+00
         -5   -1    0    0    0  501 -0.00000000000E+00  0.00000000000E+00  0.12917086400E+03  0.12925634261E+03  0.47000000000E+01 0. -1.
          5   -1    0    0  501    0  0.00000000000E+00 -0.00000000000E+00 -0.19820295700E+03  0.19825867488E+03  0.47000000000E+01 0. -1.
         25    2    1    2    0    0 -0.94374766555E+02 -0.46343553878E+01 -0.93300820161E+00  0.15666038621E+03  0.12495412074E+03 0.  0.
         25    2    1    2    0    0  0.94374766555E+02  0.46343553878E+01 -0.68099084803E+02  0.17085463129E+03  0.12500298344E+03 0.  0.
          5    1    4    4  502    0  0.11527647463E+03 -0.92043001468E+01 -0.21480247391E+02  0.11771523169E+03  0.47000000000E+01 0.  1.
         -5    1    4    4    0  502 -0.20901708077E+02  0.13838655535E+02 -0.46618837412E+02  0.53139399594E+02  0.47000000000E+01 0.  1.
          5    1    3    3  503    0 -0.10894363870E+03 -0.94526451527E+01 -0.38325150671E+02  0.11596972056E+03  0.47000000000E+01 0.  1.
         -5    1    3    3    0  503  0.14568872146E+02  0.48182897649E+01  0.37392142469E+02  0.40690665641E+02  0.47000000000E+01 0.  1.
<mgrwt>
<rscale>  0 0.15668684E+03</rscale>
<asrwt>0</asrwt>
<pdfrwt beam="2">  1        5 0.30503624E-01 0.15669658E+03</pdfrwt>
<pdfrwt beam="1">  1       -5 0.19883302E-01 0.15669658E+03</pdfrwt>
<totfact> 0.18357511E+02</totfact>
</mgrwt>
</event>
<event>
 8    1  0.3674342E-007  0.1269771E+03  0.7546771E-02  0.1232012E+00
         -5   -1    0    0    0  501 -0.00000000000E+00  0.00000000000E+00  0.20496487715E+03  0.20501875734E+03  0.47000000000E+01 0. -1.
          5   -1    0    0  501    0  0.00000000000E+00 -0.00000000000E+00 -0.86712383000E+02  0.86839664702E+02  0.47000000000E+01 0. -1.
         25    2    1    2    0    0  0.22218579368E+02 -0.19664924495E+01  0.10391294575E+03  0.16407417400E+03  0.12499960767E+03 0.  0.
         25    2    1    2    0    0 -0.22218579368E+02  0.19664924495E+01  0.14339548393E+02  0.12778424805E+03  0.12500263613E+03 0.  0.
          5    1    3    3  502    0  0.57878861946E+02 -0.39697506202E+02  0.37712396673E+02  0.79813341752E+02  0.47000000000E+01 0. -1.
         -5    1    3    3    0  502 -0.35660282578E+02  0.37731013753E+02  0.66200549080E+02  0.84260832246E+02  0.47000000000E+01 0. -1.
          5    1    4    4  503    0 -0.36458005175E+02 -0.17179232434E+01 -0.49738502132E+02  0.61872013027E+02  0.47000000000E+01 0. -1.
         -5    1    4    4    0  503  0.14239425807E+02  0.36844156929E+01  0.64078050525E+02  0.65912235021E+02  0.47000000000E+01 0. -1.
<mgrwt>
<rscale>  0 0.12697638E+03</rscale>
<asrwt>0</asrwt>
<pdfrwt beam="2">  1        5 0.13354302E-01 0.12697713E+03</pdfrwt>
<pdfrwt beam="1">  1       -5 0.31546994E-01 0.12697713E+03</pdfrwt>
<totfact> 0.33088106E+02</totfact>
</mgrwt>
</event>
<event>
 8    1  0.3674342E-007  0.2140974E+03  0.7546771E-02  0.1138363E+00
         -5   -1    0    0    0  501 -0.00000000000E+00  0.00000000000E+00  0.39349044457E+03  0.39351851287E+03  0.47000000000E+01 0.  1.
          5   -1    0    0  501    0  0.00000000000E+00 -0.00000000000E+00 -0.21497639682E+03  0.21502776842E+03  0.47000000000E+01 0.  1.
         25    2    1    2    0    0 -0.11067062356E+03 -0.13401745843E+03  0.29524456694E+03  0.36470132430E+03  0.12501614118E+03 0.  0.
         25    2    1    2    0    0  0.11067062356E+03  0.13401745843E+03 -0.11673051919E+03  0.24384495699E+03  0.12500273139E+03 0.  0.
          5    1    4    4  502    0  0.35326337112E+02 -0.16902653078E+01  0.16430132379E+02  0.39279082736E+02  0.47000000000E+01 0.  1.
         -5    1    4    4    0  502  0.75344286448E+02  0.13570772374E+03 -0.13316065157E+03  0.20456587425E+03  0.47000000000E+01 0.  1.
          5    1    3    3  503    0 -0.11298847440E+03 -0.15533610959E+03  0.26564851644E+03  0.32785198883E+03  0.47000000000E+01 0.  1.
         -5    1    3    3    0  503  0.23178508408E+01  0.21318651158E+02  0.29596050496E+02  0.36849335471E+02  0.47000000000E+01 0.  1.
<mgrwt>
<rscale>  0 0.21409545E+03</rscale>
<asrwt>0</asrwt>
<pdfrwt beam="2">  1        5 0.33079403E-01 0.21409741E+03</pdfrwt>
<pdfrwt beam="1">  1       -5 0.60543102E-01 0.21409741E+03</pdfrwt>
<totfact> 0.17934357E+01</totfact>
</mgrwt>
</event>
<event>
 8    1  0.3674342E-007  0.1322871E+03  0.7546771E-02  0.1224106E+00
         -5   -1    0    0    0  501 -0.00000000000E+00  0.00000000000E+00  0.20799770644E+02  0.21324175455E+02  0.47000000000E+01 0. -1.
          5   -1    0    0  501    0  0.00000000000E+00 -0.00000000000E+00 -0.88628366618E+03  0.88629612825E+03  0.47000000000E+01 0. -1.
         25    2    1    2    0    0 -0.39482112635E+00  0.43304388656E+02 -0.31870184275E+03  0.34506628091E+03  0.12499779074E+03 0.  0.
         25    2    1    2    0    0  0.39482112635E+00 -0.43304388656E+02 -0.54678205279E+03  0.56255402279E+03  0.12498395635E+03 0.  0.
          5    1    3    3  502    0  0.49611544824E+02  0.12259783812E+01 -0.22670359061E+03  0.23211940117E+03  0.47000000000E+01 0.  1.
         -5    1    3    3    0  502 -0.50006365950E+02  0.42078410275E+02 -0.91998252137E+02  0.11294687974E+03  0.47000000000E+01 0.  1.
          5    1    4    4  503    0  0.31443218673E+02 -0.11971380531E+02 -0.34724333207E+02  0.48578382734E+02  0.47000000000E+01 0. -1.
         -5    1    4    4    0  503 -0.31048397547E+02 -0.31333008125E+02 -0.51205771958E+03  0.51397564006E+03  0.47000000000E+01 0. -1.
<mgrwt>
<rscale>  0 0.13228382E+03</rscale>
<asrwt>0</asrwt>
<pdfrwt beam="2">  1        5 0.13639260E+00 0.13228709E+03</pdfrwt>
<pdfrwt beam="1">  1       -5 0.32412629E-02 0.13228709E+03</pdfrwt>
<totfact> 0.13748978E+02</totfact>
</mgrwt>
</event>
<event>
 8    1  0.3674342E-007  0.1379708E+03  0.7546771E-02  0.1216087E+00
          5   -1    0    0  501    0  0.00000000000E+00  0.00000000000E+00  0.36322202949E+02  0.36625024602E+02  0.47000000000E+01 0. -1.
         -5   -1    0    0    0  501 -0.00000000000E+00 -0.00000000000E+00 -0.59912471370E+03  0.59914314864E+03  0.47000000000E+01 0. -1.
         25    2    1    2    0    0  0.47435931118E+02 -0.34073477867E+02 -0.39572968030E+03  0.41909035352E+03  0.12499430023E+03 0.  0.
         25    2    1    2    0    0 -0.47435931118E+02  0.34073477867E+02 -0.16707283045E+03  0.21667781972E+03  0.12499910972E+03 0.  0.
          5    1    3    3  502    0  0.18423829195E+01 -0.75674161688E+02 -0.22973478229E+03  0.24193001740E+03  0.47000000000E+01 0.  1.
         -5    1    3    3    0  502  0.45593548199E+02  0.41600683822E+02 -0.16599489801E+03  0.17716033613E+03  0.47000000000E+01 0.  1.
          5    1    4    4  503    0  0.32837563727E+02  0.45252494349E+02 -0.57881469430E+02  0.80612953920E+02  0.47000000000E+01 0.  1.
         -5    1    4    4    0  503 -0.80273494846E+02 -0.11179016482E+02 -0.10919136102E+03  0.13606486580E+03  0.47000000000E+01 0.  1.
<mgrwt>
<rscale>  0 0.13796973E+03</rscale>
<asrwt>0</asrwt>
<pdfrwt beam="1">  1        5 0.56127437E-02 0.13797082E+03</pdfrwt>
<pdfrwt beam="2">  1       -5 0.92197738E-01 0.13797082E+03</pdfrwt>
<totfact> 0.15051579E+02</totfact>
</mgrwt>
</event>
<event>
 8    1  0.3674342E-007  0.1277090E+03  0.7546771E-02  0.1230895E+00
          5   -1    0    0  501    0  0.00000000000E+00  0.00000000000E+00  0.27163941527E+03  0.27168007275E+03  0.47000000000E+01 0.  1.
         -5   -1    0    0    0  501 -0.00000000000E+00 -0.00000000000E+00 -0.10772688818E+03  0.10782936722E+03  0.47000000000E+01 0.  1.
         25    2    1    2    0    0 -0.10403348893E+02 -0.24013775019E+02 -0.44365462367E+02  0.13519573193E+03  0.12499880248E+03 0.  0.
         25    2    1    2    0    0  0.10403348893E+02  0.24013775019E+02  0.20827798946E+03  0.24431370804E+03  0.12499830392E+03 0.  0.
          5    1    4    4  502    0  0.39936122844E+02  0.54134994873E+02  0.18272248339E+03  0.19476931872E+03  0.47000000000E+01 0. -1.
         -5    1    4    4    0  502 -0.29532773951E+02 -0.30121219855E+02  0.25555506071E+02  0.49544389323E+02  0.47000000000E+01 0. -1.
          5    1    3    3  503    0 -0.58398755582E+01 -0.32456435785E+02  0.38919315501E+02  0.51228190379E+02  0.47000000000E+01 0. -1.
         -5    1    3    3    0  503 -0.45634733345E+01  0.84426607665E+01 -0.83284777869E+02  0.83967541552E+02  0.47000000000E+01 0. -1.
<mgrwt>
<rscale>  0 0.12770889E+03</rscale>
<asrwt>0</asrwt>
<pdfrwt beam="1">  1        5 0.41801689E-01 0.12770901E+03</pdfrwt>
<pdfrwt beam="2">  1       -5 0.16584378E-01 0.12770901E+03</pdfrwt>
<totfact> 0.12721353E+02</totfact>
</mgrwt>
</event>
<event>
 8    1  0.3674342E-007  0.1260341E+03  0.7546771E-02  0.1233467E+00
          5   -1    0    0  501    0  0.00000000000E+00  0.00000000000E+00  0.20908299751E+03  0.20913581675E+03  0.47000000000E+01 0.  1.
         -5   -1    0    0    0  501 -0.00000000000E+00 -0.00000000000E+00 -0.86128500461E+02  0.86256643754E+02  0.47000000000E+01 0.  1.
         25    2    1    2    0    0  0.42311365876E+01  0.15448522243E+02  0.10456599951E+02  0.12645348709E+03  0.12499833822E+03 0.  0.
         25    2    1    2    0    0 -0.42311365876E+01 -0.15448522243E+02  0.11249789710E+03  0.16893897342E+03  0.12501216153E+03 0.  0.
          5    1    4    4  502    0  0.42540053671E+02  0.14521619858E+02  0.10287704719E+03  0.11236685654E+03  0.47000000000E+01 0. -1.
         -5    1    4    4    0  502 -0.46771190258E+02 -0.29970142101E+02  0.96208499153E+01  0.56572116885E+02  0.47000000000E+01 0. -1.
          5    1    3    3  503    0 -0.20331109398E+02  0.26100108699E+02  0.60721815147E+02  0.69309440325E+02  0.47000000000E+01 0.  1.
         -5    1    3    3    0  503  0.24562245985E+02 -0.10651586456E+02 -0.50265215196E+02  0.57144046764E+02  0.47000000000E+01 0.  1.
<mgrwt>
<rscale>  0 0.12603069E+03</rscale>
<asrwt>0</asrwt>
<pdfrwt beam="1">  1        5 0.32180535E-01 0.12603412E+03</pdfrwt>
<pdfrwt beam="2">  1       -5 0.13264459E-01 0.12603412E+03</pdfrwt>
<totfact> 0.32111677E+02</totfact>
</mgrwt>
</event>
<event>
 8    1  0.3674342E-007  0.1315399E+03  0.7546771E-02  0.1225205E+00
         -5   -1    0    0    0  501 -0.00000000000E+00  0.00000000000E+00  0.84341453889E+02  0.84472308149E+02  0.47000000000E+01 0. -1.
          5   -1    0    0  501    0  0.00000000000E+00 -0.00000000000E+00 -0.21171508280E+03  0.21176724554E+03  0.47000000000E+01 0. -1.
         25    2    1    2    0    0  0.33720281065E+02  0.22997386105E+02 -0.36853215817E+02  0.13656275206E+03  0.12500115444E+03 0.  0.
         25    2    1    2    0    0 -0.33720281065E+02 -0.22997386105E+02 -0.90520413090E+02  0.15967680163E+03  0.12504718578E+03 0.  0.
          5    1    3    3  502    0 -0.36449751096E+02  0.86454102428E+01 -0.50950931598E+02  0.63414626892E+02  0.47000000000E+01 0.  1.
         -5    1    3    3    0  502  0.70170032162E+02  0.14351975862E+02  0.14097715780E+02  0.73148125163E+02  0.47000000000E+01 0.  1.
          5    1    4    4  503    0 -0.78471188327E+02 -0.15186948743E+02 -0.33933497675E+02  0.86959433496E+02  0.47000000000E+01 0. -1.
         -5    1    4    4    0  503  0.44750907261E+02 -0.78104373617E+01 -0.56586915415E+02  0.72717368136E+02  0.47000000000E+01 0. -1.
<mgrwt>
<rscale>  0 0.13152892E+03</rscale>
<asrwt>0</asrwt>
<pdfrwt beam="2">  1        5 0.32585629E-01 0.13153986E+03</pdfrwt>
<pdfrwt beam="1">  1       -5 0.12989687E-01 0.13153986E+03</pdfrwt>
<totfact> 0.33032008E+02</totfact>
</mgrwt>
</event>
<event>
 8    1  0.3674342E-007  0.1297938E+03  0.7546771E-02  0.1227763E+00
          5   -1    0    0  501    0  0.00000000000E+00  0.00000000000E+00  0.36053725461E+03  0.36056788814E+03  0.47000000000E+01 0.  1.
         -5   -1    0    0    0  501 -0.00000000000E+00 -0.00000000000E+00 -0.63983133673E+02  0.64155525051E+02  0.47000000000E+01 0.  1.
         25    2    1    2    0    0  0.17114778593E+02 -0.30467789513E+02  0.37706796789E+02  0.13515758937E+03  0.12499827838E+03 0.  0.
         25    2    1    2    0    0 -0.17114778593E+02  0.30467789513E+02  0.25884732415E+03  0.28956582382E+03  0.12500090905E+03 0.  0.
          5    1    3    3  502    0 -0.14795322668E+02 -0.73918449054E+02  0.18795269859E+02  0.77834380915E+02  0.47000000000E+01 0.  1.
         -5    1    3    3    0  502  0.31910101261E+02  0.43450659541E+02  0.18911526930E+02  0.57323208458E+02  0.47000000000E+01 0.  1.
          5    1    4    4  503    0 -0.68578718921E+01 -0.41080626730E+02  0.36030230234E+02  0.55271292641E+02  0.47000000000E+01 0.  1.
         -5    1    4    4    0  503 -0.10256906701E+02  0.71548416243E+02  0.22281709391E+03  0.23429453118E+03  0.47000000000E+01 0.  1.
<mgrwt>
<rscale>  0 0.12979316E+03</rscale>
<asrwt>0</asrwt>
<pdfrwt beam="1">  1        5 0.55482888E-01 0.12979379E+03</pdfrwt>
<pdfrwt beam="2">  1       -5 0.98591761E-02 0.12979379E+03</pdfrwt>
<totfact> 0.17809680E+02</totfact>
</mgrwt>
</event>
<event>
 8    1  0.3674342E-007  0.1290627E+03  0.7546771E-02  0.1228855E+00
          5   -1    0    0  501    0  0.00000000000E+00  0.00000000000E+00  0.57409451255E+02  0.57601519888E+02  0.47000000000E+01 0.  1.
         -5   -1    0    0    0  501 -0.00000000000E+00 -0.00000000000E+00 -0.33578136127E+03  0.33581425309E+03  0.47000000000E+01 0.  1.
         25    2    1    2    0    0 -0.27645234465E+02 -0.16350226871E+02 -0.21223385562E+03  0.24839359790E+03  0.12499832438E+03 0.  0.
         25    2    1    2    0    0  0.27645234465E+02  0.16350226871E+02 -0.66138054399E+02  0.14502217508E+03  0.12500240045E+03 0.  0.
          5    1    3    3  502    0 -0.29318860022E+01 -0.32381713970E+01  0.16605756945E+02  0.17802327747E+02  0.47000000000E+01 0. -1.
         -5    1    3    3    0  502 -0.24713348463E+02 -0.13112055474E+02 -0.22883961256E+03  0.23059127015E+03  0.47000000000E+01 0. -1.
          5    1    4    4  503    0  0.39956904689E+02  0.45788607011E+02  0.10521161092E+02  0.61854147759E+02  0.47000000000E+01 0.  1.
         -5    1    4    4    0  503 -0.12311670224E+02 -0.29438380139E+02 -0.76659215491E+02  0.83168027322E+02  0.47000000000E+01 0.  1.
<mgrwt>
<rscale>  0 0.12906175E+03</rscale>
<asrwt>0</asrwt>
<pdfrwt beam="1">  1        5 0.88495281E-02 0.12906273E+03</pdfrwt>
<pdfrwt beam="2">  1       -5 0.51675975E-01 0.12906273E+03</pdfrwt>
<totfact> 0.24959837E+02</totfact>
</mgrwt>
</event>
<event>
 8    1  0.3674342E-007  0.1322996E+03  0.7546771E-02  0.1224087E+00
         -5   -1    0    0    0  501 -0.00000000000E+00  0.00000000000E+00  0.90204042357E+02  0.90326403989E+02  0.47000000000E+01 0.  1.
          5   -1    0    0  501    0  0.00000000000E+00 -0.00000000000E+00 -0.20156512996E+03  0.20161991870E+03  0.47000000000E+01 0.  1.
         25    2    1    2    0    0 -0.41700705485E+02 -0.11755391906E+02 -0.26928749081E+02  0.13500045783E+03  0.12499131174E+03 0.  0.
         25    2    1    2    0    0  0.41700705485E+02  0.11755391906E+02 -0.84432338520E+02  0.15694586485E+03  0.12500418645E+03 0.  0.
          5    1    4    4  502    0  0.86362981524E+02  0.32595934720E+01 -0.53365866075E+02  0.10168183313E+03  0.47000000000E+01 0. -1.
         -5    1    4    4    0  502 -0.44662276039E+02  0.84957984342E+01 -0.31066472445E+02  0.55264031722E+02  0.47000000000E+01 0. -1.
          5    1    3    3  503    0 -0.61425481544E+02 -0.56229881817E+02 -0.16887941274E+02  0.85101010291E+02  0.47000000000E+01 0.  1.
         -5    1    3    3    0  503  0.19724776059E+02  0.44474489910E+02 -0.10040807806E+02  0.49899447540E+02  0.47000000000E+01 0.  1.
<mgrwt>
<rscale>  0 0.13229656E+03</rscale>
<asrwt>0</asrwt>
<pdfrwt beam="2">  1        5 0.31023647E-01 0.13229960E+03</pdfrwt>
<pdfrwt beam="1">  1       -5 0.13891172E-01 0.13229960E+03</pdfrwt>
<totfact> 0.32348213E+02</totfact>
</mgrwt>
</event>
<event>
 8    1  0.3674342E-007  0.1258894E+03  0.7546771E-02  0.1233686E+00
          5   -1    0    0  501    0  0.00000000000E+00  0.00000000000E+00  0.40675118674E+03  0.40677834003E+03  0.47000000000E+01 0. -1.
         -5   -1    0    0    0  501 -0.00000000000E+00 -0.00000000000E+00 -0.49516719718E+02  0.49739275544E+02  0.47000000000E+01 0. -1.
         25    2    1    2    0    0  0.22882088178E+00  0.14918544615E+02  0.72688109623E+02  0.14536746233E+03  0.12500208995E+03 0.  0.
         25    2    1    2    0    0 -0.22882088178E+00 -0.14918544615E+02  0.28454635740E+03  0.31115015324E+03  0.12500069208E+03 0.  0.
          5    1    3    3  502    0  0.59964477011E+02  0.24902086333E+02  0.35688028770E+02  0.74240001377E+02  0.47000000000E+01 0. -1.
         -5    1    3    3    0  502 -0.59735656129E+02 -0.99835417181E+01  0.37000080852E+02  0.71127460952E+02  0.47000000000E+01 0. -1.
          5    1    4    4  503    0  0.17679004181E+00 -0.69966025859E+02  0.17297212108E+03  0.18664597692E+03  0.47000000000E+01 0. -1.
         -5    1    4    4    0  503 -0.40561092359E+00  0.55047481244E+02  0.11157423632E+03  0.12450417632E+03  0.47000000000E+01 0. -1.
<mgrwt>
<rscale>  0 0.12588904E+03</rscale>
<asrwt>0</asrwt>
<pdfrwt beam="1">  1        5 0.62596314E-01 0.12588939E+03</pdfrwt>
<pdfrwt beam="2">  1       -5 0.76371653E-02 0.12588939E+03</pdfrwt>
<totfact> 0.21035130E+02</totfact>
</mgrwt>
</event>
<event>
 8    1  0.3674342E-007  0.1282993E+03  0.7546771E-02  0.1230002E+00
          5   -1    0    0  501    0  0.00000000000E+00  0.00000000000E+00  0.10361848905E+03  0.10372502722E+03  0.47000000000E+01 0. -1.
         -5   -1    0    0    0  501 -0.00000000000E+00 -0.00000000000E+00 -0.16625615923E+03  0.16632257959E+03  0.47000000000E+01 0. -1.
         25    2    1    2    0    0 -0.17551285729E+02  0.22974005287E+02 -0.60213410365E+02  0.14172538854E+03  0.12499831367E+03 0.  0.
         25    2    1    2    0    0  0.17551285729E+02 -0.22974005287E+02 -0.24242598222E+01  0.12832221827E+03  0.12499944847E+03 0.  0.
          5    1    3    3  502    0  0.34333274658E+02  0.52571556283E+02 -0.51156539377E+02  0.81127207519E+02  0.47000000000E+01 0. -1.
         -5    1    3    3    0  502 -0.51884560386E+02 -0.29597550996E+02 -0.90568709878E+01  0.60598181025E+02  0.47000000000E+01 0. -1.
          5    1    4    4  503    0 -0.88106773906E+01  0.50367655119E+01 -0.58832340208E+02  0.59885985816E+02  0.47000000000E+01 0. -1.
         -5    1    4    4    0  503  0.26361963119E+02 -0.28010770799E+02  0.56408080385E+02  0.68436232458E+02  0.47000000000E+01 0. -1.
<mgrwt>
<rscale>  0 0.12829904E+03</rscale>
<asrwt>0</asrwt>
<pdfrwt beam="1">  1        5 0.15954611E-01 0.12829932E+03</pdfrwt>
<pdfrwt beam="2">  1       -5 0.25591175E-01 0.12829932E+03</pdfrwt>
<totfact> 0.36207213E+02</totfact>
</mgrwt>
</event>
<event>
 8    1  0.3674342E-007  0.1298221E+03  0.7546771E-02  0.1227730E+00
         -5   -1    0    0    0  501 -0.00000000000E+00  0.00000000000E+00  0.34220730277E+03  0.34223957701E+03  0.47000000000E+01 0. -1.
          5   -1    0    0  501    0  0.00000000000E+00 -0.00000000000E+00 -0.59880823471E+02  0.60064989965E+02  0.47000000000E+01 0. -1.
         25    2    1    2    0    0 -0.12800796709E+02 -0.32529118741E+02  0.22636021087E+03  0.26093274520E+03  0.12499979395E+03 0.  0.
         25    2    1    2    0    0  0.12800796709E+02  0.32529118741E+02  0.55966268431E+02  0.14137182178E+03  0.12502705638E+03 0.  0.
          5    1    3    3  502    0 -0.32909450958E+01 -0.78812978951E+02  0.11166816810E+03  0.13679980167E+03  0.47000000000E+01 0. -1.
         -5    1    3    3    0  502 -0.95098516130E+01  0.46283860210E+02  0.11469204277E+03  0.12413294352E+03  0.47000000000E+01 0. -1.
          5    1    4    4  503    0  0.16672544694E+02  0.50418743945E+01 -0.38651284586E+02  0.42654496177E+02  0.47000000000E+01 0.  1.
         -5    1    4    4    0  503 -0.38717479849E+01  0.27487244346E+02  0.94617553017E+02  0.98717325598E+02  0.47000000000E+01 0.  1.
<mgrwt>
<rscale>  0 0.12981550E+03</rscale>
<asrwt>0</asrwt>
<pdfrwt beam="2">  1        5 0.92290838E-02 0.12982207E+03</pdfrwt>
<pdfrwt beam="1">  1       -5 0.52663926E-01 0.12982207E+03</pdfrwt>
<totfact> 0.22340054E+02</totfact>
</mgrwt>
</event>
<event>
 8    1  0.3674342E-007  0.1777444E+03  0.7546771E-02  0.1170006E+00
          5   -1    0    0  501    0  0.00000000000E+00  0.00000000000E+00  0.52577402491E+03  0.52579503161E+03  0.47000000000E+01 0.  1.
         -5   -1    0    0    0  501 -0.00000000000E+00 -0.00000000000E+00 -0.68980347472E+02  0.69140280137E+02  0.47000000000E+01 0.  1.
         25    2    1    2    0    0  0.54885076108E+02  0.11381381725E+03  0.12104626390E+03  0.21504138064E+03  0.12499856322E+03 0.  0.
         25    2    1    2    0    0 -0.54885076108E+02 -0.11381381725E+03  0.33574741354E+03  0.37989393111E+03  0.12500846620E+03 0.  0.
          5    1    4    4  502    0  0.59208779126E+00 -0.46944922921E+02  0.26085887708E+03  0.26509172017E+03  0.47000000000E+01 0.  1.
         -5    1    4    4    0  502 -0.55477163899E+02 -0.66868894326E+02  0.74888536464E+02  0.11480221094E+03  0.47000000000E+01 0.  1.
          5    1    3    3  503    0  0.62096180565E+02  0.12170613723E+03  0.13813114064E+03  0.19434665291E+03  0.47000000000E+01 0. -1.
         -5    1    3    3    0  503 -0.72111044568E+01 -0.78923199885E+01 -0.17084876747E+02  0.20694727728E+02  0.47000000000E+01 0. -1.
<mgrwt>
<rscale>  0 0.17774266E+03</rscale>
<asrwt>0</asrwt>
<pdfrwt beam="1">  1        5 0.80902226E-01 0.17774440E+03</pdfrwt>
<pdfrwt beam="2">  1       -5 0.10626280E-01 0.17774440E+03</pdfrwt>
<totfact> 0.74046067E+01</totfact>
</mgrwt>
</event>
<event>
 8    1  0.3674342E-007  0.1363593E+03  0.7546771E-02  0.1218330E+00
          5   -1    0    0  501    0  0.00000000000E+00  0.00000000000E+00  0.29242775710E+03  0.29246552468E+03  0.47000000000E+01 0.  1.
         -5   -1    0    0    0  501 -0.00000000000E+00 -0.00000000000E+00 -0.90925421268E+02  0.91046813414E+02  0.47000000000E+01 0.  1.
         25    2    1    2    0    0  0.52782896324E+02 -0.13549961286E+02 -0.45708380701E+01  0.13643590389E+03  0.12499691082E+03 0.  0.
         25    2    1    2    0    0 -0.52782896324E+02  0.13549961286E+02  0.20607317390E+03  0.24707643420E+03  0.12494389036E+03 0.  0.
          5    1    4    4  502    0  0.25503187930E+02 -0.16027257024E+02  0.13116995160E+03  0.13466600078E+03  0.47000000000E+01 0. -1.
         -5    1    4    4    0  502 -0.78286084254E+02  0.29577218310E+02  0.74903222301E+02  0.11241043342E+03  0.47000000000E+01 0. -1.
          5    1    3    3  503    0  0.14519526912E+02 -0.19487923537E+01 -0.63350069549E+02  0.65191531392E+02  0.47000000000E+01 0. -1.
         -5    1    3    3    0  503  0.38263369412E+02 -0.11601168932E+02  0.58779231479E+02  0.71244372498E+02  0.47000000000E+01 0. -1.
<mgrwt>
<rscale>  0 0.13634717E+03</rscale>
<asrwt>0</asrwt>
<pdfrwt beam="1">  1        5 0.45001128E-01 0.13635932E+03</pdfrwt>
<pdfrwt beam="2">  1       -5 0.14000770E-01 0.13635932E+03</pdfrwt>
<totfact> 0.15177637E+02</totfact>
</mgrwt>
</event>
<event>
 8    1  0.3674342E-007  0.1266896E+03  0.7546771E-02  0.1232461E+00
          5   -1    0    0  501    0  0.00000000000E+00  0.00000000000E+00  0.17365920926E+03  0.17372279920E+03  0.47000000000E+01 0. -1.
         -5   -1    0    0    0  501 -0.00000000000E+00 -0.00000000000E+00 -0.11629951796E+03  0.11639444951E+03  0.47000000000E+01 0. -1.
         25    2    1    2    0    0  0.14404430903E+02 -0.14913497030E+02 -0.37215828372E+02  0.13201982652E+03  0.12495725946E+03 0.  0.
         25    2    1    2    0    0 -0.14404430903E+02  0.14913497030E+02  0.94575519676E+02  0.15809742219E+03  0.12498146245E+03 0.  0.
          5    1    4    4  502    0  0.34671482494E+02 -0.17904932333E+02 -0.75681201482E+01  0.40025800964E+02  0.47000000000E+01 0. -1.
         -5    1    4    4    0  502 -0.49075913397E+02  0.32818429364E+02  0.10214363982E+03  0.11807162122E+03  0.47000000000E+01 0. -1.
          5    1    3    3  503    0  0.25840777015E+02 -0.40458987503E+02 -0.72287453284E+02  0.86903632426E+02  0.47000000000E+01 0. -1.
         -5    1    3    3    0  503 -0.11436346112E+02  0.25545490472E+02  0.35071624913E+02  0.45116194098E+02  0.47000000000E+01 0. -1.
<mgrwt>
<rscale>  0 0.12668367E+03</rscale>
<asrwt>0</asrwt>
<pdfrwt beam="1">  1        5 0.26728995E-01 0.12668964E+03</pdfrwt>
<pdfrwt beam="2">  1       -5 0.17904427E-01 0.12668964E+03</pdfrwt>
<totfact> 0.26842229E+02</totfact>
</mgrwt>
</event>
<event>
 8    1  0.3674342E-007  0.1299462E+03  0.7546771E-02  0.1227540E+00
         -5   -1    0    0    0  501 -0.00000000000E+00  0.00000000000E+00  0.58089131883E+02  0.58278960551E+02  0.47000000000E+01 0. -1.
          5   -1    0    0  501    0  0.00000000000E+00 -0.00000000000E+00 -0.30233051045E+03  0.30236704111E+03  0.47000000000E+01 0. -1.
         25    2    1    2    0    0 -0.96575040398E+01  0.34173946889E+02 -0.85688326219E+02  0.15564581515E+03  0.12498801740E+03 0.  0.
         25    2    1    2    0    0  0.96575040398E+01 -0.34173946889E+02 -0.15855305235E+03  0.20500018651E+03  0.12499952012E+03 0.  0.
          5    1    4    4  502    0 -0.38657720407E+02 -0.25419426730E+02 -0.14721760815E+03  0.15438808488E+03  0.47000000000E+01 0. -1.
         -5    1    4    4    0  502  0.48315224447E+02 -0.87545201586E+01 -0.11335444195E+02  0.50612101632E+02  0.47000000000E+01 0. -1.
          5    1    3    3  503    0  0.51957710618E+02 -0.73002220277E+01 -0.51770734763E+02  0.73859298075E+02  0.47000000000E+01 0. -1.
         -5    1    3    3    0  503 -0.61615214657E+02  0.41474168917E+02 -0.33917591456E+02  0.81786517072E+02  0.47000000000E+01 0. -1.
<mgrwt>
<rscale>  0 0.12994340E+03</rscale>
<asrwt>0</asrwt>
<pdfrwt beam="2">  1        5 0.46529797E-01 0.12994617E+03</pdfrwt>
<pdfrwt beam="1">  1       -5 0.89542020E-02 0.12994617E+03</pdfrwt>
<totfact> 0.30593676E+02</totfact>
</mgrwt>
</event>
<event>
 8    1  0.3674342E-007  0.1494597E+03  0.7546771E-02  0.1201150E+00
          5   -1    0    0  501    0  0.00000000000E+00  0.00000000000E+00  0.12345778341E+03  0.12354721480E+03  0.47000000000E+01 0. -1.
         -5   -1    0    0    0  501 -0.00000000000E+00 -0.00000000000E+00 -0.18688819551E+03  0.18694728567E+03  0.47000000000E+01 0. -1.
         25    2    1    2    0    0  0.20210140804E+02  0.79425084288E+02 -0.59943136686E+02  0.16103222427E+03  0.12498561443E+03 0.  0.
         25    2    1    2    0    0 -0.20210140804E+02 -0.79425084288E+02 -0.34872754107E+01  0.14946227619E+03  0.12494005407E+03 0.  0.
          5    1    3    3  502    0  0.38061622169E+02  0.10512045306E+03 -0.26496261068E+02  0.11499190660E+03  0.47000000000E+01 0. -1.
         -5    1    3    3    0  502 -0.17851481365E+02 -0.25695368768E+02 -0.33446875618E+02  0.46040317675E+02  0.47000000000E+01 0. -1.
          5    1    4    4  503    0 -0.13916527787E+02 -0.11294128157E+03 -0.10345677226E+02  0.11436138275E+03  0.47000000000E+01 0.  1.
         -5    1    4    4    0  503 -0.62936130168E+01  0.33516197280E+02  0.68584018152E+01  0.35100893441E+02  0.47000000000E+01 0.  1.
<mgrwt>
<rscale>  0 0.14945016E+03</rscale>
<asrwt>0</asrwt>
<pdfrwt beam="1">  1        5 0.19004930E-01 0.14945969E+03</pdfrwt>
<pdfrwt beam="2">  1       -5 0.28763455E-01 0.14945969E+03</pdfrwt>
<totfact> 0.22065675E+02</totfact>
</mgrwt>
</event>
<event>
 8    1  0.3674342E-007  0.1327341E+03  0.7546771E-02  0.1223474E+00
          5   -1    0    0  501    0  0.00000000000E+00  0.00000000000E+00  0.88099220521E+02  0.88224501452E+02  0.47000000000E+01 0.  1.
         -5   -1    0    0    0  501 -0.00000000000E+00 -0.00000000000E+00 -0.19960645267E+03  0.19966177889E+03  0.47000000000E+01 0.  1.
         25    2    1    2    0    0 -0.43620707764E+02 -0.95137429413E+01 -0.55864890506E+02  0.14396124909E+03  0.12494269806E+03 0.  0.
         25    2    1    2    0    0  0.43620707764E+02  0.95137429413E+01 -0.55642341643E+02  0.14392503124E+03  0.12500026794E+03 0.  0.
          5    1    4    4  502    0 -0.21615618837E+02  0.23512780352E+02 -0.68580122158E+02  0.75798476059E+02  0.47000000000E+01 0. -1.
         -5    1    4    4    0  502  0.65236326601E+02 -0.13999037411E+02  0.12937780515E+02  0.68126555186E+02  0.47000000000E+01 0. -1.
          5    1    3    3  503    0 -0.62529981201E+02  0.40750910266E+02 -0.49488765382E+02  0.89676435787E+02  0.47000000000E+01 0. -1.
         -5    1    3    3    0  503  0.18909273436E+02 -0.50264653208E+02 -0.63761251240E+01  0.54284813305E+02  0.47000000000E+01 0. -1.
<mgrwt>
<rscale>  0 0.13272056E+03</rscale>
<asrwt>0</asrwt>
<pdfrwt beam="1">  1        5 0.13567619E-01 0.13273411E+03</pdfrwt>
<pdfrwt beam="2">  1       -5 0.30722578E-01 0.13273411E+03</pdfrwt>
<totfact> 0.34439453E+02</totfact>
</mgrwt>
</event>
<event>
 8    1  0.3674342E-007  0.1352815E+03  0.7546771E-02  0.1219825E+00
          5   -1    0    0  501    0  0.00000000000E+00  0.00000000000E+00  0.17058539965E+03  0.17065013500E+03  0.47000000000E+01 0.  1.
         -5   -1    0    0    0  501 -0.00000000000E+00 -0.00000000000E+00 -0.12554800036E+03  0.12563594387E+03  0.47000000000E+01 0.  1.
         25    2    1    2    0    0 -0.42430734884E+02  0.29552693689E+02 -0.34166641799E+02  0.13952398052E+03  0.12500341100E+03 0.  0.
         25    2    1    2    0    0  0.42430734884E+02 -0.29552693689E+02  0.79204041098E+02  0.15676209835E+03  0.12500938519E+03 0.  0.
          5    1    4    4  502    0 -0.11279745007E+02 -0.45240292892E+02 -0.13155224708E+02  0.48673059135E+02  0.47000000000E+01 0. -1.
         -5    1    4    4    0  502  0.53710479891E+02  0.15687599203E+02  0.92359265806E+02  0.10808903922E+03  0.47000000000E+01 0. -1.
          5    1    3    3  503    0 -0.10245191344E+02  0.31050585598E+02 -0.78123766787E+02  0.84820491325E+02  0.47000000000E+01 0. -1.
         -5    1    3    3    0  503 -0.32185543540E+02 -0.14978919088E+01  0.43957124988E+02  0.54703489197E+02  0.47000000000E+01 0. -1.
<mgrwt>
<rscale>  0 0.13528009E+03</rscale>
<asrwt>0</asrwt>
<pdfrwt beam="1">  1        5 0.26255652E-01 0.13528147E+03</pdfrwt>
<pdfrwt beam="2">  1       -5 0.19326821E-01 0.13528147E+03</pdfrwt>
<totfact> 0.24689372E+02</totfact>
</mgrwt>
</event>
<event>
 8    1  0.3674342E-007  0.1258019E+03  0.7546771E-02  0.1233822E+00
         -5   -1    0    0    0  501 -0.00000000000E+00  0.00000000000E+00  0.78486732359E+03  0.78488139591E+03  0.47000000000E+01 0.  1.
          5   -1    0    0  501    0  0.00000000000E+00 -0.00000000000E+00 -0.21562892424E+02  0.22069171477E+02  0.47000000000E+01 0.  1.
         25    2    1    2    0    0  0.14032415391E+02  0.20326202251E+01  0.49312327011E+03  0.50891705019E+03  0.12499985686E+03 0.  0.
         25    2    1    2    0    0 -0.14032415391E+02 -0.20326202251E+01  0.27018116105E+03  0.29803351720E+03  0.12500030944E+03 0.  0.
          5    1    3    3  502    0 -0.16540437531E+02 -0.44407152665E+02  0.37796165145E+03  0.38094970960E+03  0.47000000000E+01 0. -1.
         -5    1    3    3    0  502  0.30572852922E+02  0.46439772890E+02  0.11516161867E+03  0.12796734058E+03  0.47000000000E+01 0. -1.
          5    1    4    4  503    0  0.14930645083E+02 -0.45160963220E+01  0.26801221728E+03  0.26850690475E+03  0.47000000000E+01 0. -1.
         -5    1    4    4    0  503 -0.28963060474E+02  0.24834760969E+01  0.21689437754E+01  0.29526612448E+02  0.47000000000E+01 0. -1.
<mgrwt>
<rscale>  0 0.12580179E+03</rscale>
<asrwt>0</asrwt>
<pdfrwt beam="2">  1        5 0.33573945E-02 0.12580190E+03</pdfrwt>
<pdfrwt beam="1">  1       -5 0.12078887E+00 0.12580190E+03</pdfrwt>
<totfact> 0.17486014E+02</totfact>
</mgrwt>
</event>
<event>
 8    1  0.3674342E-007  0.1488867E+03  0.7546771E-02  0.1201848E+00
          5   -1    0    0  501    0  0.00000000000E+00  0.00000000000E+00  0.45531751428E+03  0.45534177143E+03  0.47000000000E+01 0.  1.
         -5   -1    0    0    0  501 -0.00000000000E+00 -0.00000000000E+00 -0.77647623168E+02  0.77789738293E+02  0.47000000000E+01 0.  1.
         25    2    1    2    0    0 -0.43730868836E+02  0.68034599769E+02  0.25862316820E+02  0.15111623038E+03  0.12500463991E+03 0.  0.
         25    2    1    2    0    0  0.43730868836E+02 -0.68034599769E+02  0.35180757429E+03  0.38201527934E+03  0.12500403461E+03 0.  0.
          5    1    4    4  502    0 -0.18926426683E+02 -0.25637590992E+02  0.26424856471E+03  0.26620460110E+03  0.47000000000E+01 0.  1.
         -5    1    4    4    0  502  0.62657295519E+02 -0.42397008777E+02  0.87559009583E+02  0.11581067824E+03  0.47000000000E+01 0.  1.
          5    1    3    3  503    0 -0.66182662465E+01 -0.19148796477E+01  0.62985208443E+02  0.63534987958E+02  0.47000000000E+01 0.  1.
         -5    1    3    3    0  503 -0.37112602589E+02  0.69949479417E+02 -0.37122891624E+02  0.87581242421E+02  0.47000000000E+01 0.  1.
<mgrwt>
<rscale>  0 0.14888659E+03</rscale>
<asrwt>0</asrwt>
<pdfrwt beam="1">  1        5 0.70061646E-01 0.14888672E+03</pdfrwt>
<pdfrwt beam="2">  1       -5 0.11958586E-01 0.14888672E+03</pdfrwt>
<totfact> 0.79313314E+01</totfact>
</mgrwt>
</event>
<event>
 8    1  0.3674342E-007  0.1320689E+03  0.7546771E-02  0.1224420E+00
         -5   -1    0    0    0  501 -0.00000000000E+00  0.00000000000E+00  0.41470882917E+03  0.41473546146E+03  0.47000000000E+01 0.  1.
          5   -1    0    0  501    0  0.00000000000E+00 -0.00000000000E+00 -0.48508540404E+02  0.48735700386E+02  0.47000000000E+01 0.  1.
         25    2    1    2    0    0  0.41597377931E+02  0.92647186875E+01  0.26841645455E+03  0.29914810970E+03  0.12500408634E+03 0.  0.
         25    2    1    2    0    0 -0.41597377931E+02 -0.92647186875E+01  0.97783834219E+02  0.16432305215E+03  0.12499684143E+03 0.  0.
          5    1    4    4  502    0 -0.84163148903E+02 -0.20322771524E+02  0.54359583062E+02  0.10234014338E+03  0.47000000000E+01 0.  1.
         -5    1    4    4    0  502  0.42565770971E+02  0.11058052836E+02  0.43424251157E+02  0.61982908769E+02  0.47000000000E+01 0.  1.
          5    1    3    3  503    0 -0.25827142377E+02  0.47504033828E+02  0.10373690821E+03  0.11707737030E+03  0.47000000000E+01 0. -1.
         -5    1    3    3    0  503  0.67424520308E+02 -0.38239315140E+02  0.16467954634E+03  0.18207073940E+03  0.47000000000E+01 0. -1.
<mgrwt>
<rscale>  0 0.13206720E+03</rscale>
<asrwt>0</asrwt>
<pdfrwt beam="2">  1        5 0.74823748E-02 0.13206892E+03</pdfrwt>
<pdfrwt beam="1">  1       -5 0.63820881E-01 0.13206892E+03</pdfrwt>
<totfact> 0.21230628E+02</totfact>
</mgrwt>
</event>
<event>
 8    1  0.3674342E-007  0.1336495E+03  0.7546771E-02  0.1222140E+00
          5   -1    0    0  501    0  0.00000000000E+00  0.00000000000E+00  0.11696701181E+03  0.11706140206E+03  0.47000000000E+01 0.  1.
         -5   -1    0    0    0  501 -0.00000000000E+00 -0.00000000000E+00 -0.17058820612E+03  0.17065294040E+03  0.47000000000E+01 0.  1.
         25    2    1    2    0    0  0.27979032026E+01 -0.47233301766E+02 -0.73610614420E+02  0.15258019276E+03  0.12499351827E+03 0.  0.
         25    2    1    2    0    0 -0.27979032026E+01  0.47233301766E+02  0.19989420111E+02  0.13513414969E+03  0.12499139346E+03 0.  0.
          5    1    3    3  502    0 -0.46916061999E+02 -0.27195503105E+02 -0.81697741208E+02  0.98169869008E+02  0.47000000000E+01 0.  1.
         -5    1    3    3    0  502  0.49713965202E+02 -0.20037798661E+02  0.80871267879E+01  0.54410323753E+02  0.47000000000E+01 0.  1.
          5    1    4    4  503    0  0.16950072523E+02 -0.38202642286E+02  0.21652473819E+02  0.47303979311E+02  0.47000000000E+01 0. -1.
         -5    1    4    4    0  503 -0.19747975726E+02  0.85435944052E+02 -0.16630537070E+01  0.87830170380E+02  0.47000000000E+01 0. -1.
<mgrwt>
<rscale>  0 0.13364902E+03</rscale>
<asrwt>0</asrwt>
<pdfrwt beam="1">  1        5 0.18007165E-01 0.13364951E+03</pdfrwt>
<pdfrwt beam="2">  1       -5 0.26256580E-01 0.13364951E+03</pdfrwt>
<totfact> 0.28024064E+02</totfact>
</mgrwt>
</event>
<event>
 8    1  0.3674342E-007  0.1370972E+03  0.7546771E-02  0.1217290E+00
         -5   -1    0    0    0  501 -0.00000000000E+00  0.00000000000E+00  0.36252125981E+03  0.36255172571E+03  0.47000000000E+01 0. -1.
          5   -1    0    0  501    0  0.00000000000E+00 -0.00000000000E+00 -0.66323685354E+02  0.66490008565E+02  0.47000000000E+01 0. -1.
         25    2    1    2    0    0  0.33430441671E+02  0.45301764391E+02  0.24864280308E+03  0.28393465389E+03  0.12500319945E+03 0.  0.
         25    2    1    2    0    0 -0.33430441671E+02 -0.45301764391E+02  0.47554771380E+02  0.14510708038E+03  0.12499905683E+03 0.  0.
          5    1    3    3  502    0  0.40649304280E+02  0.77429750728E+02  0.22930318948E+03  0.24545829573E+03  0.47000000000E+01 0. -1.
         -5    1    3    3    0  502 -0.72188626090E+01 -0.32127986337E+02  0.19339613593E+02  0.38476358161E+02  0.47000000000E+01 0. -1.
          5    1    4    4  503    0  0.29649965412E+02 -0.61150699575E+02  0.73949054001E+01  0.68522282020E+02  0.47000000000E+01 0. -1.
         -5    1    4    4    0  503 -0.63080407083E+02  0.15848935184E+02  0.40159865980E+02  0.76584798359E+02  0.47000000000E+01 0. -1.
<mgrwt>
<rscale>  0 0.13709626E+03</rscale>
<asrwt>0</asrwt>
<pdfrwt beam="2">  1        5 0.10218782E-01 0.13709721E+03</pdfrwt>
<pdfrwt beam="1">  1       -5 0.55787637E-01 0.13709721E+03</pdfrwt>
<totfact> 0.16844788E+02</totfact>
</mgrwt>
</event>
<event>
 8    1  0.3674342E-007  0.1397600E+03  0.7546771E-02  0.1213652E+00
          5   -1    0    0  501    0  0.00000000000E+00  0.00000000000E+00  0.17993884586E+03  0.18000021736E+03  0.47000000000E+01 0.  1.
         -5   -1    0    0    0  501 -0.00000000000E+00 -0.00000000000E+00 -0.10963500480E+03  0.10973570193E+03  0.47000000000E+01 0.  1.
         25    2    1    2    0    0 -0.38020867974E+01 -0.62390346999E+02  0.19922697369E+02  0.14117285351E+03  0.12500339770E+03 0.  0.
         25    2    1    2    0    0  0.38020867974E+01  0.62390346999E+02  0.50381143690E+02  0.14856306578E+03  0.12500285441E+03 0.  0.
          5    1    3    3  502    0 -0.61528469054E+01 -0.13942454643E+02  0.69706531077E+02  0.71507622261E+02  0.47000000000E+01 0.  1.
         -5    1    3    3    0  502  0.23507601080E+01 -0.48447892357E+02 -0.49783833708E+02  0.69665231253E+02  0.47000000000E+01 0.  1.
          5    1    4    4  503    0 -0.60449015052E+02  0.30670608376E+02  0.25036502484E+02  0.72413300543E+02  0.47000000000E+01 0. -1.
         -5    1    4    4    0  503  0.64251101849E+02  0.31719738623E+02  0.25344641206E+02  0.76149765233E+02  0.47000000000E+01 0. -1.
<mgrwt>
<rscale>  0 0.13975989E+03</rscale>
<asrwt>0</asrwt>
<pdfrwt beam="1">  1        5 0.27695366E-01 0.13976001E+03</pdfrwt>
<pdfrwt beam="2">  1       -5 0.16879391E-01 0.13976001E+03</pdfrwt>
<totfact> 0.28905304E+02</totfact>
</mgrwt>
</event>
<event>
 8    1  0.3674342E-007  0.1308794E+03  0.7546771E-02  0.1226158E+00
          5   -1    0    0  501    0  0.00000000000E+00  0.00000000000E+00  0.75949515981E+02  0.76094802568E+02  0.47000000000E+01 0. -1.
         -5   -1    0    0    0  501 -0.00000000000E+00 -0.00000000000E+00 -0.23150286426E+03  0.23155056934E+03  0.47000000000E+01 0. -1.
         25    2    1    2    0    0  0.16303098035E+02 -0.35177300790E+02 -0.10325964840E+03  0.16670548882E+03  0.12499972607E+03 0.  0.
         25    2    1    2    0    0 -0.16303098035E+02  0.35177300790E+02 -0.52293699883E+02  0.14093988309E+03  0.12500474432E+03 0.  0.
          5    1    4    4  502    0  0.55855134490E+01 -0.44232375339E+02 -0.34421851069E+02  0.56521277583E+02  0.47000000000E+01 0.  1.
         -5    1    4    4    0  502 -0.21888611484E+02  0.79409676129E+02 -0.17871848813E+02  0.84418605506E+02  0.47000000000E+01 0.  1.
          5    1    3    3  503    0 -0.21996910701E+02 -0.33894106099E+01  0.22117984473E+02  0.31727707478E+02  0.47000000000E+01 0.  1.
         -5    1    3    3    0  503  0.38300008736E+02 -0.31787890180E+02 -0.12537763287E+03  0.13497778134E+03  0.47000000000E+01 0.  1.
<mgrwt>
<rscale>  0 0.13087821E+03</rscale>
<asrwt>0</asrwt>
<pdfrwt beam="1">  1        5 0.11699387E-01 0.13087941E+03</pdfrwt>
<pdfrwt beam="2">  1       -5 0.35630670E-01 0.13087941E+03</pdfrwt>
<totfact> 0.33218208E+02</totfact>
</mgrwt>
</event>
<event>
 8    1  0.3674342E-007  0.1382669E+03  0.7546771E-02  0.1215705E+00
          5   -1    0    0  501    0  0.00000000000E+00  0.00000000000E+00  0.16030400088E+04  0.16030468989E+04  0.47000000000E+01 0.  1.
         -5   -1    0    0    0  501 -0.00000000000E+00 -0.00000000000E+00 -0.23907102742E+02  0.24364719607E+02  0.47000000000E+01 0.  1.
         25    2    1    2    0    0  0.43444487057E+02  0.39842561726E+02  0.21068561814E+03  0.25200431027E+03  0.12507153762E+03 0.  0.
         25    2    1    2    0    0 -0.43444487057E+02 -0.39842561726E+02  0.13684472880E+04  0.13754073082E+04  0.12498972094E+03 0.  0.
          5    1    3    3  502    0 -0.42225451786E+02  0.11553191737E+02  0.99035462148E+02  0.10838163027E+03  0.47000000000E+01 0. -1.
         -5    1    3    3    0  502  0.85669938843E+02  0.28289369990E+02  0.11165015599E+03  0.14362267999E+03  0.47000000000E+01 0. -1.
          5    1    4    4  503    0 -0.24434568076E+02 -0.36953034076E+02  0.14252628127E+03  0.14932650702E+03  0.47000000000E+01 0.  1.
         -5    1    4    4    0  503 -0.19009918981E+02 -0.28895276497E+01  0.12259210067E+04  0.12260808012E+04  0.47000000000E+01 0.  1.
<mgrwt>
<rscale>  0 0.13824842E+03</rscale>
<asrwt>0</asrwt>
<pdfrwt beam="1">  1        5 0.24665732E+00 0.13826693E+03</pdfrwt>
<pdfrwt beam="2">  1       -5 0.37137463E-02 0.13826693E+03</pdfrwt>
<totfact> 0.18662214E+01</totfact>
</mgrwt>
</event>
<event>
 8    1  0.3674342E-007  0.1357340E+03  0.7546771E-02  0.1219188E+00
          5   -1    0    0  501    0  0.00000000000E+00  0.00000000000E+00  0.25247919411E+04  0.25247963157E+04  0.47000000000E+01 0.  1.
         -5   -1    0    0    0  501 -0.00000000000E+00 -0.00000000000E+00 -0.11190801799E+02  0.12137711683E+02  0.47000000000E+01 0.  1.
         25    2    1    2    0    0  0.28064003836E+02 -0.44842048416E+02  0.48039743631E+03  0.49920479147E+03  0.12500131757E+03 0.  0.
         25    2    1    2    0    0 -0.28064003836E+02  0.44842048416E+02  0.20332037030E+04  0.20377292359E+04  0.12499897393E+03 0.  0.
          5    1    4    4  502    0 -0.35871839100E+02 -0.36909794739E+02  0.95130422378E+03  0.95270716275E+03  0.47000000000E+01 0.  1.
         -5    1    4    4    0  502  0.78078352639E+01  0.81751843155E+02  0.10818994792E+04  0.10850220732E+04  0.47000000000E+01 0.  1.
          5    1    3    3  503    0 -0.48428479585E+02 -0.38763245643E+01  0.16819504545E+03  0.17513425376E+03  0.47000000000E+01 0. -1.
         -5    1    3    3    0  503  0.76492483421E+02 -0.40965723852E+02  0.31220239086E+03  0.32407053771E+03  0.47000000000E+01 0. -1.
<mgrwt>
<rscale>  0 0.13573349E+03</rscale>
<asrwt>0</asrwt>
<pdfrwt beam="1">  1        5 0.38850277E+00 0.13573403E+03</pdfrwt>
<pdfrwt beam="2">  1       -5 0.17948372E-02 0.13573403E+03</pdfrwt>
<totfact> 0.72201737E+00</totfact>
</mgrwt>
</event>
<event>
 8    1  0.3674342E-007  0.1499905E+03  0.7546771E-02  0.1200493E+00
         -5   -1    0    0    0  501 -0.00000000000E+00  0.00000000000E+00  0.30118683455E+03  0.30122350391E+03  0.47000000000E+01 0. -1.
          5   -1    0    0  501    0  0.00000000000E+00 -0.00000000000E+00 -0.11605592234E+03  0.11615105299E+03  0.47000000000E+01 0. -1.
         25    2    1    2    0    0  0.82838822412E+02  0.13147956467E+01  0.21725071213E+03  0.26398344540E+03  0.12500155334E+03 0.  0.
         25    2    1    2    0    0 -0.82838822412E+02 -0.13147956467E+01 -0.32119799924E+02  0.15339111150E+03  0.12503260516E+03 0.  0.
          5    1    3    3  502    0  0.63639424964E+02 -0.12544844969E+02  0.24140401553E+02  0.69370011765E+02  0.47000000000E+01 0. -1.
         -5    1    3    3    0  502  0.19199397448E+02  0.13859640616E+02  0.19311031058E+03  0.19461343364E+03  0.47000000000E+01 0. -1.
          5    1    4    4  503    0 -0.10139776575E+02 -0.55477581099E+02 -0.26358204354E+02  0.62429336136E+02  0.47000000000E+01 0. -1.
         -5    1    4    4    0  503 -0.72699045838E+02  0.54162785452E+02 -0.57615955702E+01  0.90961775363E+02  0.47000000000E+01 0. -1.
<mgrwt>
<rscale>  0 0.14998403E+03</rscale>
<asrwt>0</asrwt>
<pdfrwt beam="2">  1        5 0.17864896E-01 0.14999050E+03</pdfrwt>
<pdfrwt beam="1">  1       -5 0.46346575E-01 0.14999050E+03</pdfrwt>
<totfact> 0.94414028E+01</totfact>
</mgrwt>
</event>
<event>
 8    1  0.3674342E-007  0.1394871E+03  0.7546771E-02  0.1214033E+00
         -5   -1    0    0    0  501 -0.00000000000E+00  0.00000000000E+00  0.83492168592E+02  0.83624351814E+02  0.47000000000E+01 0.  1.
          5   -1    0    0  501    0  0.00000000000E+00 -0.00000000000E+00 -0.28572728580E+03  0.28576593893E+03  0.47000000000E+01 0.  1.
         25    2    1    2    0    0 -0.21794748975E+01  0.61865642360E+02 -0.21537800149E+02  0.14114006439E+03  0.12499813249E+03 0.  0.
         25    2    1    2    0    0  0.21794748975E+01 -0.61865642360E+02 -0.18069731706E+03  0.22825022634E+03  0.12495814347E+03 0.  0.
          5    1    4    4  502    0  0.60494750701E+02 -0.10530179201E+02 -0.77339393138E+02  0.98863397005E+02  0.47000000000E+01 0.  1.
         -5    1    4    4    0  502 -0.58315275803E+02 -0.51335463159E+02 -0.10335792392E+03  0.12938682934E+03  0.47000000000E+01 0.  1.
          5    1    3    3  503    0  0.20410782899E+02 -0.33753320218E+02 -0.15335423831E+02  0.42581121502E+02  0.47000000000E+01 0. -1.
         -5    1    3    3    0  503 -0.22590257796E+02  0.95618962579E+02 -0.62023763176E+01  0.98558942892E+02  0.47000000000E+01 0. -1.
<mgrwt>
<rscale>  0 0.13947810E+03</rscale>
<asrwt>0</asrwt>
<pdfrwt beam="2">  1        5 0.43971185E-01 0.13948706E+03</pdfrwt>
<pdfrwt beam="1">  1       -5 0.12858090E-01 0.13948706E+03</pdfrwt>
<totfact> 0.18689793E+02</totfact>
</mgrwt>
</event>
<event>
 8    1  0.3674342E-007  0.1359391E+03  0.7546771E-02  0.1218900E+00
         -5   -1    0    0    0  501 -0.00000000000E+00  0.00000000000E+00  0.40958085638E+02  0.41226869625E+02  0.47000000000E+01 0. -1.
          5   -1    0    0  501    0  0.00000000000E+00 -0.00000000000E+00 -0.44948579655E+03  0.44951036841E+03  0.47000000000E+01 0. -1.
         25    2    1    2    0    0 -0.53139282823E+02  0.55566952805E+01 -0.20719920567E+03  0.24781215439E+03  0.12499877117E+03 0.  0.
         25    2    1    2    0    0  0.53139282823E+02 -0.55566952805E+01 -0.20132850525E+03  0.24292508364E+03  0.12499907597E+03 0.  0.
          5    1    3    3  502    0  0.24197272347E+02  0.14808590696E+02 -0.26409529130E+01  0.28876755007E+02  0.47000000000E+01 0.  1.
         -5    1    3    3    0  502 -0.77336555169E+02 -0.92518954160E+01 -0.20455825276E+03  0.21893539939E+03  0.47000000000E+01 0.  1.
          5    1    4    4  503    0 -0.27065891406E+02  0.10782862169E+02 -0.13288959066E+03  0.13612702120E+03  0.47000000000E+01 0.  1.
         -5    1    4    4    0  503  0.80205174229E+02 -0.16339557449E+02 -0.68438914585E+02  0.10679806244E+03  0.47000000000E+01 0.  1.
<mgrwt>
<rscale>  0 0.13593899E+03</rscale>
<asrwt>0</asrwt>
<pdfrwt beam="2">  1        5 0.69174223E-01 0.13593906E+03</pdfrwt>
<pdfrwt beam="1">  1       -5 0.63238101E-02 0.13593906E+03</pdfrwt>
<totfact> 0.23829320E+02</totfact>
</mgrwt>
</event>
<event>
 8    1  0.3674342E-007  0.1540373E+03  0.7546771E-02  0.1195599E+00
         -5   -1    0    0    0  501 -0.00000000000E+00  0.00000000000E+00  0.78002696431E+03  0.78004112395E+03  0.47000000000E+01 0. -1.
          5   -1    0    0  501    0  0.00000000000E+00 -0.00000000000E+00 -0.73785123077E+02  0.73934662963E+02  0.47000000000E+01 0. -1.
         25    2    1    2    0    0 -0.84569655988E+02 -0.30827241468E+02  0.68060717701E+03  0.69782002605E+03  0.12499725525E+03 0.  0.
         25    2    1    2    0    0  0.84569655988E+02  0.30827241468E+02  0.25634664223E+02  0.15615576087E+03  0.12500056045E+03 0.  0.
          5    1    3    3  502    0 -0.80119603608E+02 -0.35827652171E+02  0.21676588508E+03  0.23390662768E+03  0.47000000000E+01 0.  1.
         -5    1    3    3    0  502 -0.44500523808E+01  0.50004107031E+01  0.46384129194E+03  0.46391339836E+03  0.47000000000E+01 0.  1.
          5    1    4    4  503    0  0.89899599640E+02  0.57673772742E+02 -0.13931245962E+02  0.10781637952E+03  0.47000000000E+01 0. -1.
         -5    1    4    4    0  503 -0.53299436518E+01 -0.26846531274E+02  0.39565910185E+02  0.48339381353E+02  0.47000000000E+01 0. -1.
<mgrwt>
<rscale>  0 0.15403662E+03</rscale>
<asrwt>0</asrwt>
<pdfrwt beam="2">  1        5 0.11364150E-01 0.15403729E+03</pdfrwt>
<pdfrwt beam="1">  1       -5 0.12001674E+00 0.15403729E+03</pdfrwt>
<totfact> 0.24181569E+01</totfact>
</mgrwt>
</event>
<event>
 8    1  0.3674342E-007  0.1504031E+03  0.7546771E-02  0.1199979E+00
          5   -1    0    0  501    0  0.00000000000E+00  0.00000000000E+00  0.19244101789E+03  0.19249840354E+03  0.47000000000E+01 0. -1.
         -5   -1    0    0    0  501 -0.00000000000E+00 -0.00000000000E+00 -0.12025320156E+03  0.12034501438E+03  0.47000000000E+01 0. -1.
         25    2    1    2    0    0  0.57878976098E+02  0.60386167762E+02  0.60063222660E+02  0.16195274157E+03  0.12499853861E+03 0.  0.
         25    2    1    2    0    0 -0.57878976098E+02 -0.60386167762E+02  0.12124593663E+02  0.15089067635E+03  0.12499810121E+03 0.  0.
          5    1    3    3  502    0 -0.80488619412E+01  0.31011886779E+02 -0.31562383441E+02  0.45219413404E+02  0.47000000000E+01 0. -1.
         -5    1    3    3    0  502  0.65927838039E+02  0.29374280982E+02  0.91625606101E+02  0.11673332817E+03  0.47000000000E+01 0. -1.
          5    1    4    4  503    0 -0.74181788676E+02  0.57280211096E+01 -0.17348260567E+02  0.76542799412E+02  0.47000000000E+01 0.  1.
         -5    1    4    4    0  503  0.16302812579E+02 -0.66114188871E+02  0.29472854231E+02  0.74347876934E+02  0.47000000000E+01 0.  1.
<mgrwt>
<rscale>  0 0.15040303E+03</rscale>
<asrwt>0</asrwt>
<pdfrwt beam="1">  1        5 0.29617787E-01 0.15040312E+03</pdfrwt>
<pdfrwt beam="2">  1       -5 0.18511969E-01 0.15040312E+03</pdfrwt>
<totfact> 0.21923560E+02</totfact>
</mgrwt>
</event>
<event>
 8    1  0.3674342E-007  0.1480242E+03  0.7546771E-02  0.1202923E+00
          5   -1    0    0  501    0  0.00000000000E+00  0.00000000000E+00  0.22346216315E+03  0.22351158440E+03  0.47000000000E+01 0. -1.
         -5   -1    0    0    0  501 -0.00000000000E+00 -0.00000000000E+00 -0.10260634727E+03  0.10271393528E+03  0.47000000000E+01 0. -1.
         25    2    1    2    0    0 -0.79079858256E+02  0.56799346123E+01  0.25650173170E+02  0.15023011734E+03  0.12500108453E+03 0.  0.
         25    2    1    2    0    0  0.79079858256E+02 -0.56799346123E+01  0.95205642706E+02  0.17599540233E+03  0.12499752637E+03 0.  0.
          5    1    3    3  502    0 -0.87241507517E+02  0.48027349243E+02 -0.26122732672E+00  0.99698872355E+02  0.47000000000E+01 0.  1.
         -5    1    3    3    0  502  0.81616492601E+01 -0.42347414630E+02  0.25911400496E+02  0.50531244990E+02  0.47000000000E+01 0.  1.
          5    1    4    4  503    0  0.89711761850E+02 -0.40417009992E+02  0.98388542407E+02  0.13922690181E+03  0.47000000000E+01 0.  1.
         -5    1    4    4    0  503 -0.10631903594E+02  0.34737075380E+02 -0.31828997011E+01  0.36768500520E+02  0.47000000000E+01 0.  1.
<mgrwt>
<rscale>  0 0.14802343E+03</rscale>
<asrwt>0</asrwt>
<pdfrwt beam="1">  1        5 0.34390872E-01 0.14802418E+03</pdfrwt>
<pdfrwt beam="2">  1       -5 0.15797670E-01 0.14802418E+03</pdfrwt>
<totfact> 0.21702334E+02</totfact>
</mgrwt>
</event>
<event>
 8    1  0.3674342E-007  0.1817149E+03  0.7546771E-02  0.1166154E+00
          5   -1    0    0  501    0  0.00000000000E+00  0.00000000000E+00  0.12285172270E+04  0.12285262175E+04  0.47000000000E+01 0.  1.
         -5   -1    0    0    0  501 -0.00000000000E+00 -0.00000000000E+00 -0.29612512292E+02  0.29983176687E+02  0.47000000000E+01 0.  1.
         25    2    1    2    0    0  0.50690843053E+01  0.13179083288E+03  0.40218491072E+03  0.44132964855E+03  0.12499854812E+03 0.  0.
         25    2    1    2    0    0 -0.50690843053E+01 -0.13179083288E+03  0.79671980400E+03  0.81717974563E+03  0.12500308530E+03 0.  0.
          5    1    3    3  502    0 -0.27387562955E+02  0.72884337595E+01  0.13245528487E+02  0.31634378391E+02  0.47000000000E+01 0. -1.
         -5    1    3    3    0  502  0.32456647260E+02  0.12450239912E+03  0.38893938224E+03  0.40969527016E+03  0.47000000000E+01 0. -1.
          5    1    4    4  503    0  0.19625837381E+02  0.17438123858E+02  0.70876498582E+02  0.75728658431E+02  0.47000000000E+01 0. -1.
         -5    1    4    4    0  503 -0.24694921686E+02 -0.14922895674E+03  0.72584330542E+03  0.74145108720E+03  0.47000000000E+01 0. -1.
<mgrwt>
<rscale>  0 0.18171408E+03</rscale>
<asrwt>0</asrwt>
<pdfrwt beam="1">  1        5 0.18903182E+00 0.18171486E+03</pdfrwt>
<pdfrwt beam="2">  1       -5 0.45849762E-02 0.18171486E+03</pdfrwt>
<totfact> 0.33921102E+01</totfact>
</mgrwt>
</event>
<event>
 8    1  0.3674342E-007  0.1850835E+03  0.7546771E-02  0.1162972E+00
          5   -1    0    0  501    0  0.00000000000E+00  0.00000000000E+00  0.76148717047E+02  0.76293624293E+02  0.47000000000E+01 0.  1.
         -5   -1    0    0    0  501 -0.00000000000E+00 -0.00000000000E+00 -0.49104860397E+03  0.49107109613E+03  0.47000000000E+01 0.  1.
         25    2    1    2    0    0  0.21204627055E+01 -0.13647765785E+03 -0.29018507976E+03  0.34418391930E+03  0.12499816933E+03 0.  0.
         25    2    1    2    0    0 -0.21204627055E+01  0.13647765785E+03 -0.12471480716E+03  0.22318080112E+03  0.12500095764E+03 0.  0.
          5    1    4    4  502    0 -0.88628501019E+01  0.95817996367E+02 -0.49872630926E+01  0.96470727855E+02  0.47000000000E+01 0.  1.
         -5    1    4    4    0  502  0.67423873964E+01  0.40659661486E+02 -0.11972754406E+03  0.12671007327E+03  0.47000000000E+01 0.  1.
          5    1    3    3  503    0  0.55519357260E+02 -0.25856083540E+02 -0.11148384861E+03  0.12728579885E+03  0.47000000000E+01 0. -1.
         -5    1    3    3    0  503 -0.53398894554E+02 -0.11062157431E+03 -0.17870123115E+03  0.21689812046E+03  0.47000000000E+01 0. -1.
<mgrwt>
<rscale>  0 0.18508299E+03</rscale>
<asrwt>0</asrwt>
<pdfrwt beam="1">  1        5 0.11728064E-01 0.18508346E+03</pdfrwt>
<pdfrwt beam="2">  1       -5 0.75558814E-01 0.18508346E+03</pdfrwt>
<totfact> 0.73683200E+01</totfact>
</mgrwt>
</event>
<event>
 8    1  0.3674342E-007  0.1253469E+03  0.7546771E-02  0.1234529E+00
         -5   -1    0    0    0  501 -0.00000000000E+00  0.00000000000E+00  0.10698667643E+03  0.10708986382E+03  0.47000000000E+01 0.  1.
          5   -1    0    0  501    0  0.00000000000E+00 -0.00000000000E+00 -0.16382333800E+03  0.16389074432E+03  0.47000000000E+01 0.  1.
         25    2    1    2    0    0  0.21685024748E+01 -0.90561379596E+01  0.15434115962E+02  0.12629353938E+03  0.12500052046E+03 0.  0.
         25    2    1    2    0    0 -0.21685024748E+01  0.90561379596E+01 -0.72270777535E+02  0.14468706877E+03  0.12499826617E+03 0.  0.
          5    1    4    4  502    0  0.39965809543E+02 -0.30777853455E+02 -0.70077409212E+02  0.86472397200E+02  0.47000000000E+01 0. -1.
         -5    1    4    4    0  502 -0.42134312018E+02  0.39833991415E+02 -0.21933683230E+01  0.58214671569E+02  0.47000000000E+01 0. -1.
          5    1    3    3  503    0  0.28820091525E+02 -0.41655751009E+02 -0.33999736012E+02  0.61187182616E+02  0.47000000000E+01 0. -1.
         -5    1    3    3    0  503 -0.26651589050E+02  0.32599613049E+02  0.49433851973E+02  0.65106356761E+02  0.47000000000E+01 0. -1.
<mgrwt>
<rscale>  0 0.12534634E+03</rscale>
<asrwt>0</asrwt>
<pdfrwt beam="2">  1        5 0.25216713E-01 0.12534690E+03</pdfrwt>
<pdfrwt beam="1">  1       -5 0.16472611E-01 0.12534690E+03</pdfrwt>
<totfact> 0.34838214E+02</totfact>
</mgrwt>
</event>
<event>
 8    1  0.3674342E-007  0.1287443E+03  0.7546771E-02  0.1229333E+00
         -5   -1    0    0    0  501 -0.00000000000E+00  0.00000000000E+00  0.49062719553E+02  0.49287325449E+02  0.47000000000E+01 0. -1.
          5   -1    0    0  501    0  0.00000000000E+00 -0.00000000000E+00 -0.35920579367E+03  0.35923654074E+03  0.47000000000E+01 0. -1.
         25    2    1    2    0    0 -0.13875790020E+01 -0.30782390899E+02 -0.10408519244E+03  0.16555606264E+03  0.12500240648E+03 0.  0.
         25    2    1    2    0    0  0.13875790020E+01  0.30782390899E+02 -0.20605788167E+03  0.24296780355E+03  0.12499608793E+03 0.  0.
          5    1    3    3  502    0  0.38133461417E+02 -0.96363492525E+01  0.11704197853E+02  0.41304943456E+02  0.47000000000E+01 0.  1.
         -5    1    3    3    0  502 -0.39521040419E+02 -0.21146041646E+02 -0.11578939029E+03  0.12425111918E+03  0.47000000000E+01 0.  1.
          5    1    4    4  503    0  0.18883402594E+02 -0.44904931521E+02 -0.10091277011E+03  0.11215396979E+03  0.47000000000E+01 0. -1.
         -5    1    4    4    0  503 -0.17495823592E+02  0.75687322419E+02 -0.10514511157E+03  0.13081383376E+03  0.47000000000E+01 0. -1.
<mgrwt>
<rscale>  0 0.12874272E+03</rscale>
<asrwt>0</asrwt>
<pdfrwt beam="2">  1        5 0.55282071E-01 0.12874425E+03</pdfrwt>
<pdfrwt beam="1">  1       -5 0.75677535E-02 0.12874425E+03</pdfrwt>
<totfact> 0.28229935E+02</totfact>
</mgrwt>
</event>
<event>
 8    1  0.3674342E-007  0.1787004E+03  0.7546771E-02  0.1169067E+00
         -5   -1    0    0    0  501 -0.00000000000E+00  0.00000000000E+00  0.96617173895E+02  0.96731423496E+02  0.47000000000E+01 0.  1.
          5   -1    0    0  501    0  0.00000000000E+00 -0.00000000000E+00 -0.34415546623E+03  0.34418755779E+03  0.47000000000E+01 0.  1.
         25    2    1    2    0    0  0.87415603851E+02  0.93101443627E+02 -0.79365939118E+02  0.19553204196E+03  0.12499784214E+03 0.  0.
         25    2    1    2    0    0 -0.87415603851E+02 -0.93101443627E+02 -0.16817235322E+03  0.24538693932E+03  0.12499377184E+03 0.  0.
          5    1    3    3  502    0  0.71117111034E+02  0.23405375682E+02 -0.96063056179E+02  0.12188378012E+03  0.47000000000E+01 0.  1.
         -5    1    3    3    0  502  0.16298492817E+02  0.69696067945E+02  0.16697117061E+02  0.73648261848E+02  0.47000000000E+01 0.  1.
          5    1    4    4  503    0 -0.35513052155E+02 -0.91255188674E+02 -0.37971620926E+02  0.10513144310E+03  0.47000000000E+01 0. -1.
         -5    1    4    4    0  503 -0.51902551696E+02 -0.18462549538E+01 -0.13020073229E+03  0.14025549622E+03  0.47000000000E+01 0. -1.
<mgrwt>
<rscale>  0 0.17869967E+03</rscale>
<asrwt>0</asrwt>
<pdfrwt beam="2">  1        5 0.52958251E-01 0.17870038E+03</pdfrwt>
<pdfrwt beam="1">  1       -5 0.14875438E-01 0.17870038E+03</pdfrwt>
<totfact> 0.10485770E+02</totfact>
</mgrwt>
</event>
<event>
 8    1  0.3674342E-007  0.2241007E+03  0.7546771E-02  0.1130864E+00
          5   -1    0    0  501    0  0.00000000000E+00  0.00000000000E+00  0.30868576241E+03  0.30872154106E+03  0.47000000000E+01 0. -1.
         -5   -1    0    0    0  501 -0.00000000000E+00 -0.00000000000E+00 -0.17408160177E+03  0.17414503747E+03  0.47000000000E+01 0. -1.
         25    2    1    2    0    0 -0.10873434730E+03  0.15090473518E+03  0.53390845981E+01  0.22416426122E+03  0.12500285118E+03 0.  0.
         25    2    1    2    0    0  0.10873434730E+03 -0.15090473518E+03  0.12926507604E+03  0.25870231731E+03  0.12498812631E+03 0.  0.
          5    1    3    3  502    0 -0.75316259617E+02  0.15163267503E+03  0.41823598151E+02  0.17446005406E+03  0.47000000000E+01 0. -1.
         -5    1    3    3    0  502 -0.33418087682E+02 -0.72793984885E+00 -0.36484513553E+02  0.49704207165E+02  0.47000000000E+01 0. -1.
          5    1    4    4  503    0  0.58387101589E+02 -0.13571344261E+03  0.36963559027E+02  0.15236661981E+03  0.47000000000E+01 0.  1.
         -5    1    4    4    0  503  0.50347245710E+02 -0.15191292571E+02  0.92301517013E+02  0.10633569750E+03  0.47000000000E+01 0.  1.
<mgrwt>
<rscale>  0 0.22409862E+03</rscale>
<asrwt>0</asrwt>
<pdfrwt beam="1">  1        5 0.47497749E-01 0.22410067E+03</pdfrwt>
<pdfrwt beam="2">  1       -5 0.26789417E-01 0.22410067E+03</pdfrwt>
<totfact> 0.46529603E+01</totfact>
</mgrwt>
</event>
<event>
 8    1  0.3674342E-007  0.1975636E+03  0.7546771E-02  0.1151811E+00
         -5   -1    0    0    0  501 -0.00000000000E+00  0.00000000000E+00  0.59628678369E+03  0.59630530637E+03  0.47000000000E+01 0.  1.
          5   -1    0    0  501    0  0.00000000000E+00 -0.00000000000E+00 -0.78973450310E+02  0.79113183818E+02  0.47000000000E+01 0.  1.
         25    2    1    2    0    0  0.72385700750E+02  0.13478208702E+03  0.39875253991E+03  0.44501121480E+03  0.12500197022E+03 0.  0.
         25    2    1    2    0    0 -0.72385700750E+02 -0.13478208702E+03  0.11856079347E+03  0.23040727538E+03  0.12499980059E+03 0.  0.
          5    1    3    3  502    0  0.81295973109E+02  0.59451389465E+02  0.12334644874E+03  0.15931082628E+03  0.47000000000E+01 0.  1.
         -5    1    3    3    0  502 -0.89102723591E+01  0.75330697556E+02  0.27540609117E+03  0.28570038852E+03  0.47000000000E+01 0.  1.
          5    1    4    4  503    0  0.16456138798E+02 -0.32349695169E+02  0.82148918465E+02  0.89932430672E+02  0.47000000000E+01 0.  1.
         -5    1    4    4    0  503 -0.88841839548E+02 -0.10243239185E+03  0.36411875000E+02  0.14047484471E+03  0.47000000000E+01 0.  1.
<mgrwt>
<rscale>  0 0.19756330E+03</rscale>
<asrwt>0</asrwt>
<pdfrwt beam="2">  1        5 0.12161935E-01 0.19756364E+03</pdfrwt>
<pdfrwt beam="1">  1       -5 0.91748600E-01 0.19756364E+03</pdfrwt>
<totfact> 0.44545326E+01</totfact>
</mgrwt>
</event>
<event>
 8    1  0.3674342E-007  0.1287986E+03  0.7546771E-02  0.1229250E+00
          5   -1    0    0  501    0  0.00000000000E+00  0.00000000000E+00  0.43754278169E+02  0.44005986616E+02  0.47000000000E+01 0. -1.
         -5   -1    0    0    0  501 -0.00000000000E+00 -0.00000000000E+00 -0.37786205315E+03  0.37789128226E+03  0.47000000000E+01 0. -1.
         25    2    1    2    0    0 -0.10497714780E+02 -0.29232620897E+02 -0.17004116422E+03  0.21331412565E+03  0.12499668209E+03 0.  0.
         25    2    1    2    0    0  0.10497714780E+02  0.29232620897E+02 -0.16406661076E+03  0.20858314323E+03  0.12499730690E+03 0.  0.
          5    1    3    3  502    0  0.12064515507E+02 -0.71596473791E+02 -0.64318158783E+02  0.97110880662E+02  0.47000000000E+01 0. -1.
         -5    1    3    3    0  502 -0.22562230287E+02  0.42363852894E+02 -0.10572300543E+03  0.11620324499E+03  0.47000000000E+01 0. -1.
          5    1    4    4  503    0  0.11343289415E+02 -0.45119822259E+02 -0.99712708071E+02  0.11013256887E+03  0.47000000000E+01 0. -1.
         -5    1    4    4    0  503 -0.84557463505E+00  0.74352443156E+02 -0.64353902693E+02  0.98450574358E+02  0.47000000000E+01 0. -1.
<mgrwt>
<rscale>  0 0.12879843E+03</rscale>
<asrwt>0</asrwt>
<pdfrwt beam="1">  1        5 0.67530382E-02 0.12879858E+03</pdfrwt>
<pdfrwt beam="2">  1       -5 0.58154232E-01 0.12879858E+03</pdfrwt>
<totfact> 0.30706361E+02</totfact>
</mgrwt>
</event>
<event>
 8    1  0.3674342E-007  0.1300851E+03  0.7546771E-02  0.1227331E+00
         -5   -1    0    0    0  501 -0.00000000000E+00  0.00000000000E+00  0.43156079096E+02  0.43411256178E+02  0.47000000000E+01 0. -1.
          5   -1    0    0  501    0  0.00000000000E+00 -0.00000000000E+00 -0.39390265258E+03  0.39393069151E+03  0.47000000000E+01 0. -1.
         25    2    1    2    0    0  0.32453554357E+02 -0.15587752393E+02 -0.15558753770E+03  0.20280159893E+03  0.12499918171E+03 0.  0.
         25    2    1    2    0    0 -0.32453554357E+02  0.15587752393E+02 -0.19515903579E+03  0.23454034875E+03  0.12500365886E+03 0.  0.
          5    1    3    3  502    0  0.10450586107E+02 -0.47279757042E+01 -0.17229911800E+03  0.17274444874E+03  0.47000000000E+01 0. -1.
         -5    1    3    3    0  502  0.22002968250E+02 -0.10859776689E+02  0.16711580308E+02  0.30057150196E+02  0.47000000000E+01 0. -1.
          5    1    4    4  503    0 -0.19722277179E+02 -0.41834864523E+02 -0.21668875072E+02  0.51290878854E+02  0.47000000000E+01 0. -1.
         -5    1    4    4    0  503 -0.12731277178E+02  0.57422616916E+02 -0.17349016072E+03  0.18324946990E+03  0.47000000000E+01 0. -1.
<mgrwt>
<rscale>  0 0.13008400E+03</rscale>
<asrwt>0</asrwt>
<pdfrwt beam="2">  1        5 0.60622192E-01 0.13008507E+03</pdfrwt>
<pdfrwt beam="1">  1       -5 0.66611829E-02 0.13008507E+03</pdfrwt>
<totfact> 0.28805427E+02</totfact>
</mgrwt>
</event>
<event>
 8    1  0.3674342E-007  0.1397326E+03  0.7546771E-02  0.1213694E+00
         -5   -1    0    0    0  501 -0.00000000000E+00  0.00000000000E+00  0.79432988483E+02  0.79571915016E+02  0.47000000000E+01 0.  1.
          5   -1    0    0  501    0  0.00000000000E+00 -0.00000000000E+00 -0.24540471429E+03  0.24544971745E+03  0.47000000000E+01 0.  1.
         25    2    1    2    0    0 -0.58083126914E+02  0.22898092896E+02 -0.83302125082E+02  0.16266565661E+03  0.12499159774E+03 0.  0.
         25    2    1    2    0    0  0.58083126914E+02 -0.22898092896E+02 -0.82669600727E+02  0.16235597586E+03  0.12500891058E+03 0.  0.
          5    1    4    4  502    0  0.60212257338E+02 -0.67597428896E+02 -0.36019975517E+02  0.97542077912E+02  0.47000000000E+01 0.  1.
         -5    1    4    4    0  502 -0.21291304240E+01  0.44699336000E+02 -0.46649625210E+02  0.64813897950E+02  0.47000000000E+01 0.  1.
          5    1    3    3  503    0  0.11361211308E+02 -0.29950445068E+01  0.26927940201E+02  0.29753174242E+02  0.47000000000E+01 0. -1.
         -5    1    3    3    0  503 -0.69444338223E+02  0.25893137403E+02 -0.11023006528E+03  0.13291248236E+03  0.47000000000E+01 0. -1.
<mgrwt>
<rscale>  0 0.13972873E+03</rscale>
<asrwt>0</asrwt>
<pdfrwt beam="2">  1        5 0.37768719E-01 0.13973260E+03</pdfrwt>
<pdfrwt beam="1">  1       -5 0.12234608E-01 0.13973260E+03</pdfrwt>
<totfact> 0.27910458E+02</totfact>
</mgrwt>
</event>
<event>
 8    1  0.3674342E-007  0.1506136E+03  0.7546771E-02  0.1199722E+00
          5   -1    0    0  501    0  0.00000000000E+00  0.00000000000E+00  0.72503176794E+02  0.72655355241E+02  0.47000000000E+01 0.  1.
         -5   -1    0    0    0  501 -0.00000000000E+00 -0.00000000000E+00 -0.31431104745E+03  0.31434618583E+03  0.47000000000E+01 0.  1.
         25    2    1    2    0    0 -0.75208382693E+02 -0.37456749668E+02 -0.10571074960E+03  0.18400679069E+03  0.12499771005E+03 0.  0.
         25    2    1    2    0    0  0.75208382693E+02  0.37456749668E+02 -0.13609712105E+03  0.20299475038E+03  0.12500053360E+03 0.  0.
          5    1    4    4  502    0  0.77075645819E+02  0.75637455663E+02 -0.11927590231E+03  0.16096742139E+03  0.47000000000E+01 0. -1.
         -5    1    4    4    0  502 -0.18672631256E+01 -0.38180705994E+02 -0.16821218738E+02  0.42027328986E+02  0.47000000000E+01 0. -1.
          5    1    3    3  503    0 -0.95659233493E+02 -0.62569920467E+02 -0.64327081000E+02  0.13124689425E+03  0.47000000000E+01 0. -1.
         -5    1    3    3    0  503  0.20450850800E+02  0.25113170799E+02 -0.41383668602E+02  0.52759896445E+02  0.47000000000E+01 0. -1.
<mgrwt>
<rscale>  0 0.15061297E+03</rscale>
<asrwt>0</asrwt>
<pdfrwt beam="1">  1        5 0.11168744E-01 0.15061355E+03</pdfrwt>
<pdfrwt beam="2">  1       -5 0.48369954E-01 0.15061355E+03</pdfrwt>
<totfact> 0.20157610E+02</totfact>
</mgrwt>
</event>
<event>
 8    1  0.3674342E-007  0.1324795E+03  0.7546771E-02  0.1223825E+00
          5   -1    0    0  501    0  0.00000000000E+00  0.00000000000E+00  0.39574876402E+02  0.39852990381E+02  0.47000000000E+01 0.  1.
         -5   -1    0    0    0  501 -0.00000000000E+00 -0.00000000000E+00 -0.44971325661E+03  0.44973781603E+03  0.47000000000E+01 0.  1.
         25    2    1    2    0    0  0.23852619571E+01 -0.43810872535E+02 -0.17223954721E+03  0.21729539935E+03  0.12500298768E+03 0.  0.
         25    2    1    2    0    0 -0.23852619571E+01  0.43810872535E+02 -0.23789883299E+03  0.27229540706E+03  0.12499540767E+03 0.  0.
          5    1    4    4  502    0 -0.39799574473E+02  0.23381436264E+02 -0.20531861466E+02  0.50738003757E+02  0.47000000000E+01 0.  1.
         -5    1    4    4    0  502  0.37414312516E+02  0.20429436271E+02 -0.21736697152E+03  0.22155740330E+03  0.47000000000E+01 0.  1.
          5    1    3    3  503    0  0.49075965413E+02  0.18253431571E+02 -0.88891319274E+02  0.10327339826E+03  0.47000000000E+01 0. -1.
         -5    1    3    3    0  503 -0.46690703455E+02 -0.62064304106E+02 -0.83348227940E+02  0.11402200110E+03  0.47000000000E+01 0. -1.
<mgrwt>
<rscale>  0 0.13247775E+03</rscale>
<asrwt>0</asrwt>
<pdfrwt beam="1">  1        5 0.61117254E-02 0.13247954E+03</pdfrwt>
<pdfrwt beam="2">  1       -5 0.69209934E-01 0.13247954E+03</pdfrwt>
<totfact> 0.24989887E+02</totfact>
</mgrwt>
</event>
<event>
 8    1  0.3674342E-007  0.1352229E+03  0.7546771E-02  0.1219906E+00
         -5   -1    0    0    0  501 -0.00000000000E+00  0.00000000000E+00  0.11597607735E+04  0.11597702970E+04  0.47000000000E+01 0. -1.
          5   -1    0    0  501    0  0.00000000000E+00 -0.00000000000E+00 -0.19313655366E+02  0.19877305743E+02  0.47000000000E+01 0. -1.
         25    2    1    2    0    0 -0.49303972465E+02  0.15115201861E+02  0.83122006185E+03  0.84214706444E+03  0.12500214353E+03 0.  0.
         25    2    1    2    0    0  0.49303972465E+02 -0.15115201861E+02  0.30922705626E+03  0.33750053826E+03  0.12500355985E+03 0.  0.
          5    1    4    4  502    0  0.17227061260E+02 -0.60992073715E+02  0.24040107454E+03  0.24865954905E+03  0.47000000000E+01 0. -1.
         -5    1    4    4    0  502  0.32076911204E+02  0.45876871854E+02  0.68825981726E+02  0.88840989211E+02  0.47000000000E+01 0. -1.
          5    1    3    3  503    0 -0.46742133240E+02  0.60270882088E+02  0.32385872714E+03  0.33275211704E+03  0.47000000000E+01 0. -1.
         -5    1    3    3    0  503 -0.25618392241E+01 -0.45155680227E+02  0.50736133471E+03  0.50939494740E+03  0.47000000000E+01 0. -1.
<mgrwt>
<rscale>  0 0.13522260E+03</rscale>
<asrwt>0</asrwt>
<pdfrwt beam="2">  1        5 0.30154222E-02 0.13522293E+03</pdfrwt>
<pdfrwt beam="1">  1       -5 0.17846881E+00 0.13522293E+03</pdfrwt>
<totfact> 0.73788169E+01</totfact>
</mgrwt>
</event>
<event>
 8    1  0.3674342E-007  0.1419733E+03  0.7546771E-02  0.1210698E+00
         -5   -1    0    0    0  501 -0.00000000000E+00  0.00000000000E+00  0.86246196765E+03  0.86247477391E+03  0.47000000000E+01 0.  1.
          5   -1    0    0  501    0  0.00000000000E+00 -0.00000000000E+00 -0.27668285741E+02  0.28064640312E+02  0.47000000000E+01 0.  1.
         25    2    1    2    0    0 -0.65639047210E+02 -0.14911616770E+02  0.59646127999E+03  0.61312499122E+03  0.12500142200E+03 0.  0.
         25    2    1    2    0    0  0.65639047210E+02  0.14911616770E+02  0.23833240192E+03  0.27741442301E+03  0.12500234979E+03 0.  0.
          5    1    3    3  502    0  0.22631485997E+01 -0.22045864237E+02  0.45910351263E+03  0.45966212295E+03  0.47000000000E+01 0. -1.
         -5    1    3    3    0  502 -0.67902195810E+02  0.71342474675E+01  0.13735776736E+03  0.15346286827E+03  0.47000000000E+01 0. -1.
          5    1    4    4  503    0  0.75680704072E+02  0.59266867244E+02  0.16331872438E+03  0.18956588895E+03  0.47000000000E+01 0. -1.
         -5    1    4    4    0  503 -0.10041656862E+02 -0.44355250474E+02  0.75013677545E+02  0.87848534057E+02  0.47000000000E+01 0. -1.
<mgrwt>
<rscale>  0 0.14197313E+03</rscale>
<asrwt>0</asrwt>
<pdfrwt beam="2">  1        5 0.42881337E-02 0.14197334E+03</pdfrwt>
<pdfrwt beam="1">  1       -5 0.13271792E+00 0.14197334E+03</pdfrwt>
<totfact> 0.95608665E+01</totfact>
</mgrwt>
</event>
<event>
 8    1  0.3674342E-007  0.1478921E+03  0.7546771E-02  0.1203088E+00
          5   -1    0    0  501    0  0.00000000000E+00  0.00000000000E+00  0.52821212204E+02  0.53029901552E+02  0.47000000000E+01 0. -1.
         -5   -1    0    0    0  501 -0.00000000000E+00 -0.00000000000E+00 -0.42840878279E+03  0.42843456346E+03  0.47000000000E+01 0. -1.
         25    2    1    2    0    0 -0.47317486562E+02  0.63304272040E+02 -0.23339295547E+03  0.27630481800E+03  0.12500282155E+03 0.  0.
         25    2    1    2    0    0  0.47317486562E+02 -0.63304272040E+02 -0.14219461511E+03  0.20515964701E+03  0.12499918721E+03 0.  0.
          5    1    4    4  502    0 -0.34152408059E+02 -0.18852393941E+02 -0.52195455807E+01  0.39637525019E+02  0.47000000000E+01 0. -1.
         -5    1    4    4    0  502  0.81469894621E+02 -0.44451878098E+02 -0.13697506953E+03  0.16552212199E+03  0.47000000000E+01 0. -1.
          5    1    3    3  503    0 -0.35377164427E+02  0.91327644406E+02 -0.10256052585E+03  0.14189092239E+03  0.47000000000E+01 0.  1.
         -5    1    3    3    0  503 -0.11940322134E+02 -0.28023372367E+02 -0.13083242962E+03  0.13441389561E+03  0.47000000000E+01 0.  1.
<mgrwt>
<rscale>  0 0.14789136E+03</rscale>
<asrwt>0</asrwt>
<pdfrwt beam="1">  1        5 0.81443767E-02 0.14789213E+03</pdfrwt>
<pdfrwt beam="2">  1       -5 0.65927078E-01 0.14789213E+03</pdfrwt>
<totfact> 0.17739400E+02</totfact>
</mgrwt>
</event>
<event>
 8    1  0.3674342E-007  0.1388237E+03  0.7546771E-02  0.1214925E+00
          5   -1    0    0  501    0  0.00000000000E+00  0.00000000000E+00  0.55960557017E+01  0.73079298996E+01  0.47000000000E+01 0. -1.
         -5   -1    0    0    0  501 -0.00000000000E+00 -0.00000000000E+00 -0.30229864273E+04  0.30229900810E+04  0.47000000000E+01 0. -1.
         25    2    1    2    0    0 -0.45753428908E+02 -0.39395072344E+02 -0.13389777642E+04  0.13461550668E+04  0.12500665175E+03 0.  0.
         25    2    1    2    0    0  0.45753428908E+02  0.39395072344E+02 -0.16784126074E+04  0.16841429440E+04  0.12499290883E+03 0.  0.
          5    1    4    4  502    0  0.65224500325E+01 -0.86593622559E+01 -0.12995160956E+02  0.17563915206E+02  0.47000000000E+01 0. -1.
         -5    1    4    4    0  502  0.39230978876E+02  0.48054434600E+02 -0.16654174465E+04  0.16665790288E+04  0.47000000000E+01 0. -1.
          5    1    3    3  503    0  0.33247256230E+02 -0.24200695132E+02 -0.81171418618E+03  0.81276876401E+03  0.47000000000E+01 0. -1.
         -5    1    3    3    0  503 -0.79000685138E+02 -0.15194377212E+02 -0.52726357800E+03  0.53338630282E+03  0.47000000000E+01 0. -1.
<mgrwt>
<rscale>  0 0.13882057E+03</rscale>
<asrwt>0</asrwt>
<pdfrwt beam="1">  1        5 0.99289774E-03 0.13882367E+03</pdfrwt>
<pdfrwt beam="2">  1       -5 0.46520567E+00 0.13882367E+03</pdfrwt>
<totfact> 0.50582876E+00</totfact>
</mgrwt>
</event>
<event>
 8    1  0.3674342E-007  0.1464822E+03  0.7546771E-02  0.1204865E+00
          5   -1    0    0  501    0  0.00000000000E+00  0.00000000000E+00  0.71695526167E+02  0.71849415255E+02  0.47000000000E+01 0. -1.
         -5   -1    0    0    0  501 -0.00000000000E+00 -0.00000000000E+00 -0.30109465811E+03  0.30113133869E+03  0.47000000000E+01 0. -1.
         25    2    1    2    0    0 -0.35520050385E+02 -0.67531332804E+02 -0.13105138607E+03  0.19654899735E+03  0.12503954446E+03 0.  0.
         25    2    1    2    0    0  0.35520050385E+02  0.67531332804E+02 -0.98347745865E+02  0.17643175659E+03  0.12503491803E+03 0.  0.
          5    1    3    3  502    0  0.18897317603E+02  0.11779679282E+02  0.10725801070E+02  0.25159536267E+02  0.47000000000E+01 0.  1.
         -5    1    3    3    0  502 -0.54417367988E+02 -0.79311012087E+02 -0.14177718714E+03  0.17138946109E+03  0.47000000000E+01 0.  1.
          5    1    4    4  503    0  0.44925111102E+02  0.22566193856E+02  0.16117016124E+02  0.53003272743E+02  0.47000000000E+01 0.  1.
         -5    1    4    4    0  503 -0.94050607170E+01  0.44965138948E+02 -0.11446476199E+03  0.12342848385E+03  0.47000000000E+01 0.  1.
<mgrwt>
<rscale>  0 0.14648124E+03</rscale>
<asrwt>0</asrwt>
<pdfrwt beam="1">  1        5 0.11044740E-01 0.14648223E+03</pdfrwt>
<pdfrwt beam="2">  1       -5 0.46336913E-01 0.14648223E+03</pdfrwt>
<totfact> 0.22295769E+02</totfact>
</mgrwt>
</event>
<event>
 8    1  0.3674342E-007  0.1408532E+03  0.7546771E-02  0.1212189E+00
         -5   -1    0    0    0  501 -0.00000000000E+00  0.00000000000E+00  0.72956450297E+03  0.72957964198E+03  0.47000000000E+01 0.  1.
          5   -1    0    0  501    0  0.00000000000E+00 -0.00000000000E+00 -0.27557870453E+02  0.27955790526E+02  0.47000000000E+01 0.  1.
         25    2    1    2    0    0 -0.34370166941E+02 -0.55057613965E+02  0.40576520936E+03  0.42951719460E+03  0.12500786415E+03 0.  0.
         25    2    1    2    0    0  0.34370166941E+02  0.55057613965E+02  0.29624142315E+03  0.32801823791E+03  0.12499733747E+03 0.  0.
          5    1    3    3  502    0 -0.51368282269E+02 -0.76547712514E+02  0.38184242545E+03  0.39284091002E+03  0.47000000000E+01 0.  1.
         -5    1    3    3    0  502  0.16998115328E+02  0.21490098549E+02  0.23922783910E+02  0.36676284577E+02  0.47000000000E+01 0.  1.
          5    1    4    4  503    0  0.18563451150E+02 -0.11193495708E+02  0.23578325484E+03  0.23682425832E+03  0.47000000000E+01 0.  1.
         -5    1    4    4    0  503  0.15806715791E+02  0.66251109673E+02  0.60458168311E+02  0.91193979585E+02  0.47000000000E+01 0.  1.
<mgrwt>
<rscale>  0 0.14085083E+03</rscale>
<asrwt>0</asrwt>
<pdfrwt beam="2">  1        5 0.42714459E-02 0.14085317E+03</pdfrwt>
<pdfrwt beam="1">  1       -5 0.11227247E+00 0.14085317E+03</pdfrwt>
<totfact> 0.14728114E+02</totfact>
</mgrwt>
</event>
<event>
 8    1  0.3674342E-007  0.1392078E+03  0.7546771E-02  0.1214402E+00
          5   -1    0    0  501    0  0.00000000000E+00  0.00000000000E+00  0.47745015918E+02  0.47975791239E+02  0.47000000000E+01 0. -1.
         -5   -1    0    0    0  501 -0.00000000000E+00 -0.00000000000E+00 -0.42609680076E+03  0.42612272131E+03  0.47000000000E+01 0. -1.
         25    2    1    2    0    0 -0.60187025202E+02  0.11353980903E+02 -0.24236951803E+03  0.27950275065E+03  0.12500965348E+03 0.  0.
         25    2    1    2    0    0  0.60187025202E+02 -0.11353980903E+02 -0.13598226681E+03  0.19459576190E+03  0.12499977112E+03 0.  0.
          5    1    3    3  502    0 -0.78012222332E+02  0.28778437017E+02 -0.81088531223E+02  0.11623917225E+03  0.47000000000E+01 0.  1.
         -5    1    3    3    0  502  0.17825197130E+02 -0.17424456114E+02 -0.16128098681E+03  0.16326357839E+03  0.47000000000E+01 0.  1.
          5    1    4    4  503    0  0.71120906846E+02 -0.38919154403E+02 -0.33572534264E+02  0.87875417649E+02  0.47000000000E+01 0. -1.
         -5    1    4    4    0  503 -0.10933881645E+02  0.27565173499E+02 -0.10240973254E+03  0.10672034425E+03  0.47000000000E+01 0. -1.
<mgrwt>
<rscale>  0 0.13920556E+03</rscale>
<asrwt>0</asrwt>
<pdfrwt beam="1">  1        5 0.73651332E-02 0.13920777E+03</pdfrwt>
<pdfrwt beam="2">  1       -5 0.65573097E-01 0.13920777E+03</pdfrwt>
<totfact> 0.20905008E+02</totfact>
</mgrwt>
</event>
<event>
 8    1  0.3674342E-007  0.1602153E+03  0.7546771E-02  0.1188461E+00
          5   -1    0    0  501    0  0.00000000000E+00  0.00000000000E+00  0.11823212142E+03  0.11832550248E+03  0.47000000000E+01 0.  1.
         -5   -1    0    0    0  501 -0.00000000000E+00 -0.00000000000E+00 -0.23721816830E+03  0.23726472424E+03  0.47000000000E+01 0.  1.
         25    2    1    2    0    0  0.44773732757E+02  0.89627908154E+02 -0.11154694951E+03  0.19520233904E+03  0.12499352847E+03 0.  0.
         25    2    1    2    0    0 -0.44773732757E+02 -0.89627908154E+02 -0.74390973655E+01  0.16038788768E+03  0.12502433875E+03 0.  0.
          5    1    4    4  502    0 -0.85413856929E+02 -0.52996431906E+02 -0.23175340930E+02  0.10326342614E+03  0.47000000000E+01 0.  1.
         -5    1    4    4    0  502  0.40640124172E+02 -0.36631476247E+02  0.15736243565E+02  0.57124461540E+02  0.47000000000E+01 0.  1.
          5    1    3    3  503    0  0.90176268531E+01  0.94417424307E+02 -0.20492902749E+02  0.97149455325E+02  0.47000000000E+01 0. -1.
         -5    1    3    3    0  503  0.35756105904E+02 -0.47895161533E+01 -0.91054046759E+02  0.98052883719E+02  0.47000000000E+01 0. -1.
<mgrwt>
<rscale>  0 0.16020926E+03</rscale>
<asrwt>0</asrwt>
<pdfrwt beam="1">  1        5 0.18200322E-01 0.16021528E+03</pdfrwt>
<pdfrwt beam="2">  1       -5 0.36505867E-01 0.16021528E+03</pdfrwt>
<totfact> 0.15227366E+02</totfact>
</mgrwt>
</event>
<event>
 8    1  0.3674342E-007  0.1424258E+03  0.7546771E-02  0.1210103E+00
          5   -1    0    0  501    0  0.00000000000E+00  0.00000000000E+00  0.16822390850E+03  0.16828955224E+03  0.47000000000E+01 0. -1.
         -5   -1    0    0    0  501 -0.00000000000E+00 -0.00000000000E+00 -0.19160126814E+03  0.19165890523E+03  0.47000000000E+01 0. -1.
         25    2    1    2    0    0  0.22383031261E+01  0.68229540169E+02 -0.12132534079E+03  0.18709609657E+03  0.12499932353E+03 0.  0.
         25    2    1    2    0    0 -0.22383031261E+01 -0.68229540169E+02  0.97947981159E+02  0.17285236089E+03  0.12499540591E+03 0.  0.
          5    1    3    3  502    0 -0.59674703404E+02  0.36865641267E+02 -0.43308484411E+02  0.82570337012E+02  0.47000000000E+01 0. -1.
         -5    1    3    3    0  502  0.61913006530E+02  0.31363898902E+02 -0.78016856382E+02  0.10452575956E+03  0.47000000000E+01 0. -1.
          5    1    4    4  503    0  0.54251253705E+02 -0.59767074640E+02  0.77507182199E+02  0.11200337063E+03  0.47000000000E+01 0.  1.
         -5    1    4    4    0  503 -0.56489556831E+02 -0.84624655284E+01  0.20440798960E+02  0.60848990262E+02  0.47000000000E+01 0.  1.
<mgrwt>
<rscale>  0 0.14242495E+03</rscale>
<asrwt>0</asrwt>
<pdfrwt beam="1">  1        5 0.25890084E-01 0.14242581E+03</pdfrwt>
<pdfrwt beam="2">  1       -5 0.29486602E-01 0.14242581E+03</pdfrwt>
<totfact> 0.11530380E+02</totfact>
</mgrwt>
</event>
<event>
 8    1  0.3674342E-007  0.1389451E+03  0.7546771E-02  0.1214766E+00
         -5   -1    0    0    0  501 -0.00000000000E+00  0.00000000000E+00  0.35739098552E+02  0.36046819073E+02  0.47000000000E+01 0.  1.
          5   -1    0    0  501    0  0.00000000000E+00 -0.00000000000E+00 -0.55393632430E+03  0.55395626306E+03  0.47000000000E+01 0.  1.
         25    2    1    2    0    0 -0.38231834902E+02 -0.46969005933E+02 -0.20822798427E+03  0.25032907945E+03  0.12505196468E+03 0.  0.
         25    2    1    2    0    0  0.38231834902E+02  0.46969005933E+02 -0.30996924148E+03  0.33967400268E+03  0.12501894541E+03 0.  0.
          5    1    3    3  502    0  0.24580833648E+02 -0.60026678333E+02 -0.58930196363E+02  0.87762620391E+02  0.47000000000E+01 0. -1.
         -5    1    3    3    0  502 -0.62812668550E+02  0.13057672400E+02 -0.14929778790E+03  0.16256645906E+03  0.47000000000E+01 0. -1.
          5    1    4    4  503    0  0.30049220019E+02  0.58327799252E+02 -0.59282711132E+02  0.88552908639E+02  0.47000000000E+01 0. -1.
         -5    1    4    4    0  503  0.81826148831E+01 -0.11358793319E+02 -0.25068653035E+03  0.25112109404E+03  0.47000000000E+01 0. -1.
<mgrwt>
<rscale>  0 0.13893772E+03</rscale>
<asrwt>0</asrwt>
<pdfrwt beam="2">  1        5 0.85246171E-01 0.13894515E+03</pdfrwt>
<pdfrwt beam="1">  1       -5 0.55235278E-02 0.13894515E+03</pdfrwt>
<totfact> 0.18651565E+02</totfact>
</mgrwt>
</event>
<event>
 8    1  0.3674342E-007  0.1356341E+03  0.7546771E-02  0.1219328E+00
         -5   -1    0    0    0  501 -0.00000000000E+00  0.00000000000E+00  0.18439036183E+03  0.18445025220E+03  0.47000000000E+01 0. -1.
          5   -1    0    0  501    0  0.00000000000E+00 -0.00000000000E+00 -0.10834314549E+03  0.10844504218E+03  0.47000000000E+01 0. -1.
         25    2    1    2    0    0  0.52426696538E+02 -0.48282622817E+01  0.79507645151E+02  0.15721710424E+03  0.12499552633E+03 0.  0.
         25    2    1    2    0    0 -0.52426696538E+02  0.48282622817E+01 -0.34604288097E+01  0.13567819014E+03  0.12499890434E+03 0.  0.
          5    1    4    4  502    0 -0.32737194062E+02  0.10134548960E+02  0.59779387686E+02  0.69065897155E+02  0.47000000000E+01 0.  1.
         -5    1    4    4    0  502 -0.19689502476E+02 -0.53062866783E+01 -0.63239816496E+02  0.66612292983E+02  0.47000000000E+01 0.  1.
          5    1    3    3  503    0  0.32438671077E+02  0.25729926433E+02 -0.23491796063E+02  0.47835666377E+02  0.47000000000E+01 0.  1.
         -5    1    3    3    0  503  0.19988025461E+02 -0.30558188715E+02  0.10299944121E+03  0.10938143787E+03  0.47000000000E+01 0.  1.
<mgrwt>
<rscale>  0 0.13563328E+03</rscale>
<asrwt>0</asrwt>
<pdfrwt beam="2">  1        5 0.16680622E-01 0.13563405E+03</pdfrwt>
<pdfrwt beam="1">  1       -5 0.28380193E-01 0.13563405E+03</pdfrwt>
<totfact> 0.27881811E+02</totfact>
</mgrwt>
</event>
<event>
 8    1  0.3674342E-007  0.1675502E+03  0.7546771E-02  0.1180434E+00
         -5   -1    0    0    0  501 -0.00000000000E+00  0.00000000000E+00  0.35762358771E+03  0.35765447081E+03  0.47000000000E+01 0.  1.
          5   -1    0    0  501    0  0.00000000000E+00 -0.00000000000E+00 -0.79697927602E+02  0.79836393105E+02  0.47000000000E+01 0.  1.
         25    2    1    2    0    0 -0.73203994925E+02  0.84200175048E+02  0.16703032015E+03  0.23656588111E+03  0.12496317020E+03 0.  0.
         25    2    1    2    0    0  0.73203994925E+02 -0.84200175048E+02  0.11089533997E+03  0.20092498280E+03  0.12499831174E+03 0.  0.
          5    1    3    3  502    0 -0.99778131333E+02  0.30871311594E+02  0.83223817167E+02  0.13363011306E+03  0.47000000000E+01 0.  1.
         -5    1    3    3    0  502  0.26574136408E+02  0.53328863454E+02  0.83806502981E+02  0.10293576805E+03  0.47000000000E+01 0.  1.
          5    1    4    4  503    0  0.58435469543E+02 -0.15111843351E+02 -0.94714467936E+01  0.61276995802E+02  0.47000000000E+01 0. -1.
         -5    1    4    4    0  503  0.14768525382E+02 -0.69088331697E+02  0.12036678676E+03  0.13964798700E+03  0.47000000000E+01 0. -1.
<mgrwt>
<rscale>  0 0.16754365E+03</rscale>
<asrwt>0</asrwt>
<pdfrwt beam="2">  1        5 0.12274246E-01 0.16755021E+03</pdfrwt>
<pdfrwt beam="1">  1       -5 0.55032040E-01 0.16755021E+03</pdfrwt>
<totfact> 0.13383883E+02</totfact>
</mgrwt>
</event>
<event>
 8    1  0.3674342E-007  0.1298483E+03  0.7546771E-02  0.1227703E+00
         -5   -1    0    0    0  501 -0.00000000000E+00  0.00000000000E+00  0.78340161777E+02  0.78481022848E+02  0.47000000000E+01 0.  1.
          5   -1    0    0  501    0  0.00000000000E+00 -0.00000000000E+00 -0.23050506931E+03  0.23055298085E+03  0.47000000000E+01 0.  1.
         25    2    1    2    0    0  0.20930045968E+02  0.28017816629E+02 -0.35737831125E+02  0.13467659662E+03  0.12505010288E+03 0.  0.
         25    2    1    2    0    0 -0.20930045968E+02 -0.28017816629E+02 -0.11642707641E+03  0.17435740707E+03  0.12498870512E+03 0.  0.
          5    1    3    3  502    0  0.14158427364E+02 -0.18808192868E+02 -0.71344967644E+02  0.75275517883E+02  0.47000000000E+01 0.  1.
         -5    1    3    3    0  502  0.67716186036E+01  0.46826009497E+02  0.35607136519E+02  0.59401078737E+02  0.47000000000E+01 0.  1.
          5    1    4    4  503    0 -0.25794430701E+02 -0.19697867066E+02  0.19403416534E+02  0.38104346148E+02  0.47000000000E+01 0.  1.
         -5    1    4    4    0  503  0.48643847336E+01 -0.83199495629E+01 -0.13583049294E+03  0.13625306093E+03  0.47000000000E+01 0.  1.
<mgrwt>
<rscale>  0 0.12983356E+03</rscale>
<asrwt>0</asrwt>
<pdfrwt beam="2">  1        5 0.35476839E-01 0.12984835E+03</pdfrwt>
<pdfrwt beam="1">  1       -5 0.12066854E-01 0.12984835E+03</pdfrwt>
<totfact> 0.31632499E+02</totfact>
</mgrwt>
</event>
<event>
 8    1  0.3674342E-007  0.1314232E+03  0.7546771E-02  0.1225366E+00
         -5   -1    0    0    0  501 -0.00000000000E+00  0.00000000000E+00  0.67843028830E+03  0.67844656833E+03  0.47000000000E+01 0.  1.
          5   -1    0    0  501    0  0.00000000000E+00 -0.00000000000E+00 -0.25263522358E+02  0.25696995193E+02  0.47000000000E+01 0.  1.
         25    2    1    2    0    0 -0.22986677603E+02 -0.33377534595E+02  0.34085838375E+03  0.36531699443E+03  0.12501848455E+03 0.  0.
         25    2    1    2    0    0  0.22986677603E+02  0.33377534595E+02  0.31230838218E+03  0.33882656909E+03  0.12499788470E+03 0.  0.
          5    1    4    4  502    0  0.10604551524E+02  0.79845816988E+02  0.16266919360E+03  0.18157964520E+03  0.47000000000E+01 0. -1.
         -5    1    4    4    0  502  0.12382126079E+02 -0.46468282393E+02  0.14963918858E+03  0.15724692390E+03  0.47000000000E+01 0. -1.
          5    1    3    3  503    0 -0.50936097878E+02  0.16314851365E+02  0.26456616873E+03  0.26995927115E+03  0.47000000000E+01 0.  1.
         -5    1    3    3    0  503  0.27949420275E+02 -0.49692385961E+02  0.76292215026E+02  0.95357723284E+02  0.47000000000E+01 0.  1.
<mgrwt>
<rscale>  0 0.13141834E+03</rscale>
<asrwt>0</asrwt>
<pdfrwt beam="2">  1        5 0.39212918E-02 0.13142324E+03</pdfrwt>
<pdfrwt beam="1">  1       -5 0.10440850E+00 0.13142324E+03</pdfrwt>
<totfact> 0.19835267E+02</totfact>
</mgrwt>
</event>
<event>
 8    1  0.3674342E-007  0.1586170E+03  0.7546771E-02  0.1190268E+00
          5   -1    0    0  501    0  0.00000000000E+00  0.00000000000E+00  0.11767959252E+03  0.11777341167E+03  0.47000000000E+01 0. -1.
         -5   -1    0    0    0  501 -0.00000000000E+00 -0.00000000000E+00 -0.22184035026E+03  0.22189013273E+03  0.47000000000E+01 0. -1.
         25    2    1    2    0    0 -0.26678626487E+02  0.93927722283E+02 -0.84826560028E+02  0.17987257964E+03  0.12499773397E+03 0.  0.
         25    2    1    2    0    0  0.26678626487E+02 -0.93927722283E+02 -0.19334197712E+02  0.15979096475E+03  0.12500070036E+03 0.  0.
          5    1    4    4  502    0 -0.35094194228E+01 -0.31888916659E+02  0.51461982577E+02  0.60824704530E+02  0.47000000000E+01 0.  1.
         -5    1    4    4    0  502  0.30188045910E+02 -0.62038805624E+02 -0.70796180289E+02  0.98966260223E+02  0.47000000000E+01 0.  1.
          5    1    3    3  503    0 -0.35253241497E+02  0.51563253958E+02  0.20513556249E+02  0.65912488838E+02  0.47000000000E+01 0.  1.
         -5    1    3    3    0  503  0.85746150103E+01  0.42364468325E+02 -0.10534011628E+03  0.11396009081E+03  0.47000000000E+01 0.  1.
<mgrwt>
<rscale>  0 0.15861638E+03</rscale>
<asrwt>0</asrwt>
<pdfrwt beam="1">  1        5 0.18115599E-01 0.15861696E+03</pdfrwt>
<pdfrwt beam="2">  1       -5 0.34140331E-01 0.15861696E+03</pdfrwt>
<totfact> 0.17520303E+02</totfact>
</mgrwt>
</event>
<event>
 8    1  0.3674342E-007  0.1404787E+03  0.7546771E-02  0.1212694E+00
         -5   -1    0    0    0  501 -0.00000000000E+00  0.00000000000E+00  0.11847711943E+03  0.11857030753E+03  0.47000000000E+01 0.  1.
          5   -1    0    0  501    0  0.00000000000E+00 -0.00000000000E+00 -0.16647244999E+03  0.16653878408E+03  0.47000000000E+01 0.  1.
         25    2    1    2    0    0  0.58498006806E+02  0.26220321112E+02 -0.27891582843E+02  0.14319915301E+03  0.12497413729E+03 0.  0.
         25    2    1    2    0    0 -0.58498006806E+02 -0.26220321112E+02 -0.20103747715E+02  0.14190993860E+03  0.12499899185E+03 0.  0.
          5    1    3    3  502    0  0.58823231469E+02 -0.41696142020E+02 -0.17337573984E+02  0.74306273567E+02  0.47000000000E+01 0.  1.
         -5    1    3    3    0  502 -0.32522466251E+00  0.67916463132E+02 -0.10554008859E+02  0.68892879446E+02  0.47000000000E+01 0.  1.
          5    1    4    4  503    0 -0.18586010955E+01 -0.28498999449E+02  0.46221070508E+02  0.54535536364E+02  0.47000000000E+01 0. -1.
         -5    1    4    4    0  503 -0.56639405711E+02  0.22786783368E+01 -0.66324818223E+02  0.87374402239E+02  0.47000000000E+01 0. -1.
<mgrwt>
<rscale>  0 0.14047319E+03</rscale>
<asrwt>0</asrwt>
<pdfrwt beam="2">  1        5 0.25623417E-01 0.14047872E+03</pdfrwt>
<pdfrwt beam="1">  1       -5 0.18239520E-01 0.14047872E+03</pdfrwt>
<totfact> 0.29178264E+02</totfact>
</mgrwt>
</event>
<event>
 8    1  0.3674342E-007  0.1260099E+03  0.7546771E-02  0.1233499E+00
         -5   -1    0    0    0  501 -0.00000000000E+00  0.00000000000E+00  0.27469468259E+02  0.27868650603E+02  0.47000000000E+01 0. -1.
          5   -1    0    0  501    0  0.00000000000E+00 -0.00000000000E+00 -0.62279870255E+03  0.62281643676E+03  0.47000000000E+01 0. -1.
         25    2    1    2    0    0 -0.10316097278E+01  0.15867198706E+02 -0.20612599542E+03  0.24159141720E+03  0.12500261862E+03 0.  0.
         25    2    1    2    0    0  0.10316097278E+01 -0.15867198706E+02 -0.38920323887E+03  0.40909367016E+03  0.12500255041E+03 0.  0.
          5    1    4    4  502    0  0.38291185129E+02  0.36733636690E+02 -0.25008089159E+03  0.25569144933E+03  0.47000000000E+01 0.  1.
         -5    1    4    4    0  502 -0.37259575402E+02 -0.52600835396E+02 -0.13912234728E+03  0.15340222083E+03  0.47000000000E+01 0.  1.
          5    1    3    3  503    0  0.83632316723E+01 -0.27788358514E+02 -0.19240816147E+03  0.19464102115E+03  0.47000000000E+01 0. -1.
         -5    1    3    3    0  503 -0.93948414001E+01  0.43655557220E+02 -0.13717833952E+02  0.46950396052E+02  0.47000000000E+01 0. -1.
<mgrwt>
<rscale>  0 0.12600985E+03</rscale>
<asrwt>0</asrwt>
<pdfrwt beam="2">  1        5 0.95847245E-01 0.12600987E+03</pdfrwt>
<pdfrwt beam="1">  1       -5 0.42581430E-02 0.12600987E+03</pdfrwt>
<totfact> 0.21022632E+02</totfact>
</mgrwt>
</event>
<event>
 8    1  0.3674342E-007  0.1465071E+03  0.7546771E-02  0.1204846E+00
         -5   -1    0    0    0  501 -0.00000000000E+00  0.00000000000E+00  0.25781298849E+03  0.25785582606E+03  0.47000000000E+01 0.  1.
          5   -1    0    0  501    0  0.00000000000E+00 -0.00000000000E+00 -0.83330971874E+02  0.83463410388E+02  0.47000000000E+01 0.  1.
         25    2    1    2    0    0  0.75789164010E+02 -0.90681398696E+01  0.95959084974E+02  0.17513555620E+03  0.12505234309E+03 0.  0.
         25    2    1    2    0    0 -0.75789164010E+02  0.90681398696E+01  0.78522931642E+02  0.16618368025E+03  0.12499974499E+03 0.  0.
          5    1    4    4  502    0 -0.97276928186E+02  0.27609327910E+02  0.23237210238E+02  0.10386112692E+03  0.47000000000E+01 0. -1.
         -5    1    4    4    0  502  0.21487764176E+02 -0.18541188040E+02  0.55285721404E+02  0.62322553336E+02  0.47000000000E+01 0. -1.
          5    1    3    3  503    0 -0.31926868832E+01  0.19806989964E+02  0.88175058096E+02  0.90550764609E+02  0.47000000000E+01 0. -1.
         -5    1    3    3    0  503  0.78981850893E+02 -0.28875129833E+02  0.77840268779E+01  0.84584791587E+02  0.47000000000E+01 0. -1.
<mgrwt>
<rscale>  0 0.14649583E+03</rscale>
<asrwt>0</asrwt>
<pdfrwt beam="2">  1        5 0.12833633E-01 0.14650705E+03</pdfrwt>
<pdfrwt beam="1">  1       -5 0.39677018E-01 0.14650705E+03</pdfrwt>
<totfact> 0.23558237E+02</totfact>
</mgrwt>
</event>
<event>
 8    1  0.3674342E-007  0.1331537E+03  0.7546771E-02  0.1222851E+00
          5   -1    0    0  501    0  0.00000000000E+00  0.00000000000E+00  0.19856662520E+03  0.19862224106E+03  0.47000000000E+01 0. -1.
         -5   -1    0    0    0  501 -0.00000000000E+00 -0.00000000000E+00 -0.93146465002E+02  0.93264966318E+02  0.47000000000E+01 0. -1.
         25    2    1    2    0    0 -0.43959797681E+02 -0.13086810021E+02  0.22534269091E+02  0.13504703283E+03  0.12500471745E+03 0.  0.
         25    2    1    2    0    0  0.43959797681E+02  0.13086810021E+02  0.82885891111E+02  0.15684017455E+03  0.12500016399E+03 0.  0.
          5    1    3    3  502    0 -0.71608111310E+02  0.17601686590E+02  0.46264502180E+02  0.87178180402E+02  0.47000000000E+01 0.  1.
         -5    1    3    3    0  502  0.27648313629E+02 -0.30688496610E+02 -0.23730233089E+02  0.47868852432E+02  0.47000000000E+01 0.  1.
          5    1    4    4  503    0  0.31992349334E+02  0.67687738383E+02  0.33704996169E+02  0.82239024253E+02  0.47000000000E+01 0. -1.
         -5    1    4    4    0  503  0.11967448348E+02 -0.54600928362E+02  0.49180894942E+02  0.74601150294E+02  0.47000000000E+01 0. -1.
<mgrwt>
<rscale>  0 0.13315263E+03</rscale>
<asrwt>0</asrwt>
<pdfrwt beam="1">  1        5 0.30562105E-01 0.13315370E+03</pdfrwt>
<pdfrwt beam="2">  1       -5 0.14343619E-01 0.13315370E+03</pdfrwt>
<totfact> 0.31521617E+02</totfact>
</mgrwt>
</event>
<event>
 8    1  0.3674342E-007  0.1899907E+03  0.7546771E-02  0.1158472E+00
          5   -1    0    0  501    0  0.00000000000E+00  0.00000000000E+00  0.15502150883E+03  0.15509274064E+03  0.47000000000E+01 0. -1.
         -5   -1    0    0    0  501 -0.00000000000E+00 -0.00000000000E+00 -0.26504174881E+03  0.26508341822E+03  0.47000000000E+01 0. -1.
         25    2    1    2    0    0 -0.14307682875E+03 -0.22195151379E+00 -0.12839304768E+03  0.22929921612E+03  0.12498931006E+03 0.  0.
         25    2    1    2    0    0  0.14307682875E+03  0.22195151379E+00  0.18372807702E+02  0.19087694274E+03  0.12500167607E+03 0.  0.
          5    1    3    3  502    0 -0.96908028098E+02 -0.39618624227E+02 -0.13173109954E+03  0.16833292572E+03  0.47000000000E+01 0. -1.
         -5    1    3    3    0  502 -0.46168800654E+02  0.39396672713E+02  0.33380518560E+01  0.60966290398E+02  0.47000000000E+01 0. -1.
          5    1    4    4  503    0  0.13818203214E+03  0.39725429139E+02  0.34062547354E+02  0.14783345649E+03  0.47000000000E+01 0. -1.
         -5    1    4    4    0  503  0.48947966165E+01 -0.39503477626E+02 -0.15689739652E+02  0.43043486253E+02  0.47000000000E+01 0. -1.
<mgrwt>
<rscale>  0 0.18998862E+03</rscale>
<asrwt>0</asrwt>
<pdfrwt beam="1">  1        5 0.23858148E-01 0.18999065E+03</pdfrwt>
<pdfrwt beam="2">  1       -5 0.40784338E-01 0.18999065E+03</pdfrwt>
<totfact> 0.76674171E+01</totfact>
</mgrwt>
</event>
<event>
 8    1  0.3674342E-007  0.1538259E+03  0.7546771E-02  0.1195849E+00
          5   -1    0    0  501    0  0.00000000000E+00  0.00000000000E+00  0.45072955065E+03  0.45075405470E+03  0.47000000000E+01 0.  1.
         -5   -1    0    0    0  501 -0.00000000000E+00 -0.00000000000E+00 -0.58158066203E+02  0.58347670601E+02  0.47000000000E+01 0.  1.
         25    2    1    2    0    0  0.18112686499E+02 -0.87798504744E+02  0.11611400834E+03  0.19273001089E+03  0.12500298923E+03 0.  0.
         25    2    1    2    0    0 -0.18112686499E+02  0.87798504744E+02  0.27645747611E+03  0.31637171441E+03  0.12500271492E+03 0.  0.
          5    1    4    4  502    0 -0.23070264981E+02  0.93883255090E+02  0.28672417522E+03  0.30262046422E+03  0.47000000000E+01 0. -1.
         -5    1    4    4    0  502  0.49575784820E+01 -0.60847503460E+01 -0.10266699109E+02  0.13751250189E+02  0.47000000000E+01 0. -1.
          5    1    3    3  503    0 -0.40205378793E+02 -0.55978442102E+02  0.13484494837E+02  0.70384515805E+02  0.47000000000E+01 0. -1.
         -5    1    3    3    0  503  0.58318065292E+02 -0.31820062642E+02  0.10262951350E+03  0.12234549509E+03  0.47000000000E+01 0. -1.
<mgrwt>
<rscale>  0 0.15382580E+03</rscale>
<asrwt>0</asrwt>
<pdfrwt beam="1">  1        5 0.69359479E-01 0.15382586E+03</pdfrwt>
<pdfrwt beam="2">  1       -5 0.89638645E-02 0.15382586E+03</pdfrwt>
<totfact> 0.13588541E+02</totfact>
</mgrwt>
</event>
<event>
 8    1  0.3674342E-007  0.1382007E+03  0.7546771E-02  0.1215772E+00
         -5   -1    0    0    0  501 -0.00000000000E+00  0.00000000000E+00  0.39610593828E+03  0.39613382126E+03  0.47000000000E+01 0.  1.
          5   -1    0    0  501    0  0.00000000000E+00 -0.00000000000E+00 -0.57320118455E+02  0.57512485424E+02  0.47000000000E+01 0.  1.
         25    2    1    2    0    0  0.58836602625E+02 -0.33942316277E+01  0.26031369179E+03  0.29472468911E+03  0.12500463040E+03 0.  0.
         25    2    1    2    0    0 -0.58836602625E+02  0.33942316277E+01  0.78472128034E+02  0.15892161757E+03  0.12499975614E+03 0.  0.
          5    1    4    4  502    0 -0.85356954328E+02  0.37265306977E+02  0.41785843157E+02  0.10218933136E+03  0.47000000000E+01 0.  1.
         -5    1    4    4    0  502  0.26520351703E+02 -0.33871075349E+02  0.36686284877E+02  0.56732286203E+02  0.47000000000E+01 0.  1.
          5    1    3    3  503    0  0.98215025955E+02 -0.82757957609E+00  0.19104780094E+03  0.21486793259E+03  0.47000000000E+01 0.  1.
         -5    1    3    3    0  503 -0.39378423330E+02 -0.25666520516E+01  0.69265890851E+02  0.79856756521E+02  0.47000000000E+01 0.  1.
<mgrwt>
<rscale>  0 0.13819956E+03</rscale>
<asrwt>0</asrwt>
<pdfrwt beam="2">  1        5 0.88354222E-02 0.13820067E+03</pdfrwt>
<pdfrwt beam="1">  1       -5 0.60956317E-01 0.13820067E+03</pdfrwt>
<totfact> 0.17932163E+02</totfact>
</mgrwt>
</event>
<event>
 8    1  0.3674342E-007  0.1729546E+03  0.7546771E-02  0.1174803E+00
          5   -1    0    0  501    0  0.00000000000E+00  0.00000000000E+00  0.12231545046E+04  0.12231635345E+04  0.47000000000E+01 0.  1.
         -5   -1    0    0    0  501 -0.00000000000E+00 -0.00000000000E+00 -0.24745846648E+02  0.25188229917E+02  0.47000000000E+01 0.  1.
         25    2    1    2    0    0 -0.79102455774E+02  0.89606083309E+02  0.50903651313E+03  0.53761464474E+03  0.12499954346E+03 0.  0.
         25    2    1    2    0    0  0.79102455774E+02 -0.89606083309E+02  0.68937214486E+03  0.71073711971E+03  0.12500740199E+03 0.  0.
          5    1    4    4  502    0 -0.33022813028E+02 -0.95187557503E+01  0.12020091527E+03  0.12510580691E+03  0.47000000000E+01 0.  1.
         -5    1    4    4    0  502  0.11212526880E+03 -0.80087327558E+02  0.56917122959E+03  0.58563131280E+03  0.47000000000E+01 0.  1.
          5    1    3    3  503    0 -0.89546191317E+02  0.10970175593E+02  0.32115988620E+03  0.33362348184E+03  0.47000000000E+01 0. -1.
         -5    1    3    3    0  503  0.10443735543E+02  0.78635907715E+02  0.18787662694E+03  0.20399116290E+03  0.47000000000E+01 0. -1.
<mgrwt>
<rscale>  0 0.17295320E+03</rscale>
<asrwt>0</asrwt>
<pdfrwt beam="1">  1        5 0.18821238E+00 0.17295462E+03</pdfrwt>
<pdfrwt beam="2">  1       -5 0.38417766E-02 0.17295462E+03</pdfrwt>
<totfact> 0.45458380E+01</totfact>
</mgrwt>
</event>
<event>
 8    1  0.3674342E-007  0.1314289E+03  0.7546771E-02  0.1225358E+00
         -5   -1    0    0    0  501 -0.00000000000E+00  0.00000000000E+00  0.22637568393E+02  0.23120326614E+02  0.47000000000E+01 0. -1.
          5   -1    0    0  501    0  0.00000000000E+00 -0.00000000000E+00 -0.79521691341E+03  0.79523080258E+03  0.47000000000E+01 0. -1.
         25    2    1    2    0    0  0.14899312732E+02 -0.37730557762E+02 -0.29364008340E+03  0.32171113622E+03  0.12501188775E+03 0.  0.
         25    2    1    2    0    0 -0.14899312732E+02  0.37730557762E+02 -0.47893926162E+03  0.49663999297E+03  0.12499152690E+03 0.  0.
          5    1    3    3  502    0 -0.28709919842E+02  0.23004964902E+02 -0.19140154040E+03  0.19496186185E+03  0.47000000000E+01 0.  1.
         -5    1    3    3    0  502  0.43609232574E+02 -0.60735522664E+02 -0.10223854300E+03  0.12674927437E+03  0.47000000000E+01 0.  1.
          5    1    4    4  503    0 -0.54760508034E+02  0.48219100440E+02 -0.17179479086E+03  0.18670654796E+03  0.47000000000E+01 0.  1.
         -5    1    4    4    0  503  0.39861195302E+02 -0.10488542678E+02 -0.30714447076E+03  0.30993344501E+03  0.47000000000E+01 0.  1.
<mgrwt>
<rscale>  0 0.13142406E+03</rscale>
<asrwt>0</asrwt>
<pdfrwt beam="2">  1        5 0.12237925E+00 0.13142890E+03</pdfrwt>
<pdfrwt beam="1">  1       -5 0.35209071E-02 0.13142890E+03</pdfrwt>
<totfact> 0.15891240E+02</totfact>
</mgrwt>
</event>
<event>
 8    1  0.3674342E-007  0.1324164E+03  0.7546771E-02  0.1223914E+00
          5   -1    0    0  501    0  0.00000000000E+00  0.00000000000E+00  0.24055353456E+03  0.24059944511E+03  0.47000000000E+01 0. -1.
         -5   -1    0    0    0  501 -0.00000000000E+00 -0.00000000000E+00 -0.81696953630E+02  0.81832036712E+02  0.47000000000E+01 0. -1.
         25    2    1    2    0    0  0.37762477471E+02 -0.21981803385E+02  0.26172434719E+02  0.13497700845E+03  0.12499836833E+03 0.  0.
         25    2    1    2    0    0 -0.37762477471E+02  0.21981803385E+02  0.13268414621E+03  0.18745447338E+03  0.12499957019E+03 0.  0.
          5    1    3    3  502    0 -0.48240177736E+01  0.31698984751E+02  0.52271999626E+02  0.61502428624E+02  0.47000000000E+01 0. -1.
         -5    1    3    3    0  502  0.42586495244E+02 -0.53680788136E+02 -0.26099564907E+02  0.73474579825E+02  0.47000000000E+01 0. -1.
          5    1    4    4  503    0 -0.39670559571E+02 -0.23384533253E+02  0.13401709636E+03  0.14178597183E+03  0.47000000000E+01 0. -1.
         -5    1    4    4    0  503  0.19080820999E+01  0.45366336638E+02 -0.13329501479E+01  0.45668501545E+02  0.47000000000E+01 0. -1.
<mgrwt>
<rscale>  0 0.13241609E+03</rscale>
<asrwt>0</asrwt>
<pdfrwt beam="1">  1        5 0.37022158E-01 0.13241638E+03</pdfrwt>
<pdfrwt beam="2">  1       -5 0.12582685E-01 0.13241638E+03</pdfrwt>
<totfact> 0.27144264E+02</totfact>
</mgrwt>
</event>
<event>
 8    1  0.3674342E-007  0.1250262E+03  0.7546771E-02  0.1235031E+00
          5   -1    0    0  501    0  0.00000000000E+00  0.00000000000E+00  0.74742261036E+02  0.74889889736E+02  0.47000000000E+01 0.  1.
         -5   -1    0    0    0  501 -0.00000000000E+00 -0.00000000000E+00 -0.21184721632E+03  0.21189934653E+03  0.47000000000E+01 0.  1.
         25    2    1    2    0    0 -0.17530609322E+01 -0.42658583467E+00 -0.85895049109E+02  0.15168889307E+03  0.12501322179E+03 0.  0.
         25    2    1    2    0    0  0.17530609322E+01  0.42658583467E+00 -0.51209906172E+02  0.13510034320E+03  0.12500557205E+03 0.  0.
          5    1    4    4  502    0 -0.57658819684E+02  0.23246030552E+01 -0.22379000855E+01  0.57939981563E+02  0.47000000000E+01 0. -1.
         -5    1    4    4    0  502  0.59411880616E+02 -0.18980172205E+01 -0.48972006086E+02  0.77160361636E+02  0.47000000000E+01 0. -1.
          5    1    3    3  503    0  0.46148136024E+02  0.38620687943E+02 -0.26761616552E+02  0.66026374398E+02  0.47000000000E+01 0.  1.
         -5    1    3    3    0  503 -0.47901196956E+02 -0.39047273778E+02 -0.59133432557E+02  0.85662518672E+02  0.47000000000E+01 0.  1.
<mgrwt>
<rscale>  0 0.12502433E+03</rscale>
<asrwt>0</asrwt>
<pdfrwt beam="1">  1        5 0.11514176E-01 0.12502624E+03</pdfrwt>
<pdfrwt beam="2">  1       -5 0.32607245E-01 0.12502624E+03</pdfrwt>
<totfact> 0.40094660E+02</totfact>
</mgrwt>
</event>
<event>
 8    1  0.3674342E-007  0.1501662E+03  0.7546771E-02  0.1200270E+00
          5   -1    0    0  501    0  0.00000000000E+00  0.00000000000E+00  0.38000782039E+02  0.38290330836E+02  0.47000000000E+01 0.  1.
         -5   -1    0    0    0  501 -0.00000000000E+00 -0.00000000000E+00 -0.73399198232E+03  0.73400703001E+03  0.47000000000E+01 0.  1.
         25    2    1    2    0    0  0.89644508342E+01 -0.82730488321E+02 -0.51849463022E+03  0.53980234977E+03  0.12500080068E+03 0.  0.
         25    2    1    2    0    0 -0.89644508342E+01  0.82730488321E+02 -0.17749657006E+03  0.23249501108E+03  0.12499681083E+03 0.  0.
          5    1    3    3  502    0  0.29694780011E+02 -0.80740951370E+02 -0.50933586479E+03  0.51657138360E+03  0.47000000000E+01 0. -1.
         -5    1    3    3    0  502 -0.20730329176E+02 -0.19895369507E+01 -0.91587654304E+01  0.23230966171E+02  0.47000000000E+01 0. -1.
          5    1    4    4  503    0 -0.49070655187E+02  0.63924038428E+02 -0.16879981729E+03  0.18710873899E+03  0.47000000000E+01 0.  1.
         -5    1    4    4    0  503  0.40106204353E+02  0.18806449893E+02 -0.86967527616E+01  0.45386272085E+02  0.47000000000E+01 0.  1.
<mgrwt>
<rscale>  0 0.15016540E+03</rscale>
<asrwt>0</asrwt>
<pdfrwt beam="1">  1        5 0.58697052E-02 0.15016623E+03</pdfrwt>
<pdfrwt beam="2">  1       -5 0.11294526E+00 0.15016623E+03</pdfrwt>
<totfact> 0.87258292E+01</totfact>
</mgrwt>
</event>
<event>
 8    1  0.3674342E-007  0.1841072E+03  0.7546771E-02  0.1163888E+00
          5   -1    0    0  501    0  0.00000000000E+00  0.00000000000E+00  0.70407994611E+02  0.70564691632E+02  0.47000000000E+01 0. -1.
         -5   -1    0    0    0  501 -0.00000000000E+00 -0.00000000000E+00 -0.67102167538E+03  0.67103813515E+03  0.47000000000E+01 0. -1.
         25    2    1    2    0    0 -0.12916046505E+03 -0.39826545194E+02 -0.49775837290E+03  0.53071260498E+03  0.12499556738E+03 0.  0.
         25    2    1    2    0    0  0.12916046505E+03  0.39826545194E+02 -0.10285530787E+03  0.21089022180E+03  0.12500756721E+03 0.  0.
          5    1    3    3  502    0 -0.14810340162E+03 -0.18542416368E+02 -0.35616949228E+03  0.38620879846E+03  0.47000000000E+01 0.  1.
         -5    1    3    3    0  502  0.18942936566E+02 -0.21284128826E+02 -0.14158888062E+03  0.14450380652E+03  0.47000000000E+01 0.  1.
          5    1    4    4  503    0  0.13459194027E+03  0.17216436682E+01 -0.46505496167E+02  0.14248791393E+03  0.47000000000E+01 0. -1.
         -5    1    4    4    0  503 -0.54314752154E+01  0.38104901526E+02 -0.56349811699E+02  0.68402307869E+02  0.47000000000E+01 0. -1.
<mgrwt>
<rscale>  0 0.18410519E+03</rscale>
<asrwt>0</asrwt>
<pdfrwt beam="1">  1        5 0.10845319E-01 0.18410723E+03</pdfrwt>
<pdfrwt beam="2">  1       -5 0.10324742E+00 0.18410723E+03</pdfrwt>
<totfact> 0.40195909E+01</totfact>
</mgrwt>
</event>
<event>
 8    1  0.3674342E-007  0.1286742E+03  0.7546771E-02  0.1229438E+00
          5   -1    0    0  501    0  0.00000000000E+00  0.00000000000E+00  0.11221369225E+03  0.11231207739E+03  0.47000000000E+01 0. -1.
         -5   -1    0    0    0  501 -0.00000000000E+00 -0.00000000000E+00 -0.18636467673E+03  0.18642393283E+03  0.47000000000E+01 0. -1.
         25    2    1    2    0    0 -0.31459894912E+01 -0.30349749578E+02 -0.10539361155E+03  0.16632757349E+03  0.12500417513E+03 0.  0.
         25    2    1    2    0    0  0.31459894912E+01  0.30349749578E+02  0.31242627063E+02  0.13240843673E+03  0.12499955129E+03 0.  0.
          5    1    4    4  502    0  0.12072739614E+02 -0.34786450898E+02  0.51472085303E+02  0.63461120171E+02  0.47000000000E+01 0. -1.
         -5    1    4    4    0  502 -0.89267501227E+01  0.65136200476E+02 -0.20229458240E+02  0.68947316561E+02  0.47000000000E+01 0. -1.
          5    1    3    3  503    0 -0.13997652285E+02  0.28505721061E+02  0.12163078059E+02  0.34329883055E+02  0.47000000000E+01 0.  1.
         -5    1    3    3    0  503  0.10851662793E+02 -0.58855470640E+02 -0.11755668961E+03  0.13199769044E+03  0.47000000000E+01 0.  1.
<mgrwt>
<rscale>  0 0.12867307E+03</rscale>
<asrwt>0</asrwt>
<pdfrwt beam="1">  1        5 0.17275771E-01 0.12867419E+03</pdfrwt>
<pdfrwt beam="2">  1       -5 0.28683615E-01 0.12867419E+03</pdfrwt>
<totfact> 0.25139777E+02</totfact>
</mgrwt>
</event>
<event>
 8    1  0.3674342E-007  0.1482586E+03  0.7546771E-02  0.1202630E+00
          5   -1    0    0  501    0  0.00000000000E+00  0.00000000000E+00  0.69059443262E+02  0.69219193174E+02  0.47000000000E+01 0. -1.
         -5   -1    0    0    0  501 -0.00000000000E+00 -0.00000000000E+00 -0.33146926106E+03  0.33150258072E+03  0.47000000000E+01 0. -1.
         25    2    1    2    0    0 -0.79726897976E+02  0.56035971862E+00 -0.17197176672E+03  0.22705703448E+03  0.12499566431E+03 0.  0.
         25    2    1    2    0    0  0.79726897976E+02 -0.56035971862E+00 -0.90438051080E+02  0.17366473941E+03  0.12499483337E+03 0.  0.
          5    1    4    4  502    0  0.15366227869E+02 -0.53924365476E+02 -0.92362165866E+01  0.57020661587E+02  0.47000000000E+01 0. -1.
         -5    1    4    4    0  502  0.64360670107E+02  0.53364005758E+02 -0.81201834493E+02  0.11664407783E+03  0.47000000000E+01 0. -1.
          5    1    3    3  503    0 -0.37109956667E+02 -0.10920821891E+02 -0.17804323151E+03  0.18225777218E+03  0.47000000000E+01 0. -1.
         -5    1    3    3    0  503 -0.42616941310E+02  0.11481181610E+02  0.60714647959E+01  0.44799262299E+02  0.47000000000E+01 0. -1.
<mgrwt>
<rscale>  0 0.14825841E+03</rscale>
<asrwt>0</asrwt>
<pdfrwt beam="1">  1        5 0.10639381E-01 0.14825859E+03</pdfrwt>
<pdfrwt beam="2">  1       -5 0.51010121E-01 0.14825859E+03</pdfrwt>
<totfact> 0.19514847E+02</totfact>
</mgrwt>
</event>
<event>
 8    1  0.3674342E-007  0.1504617E+03  0.7546771E-02  0.1199907E+00
         -5   -1    0    0    0  501 -0.00000000000E+00  0.00000000000E+00  0.20217623308E+03  0.20223085626E+03  0.47000000000E+01 0.  1.
          5   -1    0    0  501    0  0.00000000000E+00 -0.00000000000E+00 -0.13474730108E+03  0.13482924441E+03  0.47000000000E+01 0.  1.
         25    2    1    2    0    0  0.44196365928E+02 -0.71137557546E+02  0.10314034499E+03  0.18241847724E+03  0.12499879687E+03 0.  0.
         25    2    1    2    0    0 -0.44196365928E+02  0.71137557546E+02 -0.35711412993E+02  0.15464162343E+03  0.12499942329E+03 0.  0.
          5    1    3    3  502    0  0.26603802512E+01  0.21883909532E+02 -0.14443120843E+02  0.26770821040E+02  0.47000000000E+01 0.  1.
         -5    1    3    3    0  502  0.41535985677E+02 -0.93021467078E+02  0.11758346584E+03  0.15564765620E+03  0.47000000000E+01 0.  1.
          5    1    4    4  503    0  0.98319887940E+00  0.34149465517E+02 -0.76059606787E+02  0.83512313222E+02  0.47000000000E+01 0. -1.
         -5    1    4    4    0  503 -0.45179564807E+02  0.36988092029E+02  0.40348193793E+02  0.71129310207E+02  0.47000000000E+01 0. -1.
<mgrwt>
<rscale>  0 0.15046158E+03</rscale>
<asrwt>0</asrwt>
<pdfrwt beam="2">  1        5 0.20740859E-01 0.15046171E+03</pdfrwt>
<pdfrwt beam="1">  1       -5 0.31114541E-01 0.15046171E+03</pdfrwt>
<totfact> 0.16096234E+02</totfact>
</mgrwt>
</event>
<event>
 8    1  0.3674342E-007  0.1301204E+03  0.7546771E-02  0.1227279E+00
         -5   -1    0    0    0  501 -0.00000000000E+00  0.00000000000E+00  0.24718886612E+03  0.24723354452E+03  0.47000000000E+01 0. -1.
          5   -1    0    0  501    0  0.00000000000E+00 -0.00000000000E+00 -0.68381475679E+02  0.68542805721E+02  0.47000000000E+01 0. -1.
         25    2    1    2    0    0  0.35357449238E+02 -0.75147353546E+01  0.92146130102E+02  0.15944347048E+03  0.12499876208E+03 0.  0.
         25    2    1    2    0    0 -0.35357449238E+02  0.75147353546E+01  0.86661260343E+02  0.15633287976E+03  0.12499269893E+03 0.  0.
          5    1    3    3  502    0 -0.23779500614E+02 -0.17639648305E+02 -0.17249395688E+02  0.34586897712E+02  0.47000000000E+01 0. -1.
         -5    1    3    3    0  502  0.59136949851E+02  0.10124912951E+02  0.10939552579E+03  0.12485657277E+03  0.47000000000E+01 0. -1.
          5    1    4    4  503    0 -0.50967030154E+02 -0.48760200822E+02  0.38534794394E+02  0.80512208552E+02  0.47000000000E+01 0. -1.
         -5    1    4    4    0  503  0.15609580916E+02  0.56274936176E+02  0.48126465949E+02  0.75820671210E+02  0.47000000000E+01 0. -1.
<mgrwt>
<rscale>  0 0.13011891E+03</rscale>
<asrwt>0</asrwt>
<pdfrwt beam="2">  1        5 0.10536074E-01 0.13012037E+03</pdfrwt>
<pdfrwt beam="1">  1       -5 0.38044903E-01 0.13012037E+03</pdfrwt>
<totfact> 0.34914515E+02</totfact>
</mgrwt>
</event>
<event>
 8    1  0.3674342E-007  0.1372311E+03  0.7546771E-02  0.1217104E+00
         -5   -1    0    0    0  501 -0.00000000000E+00  0.00000000000E+00  0.90699544373E+02  0.90821238427E+02  0.47000000000E+01 0.  1.
          5   -1    0    0  501    0  0.00000000000E+00 -0.00000000000E+00 -0.22686347491E+03  0.22691215536E+03  0.47000000000E+01 0.  1.
         25    2    1    2    0    0  0.56527926618E+02  0.34433365677E+01 -0.21501964107E+02  0.13890457366E+03  0.12499953227E+03 0.  0.
         25    2    1    2    0    0 -0.56527926618E+02 -0.34433365677E+01 -0.11466196643E+03  0.17882882013E+03  0.12500046923E+03 0.  0.
          5    1    4    4  502    0  0.24634769451E+02  0.16534113381E+02  0.72863698528E+01  0.30910030036E+02  0.47000000000E+01 0.  1.
         -5    1    4    4    0  502 -0.81162696069E+02 -0.19977449949E+02 -0.12194833629E+03  0.14791879009E+03  0.47000000000E+01 0.  1.
          5    1    3    3  503    0  0.36076349909E+02  0.44157112651E+02 -0.57147007441E+02  0.80865469020E+02  0.47000000000E+01 0. -1.
         -5    1    3    3    0  503  0.20451576709E+02 -0.40713776083E+02  0.35645043334E+02  0.58039104638E+02  0.47000000000E+01 0. -1.
<mgrwt>
<rscale>  0 0.13723091E+03</rscale>
<asrwt>0</asrwt>
<pdfrwt beam="2">  1        5 0.34915178E-01 0.13723112E+03</pdfrwt>
<pdfrwt beam="1">  1       -5 0.13966882E-01 0.13723112E+03</pdfrwt>
<totfact> 0.25651801E+02</totfact>
</mgrwt>
</event>
<event>
 8    1  0.3674342E-007  0.1441548E+03  0.7546771E-02  0.1207847E+00
         -5   -1    0    0    0  501 -0.00000000000E+00  0.00000000000E+00  0.14592350015E+03  0.14599917087E+03  0.47000000000E+01 0.  1.
          5   -1    0    0  501    0  0.00000000000E+00 -0.00000000000E+00 -0.19844464858E+03  0.19850029862E+03  0.47000000000E+01 0.  1.
         25    2    1    2    0    0 -0.35220722744E+02  0.62562573626E+02  0.65368851973E+02  0.15827742813E+03  0.12499633002E+03 0.  0.
         25    2    1    2    0    0  0.35220722744E+02 -0.62562573626E+02 -0.11789000041E+03  0.18622204135E+03  0.12500408617E+03 0.  0.
          5    1    4    4  502    0  0.25929276455E+02  0.36086402592E+02 -0.42008330816E+02  0.61329810757E+02  0.47000000000E+01 0.  1.
         -5    1    4    4    0  502  0.92914462885E+01 -0.98648976218E+02 -0.75881669595E+02  0.12489223060E+03  0.47000000000E+01 0.  1.
          5    1    3    3  503    0  0.17191273523E+02 -0.28553739128E+02 -0.13517311100E+01  0.33686393106E+02  0.47000000000E+01 0. -1.
         -5    1    3    3    0  503 -0.52411996266E+02  0.91116312753E+02  0.66720583083E+02  0.12459103503E+03  0.47000000000E+01 0. -1.
<mgrwt>
<rscale>  0 0.14415308E+03</rscale>
<asrwt>0</asrwt>
<pdfrwt beam="2">  1        5 0.30540048E-01 0.14415477E+03</pdfrwt>
<pdfrwt beam="1">  1       -5 0.22459871E-01 0.14415477E+03</pdfrwt>
<totfact> 0.14172387E+02</totfact>
</mgrwt>
</event>
<event>
 8    1  0.3674342E-007  0.1356757E+03  0.7546771E-02  0.1219276E+00
          5   -1    0    0  501    0  0.00000000000E+00  0.00000000000E+00  0.96624723283E+03  0.96625866358E+03  0.47000000000E+01 0. -1.
         -5   -1    0    0    0  501 -0.00000000000E+00 -0.00000000000E+00 -0.19160091178E+02  0.19728129510E+02  0.47000000000E+01 0. -1.
         25    2    1    2    0    0 -0.31007905436E+02 -0.42667081887E+02  0.40215389964E+03  0.42441745345E+03  0.12498178155E+03 0.  0.
         25    2    1    2    0    0  0.31007905436E+02  0.42667081887E+02  0.54493324201E+03  0.56156933964E+03  0.12500365956E+03 0.  0.
          5    1    4    4  502    0  0.72743024771E+01  0.13518347556E+02  0.50932906747E+03  0.50958203478E+03  0.47000000000E+01 0.  1.
         -5    1    4    4    0  502  0.23733602959E+02  0.29148734332E+02  0.35604174537E+02  0.51987304864E+02  0.47000000000E+01 0.  1.
          5    1    3    3  503    0  0.27555716863E+02 -0.13785162197E+02  0.20767654431E+02  0.37453086644E+02  0.47000000000E+01 0. -1.
         -5    1    3    3    0  503 -0.58563622299E+02 -0.28881919690E+02  0.38138624521E+03  0.38696436681E+03  0.47000000000E+01 0. -1.
<mgrwt>
<rscale>  0 0.13567062E+03</rscale>
<asrwt>0</asrwt>
<pdfrwt beam="1">  1        5 0.14869799E+00 0.13567566E+03</pdfrwt>
<pdfrwt beam="2">  1       -5 0.29922810E-02 0.13567566E+03</pdfrwt>
<totfact> 0.12510569E+02</totfact>
</mgrwt>
</event>
<event>
 8    1  0.3674342E-007  0.2576025E+03  0.7546771E-02  0.1108594E+00
          5   -1    0    0  501    0  0.00000000000E+00  0.00000000000E+00  0.47013516585E+03  0.47015865850E+03  0.47000000000E+01 0. -1.
         -5   -1    0    0    0  501 -0.00000000000E+00 -0.00000000000E+00 -0.14146139584E+03  0.14153945214E+03  0.47000000000E+01 0. -1.
         25    2    1    2    0    0 -0.20072327185E+03  0.10217986874E+03  0.18027125915E+03  0.31440642092E+03  0.12499245257E+03 0.  0.
         25    2    1    2    0    0  0.20072327185E+03 -0.10217986874E+03  0.14840251085E+03  0.29729168973E+03  0.12501394370E+03 0.  0.
          5    1    3    3  502    0 -0.11719514020E+03  0.10013777701E+03  0.54962633679E+02  0.16372310886E+03  0.47000000000E+01 0.  1.
         -5    1    3    3    0  502 -0.83528131646E+02  0.20420917264E+01  0.12530862548E+03  0.15068331206E+03  0.47000000000E+01 0.  1.
          5    1    4    4  503    0  0.16747471917E+03 -0.13106396882E+03  0.13024154232E+03  0.24942031760E+03  0.47000000000E+01 0.  1.
         -5    1    4    4    0  503  0.33248552673E+02  0.28884100077E+02  0.18160968531E+02  0.47871372135E+02  0.47000000000E+01 0.  1.
<mgrwt>
<rscale>  0 0.25759988E+03</rscale>
<asrwt>0</asrwt>
<pdfrwt beam="1">  1        5 0.72336296E-01 0.25760249E+03</pdfrwt>
<pdfrwt beam="2">  1       -5 0.21771104E-01 0.25760249E+03</pdfrwt>
<totfact> 0.28371907E+01</totfact>
</mgrwt>
</event>
<event>
 8    1  0.3674342E-007  0.1273014E+03  0.7546771E-02  0.1231517E+00
         -5   -1    0    0    0  501 -0.00000000000E+00  0.00000000000E+00  0.10678577094E+04  0.10678680525E+04  0.47000000000E+01 0. -1.
          5   -1    0    0  501    0  0.00000000000E+00 -0.00000000000E+00 -0.15773827902E+02  0.16459150849E+02  0.47000000000E+01 0. -1.
         25    2    1    2    0    0 -0.16316842356E+02  0.17724517758E+02  0.65773121500E+03  0.66993648631E+03  0.12499658646E+03 0.  0.
         25    2    1    2    0    0  0.16316842356E+02 -0.17724517758E+02  0.39435266653E+03  0.41439071706E+03  0.12500097165E+03 0.  0.
          5    1    3    3  502    0 -0.55204459988E+02  0.69271050683E+01  0.14163770042E+03  0.15224600280E+03  0.47000000000E+01 0.  1.
         -5    1    3    3    0  502  0.38887617632E+02  0.10797412689E+02  0.51609351458E+03  0.51769048351E+03  0.47000000000E+01 0.  1.
          5    1    4    4  503    0  0.27709714725E+02 -0.65708582462E+02  0.29283459095E+03  0.30142931801E+03  0.47000000000E+01 0. -1.
         -5    1    4    4    0  503 -0.11392872369E+02  0.47984064704E+02  0.10151807558E+03  0.11296139906E+03  0.47000000000E+01 0. -1.
<mgrwt>
<rscale>  0 0.12730030E+03</rscale>
<asrwt>0</asrwt>
<pdfrwt beam="2">  1        5 0.24802561E-02 0.12730138E+03</pdfrwt>
<pdfrwt beam="1">  1       -5 0.16433928E+00 0.12730138E+03</pdfrwt>
<totfact> 0.12558836E+02</totfact>
</mgrwt>
</event>
<event>
 8    1  0.3674342E-007  0.1356487E+03  0.7546771E-02  0.1219310E+00
         -5   -1    0    0    0  501 -0.00000000000E+00  0.00000000000E+00  0.82017460316E+02  0.82152016388E+02  0.47000000000E+01 0.  1.
          5   -1    0    0  501    0  0.00000000000E+00 -0.00000000000E+00 -0.22405954223E+03  0.22410883174E+03  0.47000000000E+01 0.  1.
         25    2    1    2    0    0 -0.23094045405E+02  0.47335715326E+02 -0.73711559860E+02  0.15438251204E+03  0.12500624420E+03 0.  0.
         25    2    1    2    0    0  0.23094045405E+02 -0.47335715326E+02 -0.68330522058E+02  0.15187833609E+03  0.12499585533E+03 0.  0.
          5    1    4    4  502    0 -0.42832913883E+02 -0.77376700054E+01 -0.60152383569E+02  0.74397105440E+02  0.47000000000E+01 0.  1.
         -5    1    4    4    0  502  0.65926959288E+02 -0.39598045320E+02 -0.81781384890E+01  0.77481230652E+02  0.47000000000E+01 0.  1.
          5    1    3    3  503    0  0.50840332650E+02  0.14707444252E+02 -0.40828027695E+02  0.67007956138E+02  0.47000000000E+01 0. -1.
         -5    1    3    3    0  503 -0.73934378055E+02  0.32628271074E+02 -0.32883532164E+02  0.87374555903E+02  0.47000000000E+01 0. -1.
<mgrwt>
<rscale>  0 0.13564629E+03</rscale>
<asrwt>0</asrwt>
<pdfrwt beam="2">  1        5 0.34484841E-01 0.13564869E+03</pdfrwt>
<pdfrwt beam="1">  1       -5 0.12632213E-01 0.13564869E+03</pdfrwt>
<totfact> 0.31348397E+02</totfact>
</mgrwt>
</event>
<event>
 8    1  0.3674342E-007  0.1562490E+03  0.7546771E-02  0.1192998E+00
          5   -1    0    0  501    0  0.00000000000E+00  0.00000000000E+00  0.20765832074E+02  0.21291072818E+02  0.47000000000E+01 0. -1.
         -5   -1    0    0    0  501 -0.00000000000E+00 -0.00000000000E+00 -0.11604462935E+04  0.11604558113E+04  0.47000000000E+01 0. -1.
         25    2    1    2    0    0 -0.66340489286E+02  0.66235787819E+02 -0.56895664694E+03  0.59002109016E+03  0.12499992253E+03 0.  0.
         25    2    1    2    0    0  0.66340489286E+02 -0.66235787819E+02 -0.57072381446E+03  0.59172579398E+03  0.12500201104E+03 0.  0.
          5    1    4    4  502    0 -0.37266714893E+02 -0.15883449284E+02 -0.16179060652E+03  0.16685137805E+03  0.47000000000E+01 0.  1.
         -5    1    4    4    0  502  0.10360720418E+03 -0.50352338535E+02 -0.40893320794E+03  0.42487441593E+03  0.47000000000E+01 0.  1.
          5    1    3    3  503    0  0.15115582237E+02 -0.24659722048E+02 -0.62272973336E+02  0.68822931687E+02  0.47000000000E+01 0. -1.
         -5    1    3    3    0  503 -0.81456071523E+02  0.90895509867E+02 -0.50668367360E+03  0.52119815848E+03  0.47000000000E+01 0. -1.
<mgrwt>
<rscale>  0 0.15624856E+03</rscale>
<asrwt>0</asrwt>
<pdfrwt beam="1">  1        5 0.32358796E-02 0.15624898E+03</pdfrwt>
<pdfrwt beam="2">  1       -5 0.17857128E+00 0.15624898E+03</pdfrwt>
<totfact> 0.68528048E+01</totfact>
</mgrwt>
</event>
<event>
 8    1  0.3674342E-007  0.1374783E+03  0.7546771E-02  0.1216763E+00
          5   -1    0    0  501    0  0.00000000000E+00  0.00000000000E+00  0.21827704248E+03  0.21832763745E+03  0.47000000000E+01 0. -1.
         -5   -1    0    0    0  501 -0.00000000000E+00 -0.00000000000E+00 -0.86746085442E+02  0.86873317765E+02  0.47000000000E+01 0. -1.
         25    2    1    2    0    0  0.36438217585E+02 -0.44120496144E+02  0.57068447257E+02  0.14885216481E+03  0.12500318963E+03 0.  0.
         25    2    1    2    0    0 -0.36438217585E+02  0.44120496144E+02  0.74462509778E+02  0.15634879040E+03  0.12500366801E+03 0.  0.
          5    1    3    3  502    0  0.32070708386E+01 -0.75006102094E+02  0.68601649676E+02  0.10180607542E+03  0.47000000000E+01 0. -1.
         -5    1    3    3    0  502  0.33231146747E+02  0.30885605950E+02 -0.11533202419E+02  0.47046089391E+02  0.47000000000E+01 0. -1.
          5    1    4    4  503    0 -0.72789959026E+02 -0.74998560076E+01  0.48542106919E+02  0.87937774132E+02  0.47000000000E+01 0.  1.
         -5    1    4    4    0  503  0.36351741441E+02  0.51620352152E+02  0.25920402859E+02  0.68411016265E+02  0.47000000000E+01 0.  1.
<mgrwt>
<rscale>  0 0.13747818E+03</rscale>
<asrwt>0</asrwt>
<pdfrwt beam="1">  1        5 0.33594762E-01 0.13747829E+03</pdfrwt>
<pdfrwt beam="2">  1       -5 0.13359231E-01 0.13747829E+03</pdfrwt>
<totfact> 0.30026273E+02</totfact>
</mgrwt>
</event>
<event>
 8    1  0.3674342E-007  0.1667887E+03  0.7546771E-02  0.1181239E+00
          5   -1    0    0  501    0  0.00000000000E+00  0.00000000000E+00  0.30133525000E+02  0.30497857776E+02  0.47000000000E+01 0.  1.
         -5   -1    0    0    0  501 -0.00000000000E+00 -0.00000000000E+00 -0.96956771105E+03  0.96957910266E+03  0.47000000000E+01 0.  1.
         25    2    1    2    0    0 -0.99160909949E+02  0.48584651128E+02 -0.58585003415E+03  0.60912908817E+03  0.12499851659E+03 0.  0.
         25    2    1    2    0    0  0.99160909949E+02 -0.48584651128E+02 -0.35358415190E+03  0.39094787227E+03  0.12500052787E+03 0.  0.
          5    1    3    3  502    0 -0.35143908358E+02 -0.23922200939E+02 -0.55807191303E+02  0.70312862220E+02  0.47000000000E+01 0.  1.
         -5    1    3    3    0  502 -0.64017001591E+02  0.72506852067E+02 -0.53004284285E+03  0.53881622595E+03  0.47000000000E+01 0.  1.
          5    1    4    4  503    0  0.65511009119E+02 -0.88020102447E+02 -0.28039612761E+03  0.30113669509E+03  0.47000000000E+01 0.  1.
         -5    1    4    4    0  503  0.33649900830E+02  0.39435451318E+02 -0.73188024290E+02  0.89811177177E+02  0.47000000000E+01 0.  1.
<mgrwt>
<rscale>  0 0.16678837E+03</rscale>
<asrwt>0</asrwt>
<pdfrwt beam="1">  1        5 0.46648295E-02 0.16678875E+03</pdfrwt>
<pdfrwt beam="2">  1       -5 0.14919314E+00 0.16678875E+03</pdfrwt>
<totfact> 0.63744775E+01</totfact>
</mgrwt>
</event>
<event>
 8    1  0.3674342E-007  0.1878532E+03  0.7546771E-02  0.1160413E+00
         -5   -1    0    0    0  501 -0.00000000000E+00  0.00000000000E+00  0.76138026312E+02  0.76282953867E+02  0.47000000000E+01 0.  1.
          5   -1    0    0  501    0  0.00000000000E+00 -0.00000000000E+00 -0.51321378503E+03  0.51323530582E+03  0.47000000000E+01 0.  1.
         25    2    1    2    0    0  0.10315923406E+03  0.94970639844E+02 -0.31083214780E+03  0.36318605160E+03  0.12500493578E+03 0.  0.
         25    2    1    2    0    0 -0.10315923406E+03 -0.94970639844E+02 -0.12624361092E+03  0.22633220809E+03  0.12501027604E+03 0.  0.
          5    1    3    3  502    0 -0.66775021896E+01 -0.22389588871E+02 -0.21156211524E+02  0.31867820938E+02  0.47000000000E+01 0. -1.
         -5    1    3    3    0  502  0.10983673625E+03  0.11736022871E+03 -0.28967593628E+03  0.33131823067E+03  0.47000000000E+01 0. -1.
          5    1    4    4  503    0 -0.82874922069E+01 -0.53003373049E+02 -0.10829571602E+03  0.12094665018E+03  0.47000000000E+01 0. -1.
         -5    1    4    4    0  503 -0.94871741855E+02 -0.41967266794E+02 -0.17947894902E+02  0.10538555791E+03  0.47000000000E+01 0. -1.
<mgrwt>
<rscale>  0 0.18785230E+03</rscale>
<asrwt>0</asrwt>
<pdfrwt beam="2">  1        5 0.78968769E-01 0.18785319E+03</pdfrwt>
<pdfrwt beam="1">  1       -5 0.11726347E-01 0.18785319E+03</pdfrwt>
<totfact> 0.66831261E+01</totfact>
</mgrwt>
</event>
<event>
 8    1  0.3674342E-007  0.1347152E+03  0.7546771E-02  0.1220622E+00
          5   -1    0    0  501    0  0.00000000000E+00  0.00000000000E+00  0.13935442094E+03  0.13943365675E+03  0.47000000000E+01 0.  1.
         -5   -1    0    0    0  501 -0.00000000000E+00 -0.00000000000E+00 -0.13020599597E+03  0.13029079548E+03  0.47000000000E+01 0.  1.
         25    2    1    2    0    0 -0.35956205935E+02 -0.35072446062E+02  0.89072352153E+01  0.13500906938E+03  0.12500073903E+03 0.  0.
         25    2    1    2    0    0  0.35956205935E+02  0.35072446062E+02  0.24118975413E+00  0.13471538285E+03  0.12500100394E+03 0.  0.
          5    1    3    3  502    0 -0.48825660055E+02 -0.65006951330E+02 -0.27471864223E+02  0.85945576529E+02  0.47000000000E+01 0.  1.
         -5    1    3    3    0  502  0.12869454121E+02  0.29934505267E+02  0.36379099438E+02  0.49063492852E+02  0.47000000000E+01 0.  1.
          5    1    4    4  503    0  0.67672563431E+02  0.17181940867E+02 -0.39706179899E+02  0.80457850179E+02  0.47000000000E+01 0. -1.
         -5    1    4    4    0  503 -0.31716357496E+02  0.17890505195E+02  0.39947369653E+02  0.54257532668E+02  0.47000000000E+01 0. -1.
<mgrwt>
<rscale>  0 0.13471511E+03</rscale>
<asrwt>0</asrwt>
<pdfrwt beam="1">  1        5 0.21451760E-01 0.13471517E+03</pdfrwt>
<pdfrwt beam="2">  1       -5 0.20044310E-01 0.13471517E+03</pdfrwt>
<totfact> 0.33841067E+02</totfact>
</mgrwt>
</event>
<event>
 8    1  0.3674342E-007  0.1277674E+03  0.7546771E-02  0.1230819E+00
          5   -1    0    0  501    0  0.00000000000E+00  0.00000000000E+00  0.10197221363E+03  0.10208046999E+03  0.47000000000E+01 0. -1.
         -5   -1    0    0    0  501 -0.00000000000E+00 -0.00000000000E+00 -0.15983254447E+03  0.15990163312E+03  0.47000000000E+01 0. -1.
         25    2    1    2    0    0  0.26341424355E+02  0.95054143406E+00 -0.27795035099E+02  0.13075579991E+03  0.12501896283E+03 0.  0.
         25    2    1    2    0    0 -0.26341424355E+02 -0.95054143406E+00 -0.30065295746E+02  0.13122630319E+03  0.12498658518E+03 0.  0.
          5    1    4    4  502    0  0.34364589786E+02 -0.22175149065E+02 -0.49023565912E+02  0.64016109550E+02  0.47000000000E+01 0.  1.
         -5    1    4    4    0  502 -0.60706014141E+02  0.21224607631E+02  0.18958270166E+02  0.67210193644E+02  0.47000000000E+01 0.  1.
          5    1    3    3  503    0 -0.20027714313E+02 -0.51068796891E+02  0.13539160202E+01  0.55073173552E+02  0.47000000000E+01 0. -1.
         -5    1    3    3    0  503  0.46369138668E+02  0.52019338325E+02 -0.29148951119E+02  0.75682626355E+02  0.47000000000E+01 0. -1.
<mgrwt>
<rscale>  0 0.12775951E+03</rscale>
<asrwt>0</asrwt>
<pdfrwt beam="1">  1        5 0.15701675E-01 0.12776743E+03</pdfrwt>
<pdfrwt beam="2">  1       -5 0.24603264E-01 0.12776743E+03</pdfrwt>
<totfact> 0.40130217E+02</totfact>
</mgrwt>
</event>
<event>
 8    1  0.3674342E-007  0.1315043E+03  0.7546771E-02  0.1225249E+00
         -5   -1    0    0    0  501 -0.00000000000E+00  0.00000000000E+00  0.19500165275E+03  0.19505828507E+03  0.47000000000E+01 0. -1.
          5   -1    0    0  501    0  0.00000000000E+00 -0.00000000000E+00 -0.90351971162E+02  0.90474132728E+02  0.47000000000E+01 0. -1.
         25    2    1    2    0    0 -0.80941501687E+00 -0.40754427052E+02  0.72551751441E+02  0.15019037706E+03  0.12502725402E+03 0.  0.
         25    2    1    2    0    0  0.80941501687E+00  0.40754427052E+02  0.32097930150E+02  0.13534204074E+03  0.12500244956E+03 0.  0.
          5    1    4    4  502    0  0.43153026545E+02  0.63186846069E+02 -0.14233088813E+01  0.76673835331E+02  0.47000000000E+01 0.  1.
         -5    1    4    4    0  502 -0.42343611528E+02 -0.22432419018E+02  0.33521239031E+02  0.58668205414E+02  0.47000000000E+01 0.  1.
          5    1    3    3  503    0 -0.60888042381E+02 -0.17089150380E+02  0.52752346931E+02  0.82488137768E+02  0.47000000000E+01 0. -1.
         -5    1    3    3    0  503  0.60078627364E+02 -0.23665276672E+02  0.19799404510E+02  0.67702239290E+02  0.47000000000E+01 0. -1.
<mgrwt>
<rscale>  0 0.13149845E+03</rscale>
<asrwt>0</asrwt>
<pdfrwt beam="2">  1        5 0.13914057E-01 0.13150434E+03</pdfrwt>
<pdfrwt beam="1">  1       -5 0.30014007E-01 0.13150434E+03</pdfrwt>
<totfact> 0.34343901E+02</totfact>
</mgrwt>
</event>
<event>
 8    1  0.3674342E-007  0.1512515E+03  0.7546771E-02  0.1198945E+00
         -5   -1    0    0    0  501 -0.00000000000E+00  0.00000000000E+00  0.32856396260E+02  0.33190853788E+02  0.47000000000E+01 0.  1.
          5   -1    0    0  501    0  0.00000000000E+00 -0.00000000000E+00 -0.73983502258E+03  0.73984995143E+03  0.47000000000E+01 0.  1.
         25    2    1    2    0    0 -0.81665230312E+02 -0.24125684161E+02 -0.25561877714E+03  0.29701274283E+03  0.12499740676E+03 0.  0.
         25    2    1    2    0    0  0.81665230312E+02  0.24125684161E+02 -0.45135984917E+03  0.47602806239E+03  0.12500297700E+03 0.  0.
          5    1    4    4  502    0 -0.21596478956E+02  0.26182321100E+02 -0.44081894586E+02  0.55832116848E+02  0.47000000000E+01 0. -1.
         -5    1    4    4    0  502  0.10326170927E+03 -0.20566369389E+01 -0.40727795459E+03  0.42019594554E+03  0.47000000000E+01 0. -1.
          5    1    3    3  503    0 -0.10304382864E+03  0.13307448744E+02 -0.20834975198E+03  0.23286654540E+03  0.47000000000E+01 0.  1.
         -5    1    3    3    0  503  0.21378598329E+02 -0.37433132904E+02 -0.47269025161E+02  0.64146197434E+02  0.47000000000E+01 0.  1.
<mgrwt>
<rscale>  0 0.15125030E+03</rscale>
<asrwt>0</asrwt>
<pdfrwt beam="2">  1        5 0.11384764E+00 0.15125146E+03</pdfrwt>
<pdfrwt beam="1">  1       -5 0.50817066E-02 0.15125146E+03</pdfrwt>
<totfact> 0.10910391E+02</totfact>
</mgrwt>
</event>
<event>
 8    1  0.3674342E-007  0.1372701E+03  0.7546771E-02  0.1217051E+00
          5   -1    0    0  501    0  0.00000000000E+00  0.00000000000E+00  0.97259620870E+02  0.97373116679E+02  0.47000000000E+01 0.  1.
         -5   -1    0    0    0  501 -0.00000000000E+00 -0.00000000000E+00 -0.20382196097E+03  0.20387614322E+03  0.47000000000E+01 0.  1.
         25    2    1    2    0    0  0.44971120486E+02  0.34577264724E+02 -0.19366890116E+02  0.13862955878E+03  0.12500035688E+03 0.  0.
         25    2    1    2    0    0 -0.44971120486E+02 -0.34577264724E+02 -0.87195449985E+02  0.16261970112E+03  0.12499652707E+03 0.  0.
          5    1    4    4  502    0  0.37085734367E+02 -0.28589722139E+02 -0.69081006595E+01  0.47566119879E+02  0.47000000000E+01 0. -1.
         -5    1    4    4    0  502 -0.82056854853E+02 -0.59875425845E+01 -0.80287349325E+02  0.11505358124E+03  0.47000000000E+01 0. -1.
          5    1    3    3  503    0 -0.29824379669E+02  0.51393804613E+02 -0.16151043354E+02  0.61755671615E+02  0.47000000000E+01 0.  1.
         -5    1    3    3    0  503  0.74795500155E+02 -0.16816539889E+02 -0.32158467622E+01  0.76873887164E+02  0.47000000000E+01 0.  1.
<mgrwt>
<rscale>  0 0.13726922E+03</rscale>
<asrwt>0</asrwt>
<pdfrwt beam="1">  1        5 0.14975917E-01 0.13727009E+03</pdfrwt>
<pdfrwt beam="2">  1       -5 0.31370123E-01 0.13727009E+03</pdfrwt>
<totfact> 0.27989448E+02</totfact>
</mgrwt>
</event>
<event>
 8    1  0.3674342E-007  0.1351388E+03  0.7546771E-02  0.1220027E+00
          5   -1    0    0  501    0  0.00000000000E+00  0.00000000000E+00  0.24598470440E+03  0.24602960147E+03  0.47000000000E+01 0.  1.
         -5   -1    0    0    0  501 -0.00000000000E+00 -0.00000000000E+00 -0.13219604042E+03  0.13227956420E+03  0.47000000000E+01 0.  1.
         25    2    1    2    0    0 -0.25580294266E+02 -0.44437144733E+02 -0.68411518950E+02  0.15146822991E+03  0.12503390524E+03 0.  0.
         25    2    1    2    0    0  0.25580294266E+02  0.44437144733E+02  0.18220018292E+03  0.22684093575E+03  0.12502356654E+03 0.  0.
          5    1    3    3  502    0  0.16867568850E+02 -0.30535210980E+02  0.28085545101E+02  0.45031120707E+02  0.47000000000E+01 0.  1.
         -5    1    3    3    0  502 -0.42447863116E+02 -0.13901933753E+02 -0.96497064050E+02  0.10643710920E+03  0.47000000000E+01 0.  1.
          5    1    4    4  503    0  0.35252222191E+02 -0.37338151548E+02  0.84389149501E+02  0.98896285491E+02  0.47000000000E+01 0.  1.
         -5    1    4    4    0  503 -0.96719279252E+01  0.81775296281E+02  0.97811033423E+02  0.12794465026E+03  0.47000000000E+01 0.  1.
<mgrwt>
<rscale>  0 0.13513638E+03</rscale>
<asrwt>0</asrwt>
<pdfrwt beam="1">  1        5 0.37853679E-01 0.13513878E+03</pdfrwt>
<pdfrwt beam="2">  1       -5 0.20347731E-01 0.13513878E+03</pdfrwt>
<totfact> 0.10883746E+02</totfact>
</mgrwt>
</event>
<event>
 8    1  0.3674342E-007  0.1423674E+03  0.7546771E-02  0.1210179E+00
          5   -1    0    0  501    0  0.00000000000E+00  0.00000000000E+00  0.29172848578E+02  0.29549028650E+02  0.47000000000E+01 0. -1.
         -5   -1    0    0    0  501 -0.00000000000E+00 -0.00000000000E+00 -0.71216906024E+03  0.71218456903E+03  0.47000000000E+01 0. -1.
         25    2    1    2    0    0 -0.20355026100E+02  0.65031925979E+02 -0.40701205211E+03  0.43119258429E+03  0.12499902281E+03 0.  0.
         25    2    1    2    0    0  0.20355026100E+02 -0.65031925979E+02 -0.27598415956E+03  0.31054101339E+03  0.12499994475E+03 0.  0.
          5    1    3    3  502    0  0.29600823221E+02  0.81568381789E+02 -0.21121779898E+03  0.22839583676E+03  0.47000000000E+01 0.  1.
         -5    1    3    3    0  502 -0.49955849321E+02 -0.16536455810E+02 -0.19579425313E+03  0.20279674753E+03  0.47000000000E+01 0.  1.
          5    1    4    4  503    0  0.34980852516E+02  0.24874081218E+02 -0.45802015645E+02  0.62946760015E+02  0.47000000000E+01 0.  1.
         -5    1    4    4    0  503 -0.14625826417E+02 -0.89906007197E+02 -0.23018214391E+03  0.24759425338E+03  0.47000000000E+01 0.  1.
<mgrwt>
<rscale>  0 0.14236716E+03</rscale>
<asrwt>0</asrwt>
<pdfrwt beam="1">  1        5 0.45182610E-02 0.14236736E+03</pdfrwt>
<pdfrwt beam="2">  1       -5 0.10959459E+00 0.14236736E+03</pdfrwt>
<totfact> 0.14306318E+02</totfact>
</mgrwt>
</event>
<event>
 8    1  0.3674342E-007  0.1461454E+03  0.7546771E-02  0.1205291E+00
          5   -1    0    0  501    0  0.00000000000E+00  0.00000000000E+00  0.26767179114E+03  0.26771305118E+03  0.47000000000E+01 0. -1.
         -5   -1    0    0    0  501 -0.00000000000E+00 -0.00000000000E+00 -0.12013301943E+03  0.12022492403E+03  0.47000000000E+01 0. -1.
         25    2    1    2    0    0 -0.75634462469E+02 -0.35934053340E+01 -0.38719788310E+02  0.15118765556E+03  0.12500000285E+03 0.  0.
         25    2    1    2    0    0  0.75634462469E+02  0.35934053340E+01  0.18625856002E+03  0.23675031965E+03  0.12499991280E+03 0.  0.
          5    1    3    3  502    0 -0.61809740054E+02  0.17006605087E+02  0.35051649397E+02  0.73214593543E+02  0.47000000000E+01 0. -1.
         -5    1    3    3    0  502 -0.13824722414E+02 -0.20600010421E+02 -0.73771437708E+02  0.77973062019E+02  0.47000000000E+01 0. -1.
          5    1    4    4  503    0  0.48760497334E+02  0.61286864629E+02  0.12912932305E+03  0.15109645247E+03  0.47000000000E+01 0. -1.
         -5    1    4    4    0  503  0.26873965135E+02 -0.57693459295E+02  0.57129236967E+02  0.85653867186E+02  0.47000000000E+01 0. -1.
<mgrwt>
<rscale>  0 0.14614541E+03</rscale>
<asrwt>0</asrwt>
<pdfrwt beam="1">  1        5 0.41190519E-01 0.14614542E+03</pdfrwt>
<pdfrwt beam="2">  1       -5 0.18492246E-01 0.14614542E+03</pdfrwt>
<totfact> 0.11222801E+02</totfact>
</mgrwt>
</event>
<event>
 8    1  0.3674342E-007  0.1729677E+03  0.7546771E-02  0.1174788E+00
          5   -1    0    0  501    0  0.00000000000E+00  0.00000000000E+00  0.28789961014E+03  0.28793797165E+03  0.47000000000E+01 0. -1.
         -5   -1    0    0    0  501 -0.00000000000E+00 -0.00000000000E+00 -0.10971520352E+03  0.10981582711E+03  0.47000000000E+01 0. -1.
         25    2    1    2    0    0  0.83196359224E+02 -0.85851081587E+02  0.13516959766E+03  0.21951911835E+03  0.12500312314E+03 0.  0.
         25    2    1    2    0    0 -0.83196359224E+02  0.85851081587E+02  0.43014808961E+02  0.17823468041E+03  0.12500114045E+03 0.  0.
          5    1    3    3  502    0  0.91467527916E+02 -0.17210657514E+02  0.39091610911E+02  0.10105819828E+03  0.47000000000E+01 0. -1.
         -5    1    3    3    0  502 -0.82711686923E+01 -0.68640424073E+02  0.96077986746E+02  0.11846092008E+03  0.47000000000E+01 0. -1.
          5    1    4    4  503    0  0.27749724865E+02  0.97586584956E+01 -0.12908960840E+02  0.32465518873E+02  0.47000000000E+01 0. -1.
         -5    1    4    4    0  503 -0.11094608409E+03  0.76092423091E+02  0.55923769802E+02  0.14576916154E+03  0.47000000000E+01 0. -1.
<mgrwt>
<rscale>  0 0.17296734E+03</rscale>
<asrwt>0</asrwt>
<pdfrwt beam="1">  1        5 0.44302938E-01 0.17296769E+03</pdfrwt>
<pdfrwt beam="2">  1       -5 0.16889953E-01 0.17296769E+03</pdfrwt>
<totfact> 0.12016610E+02</totfact>
</mgrwt>
</event>
<event>
 8    1  0.3674342E-007  0.1252465E+03  0.7546771E-02  0.1234685E+00
          5   -1    0    0  501    0  0.00000000000E+00  0.00000000000E+00  0.61699410010E+02  0.61878164126E+02  0.47000000000E+01 0. -1.
         -5   -1    0    0    0  501 -0.00000000000E+00 -0.00000000000E+00 -0.26002489350E+03  0.26006736673E+03  0.47000000000E+01 0. -1.
         25    2    1    2    0    0 -0.78104303827E+01  0.19764369077E+00 -0.12431326735E+03  0.17646527921E+03  0.12500065777E+03 0.  0.
         25    2    1    2    0    0  0.78104303827E+01 -0.19764369077E+00 -0.74012216138E+02  0.14548025165E+03  0.12500261435E+03 0.  0.
          5    1    4    4  502    0  0.55485399974E+02  0.73380034472E+01  0.97988656922E+00  0.56174069486E+02  0.47000000000E+01 0.  1.
         -5    1    4    4    0  502 -0.47674969592E+02 -0.75356471379E+01 -0.74992102708E+02  0.89306182159E+02  0.47000000000E+01 0.  1.
          5    1    3    3  503    0 -0.13618502474E+02 -0.44666708439E+02 -0.31402177649E+01  0.47037532036E+02  0.47000000000E+01 0. -1.
         -5    1    3    3    0  503  0.58080720909E+01  0.44864352130E+02 -0.12117304959E+03  0.12942774718E+03  0.47000000000E+01 0. -1.
<mgrwt>
<rscale>  0 0.12524605E+03</rscale>
<asrwt>0</asrwt>
<pdfrwt beam="1">  1        5 0.95092345E-02 0.12524654E+03</pdfrwt>
<pdfrwt beam="2">  1       -5 0.40020847E-01 0.12524654E+03</pdfrwt>
<totfact> 0.37135068E+02</totfact>
</mgrwt>
</event>
<event>
 8    1  0.3674342E-007  0.1349272E+03  0.7546771E-02  0.1220323E+00
          5   -1    0    0  501    0  0.00000000000E+00  0.00000000000E+00  0.45794779523E+02  0.46035332426E+02  0.47000000000E+01 0.  1.
         -5   -1    0    0    0  501 -0.00000000000E+00 -0.00000000000E+00 -0.42491927651E+03  0.42494526889E+03  0.47000000000E+01 0.  1.
         25    2    1    2    0    0  0.42940473573E+02  0.27141361830E+02 -0.25071833434E+03  0.28471868901E+03  0.12499804360E+03 0.  0.
         25    2    1    2    0    0 -0.42940473573E+02 -0.27141361830E+02 -0.12840616265E+03  0.18626191230E+03  0.12499927830E+03 0.  0.
          5    1    4    4  502    0  0.24027387911E+02  0.34389978915E+02 -0.27718093058E+02  0.50501175257E+02  0.47000000000E+01 0. -1.
         -5    1    4    4    0  502 -0.66967861484E+02 -0.61531340745E+02 -0.10068806959E+03  0.13576073705E+03  0.47000000000E+01 0. -1.
          5    1    3    3  503    0  0.92152574247E+00  0.71509939896E+02 -0.15901603951E+03  0.17442107538E+03  0.47000000000E+01 0. -1.
         -5    1    3    3    0  503  0.42018947831E+02 -0.44368578066E+02 -0.91702294829E+02  0.11029761363E+03  0.47000000000E+01 0. -1.
<mgrwt>
<rscale>  0 0.13492694E+03</rscale>
<asrwt>0</asrwt>
<pdfrwt beam="1">  1        5 0.70658545E-02 0.13492723E+03</pdfrwt>
<pdfrwt beam="2">  1       -5 0.65392697E-01 0.13492723E+03</pdfrwt>
<totfact> 0.22337236E+02</totfact>
</mgrwt>
</event>
<event>
 8    1  0.3674342E-007  0.1271712E+03  0.7546771E-02  0.1231717E+00
         -5   -1    0    0    0  501 -0.00000000000E+00  0.00000000000E+00  0.10018884512E+04  0.10018994753E+04  0.47000000000E+01 0. -1.
          5   -1    0    0  501    0  0.00000000000E+00 -0.00000000000E+00 -0.15815528286E+02  0.16499119218E+02  0.47000000000E+01 0. -1.
         25    2    1    2    0    0 -0.19408588251E+02  0.13137380616E+02  0.51389674705E+03  0.52939813832E+03  0.12499295245E+03 0.  0.
         25    2    1    2    0    0  0.19408588251E+02 -0.13137380616E+02  0.47217617582E+03  0.48900045617E+03  0.12498728358E+03 0.  0.
          5    1    3    3  502    0 -0.18259527992E+02 -0.25230890594E+02  0.46935561604E+03  0.47041130143E+03  0.47000000000E+01 0. -1.
         -5    1    3    3    0  502 -0.11490602588E+01  0.38368271210E+02  0.44541131011E+02  0.58986836895E+02  0.47000000000E+01 0. -1.
          5    1    4    4  503    0  0.68603352802E+02 -0.14395462375E+02  0.35395186245E+03  0.36085684181E+03  0.47000000000E+01 0. -1.
         -5    1    4    4    0  503 -0.49194764550E+02  0.12580817588E+01  0.11822431337E+03  0.12814361436E+03  0.47000000000E+01 0. -1.
<mgrwt>
<rscale>  0 0.12716984E+03</rscale>
<asrwt>0</asrwt>
<pdfrwt beam="2">  1        5 0.24865905E-02 0.12717123E+03</pdfrwt>
<pdfrwt beam="1">  1       -5 0.15419009E+00 0.12717123E+03</pdfrwt>
<totfact> 0.14935369E+02</totfact>
</mgrwt>
</event>
<event>
 8    1  0.3674342E-007  0.1564045E+03  0.7546771E-02  0.1192823E+00
          5   -1    0    0  501    0  0.00000000000E+00  0.00000000000E+00  0.67116160276E+02  0.67280524450E+02  0.47000000000E+01 0.  1.
         -5   -1    0    0    0  501 -0.00000000000E+00 -0.00000000000E+00 -0.38567060764E+03  0.38569924501E+03  0.47000000000E+01 0.  1.
         25    2    1    2    0    0  0.89435915565E+02 -0.28860562946E+02 -0.21320580355E+03  0.26442217252E+03  0.12502262022E+03 0.  0.
         25    2    1    2    0    0 -0.89435915565E+02  0.28860562946E+02 -0.10534864382E+03  0.18855759694E+03  0.12499566201E+03 0.  0.
          5    1    4    4  502    0 -0.26902735361E+02 -0.26568554404E+02  0.15851574764E+02  0.41267513560E+02  0.47000000000E+01 0. -1.
         -5    1    4    4    0  502 -0.62533180205E+02  0.55429117349E+02 -0.12120021859E+03  0.14729008338E+03  0.47000000000E+01 0. -1.
          5    1    3    3  503    0 -0.28669324184E+02  0.11202090354E+02 -0.34801265978E+02  0.46697270704E+02  0.47000000000E+01 0. -1.
         -5    1    3    3    0  503  0.11810523975E+03 -0.40062653300E+02 -0.17840453757E+03  0.21772490182E+03  0.47000000000E+01 0. -1.
<mgrwt>
<rscale>  0 0.15639912E+03</rscale>
<asrwt>0</asrwt>
<pdfrwt beam="1">  1        5 0.10340410E-01 0.15640451E+03</pdfrwt>
<pdfrwt beam="2">  1       -5 0.59348784E-01 0.15640451E+03</pdfrwt>
<totfact> 0.15054591E+02</totfact>
</mgrwt>
</event>
<event>
 8    1  0.3674342E-007  0.1335644E+03  0.7546771E-02  0.1222262E+00
          5   -1    0    0  501    0  0.00000000000E+00  0.00000000000E+00  0.57901345285E+02  0.58091787593E+02  0.47000000000E+01 0. -1.
         -5   -1    0    0    0  501 -0.00000000000E+00 -0.00000000000E+00 -0.34950675599E+03  0.34953835624E+03  0.47000000000E+01 0. -1.
         25    2    1    2    0    0  0.23543508156E+02 -0.40748627532E+02 -0.21654647166E+03  0.25442447587E+03  0.12499876844E+03 0.  0.
         25    2    1    2    0    0 -0.23543508156E+02  0.40748627532E+02 -0.75058939047E+02  0.15320566797E+03  0.12499353961E+03 0.  0.
          5    1    4    4  502    0 -0.33203643440E+02  0.53570979853E+02 -0.10288030949E+03  0.12074261841E+03  0.47000000000E+01 0.  1.
         -5    1    4    4    0  502  0.96601352838E+01 -0.12822352320E+02  0.27821370446E+02  0.32463049552E+02  0.47000000000E+01 0.  1.
          5    1    3    3  503    0  0.17782168844E+02 -0.16687635036E+01 -0.21374898002E+03  0.21454534896E+03  0.47000000000E+01 0.  1.
         -5    1    3    3    0  503  0.57613393127E+01 -0.39079864029E+02 -0.27974916348E+01  0.39879126904E+02  0.47000000000E+01 0.  1.
<mgrwt>
<rscale>  0 0.13356314E+03</rscale>
<asrwt>0</asrwt>
<pdfrwt beam="1">  1        5 0.89249796E-02 0.13356436E+03</pdfrwt>
<pdfrwt beam="2">  1       -5 0.53787349E-01 0.13356436E+03</pdfrwt>
<totfact> 0.22855459E+02</totfact>
</mgrwt>
</event>
<event>
 8    1  0.3674342E-007  0.1358818E+03  0.7546771E-02  0.1218982E+00
         -5   -1    0    0    0  501 -0.00000000000E+00  0.00000000000E+00  0.48826263924E+02  0.49051952548E+02  0.47000000000E+01 0.  1.
          5   -1    0    0  501    0  0.00000000000E+00 -0.00000000000E+00 -0.38369149667E+03  0.38372028174E+03  0.47000000000E+01 0.  1.
         25    2    1    2    0    0 -0.19903261661E+02  0.49424414586E+02 -0.13892681521E+03  0.19432784706E+03  0.12499495820E+03 0.  0.
         25    2    1    2    0    0  0.19903261661E+02 -0.49424414586E+02 -0.19593841753E+03  0.23844438722E+03  0.12499979901E+03 0.  0.
          5    1    4    4  502    0  0.59032058736E+02  0.12447222069E+02 -0.10919436957E+03  0.12484076915E+03  0.47000000000E+01 0. -1.
         -5    1    4    4    0  502 -0.39128797075E+02 -0.61871636655E+02 -0.86744047962E+02  0.11360361807E+03  0.47000000000E+01 0. -1.
          5    1    3    3  503    0 -0.18328403739E+02  0.76825659481E+02 -0.34612837155E+02  0.86361165082E+02  0.47000000000E+01 0. -1.
         -5    1    3    3    0  503 -0.15748579221E+01 -0.27401244895E+02 -0.10431397806E+03  0.10796668198E+03  0.47000000000E+01 0. -1.
<mgrwt>
<rscale>  0 0.13588068E+03</rscale>
<asrwt>0</asrwt>
<pdfrwt beam="2">  1        5 0.59049034E-01 0.13588180E+03</pdfrwt>
<pdfrwt beam="1">  1       -5 0.75313081E-02 0.13588180E+03</pdfrwt>
<totfact> 0.25145919E+02</totfact>
</mgrwt>
</event>
<event>
 8    1  0.3674342E-007  0.1429760E+03  0.7546771E-02  0.1209380E+00
          5   -1    0    0  501    0  0.00000000000E+00  0.00000000000E+00  0.75579623588E+02  0.75725619851E+02  0.47000000000E+01 0. -1.
         -5   -1    0    0    0  501 -0.00000000000E+00 -0.00000000000E+00 -0.27031026406E+03  0.27035112143E+03  0.47000000000E+01 0. -1.
         25    2    1    2    0    0  0.41299084938E+02 -0.55793992809E+02 -0.10281632890E+03  0.17610505088E+03  0.12499282942E+03 0.  0.
         25    2    1    2    0    0 -0.41299084938E+02  0.55793992809E+02 -0.91914311569E+02  0.16997169040E+03  0.12499420313E+03 0.  0.
          5    1    4    4  502    0  0.89771372219E+01 -0.59292294852E+01  0.25478920639E+02  0.28053701216E+02  0.47000000000E+01 0.  1.
         -5    1    4    4    0  502 -0.50276222160E+02  0.61723222294E+02 -0.11739323221E+03  0.14191798918E+03  0.47000000000E+01 0.  1.
          5    1    3    3  503    0  0.61616488627E+02  0.18532597471E+02 -0.58522554329E+02  0.87103548751E+02  0.47000000000E+01 0. -1.
         -5    1    3    3    0  503 -0.20317403689E+02 -0.74326590280E+02 -0.44293774575E+02  0.89001502130E+02  0.47000000000E+01 0. -1.
<mgrwt>
<rscale>  0 0.14297569E+03</rscale>
<asrwt>0</asrwt>
<pdfrwt beam="1">  1        5 0.11642008E-01 0.14297599E+03</pdfrwt>
<pdfrwt beam="2">  1       -5 0.41600567E-01 0.14297599E+03</pdfrwt>
<totfact> 0.25211664E+02</totfact>
</mgrwt>
</event>
<event>
 8    1  0.3674342E-007  0.1275049E+03  0.7546771E-02  0.1231208E+00
          5   -1    0    0  501    0  0.00000000000E+00  0.00000000000E+00  0.13863078450E+03  0.13871043368E+03  0.47000000000E+01 0.  1.
         -5   -1    0    0    0  501 -0.00000000000E+00 -0.00000000000E+00 -0.11731646361E+03  0.11741057292E+03  0.47000000000E+01 0.  1.
         25    2    1    2    0    0  0.24339998086E+02 -0.62322560684E+01  0.52415901568E+01  0.12760702178E+03  0.12499920487E+03 0.  0.
         25    2    1    2    0    0 -0.24339998086E+02  0.62322560684E+01  0.16072730731E+02  0.12851398481E+03  0.12500494029E+03 0.  0.
          5    1    4    4  502    0  0.24476567049E+02  0.48363652366E+02 -0.15485280309E+02  0.56568799801E+02  0.47000000000E+01 0.  1.
         -5    1    4    4    0  502 -0.48816565135E+02 -0.42131396298E+02  0.31558011040E+02  0.71945185012E+02  0.47000000000E+01 0.  1.
          5    1    3    3  503    0 -0.24719526215E+02 -0.52082411364E+02  0.14572024465E+02  0.59649530147E+02  0.47000000000E+01 0.  1.
         -5    1    3    3    0  503  0.49059524301E+02  0.45850155296E+02 -0.93304343080E+01  0.67957491637E+02  0.47000000000E+01 0.  1.
<mgrwt>
<rscale>  0 0.12750354E+03</rscale>
<asrwt>0</asrwt>
<pdfrwt beam="1">  1        5 0.21341179E-01 0.12750495E+03</pdfrwt>
<pdfrwt beam="2">  1       -5 0.18062053E-01 0.12750495E+03</pdfrwt>
<totfact> 0.40631043E+02</totfact>
</mgrwt>
</event>
<event>
 8    1  0.3674342E-007  0.1272213E+03  0.7546771E-02  0.1231652E+00
          5   -1    0    0  501    0  0.00000000000E+00  0.00000000000E+00  0.39953963763E+02  0.40229457123E+02  0.47000000000E+01 0. -1.
         -5   -1    0    0    0  501 -0.00000000000E+00 -0.00000000000E+00 -0.43790279971E+03  0.43792802148E+03  0.47000000000E+01 0. -1.
         25    2    1    2    0    0 -0.66190240933E+01  0.22538537840E+02 -0.26618650617E+03  0.29502630864E+03  0.12503387363E+03 0.  0.
         25    2    1    2    0    0  0.66190240933E+01 -0.22538537840E+02 -0.13176232977E+03  0.18313116996E+03  0.12499566670E+03 0.  0.
          5    1    3    3  502    0  0.36854585656E+01  0.73849962317E+02 -0.14161781823E+03  0.15982833285E+03  0.47000000000E+01 0.  1.
         -5    1    3    3    0  502 -0.10304482659E+02 -0.51311424476E+02 -0.12456868794E+03  0.13519797580E+03  0.47000000000E+01 0.  1.
          5    1    4    4  503    0  0.52327751320E+02 -0.36607377599E+02 -0.11609977958E+03  0.13258786698E+03  0.47000000000E+01 0.  1.
         -5    1    4    4    0  503 -0.45708727227E+02  0.14068839759E+02 -0.15662550196E+02  0.50543302974E+02  0.47000000000E+01 0.  1.
<mgrwt>
<rscale>  0 0.12721194E+03</rscale>
<asrwt>0</asrwt>
<pdfrwt beam="1">  1        5 0.61698959E-02 0.12722133E+03</pdfrwt>
<pdfrwt beam="2">  1       -5 0.67392790E-01 0.12722133E+03</pdfrwt>
<totfact> 0.25728516E+02</totfact>
</mgrwt>
</event>
<event>
 8    1  0.3674342E-007  0.1338725E+03  0.7546771E-02  0.1221822E+00
         -5   -1    0    0    0  501 -0.00000000000E+00  0.00000000000E+00  0.89480511282E+02  0.89603860962E+02  0.47000000000E+01 0. -1.
          5   -1    0    0  501    0  0.00000000000E+00 -0.00000000000E+00 -0.21398606206E+03  0.21403767134E+03  0.47000000000E+01 0. -1.
         25    2    1    2    0    0  0.39440687661E+02  0.27204220361E+02 -0.23440316080E+02  0.13590358464E+03  0.12499879380E+03 0.  0.
         25    2    1    2    0    0 -0.39440687661E+02 -0.27204220361E+02 -0.10106523469E+03  0.16773794767E+03  0.12500479981E+03 0.  0.
          5    1    3    3  502    0  0.71072852062E+02  0.53868999922E+02 -0.26018416940E+01  0.89342481682E+02  0.47000000000E+01 0.  1.
         -5    1    3    3    0  502 -0.31632164401E+02 -0.26664779561E+02 -0.20838474386E+02  0.46561102956E+02  0.47000000000E+01 0.  1.
          5    1    4    4  503    0 -0.40577469033E+02 -0.54482124869E+02 -0.55891800909E+01  0.68323947906E+02  0.47000000000E+01 0.  1.
         -5    1    4    4    0  503  0.11367813720E+01  0.27277904507E+02 -0.95476054604E+02  0.99413999763E+02  0.47000000000E+01 0.  1.
<mgrwt>
<rscale>  0 0.13387106E+03</rscale>
<asrwt>0</asrwt>
<pdfrwt beam="2">  1        5 0.32934391E-01 0.13387247E+03</pdfrwt>
<pdfrwt beam="1">  1       -5 0.13779691E-01 0.13387247E+03</pdfrwt>
<totfact> 0.29280189E+02</totfact>
</mgrwt>
</event>
<event>
 8    1  0.3674342E-007  0.1715736E+03  0.7546771E-02  0.1176224E+00
          5   -1    0    0  501    0  0.00000000000E+00  0.00000000000E+00  0.28160384272E+02  0.28549907922E+02  0.47000000000E+01 0. -1.
         -5   -1    0    0    0  501 -0.00000000000E+00 -0.00000000000E+00 -0.11274171603E+04  0.11274269570E+04  0.47000000000E+01 0. -1.
         25    2    1    2    0    0 -0.11723095949E+03  0.83497760897E+01 -0.71276645505E+03  0.73312586205E+03  0.12499877419E+03 0.  0.
         25    2    1    2    0    0  0.11723095949E+03 -0.83497760897E+01 -0.38649032095E+03  0.42285100282E+03  0.12496153719E+03 0.  0.
          5    1    3    3  502    0 -0.88636424538E+02  0.57061898181E+02 -0.33773316431E+03  0.35383365619E+03  0.47000000000E+01 0. -1.
         -5    1    3    3    0  502 -0.28594534951E+02 -0.48712122091E+02 -0.37503329073E+03  0.37929220586E+03  0.47000000000E+01 0. -1.
          5    1    4    4  503    0  0.14239036694E+03 -0.14227227483E+02 -0.34751685343E+03  0.37585566913E+03  0.47000000000E+01 0.  1.
         -5    1    4    4    0  503 -0.25159407453E+02  0.58774513930E+01 -0.38973467520E+02  0.46995333692E+02  0.47000000000E+01 0.  1.
<mgrwt>
<rscale>  0 0.17156685E+03</rscale>
<asrwt>0</asrwt>
<pdfrwt beam="1">  1        5 0.43630846E-02 0.17157363E+03</pdfrwt>
<pdfrwt beam="2">  1       -5 0.17347948E+00 0.17157363E+03</pdfrwt>
<totfact> 0.46875729E+01</totfact>
</mgrwt>
</event>
<event>
 8    1  0.3674342E-007  0.1275592E+03  0.7546771E-02  0.1231152E+00
          5   -1    0    0  501    0  0.00000000000E+00  0.00000000000E+00  0.88944224115E+03  0.88945465896E+03  0.47000000000E+01 0. -1.
         -5   -1    0    0    0  501 -0.00000000000E+00 -0.00000000000E+00 -0.18239353782E+02  0.18835180551E+02  0.47000000000E+01 0. -1.
         25    2    1    2    0    0  0.10422332050E+02  0.22853329021E+02  0.38126726102E+03  0.40203989827E+03  0.12506180803E+03 0.  0.
         25    2    1    2    0    0 -0.10422332050E+02 -0.22853329021E+02  0.48993562636E+03  0.50624994124E+03  0.12498474060E+03 0.  0.
          5    1    3    3  502    0 -0.34129435569E+02 -0.74258834374E+01  0.31287940354E+03  0.31485802083E+03  0.47000000000E+01 0. -1.
         -5    1    3    3    0  502  0.44551767619E+02  0.30279212459E+02  0.68387857471E+02  0.87181877444E+02  0.47000000000E+01 0. -1.
          5    1    4    4  503    0 -0.51698688709E+02 -0.45484241609E+02  0.38508171702E+03  0.39121808424E+03  0.47000000000E+01 0.  1.
         -5    1    4    4    0  503  0.41276356659E+02  0.22630912588E+02  0.10485390933E+03  0.11503185701E+03  0.47000000000E+01 0.  1.
<mgrwt>
<rscale>  0 0.12754033E+03</rscale>
<asrwt>0</asrwt>
<pdfrwt beam="1">  1        5 0.13688409E+00 0.12755922E+03</pdfrwt>
<pdfrwt beam="2">  1       -5 0.28528418E-02 0.12755922E+03</pdfrwt>
<totfact> 0.16531224E+02</totfact>
</mgrwt>
</event>
<event>
 8    1  0.3674342E-007  0.1702917E+03  0.7546771E-02  0.1177545E+00
         -5   -1    0    0    0  501 -0.00000000000E+00  0.00000000000E+00  0.73025728438E+03  0.73027240903E+03  0.47000000000E+01 0. -1.
          5   -1    0    0  501    0  0.00000000000E+00 -0.00000000000E+00 -0.47120882368E+02  0.47354699398E+02  0.47000000000E+01 0. -1.
         25    2    1    2    0    0 -0.98986114294E+02  0.59787228053E+02  0.49691248870E+03  0.52528087733E+03  0.12500086083E+03 0.  0.
         25    2    1    2    0    0  0.98986114294E+02 -0.59787228053E+02  0.18622391332E+03  0.25234623109E+03  0.12500604384E+03 0.  0.
          5    1    3    3  502    0 -0.10942692024E+03  0.49490405077E+01  0.38228107705E+03  0.39769291638E+03  0.47000000000E+01 0. -1.
         -5    1    3    3    0  502  0.10440805946E+02  0.54838187546E+02  0.11463141165E+03  0.12758796095E+03  0.47000000000E+01 0. -1.
          5    1    4    4  503    0  0.56725055193E+02 -0.91769354165E+02  0.82941032501E+02  0.13616405959E+03  0.47000000000E+01 0.  1.
         -5    1    4    4    0  503  0.42261059101E+02  0.31982126112E+02  0.10328288081E+03  0.11618217151E+03  0.47000000000E+01 0.  1.
<mgrwt>
<rscale>  0 0.17029078E+03</rscale>
<asrwt>0</asrwt>
<pdfrwt beam="2">  1        5 0.72685165E-02 0.17029173E+03</pdfrwt>
<pdfrwt beam="1">  1       -5 0.11236641E+00 0.17029173E+03</pdfrwt>
<totfact> 0.63838739E+01</totfact>
</mgrwt>
</event>
<event>
 8    1  0.3674342E-007  0.1320104E+03  0.7546771E-02  0.1224508E+00
         -5   -1    0    0    0  501 -0.00000000000E+00  0.00000000000E+00  0.25837311181E+03  0.25841585653E+03  0.47000000000E+01 0.  1.
          5   -1    0    0  501    0  0.00000000000E+00 -0.00000000000E+00 -0.71988854627E+02  0.72142118007E+02  0.47000000000E+01 0.  1.
         25    2    1    2    0    0 -0.36013746872E+02 -0.22476521656E+02  0.13527488460E+03  0.18901333062E+03  0.12499824302E+03 0.  0.
         25    2    1    2    0    0  0.36013746872E+02  0.22476521656E+02  0.51109372574E+02  0.14154464391E+03  0.12498213579E+03 0.  0.
          5    1    4    4  502    0 -0.42539845998E+02  0.25231345956E+02  0.41326092684E+01  0.49854064786E+02  0.47000000000E+01 0.  1.
         -5    1    4    4    0  502  0.78553592870E+02 -0.27548243002E+01  0.46976763305E+02  0.91690579125E+02  0.47000000000E+01 0.  1.
          5    1    3    3  503    0  0.26253578440E+02  0.11927549428E+02 -0.68500040973E+01  0.30008821576E+02  0.47000000000E+01 0.  1.
         -5    1    3    3    0  503 -0.62267325311E+02 -0.34404071084E+02  0.14212488870E+03  0.15900450905E+03  0.47000000000E+01 0.  1.
<mgrwt>
<rscale>  0 0.13200658E+03</rscale>
<asrwt>0</asrwt>
<pdfrwt beam="2">  1        5 0.11090286E-01 0.13201040E+03</pdfrwt>
<pdfrwt beam="1">  1       -5 0.39764788E-01 0.13201040E+03</pdfrwt>
<totfact> 0.29319428E+02</totfact>
</mgrwt>
</event>
<event>
 8    1  0.3674342E-007  0.2000140E+03  0.7546771E-02  0.1149727E+00
          5   -1    0    0  501    0  0.00000000000E+00  0.00000000000E+00  0.34434557756E+02  0.34753830981E+02  0.47000000000E+01 0.  1.
         -5   -1    0    0    0  501 -0.00000000000E+00 -0.00000000000E+00 -0.11675756804E+04  0.11675851401E+04  0.47000000000E+01 0.  1.
         25    2    1    2    0    0  0.72042102029E+02  0.13853040433E+03 -0.50696626119E+03  0.54499577328E+03  0.12499946210E+03 0.  0.
         25    2    1    2    0    0 -0.72042102029E+02 -0.13853040433E+03 -0.62617486142E+03  0.65734319780E+03  0.12499754088E+03 0.  0.
          5    1    4    4  502    0 -0.42686583345E+02 -0.11185219460E+03 -0.23164139781E+03  0.26079280092E+03  0.47000000000E+01 0. -1.
         -5    1    4    4    0  502 -0.29355518684E+02 -0.26678209729E+02 -0.39453346361E+03  0.39655039687E+03  0.47000000000E+01 0. -1.
          5    1    3    3  503    0  0.19353478444E+02  0.10108048127E+03 -0.43961131255E+03  0.45152188977E+03  0.47000000000E+01 0. -1.
         -5    1    3    3    0  503  0.52688623585E+02  0.37449923062E+02 -0.67354948639E+02  0.93473883512E+02  0.47000000000E+01 0. -1.
<mgrwt>
<rscale>  0 0.20001371E+03</rscale>
<asrwt>0</asrwt>
<pdfrwt beam="1">  1        5 0.53229123E-02 0.20001401E+03</pdfrwt>
<pdfrwt beam="2">  1       -5 0.17965228E+00 0.20001401E+03</pdfrwt>
<totfact> 0.31541752E+01</totfact>
</mgrwt>
</event>
<event>
 8    1  0.3674342E-007  0.1369137E+03  0.7546771E-02  0.1217545E+00
         -5   -1    0    0    0  501 -0.00000000000E+00  0.00000000000E+00  0.15121740528E+03  0.15129042818E+03  0.47000000000E+01 0. -1.
          5   -1    0    0  501    0  0.00000000000E+00 -0.00000000000E+00 -0.13935352742E+03  0.13943276374E+03  0.47000000000E+01 0. -1.
         25    2    1    2    0    0  0.47887695232E+02 -0.28735067070E+02  0.54451879255E+02  0.14734442615E+03  0.12500574919E+03 0.  0.
         25    2    1    2    0    0 -0.47887695232E+02  0.28735067070E+02 -0.42588001399E+02  0.14337876577E+03  0.12499918870E+03 0.  0.
          5    1    4    4  502    0  0.47681289947E+01 -0.25090197819E+02  0.29311913068E+02  0.39160328502E+02  0.47000000000E+01 0. -1.
         -5    1    4    4    0  502 -0.52655824226E+02  0.53825264889E+02 -0.71899914467E+02  0.10421843726E+03  0.47000000000E+01 0. -1.
          5    1    3    3  503    0 -0.34943960675E+02 -0.26633625303E+02 -0.61065933904E+01  0.44607296122E+02  0.47000000000E+01 0.  1.
         -5    1    3    3    0  503  0.82831655907E+02 -0.21014417673E+01  0.60558472646E+02  0.10273713003E+03  0.47000000000E+01 0.  1.
<mgrwt>
<rscale>  0 0.13691224E+03</rscale>
<asrwt>0</asrwt>
<pdfrwt beam="2">  1        5 0.21450717E-01 0.13691374E+03</pdfrwt>
<pdfrwt beam="1">  1       -5 0.23275928E-01 0.13691374E+03</pdfrwt>
<totfact> 0.25685845E+02</totfact>
</mgrwt>
</event>
<event>
 8    1  0.3674342E-007  0.1438297E+03  0.7546771E-02  0.1208267E+00
         -5   -1    0    0    0  501 -0.00000000000E+00  0.00000000000E+00  0.43942327554E+03  0.43944841004E+03  0.47000000000E+01 0.  1.
          5   -1    0    0  501    0  0.00000000000E+00 -0.00000000000E+00 -0.54664538168E+02  0.54866216683E+02  0.47000000000E+01 0.  1.
         25    2    1    2    0    0 -0.59277912823E+01 -0.70895776358E+02  0.28512042328E+03  0.31934382272E+03  0.12500188608E+03 0.  0.
         25    2    1    2    0    0  0.59277912823E+01  0.70895776358E+02  0.99638314090E+02  0.17497080400E+03  0.12500255519E+03 0.  0.
          5    1    3    3  502    0  0.58752551428E+02 -0.34249833811E+02  0.15666578497E+03  0.17085424079E+03  0.47000000000E+01 0. -1.
         -5    1    3    3    0  502 -0.64680342711E+02 -0.36645942547E+02  0.12845463831E+03  0.14848958193E+03  0.47000000000E+01 0. -1.
          5    1    4    4  503    0 -0.47440898326E+02  0.29143511369E+02  0.18484917651E+01  0.55906082054E+02  0.47000000000E+01 0. -1.
         -5    1    4    4    0  503  0.53368689608E+02  0.41752264988E+02  0.97789822325E+02  0.11906472195E+03  0.47000000000E+01 0. -1.
<mgrwt>
<rscale>  0 0.14382958E+03</rscale>
<asrwt>0</asrwt>
<pdfrwt beam="2">  1        5 0.84273760E-02 0.14382972E+03</pdfrwt>
<pdfrwt beam="1">  1       -5 0.67621029E-01 0.14382972E+03</pdfrwt>
<totfact> 0.15661856E+02</totfact>
</mgrwt>
</event>
<event>
 8    1  0.3674342E-007  0.1253947E+03  0.7546771E-02  0.1234454E+00
         -5   -1    0    0    0  501 -0.00000000000E+00  0.00000000000E+00  0.13468381041E+02  0.14264897051E+02  0.47000000000E+01 0. -1.
          5   -1    0    0  501    0  0.00000000000E+00 -0.00000000000E+00 -0.11331958814E+04  0.11332056281E+04  0.47000000000E+01 0. -1.
         25    2    1    2    0    0 -0.58556211689E+01  0.81654651860E+01 -0.55518908024E+03  0.56917349877E+03  0.12499037467E+03 0.  0.
         25    2    1    2    0    0  0.58556211689E+01 -0.81654651860E+01 -0.56453842009E+03  0.57829702638E+03  0.12499143908E+03 0.  0.
          5    1    3    3  502    0  0.54050515732E+02 -0.17688227639E+02 -0.19869130624E+03  0.20672362425E+03  0.47000000000E+01 0.  1.
         -5    1    3    3    0  502 -0.59906136900E+02  0.25853692825E+02 -0.35649777400E+03  0.36244987452E+03  0.47000000000E+01 0.  1.
          5    1    4    4  503    0 -0.20871121452E+02  0.12266453830E+02 -0.17581821339E+02  0.30286631404E+02  0.47000000000E+01 0.  1.
         -5    1    4    4    0  503  0.26726742621E+02 -0.20431919016E+02 -0.54695659875E+03  0.54801039497E+03  0.47000000000E+01 0.  1.
<mgrwt>
<rscale>  0 0.12539440E+03</rscale>
<asrwt>0</asrwt>
<pdfrwt beam="2">  1        5 0.17439978E+00 0.12539467E+03</pdfrwt>
<pdfrwt beam="1">  1       -5 0.21340797E-02 0.12539467E+03</pdfrwt>
<totfact> 0.13400154E+02</totfact>
</mgrwt>
</event>
<event>
 8    1  0.3674342E-007  0.1349779E+03  0.7546771E-02  0.1220276E+00
         -5   -1    0    0    0  501 -0.00000000000E+00  0.00000000000E+00  0.10109444726E+03  0.10120364256E+03  0.47000000000E+01 0. -1.
          5   -1    0    0  501    0  0.00000000000E+00 -0.00000000000E+00 -0.19043059244E+03  0.19048858375E+03  0.47000000000E+01 0. -1.
         25    2    1    2    0    0 -0.44765620829E+02  0.24093873328E+02 -0.10373929071E+02  0.13537599075E+03  0.12503825385E+03 0.  0.
         25    2    1    2    0    0  0.44765620829E+02 -0.24093873328E+02 -0.78962216109E+02  0.15631623556E+03  0.12496102747E+03 0.  0.
          5    1    3    3  502    0 -0.64142183741E+02 -0.34158262883E+02 -0.11894223073E+02  0.73787324120E+02  0.47000000000E+01 0.  1.
         -5    1    3    3    0  502  0.19376562912E+02  0.58252136210E+02  0.15202940017E+01  0.61588666629E+02  0.47000000000E+01 0.  1.
          5    1    4    4  503    0  0.24491669866E+02 -0.15920361388E+02  0.31732494877E+02  0.43385954302E+02  0.47000000000E+01 0. -1.
         -5    1    4    4    0  503  0.20273950963E+02 -0.81735119398E+01 -0.11069471099E+03  0.11293028126E+03  0.47000000000E+01 0. -1.
<mgrwt>
<rscale>  0 0.13496004E+03</rscale>
<asrwt>0</asrwt>
<pdfrwt beam="2">  1        5 0.29309875E-01 0.13497793E+03</pdfrwt>
<pdfrwt beam="1">  1       -5 0.15565852E-01 0.13497793E+03</pdfrwt>
<totfact> 0.29650591E+02</totfact>
</mgrwt>
</event>
<event>
 8    1  0.3674342E-007  0.1680741E+03  0.7546771E-02  0.1179872E+00
          5   -1    0    0  501    0  0.00000000000E+00  0.00000000000E+00  0.17497605650E+02  0.18117842131E+02  0.47000000000E+01 0. -1.
         -5   -1    0    0    0  501 -0.00000000000E+00 -0.00000000000E+00 -0.15993508860E+04  0.15993577919E+04  0.47000000000E+01 0. -1.
         25    2    1    2    0    0 -0.75132542759E+02 -0.83536333756E+02 -0.86564359679E+03  0.88180936257E+03  0.12500278880E+03 0.  0.
         25    2    1    2    0    0  0.75132542759E+02  0.83536333756E+02 -0.71620968353E+03  0.73566627145E+03  0.12500133648E+03 0.  0.
          5    1    3    3  502    0  0.34128741833E+02 -0.31867505503E+02 -0.22355888684E+03  0.22843155389E+03  0.47000000000E+01 0. -1.
         -5    1    3    3    0  502 -0.10926128459E+03 -0.51668828252E+02 -0.64208470995E+03  0.65337780868E+03  0.47000000000E+01 0. -1.
          5    1    4    4  503    0  0.43285836306E+02  0.60799929937E+01 -0.52537110210E+03  0.52720727884E+03  0.47000000000E+01 0. -1.
         -5    1    4    4    0  503  0.31846706453E+02  0.77456340762E+02 -0.19083858143E+03  0.20845899261E+03  0.47000000000E+01 0. -1.
<mgrwt>
<rscale>  0 0.16807387E+03</rscale>
<asrwt>0</asrwt>
<pdfrwt beam="1">  1        5 0.27401823E-02 0.16807414E+03</pdfrwt>
<pdfrwt beam="2">  1       -5 0.24610211E+00 0.16807414E+03</pdfrwt>
<totfact> 0.32329410E+01</totfact>
</mgrwt>
</event>
<event>
 8    1  0.3674342E-007  0.1456840E+03  0.7546771E-02  0.1205884E+00
         -5   -1    0    0    0  501 -0.00000000000E+00  0.00000000000E+00  0.98270052036E+03  0.98271175973E+03  0.47000000000E+01 0.  1.
          5   -1    0    0  501    0  0.00000000000E+00 -0.00000000000E+00 -0.21329022623E+02  0.21840723569E+02  0.47000000000E+01 0.  1.
         25    2    1    2    0    0  0.63610371461E+02 -0.39361272847E+02  0.47706748266E+03  0.49881125219E+03  0.12499477247E+03 0.  0.
         25    2    1    2    0    0 -0.63610371461E+02  0.39361272847E+02  0.48430401508E+03  0.50574123111E+03  0.12501289800E+03 0.  0.
          5    1    3    3  502    0  0.35060976859E+02 -0.79028351485E+02  0.38340563320E+03  0.39306071033E+03  0.47000000000E+01 0. -1.
         -5    1    3    3    0  502  0.28549394601E+02  0.39667078639E+02  0.93661849462E+02  0.10575054186E+03  0.47000000000E+01 0. -1.
          5    1    4    4  503    0 -0.84434644854E+02  0.14889821358E+02  0.45146052646E+03  0.45955371066E+03  0.47000000000E+01 0.  1.
         -5    1    4    4    0  503  0.20824273393E+02  0.24471451489E+02  0.32843488614E+02  0.46187520443E+02  0.47000000000E+01 0.  1.
<mgrwt>
<rscale>  0 0.14568006E+03</rscale>
<asrwt>0</asrwt>
<pdfrwt beam="2">  1        5 0.33216137E-02 0.14568395E+03</pdfrwt>
<pdfrwt beam="1">  1       -5 0.15122495E+00 0.14568395E+03</pdfrwt>
<totfact> 0.10313213E+02</totfact>
</mgrwt>
</event>
<event>
 8    1  0.3674342E-007  0.1458916E+03  0.7546771E-02  0.1205619E+00
          5   -1    0    0  501    0  0.00000000000E+00  0.00000000000E+00  0.26000326532E+03  0.26004574208E+03  0.47000000000E+01 0. -1.
         -5   -1    0    0    0  501 -0.00000000000E+00 -0.00000000000E+00 -0.83478953389E+02  0.83611157502E+02  0.47000000000E+01 0. -1.
         25    2    1    2    0    0  0.74715726261E+02 -0.87889003367E+01  0.63459371401E+02  0.15908158378E+03  0.12498069435E+03 0.  0.
         25    2    1    2    0    0 -0.74715726261E+02  0.87889003367E+01  0.11306494053E+03  0.18457531581E+03  0.12499872763E+03 0.  0.
          5    1    4    4  502    0 -0.51565222202E+02 -0.38820623488E+02  0.11437147419E+03  0.13141132774E+03  0.47000000000E+01 0.  1.
         -5    1    4    4    0  502 -0.23150504059E+02  0.47609523825E+02 -0.13065336653E+01  0.53163988067E+02  0.47000000000E+01 0.  1.
          5    1    3    3  503    0  0.89690997120E+02  0.35964703641E+02  0.30927964698E+02  0.10157048721E+03  0.47000000000E+01 0.  1.
         -5    1    3    3    0  503 -0.14975270859E+02 -0.44753603978E+02  0.32531406703E+02  0.57511096567E+02  0.47000000000E+01 0.  1.
<mgrwt>
<rscale>  0 0.14588776E+03</rscale>
<asrwt>0</asrwt>
<pdfrwt beam="1">  1        5 0.40013938E-01 0.14589163E+03</pdfrwt>
<pdfrwt beam="2">  1       -5 0.12856353E-01 0.14589163E+03</pdfrwt>
<totfact> 0.23048697E+02</totfact>
</mgrwt>
</event>
<event>
 8    1  0.3674342E-007  0.1342285E+03  0.7546771E-02  0.1221315E+00
          5   -1    0    0  501    0  0.00000000000E+00  0.00000000000E+00  0.10367441930E+03  0.10378090006E+03  0.47000000000E+01 0. -1.
         -5   -1    0    0    0  501 -0.00000000000E+00 -0.00000000000E+00 -0.17390972880E+03  0.17397322717E+03  0.47000000000E+01 0. -1.
         25    2    1    2    0    0 -0.39815804054E+02  0.28404690693E+02 -0.41408813005E+02  0.14047060559E+03  0.12500070614E+03 0.  0.
         25    2    1    2    0    0  0.39815804054E+02 -0.28404690693E+02 -0.28826496492E+02  0.13728352164E+03  0.12499469472E+03 0.  0.
          5    1    3    3  502    0  0.42926466340E+02  0.17681118291E+02 -0.31543086217E+02  0.56323704996E+02  0.47000000000E+01 0. -1.
         -5    1    3    3    0  502 -0.82742270394E+02  0.10723572401E+02 -0.98657267881E+01  0.84146900597E+02  0.47000000000E+01 0. -1.
          5    1    4    4  503    0 -0.47801504777E+01  0.36435208480E+02 -0.43453366744E+02  0.57102183294E+02  0.47000000000E+01 0.  1.
         -5    1    4    4    0  503  0.44595954532E+02 -0.64839899173E+02  0.14626870252E+02  0.80181338344E+02  0.47000000000E+01 0.  1.
<mgrwt>
<rscale>  0 0.13422714E+03</rscale>
<asrwt>0</asrwt>
<pdfrwt beam="1">  1        5 0.15962986E-01 0.13422854E+03</pdfrwt>
<pdfrwt beam="2">  1       -5 0.26768418E-01 0.13422854E+03</pdfrwt>
<totfact> 0.33718465E+02</totfact>
</mgrwt>
</event>
<event>
 8    1  0.3674342E-007  0.1287071E+03  0.7546771E-02  0.1229393E+00
         -5   -1    0    0    0  501 -0.00000000000E+00  0.00000000000E+00  0.97400296396E+02  0.97513628473E+02  0.47000000000E+01 0.  1.
          5   -1    0    0  501    0  0.00000000000E+00 -0.00000000000E+00 -0.17747988774E+03  0.17754210924E+03  0.47000000000E+01 0.  1.
         25    2    1    2    0    0  0.10133155660E+02  0.28872713818E+02 -0.11460818068E+02  0.12919945081E+03  0.12499933316E+03 0.  0.
         25    2    1    2    0    0 -0.10133155660E+02 -0.28872713818E+02 -0.68618773278E+02  0.14585628691E+03  0.12501682262E+03 0.  0.
          5    1    3    3  502    0 -0.52913357877E+02  0.34659722382E+02 -0.16421902338E+02  0.65520139452E+02  0.47000000000E+01 0.  1.
         -5    1    3    3    0  502  0.63046513537E+02 -0.57870085634E+01  0.49610842696E+01  0.63679311354E+02  0.47000000000E+01 0.  1.
          5    1    4    4  503    0  0.80751540529E+01  0.29771440142E+02 -0.77582180221E+02  0.83621955543E+02  0.47000000000E+01 0. -1.
         -5    1    4    4    0  503 -0.18208309713E+02 -0.58644153960E+02  0.89634069425E+01  0.62234331364E+02  0.47000000000E+01 0. -1.
<mgrwt>
<rscale>  0 0.12870286E+03</rscale>
<asrwt>0</asrwt>
<pdfrwt beam="2">  1        5 0.27318102E-01 0.12870711E+03</pdfrwt>
<pdfrwt beam="1">  1       -5 0.14998165E-01 0.12870711E+03</pdfrwt>
<totfact> 0.35755322E+02</totfact>
</mgrwt>
</event>
<event>
 8    1  0.3674342E-007  0.1415816E+03  0.7546771E-02  0.1211232E+00
          5   -1    0    0  501    0  0.00000000000E+00  0.00000000000E+00  0.23921624828E+03  0.23926241544E+03  0.47000000000E+01 0. -1.
         -5   -1    0    0    0  501 -0.00000000000E+00 -0.00000000000E+00 -0.85712497796E+02  0.85841262097E+02  0.47000000000E+01 0. -1.
         25    2    1    2    0    0 -0.66044072695E+02 -0.66500026141E+01  0.51533358769E+02  0.15062354887E+03  0.12500289731E+03 0.  0.
         25    2    1    2    0    0  0.66044072695E+02  0.66500026141E+01  0.10197039172E+03  0.17448012867E+03  0.12505723666E+03 0.  0.
          5    1    4    4  502    0  0.50438559271E+02  0.62084176413E+02  0.39329974385E+02  0.89260462173E+02  0.47000000000E+01 0.  1.
         -5    1    4    4    0  502  0.15605513423E+02 -0.55434173799E+02  0.62640417330E+02  0.85219666493E+02  0.47000000000E+01 0.  1.
          5    1    3    3  503    0 -0.46497074281E+02 -0.47267635663E+02  0.74477564828E+02  0.99825873203E+02  0.47000000000E+01 0.  1.
         -5    1    3    3    0  503 -0.19546998413E+02  0.40617633049E+02 -0.22944206059E+02  0.50797675667E+02  0.47000000000E+01 0.  1.
<mgrwt>
<rscale>  0 0.14156962E+03</rscale>
<asrwt>0</asrwt>
<pdfrwt beam="1">  1        5 0.36815956E-01 0.14158162E+03</pdfrwt>
<pdfrwt beam="2">  1       -5 0.13199994E-01 0.14158162E+03</pdfrwt>
<totfact> 0.25785202E+02</totfact>
</mgrwt>
</event>
<event>
 8    1  0.3674342E-007  0.1299842E+03  0.7546771E-02  0.1227489E+00
         -5   -1    0    0    0  501 -0.00000000000E+00  0.00000000000E+00  0.23165303951E+03  0.23170071367E+03  0.47000000000E+01 0.  1.
          5   -1    0    0  501    0  0.00000000000E+00 -0.00000000000E+00 -0.72798841255E+02  0.72950402932E+02  0.47000000000E+01 0.  1.
         25    2    1    2    0    0  0.72954091266E+01  0.34800466353E+02  0.80987875291E+02  0.15312865589E+03  0.12500021544E+03 0.  0.
         25    2    1    2    0    0 -0.72954091266E+01 -0.34800466353E+02  0.77866322967E+02  0.15152246071E+03  0.12502638279E+03 0.  0.
          5    1    3    3  502    0  0.19006475551E+02 -0.37897789866E+02  0.64813996032E+02  0.77591447152E+02  0.47000000000E+01 0.  1.
         -5    1    3    3    0  502 -0.11711066424E+02  0.72698256219E+02  0.16173879260E+02  0.75537208741E+02  0.47000000000E+01 0.  1.
          5    1    4    4  503    0  0.57559385219E+02 -0.19444800787E+02  0.51175099184E+02  0.79574894791E+02  0.47000000000E+01 0. -1.
         -5    1    4    4    0  503 -0.64854794346E+02 -0.15355665567E+02  0.26691223782E+02  0.71947565918E+02  0.47000000000E+01 0. -1.
<mgrwt>
<rscale>  0 0.12997791E+03</rscale>
<asrwt>0</asrwt>
<pdfrwt beam="2">  1        5 0.11215148E-01 0.12998420E+03</pdfrwt>
<pdfrwt beam="1">  1       -5 0.35654254E-01 0.12998420E+03</pdfrwt>
<totfact> 0.35651775E+02</totfact>
</mgrwt>
</event>
<event>
 8    1  0.3674342E-007  0.1335738E+03  0.7546771E-02  0.1222248E+00
         -5   -1    0    0    0  501 -0.00000000000E+00  0.00000000000E+00  0.42908223997E+02  0.43164866345E+02  0.47000000000E+01 0. -1.
          5   -1    0    0  501    0  0.00000000000E+00 -0.00000000000E+00 -0.42447334884E+03  0.42449936852E+03  0.47000000000E+01 0. -1.
         25    2    1    2    0    0 -0.44731870837E+02  0.14715430737E+02 -0.15460187120E+03  0.20431276016E+03  0.12499792484E+03 0.  0.
         25    2    1    2    0    0  0.44731870837E+02 -0.14715430737E+02 -0.22696325364E+03  0.26335147471E+03  0.12499678619E+03 0.  0.
          5    1    3    3  502    0 -0.35757435865E+02  0.32158498203E+02  0.80802492206E-01  0.48320386540E+02  0.47000000000E+01 0. -1.
         -5    1    3    3    0  502 -0.89744349714E+01 -0.17443067466E+02 -0.15468267369E+03  0.15599237362E+03  0.47000000000E+01 0. -1.
          5    1    4    4  503    0 -0.15165685160E+01  0.47824277408E+02 -0.46969027760E+02  0.67213399396E+02  0.47000000000E+01 0. -1.
         -5    1    4    4    0  503  0.46248439353E+02 -0.62539708144E+02 -0.17999422588E+03  0.19613807531E+03  0.47000000000E+01 0. -1.
<mgrwt>
<rscale>  0 0.13357355E+03</rscale>
<asrwt>0</asrwt>
<pdfrwt beam="2">  1        5 0.65325333E-01 0.13357382E+03</pdfrwt>
<pdfrwt beam="1">  1       -5 0.66230087E-02 0.13357382E+03</pdfrwt>
<totfact> 0.24899228E+02</totfact>
</mgrwt>
</event>
<event>
 8    1  0.3674342E-007  0.1711294E+03  0.7546771E-02  0.1176679E+00
          5   -1    0    0  501    0  0.00000000000E+00  0.00000000000E+00  0.10026956660E+03  0.10037965922E+03  0.47000000000E+01 0. -1.
         -5   -1    0    0    0  501 -0.00000000000E+00 -0.00000000000E+00 -0.37020285192E+03  0.37023268571E+03  0.47000000000E+01 0. -1.
         25    2    1    2    0    0 -0.97439722219E+02 -0.64542259567E+02 -0.24327010822E+03  0.29743170558E+03  0.12500028479E+03 0.  0.
         25    2    1    2    0    0  0.97439722219E+02  0.64542259567E+02 -0.26663177103E+02  0.17318063935E+03  0.12498162304E+03 0.  0.
          5    1    3    3  502    0 -0.10395285334E+03 -0.58284127510E+02 -0.10534624893E+03  0.15913251522E+03  0.47000000000E+01 0. -1.
         -5    1    3    3    0  502  0.65131311196E+01 -0.62581320573E+01 -0.13792385929E+03  0.13829919036E+03  0.47000000000E+01 0. -1.
          5    1    4    4  503    0  0.39632912118E+02  0.52557053780E+02 -0.72687790650E+02  0.98176456111E+02  0.47000000000E+01 0. -1.
         -5    1    4    4    0  503  0.57806810101E+02  0.11985205787E+02  0.46024613546E+02  0.75004183243E+02  0.47000000000E+01 0. -1.
<mgrwt>
<rscale>  0 0.17112600E+03</rscale>
<asrwt>0</asrwt>
<pdfrwt beam="1">  1        5 0.15436851E-01 0.17112941E+03</pdfrwt>
<pdfrwt beam="2">  1       -5 0.56965048E-01 0.17112941E+03</pdfrwt>
<totfact> 0.82666144E+01</totfact>
</mgrwt>
</event>
<event>
 8    1  0.3674342E-007  0.1737987E+03  0.7546771E-02  0.1173946E+00
         -5   -1    0    0    0  501 -0.00000000000E+00  0.00000000000E+00  0.60433175649E+02  0.60615663974E+02  0.47000000000E+01 0.  1.
          5   -1    0    0  501    0  0.00000000000E+00 -0.00000000000E+00 -0.56229279810E+03  0.56231244055E+03  0.47000000000E+01 0.  1.
         25    2    1    2    0    0  0.80126809526E+02 -0.90320135814E+02 -0.14633160504E+03  0.22719795837E+03  0.12501176390E+03 0.  0.
         25    2    1    2    0    0 -0.80126809526E+02  0.90320135814E+02 -0.35552801741E+03  0.39573014615E+03  0.12499657945E+03 0.  0.
          5    1    4    4  502    0  0.21048323365E+02  0.50975157116E+02 -0.18859120830E+03  0.19654575143E+03  0.47000000000E+01 0.  1.
         -5    1    4    4    0  502 -0.10117513289E+03  0.39344978698E+02 -0.16693680911E+03  0.19918439472E+03  0.47000000000E+01 0.  1.
          5    1    3    3  503    0  0.91854374276E+02 -0.11037611603E+02 -0.66942636252E+02  0.11429112604E+03  0.47000000000E+01 0.  1.
         -5    1    3    3    0  503 -0.11727564750E+02 -0.79282524211E+02 -0.79388968792E+02  0.11290683233E+03  0.47000000000E+01 0.  1.
<mgrwt>
<rscale>  0 0.17379593E+03</rscale>
<asrwt>0</asrwt>
<pdfrwt beam="2">  1        5 0.86522129E-01 0.17379866E+03</pdfrwt>
<pdfrwt beam="1">  1       -5 0.93129605E-02 0.17379866E+03</pdfrwt>
<totfact> 0.79185336E+01</totfact>
</mgrwt>
</event>
<event>
 8    1  0.3674342E-007  0.1321540E+03  0.7546771E-02  0.1224296E+00
         -5   -1    0    0    0  501 -0.00000000000E+00  0.00000000000E+00  0.11000875078E+04  0.11000975478E+04  0.47000000000E+01 0. -1.
          5   -1    0    0  501    0  0.00000000000E+00 -0.00000000000E+00 -0.16366411816E+02  0.17027901684E+02  0.47000000000E+01 0. -1.
         25    2    1    2    0    0 -0.29320213643E+02 -0.31320175238E+02  0.66651174970E+03  0.67948595553E+03  0.12499049155E+03 0.  0.
         25    2    1    2    0    0  0.29320213643E+02  0.31320175238E+02  0.41720934625E+03  0.43763949398E+03  0.12499623909E+03 0.  0.
          5    1    3    3  502    0  0.65380738803E+01  0.28845473974E+02  0.46746532960E+03  0.46842366737E+03  0.47000000000E+01 0. -1.
         -5    1    3    3    0  502 -0.35858287523E+02 -0.60165649212E+02  0.19904642010E+03  0.21106228816E+03  0.47000000000E+01 0. -1.
          5    1    4    4  503    0  0.54436637721E+02  0.30808068269E+02  0.40405596281E+03  0.40889582498E+03  0.47000000000E+01 0. -1.
         -5    1    4    4    0  503 -0.25116424078E+02  0.51210696900E+00  0.13153383438E+02  0.28743669005E+02  0.47000000000E+01 0. -1.
<mgrwt>
<rscale>  0 0.13215267E+03</rscale>
<asrwt>0</asrwt>
<pdfrwt beam="2">  1        5 0.25695646E-02 0.13215403E+03</pdfrwt>
<pdfrwt beam="1">  1       -5 0.16929596E+00 0.13215403E+03</pdfrwt>
<totfact> 0.11041857E+02</totfact>
</mgrwt>
</event>
<event>
 8    1  0.3674342E-007  0.1554925E+03  0.7546771E-02  0.1193885E+00
         -5   -1    0    0    0  501 -0.00000000000E+00  0.00000000000E+00  0.19051770027E+03  0.19057566507E+03  0.47000000000E+01 0.  1.
          5   -1    0    0  501    0  0.00000000000E+00 -0.00000000000E+00 -0.13135434322E+03  0.13143840186E+03  0.47000000000E+01 0.  1.
         25    2    1    2    0    0 -0.85118571174E+02 -0.36133463615E+02  0.59620100706E+02  0.16653068196E+03  0.12500845281E+03 0.  0.
         25    2    1    2    0    0  0.85118571174E+02  0.36133463615E+02 -0.45674365108E+00  0.15548338497E+03  0.12499630409E+03 0.  0.
          5    1    4    4  502    0  0.31014345359E+02 -0.24420663301E+02  0.46805720814E+02  0.61409477404E+02  0.47000000000E+01 0.  1.
         -5    1    4    4    0  502  0.54104225815E+02  0.60554126916E+02 -0.47262464465E+02  0.94073907567E+02  0.47000000000E+01 0.  1.
          5    1    3    3  503    0 -0.33535358025E+02  0.14120997893E+02  0.82935472838E+02  0.90688507950E+02  0.47000000000E+01 0. -1.
         -5    1    3    3    0  503 -0.51583213148E+02 -0.50254461508E+02 -0.23315372132E+02  0.75842174006E+02  0.47000000000E+01 0. -1.
<mgrwt>
<rscale>  0 0.15549004E+03</rscale>
<asrwt>0</asrwt>
<pdfrwt beam="2">  1        5 0.20219286E-01 0.15549248E+03</pdfrwt>
<pdfrwt beam="1">  1       -5 0.29321340E-01 0.15549248E+03</pdfrwt>
<totfact> 0.19180370E+02</totfact>
</mgrwt>
</event>
<event>
 8    1  0.3674342E-007  0.1495297E+03  0.7546771E-02  0.1201056E+00
         -5   -1    0    0    0  501 -0.00000000000E+00  0.00000000000E+00  0.67155644438E+02  0.67319912209E+02  0.47000000000E+01 0.  1.
          5   -1    0    0  501    0  0.00000000000E+00 -0.00000000000E+00 -0.33233416423E+03  0.33236739719E+03  0.47000000000E+01 0.  1.
         25    2    1    2    0    0  0.43530992032E+02 -0.69527175930E+02 -0.13198010453E+03  0.19944395084E+03  0.12502066259E+03 0.  0.
         25    2    1    2    0    0 -0.43530992032E+02  0.69527175930E+02 -0.13319841527E+03  0.20024335856E+03  0.12500643727E+03 0.  0.
          5    1    4    4  502    0  0.35552402691E+02 -0.96053429872E+01 -0.39827783758E+02  0.54447941284E+02  0.47000000000E+01 0. -1.
         -5    1    4    4    0  502 -0.79083394722E+02  0.79132518917E+02 -0.93370631509E+02  0.14579541728E+03  0.47000000000E+01 0. -1.
          5    1    3    3  503    0  0.15802596626E+01 -0.81017219563E+02 -0.26719197228E+02  0.85453452750E+02  0.47000000000E+01 0.  1.
         -5    1    3    3    0  503  0.41950732369E+02  0.11490043633E+02 -0.10526090730E+03  0.11399049809E+03  0.47000000000E+01 0.  1.
<mgrwt>
<rscale>  0 0.14952676E+03</rscale>
<asrwt>0</asrwt>
<pdfrwt beam="2">  1        5 0.51143524E-01 0.14952973E+03</pdfrwt>
<pdfrwt beam="1">  1       -5 0.10346830E-01 0.14952973E+03</pdfrwt>
<totfact> 0.20436895E+02</totfact>
</mgrwt>
</event>
<event>
 8    1  0.3674342E-007  0.1386097E+03  0.7546771E-02  0.1215218E+00
          5   -1    0    0  501    0  0.00000000000E+00  0.00000000000E+00  0.46996866257E+03  0.46999216355E+03  0.47000000000E+01 0. -1.
         -5   -1    0    0    0  501 -0.00000000000E+00 -0.00000000000E+00 -0.55341077210E+02  0.55540299124E+02  0.47000000000E+01 0. -1.
         25    2    1    2    0    0 -0.59868803469E+02 -0.16177156030E+00  0.72555289459E+02  0.15645101836E+03  0.12501340455E+03 0.  0.
         25    2    1    2    0    0  0.59868803469E+02  0.16177156030E+00  0.34207229591E+03  0.36908144432E+03  0.12499342829E+03 0.  0.
          5    1    3    3  502    0 -0.87904045587E+02 -0.33902455802E+02  0.52887694815E+02  0.10814664120E+03  0.47000000000E+01 0. -1.
         -5    1    3    3    0  502  0.28035242118E+02  0.33740684242E+02  0.19667594644E+02  0.48304377160E+02  0.47000000000E+01 0. -1.
          5    1    4    4  503    0  0.10617371098E+02 -0.18988416062E+02  0.30143082005E+03  0.30225141487E+03  0.47000000000E+01 0.  1.
         -5    1    4    4    0  503  0.49251432371E+02  0.19150187622E+02  0.40641475853E+02  0.66830029448E+02  0.47000000000E+01 0.  1.
<mgrwt>
<rscale>  0 0.13860520E+03</rscale>
<asrwt>0</asrwt>
<pdfrwt beam="1">  1        5 0.72320006E-01 0.13860971E+03</pdfrwt>
<pdfrwt beam="2">  1       -5 0.85311442E-02 0.13860971E+03</pdfrwt>
<totfact> 0.13023295E+02</totfact>
</mgrwt>
</event>
<event>
 8    1  0.3674342E-007  0.1331639E+03  0.7546771E-02  0.1222859E+00
         -5   -1    0    0    0  501 -0.00000000000E+00  0.00000000000E+00  0.16180709624E+03  0.16187534215E+03  0.47000000000E+01 0. -1.
          5   -1    0    0  501    0  0.00000000000E+00 -0.00000000000E+00 -0.11077221617E+03  0.11087188045E+03  0.47000000000E+01 0. -1.
         25    2    1    2    0    0 -0.62424588682E+01 -0.45276494069E+02  0.40704856732E+02  0.13918330299E+03  0.12500470896E+03 0.  0.
         25    2    1    2    0    0  0.62424588682E+01  0.45276494069E+02  0.10330023345E+02  0.13356391961E+03  0.12507470580E+03 0.  0.
          5    1    3    3  502    0 -0.63034436474E+02 -0.60364993789E+01  0.14021310858E+02  0.65026661182E+02  0.47000000000E+01 0. -1.
         -5    1    3    3    0  502  0.56791977606E+02 -0.39239994690E+02  0.26683545874E+02  0.74156641807E+02  0.47000000000E+01 0. -1.
          5    1    4    4  503    0 -0.14308688019E+01 -0.43431514226E+02 -0.74963708263E+00  0.43714937598E+02  0.47000000000E+01 0. -1.
         -5    1    4    4    0  503  0.76733276702E+01  0.88708008295E+02  0.11079660427E+02  0.89848982011E+02  0.47000000000E+01 0. -1.
<mgrwt>
<rscale>  0 0.13314741E+03</rscale>
<asrwt>0</asrwt>
<pdfrwt beam="2">  1        5 0.17054796E-01 0.13316385E+03</pdfrwt>
<pdfrwt beam="1">  1       -5 0.24906315E-01 0.13316385E+03</pdfrwt>
<totfact> 0.34228610E+02</totfact>
</mgrwt>
</event>
<event>
 8    1  0.3674342E-007  0.1267702E+03  0.7546771E-02  0.1232331E+00
         -5   -1    0    0    0  501 -0.00000000000E+00  0.00000000000E+00  0.17179142907E+02  0.17810473071E+02  0.47000000000E+01 0.  1.
          5   -1    0    0  501    0  0.00000000000E+00 -0.00000000000E+00 -0.10137745729E+04  0.10137854677E+04  0.47000000000E+01 0.  1.
         25    2    1    2    0    0 -0.20408733626E+02  0.53023829395E+01 -0.33974681765E+03  0.36262734565E+03  0.12500424008E+03 0.  0.
         25    2    1    2    0    0  0.20408733626E+02 -0.53023829395E+01 -0.65684861232E+03  0.66896859516E+03  0.12499700051E+03 0.  0.
          5    1    4    4  502    0 -0.29511557873E+01 -0.62670315804E+02 -0.38549519640E+03  0.39059558913E+03  0.47000000000E+01 0. -1.
         -5    1    4    4    0  502  0.23359889414E+02  0.57367932865E+02 -0.27135341592E+03  0.27837300603E+03  0.47000000000E+01 0. -1.
          5    1    3    3  503    0  0.29327224060E+02  0.15452799656E+02 -0.20333670239E+02  0.39171714714E+02  0.47000000000E+01 0. -1.
         -5    1    3    3    0  503 -0.49735957686E+02 -0.10150416717E+02 -0.31941314741E+03  0.32345563094E+03  0.47000000000E+01 0. -1.
<mgrwt>
<rscale>  0 0.12676845E+03</rscale>
<asrwt>0</asrwt>
<pdfrwt beam="2">  1        5 0.15601468E+00 0.12677023E+03</pdfrwt>
<pdfrwt beam="1">  1       -5 0.26923478E-02 0.12677023E+03</pdfrwt>
<totfact> 0.12717346E+02</totfact>
</mgrwt>
</event>
<event>
 8    1  0.3674342E-007  0.1433788E+03  0.7546771E-02  0.1208854E+00
          5   -1    0    0  501    0  0.00000000000E+00  0.00000000000E+00  0.28910129300E+02  0.29289683783E+02  0.47000000000E+01 0.  1.
         -5   -1    0    0    0  501 -0.00000000000E+00 -0.00000000000E+00 -0.74668497324E+03  0.74669976514E+03  0.47000000000E+01 0.  1.
         25    2    1    2    0    0  0.68753575293E+02  0.14308567659E+02 -0.44936761319E+03  0.47168710589E+03  0.12500273940E+03 0.  0.
         25    2    1    2    0    0 -0.68753575293E+02 -0.14308567659E+02 -0.26840723075E+03  0.30430234303E+03  0.12500274089E+03 0.  0.
          5    1    4    4  502    0 -0.95652669990E+02 -0.18918372991E+02 -0.12685975030E+03  0.16007131023E+03  0.47000000000E+01 0. -1.
         -5    1    4    4    0  502  0.26899094698E+02  0.46098053321E+01 -0.14154748045E+03  0.14423103280E+03  0.47000000000E+01 0. -1.
          5    1    3    3  503    0  0.36506659333E+02 -0.51867902868E+02 -0.14201297492E+03  0.15560459687E+03  0.47000000000E+01 0.  1.
         -5    1    3    3    0  503  0.32246915960E+02  0.66176470527E+02 -0.30735463827E+03  0.31608250902E+03  0.47000000000E+01 0.  1.
<mgrwt>
<rscale>  0 0.14337878E+03</rscale>
<asrwt>0</asrwt>
<pdfrwt beam="1">  1        5 0.44780471E-02 0.14337878E+03</pdfrwt>
<pdfrwt beam="2">  1       -5 0.11490493E+00 0.14337878E+03</pdfrwt>
<totfact> 0.12929392E+02</totfact>
</mgrwt>
</event>
<event>
 8    1  0.3674342E-007  0.1339680E+03  0.7546771E-02  0.1221686E+00
          5   -1    0    0  501    0  0.00000000000E+00  0.00000000000E+00  0.57028286739E+03  0.57030223464E+03  0.47000000000E+01 0. -1.
         -5   -1    0    0    0  501 -0.00000000000E+00 -0.00000000000E+00 -0.31332834307E+02  0.31683379014E+02  0.47000000000E+01 0. -1.
         25    2    1    2    0    0 -0.46519128969E+02  0.12511779243E+02  0.25656787194E+03  0.28943822301E+03  0.12500735196E+03 0.  0.
         25    2    1    2    0    0  0.46519128969E+02 -0.12511779243E+02  0.28238216114E+03  0.31254739065E+03  0.12500244994E+03 0.  0.
          5    1    4    4  502    0  0.50433430290E+02  0.40008190687E+02  0.22691216155E+03  0.23591397855E+03  0.47000000000E+01 0. -1.
         -5    1    4    4    0  502 -0.39143013209E+01 -0.52519969930E+02  0.55469999582E+02  0.76633412099E+02  0.47000000000E+01 0. -1.
          5    1    3    3  503    0 -0.54343398368E+02 -0.34717315325E+02  0.64084412899E+02  0.91035152035E+02  0.47000000000E+01 0.  1.
         -5    1    3    3    0  503  0.78242693989E+01  0.47229094568E+02  0.19248345905E+03  0.19840307097E+03  0.47000000000E+01 0.  1.
<mgrwt>
<rscale>  0 0.13396681E+03</rscale>
<asrwt>0</asrwt>
<pdfrwt beam="1">  1        5 0.87764276E-01 0.13396795E+03</pdfrwt>
<pdfrwt beam="2">  1       -5 0.48488910E-02 0.13396795E+03</pdfrwt>
<totfact> 0.21374788E+02</totfact>
</mgrwt>
</event>
<event>
 8    1  0.3674342E-007  0.1584007E+03  0.7546771E-02  0.1190515E+00
          5   -1    0    0  501    0  0.00000000000E+00  0.00000000000E+00  0.11465237013E+04  0.11465333347E+04  0.47000000000E+01 0. -1.
         -5   -1    0    0    0  501 -0.00000000000E+00 -0.00000000000E+00 -0.25621396775E+02  0.26048915001E+02  0.47000000000E+01 0. -1.
         25    2    1    2    0    0 -0.93779105204E+02 -0.25895704271E+02  0.33092796675E+03  0.36688365017E+03  0.12500074205E+03 0.  0.
         25    2    1    2    0    0  0.93779105204E+02  0.25895704271E+02  0.78997433777E+03  0.80569859955E+03  0.12500268363E+03 0.  0.
          5    1    3    3  502    0 -0.74373952121E+02 -0.56621876977E+02  0.31180844110E+03  0.32555201681E+03  0.47000000000E+01 0. -1.
         -5    1    3    3    0  502 -0.19405153083E+02  0.30726172707E+02  0.19119525652E+02  0.41331633364E+02  0.47000000000E+01 0. -1.
          5    1    4    4  503    0  0.50485376863E+01  0.54162586867E+02  0.16480681835E+03  0.17361581415E+03  0.47000000000E+01 0.  1.
         -5    1    4    4    0  503  0.88730567518E+02 -0.28266882596E+02  0.62516751942E+03  0.63208278540E+03  0.47000000000E+01 0.  1.
<mgrwt>
<rscale>  0 0.15840031E+03</rscale>
<asrwt>0</asrwt>
<pdfrwt beam="1">  1        5 0.17642193E+00 0.15840069E+03</pdfrwt>
<pdfrwt beam="2">  1       -5 0.39753795E-02 0.15840069E+03</pdfrwt>
<totfact> 0.50933027E+01</totfact>
</mgrwt>
</event>
<event>
 8    1  0.3674342E-007  0.1379116E+03  0.7546771E-02  0.1216177E+00
         -5   -1    0    0    0  501 -0.00000000000E+00  0.00000000000E+00  0.14612413435E+04  0.14612489021E+04  0.47000000000E+01 0.  1.
          5   -1    0    0  501    0  0.00000000000E+00 -0.00000000000E+00 -0.15064987433E+02  0.15781123102E+02  0.47000000000E+01 0.  1.
         25    2    1    2    0    0  0.72379911452E+01  0.57813655323E+02  0.10153274088E+04  0.10246469741E+04  0.12496746452E+03 0.  0.
         25    2    1    2    0    0 -0.72379911452E+01 -0.57813655323E+02  0.43084894725E+03  0.45238305113E+03  0.12499920935E+03 0.  0.
          5    1    3    3  502    0  0.24323518025E+02  0.94004170237E+02  0.68234889234E+03  0.68923908655E+03  0.47000000000E+01 0.  1.
         -5    1    3    3    0  502 -0.17085526880E+02 -0.36190514914E+02  0.33297851647E+03  0.33540788755E+03  0.47000000000E+01 0.  1.
          5    1    4    4  503    0 -0.23319794520E+02  0.88129687447E+01  0.12227516101E+02  0.28161736178E+02  0.47000000000E+01 0.  1.
         -5    1    4    4    0  503  0.16081803375E+02 -0.66626624067E+02  0.41862143115E+03  0.42422131495E+03  0.47000000000E+01 0.  1.
<mgrwt>
<rscale>  0 0.13790441E+03</rscale>
<asrwt>0</asrwt>
<pdfrwt beam="2">  1        5 0.23733589E-02 0.13791160E+03</pdfrwt>
<pdfrwt beam="1">  1       -5 0.22486205E+00 0.13791160E+03</pdfrwt>
<totfact> 0.52976433E+01</totfact>
</mgrwt>
</event>
<event>
 8    1  0.3674342E-007  0.1663910E+03  0.7546771E-02  0.1181671E+00
         -5   -1    0    0    0  501 -0.00000000000E+00  0.00000000000E+00  0.16829136189E+03  0.16835697932E+03  0.47000000000E+01 0.  1.
          5   -1    0    0  501    0  0.00000000000E+00 -0.00000000000E+00 -0.16454517027E+03  0.16461228101E+03  0.47000000000E+01 0.  1.
         25    2    1    2    0    0 -0.94920529257E+02 -0.55178694815E+02  0.74885437376E+01  0.16653621221E+03  0.12499454569E+03 0.  0.
         25    2    1    2    0    0  0.94920529257E+02  0.55178694815E+02 -0.37423521252E+01  0.16643304813E+03  0.12502543370E+03 0.  0.
          5    1    4    4  502    0 -0.23716333410E+02  0.15724322419E+02 -0.26615955966E+02  0.39245609919E+02  0.47000000000E+01 0. -1.
         -5    1    4    4    0  502  0.11863686267E+03  0.39454372397E+02  0.22873603841E+02  0.12718743821E+03  0.47000000000E+01 0. -1.
          5    1    3    3  503    0 -0.12718234056E+02  0.37678662449E+02  0.13576695898E+02  0.42282996026E+02  0.47000000000E+01 0.  1.
         -5    1    3    3    0  503 -0.82202295201E+02 -0.92857357264E+02 -0.60881521606E+01  0.12425321618E+03  0.47000000000E+01 0.  1.
<mgrwt>
<rscale>  0 0.16638517E+03</rscale>
<asrwt>0</asrwt>
<pdfrwt beam="2">  1        5 0.25324851E-01 0.16639097E+03</pdfrwt>
<pdfrwt beam="1">  1       -5 0.25901189E-01 0.16639097E+03</pdfrwt>
<totfact> 0.16264551E+02</totfact>
</mgrwt>
</event>
<event>
 8    1  0.3674342E-007  0.1554736E+03  0.7546771E-02  0.1193905E+00
          5   -1    0    0  501    0  0.00000000000E+00  0.00000000000E+00  0.27739240953E+02  0.28134595939E+02  0.47000000000E+01 0. -1.
         -5   -1    0    0    0  501 -0.00000000000E+00 -0.00000000000E+00 -0.11571944470E+04  0.11572039916E+04  0.47000000000E+01 0. -1.
         25    2    1    2    0    0 -0.62023675744E+02 -0.68545996684E+02 -0.86257891601E+03  0.87647776248E+03  0.12500156701E+03 0.  0.
         25    2    1    2    0    0  0.62023675744E+02  0.68545996684E+02 -0.26687629002E+03  0.30886082504E+03  0.12500626007E+03 0.  0.
          5    1    4    4  502    0  0.45906761553E+02 -0.30111547799E+02 -0.10402868181E+03  0.11772082529E+03  0.47000000000E+01 0.  1.
         -5    1    4    4    0  502  0.16116914191E+02  0.98657544483E+02 -0.16284760821E+03  0.19113999975E+03  0.47000000000E+01 0.  1.
          5    1    3    3  503    0 -0.22532041123E+02 -0.17970609780E+02 -0.71362674723E+03  0.71422395652E+03  0.47000000000E+01 0.  1.
         -5    1    3    3    0  503 -0.39491634620E+02 -0.50575386904E+02 -0.14895216877E+03  0.16225380596E+03  0.47000000000E+01 0.  1.
<mgrwt>
<rscale>  0 0.15547270E+03</rscale>
<asrwt>0</asrwt>
<pdfrwt beam="1">  1        5 0.42987226E-02 0.15547365E+03</pdfrwt>
<pdfrwt beam="2">  1       -5 0.17806102E+00 0.15547365E+03</pdfrwt>
<totfact> 0.43353179E+01</totfact>
</mgrwt>
</event>
<event>
 8    1  0.3674342E-007  0.1525233E+03  0.7546771E-02  0.1197408E+00
          5   -1    0    0  501    0  0.00000000000E+00  0.00000000000E+00  0.18761596677E+02  0.19341341987E+02  0.47000000000E+01 0.  1.
         -5   -1    0    0    0  501 -0.00000000000E+00 -0.00000000000E+00 -0.22974999272E+04  0.22975047346E+04  0.47000000000E+01 0.  1.
         25    2    1    2    0    0 -0.85329518040E+02 -0.18894492079E+02 -0.19324120129E+04  0.19384213447E+04  0.12499197476E+03 0.  0.
         25    2    1    2    0    0  0.85329518040E+02  0.18894492079E+02 -0.34632631763E+03  0.37842473182E+03  0.12500092357E+03 0.  0.
          5    1    4    4  502    0  0.22322192488E+02 -0.31623159725E+02 -0.23300510923E+02  0.45423653725E+02  0.47000000000E+01 0. -1.
         -5    1    4    4    0  502  0.63007325552E+02  0.50517651804E+02 -0.32302580671E+03  0.33300107810E+03  0.47000000000E+01 0. -1.
          5    1    3    3  503    0 -0.87174531494E+02  0.29311232227E+00 -0.18850615164E+04  0.18870820055E+04  0.47000000000E+01 0. -1.
         -5    1    3    3    0  503  0.18450134540E+01 -0.19187604402E+02 -0.47350496463E+02  0.51339339231E+02  0.47000000000E+01 0. -1.
<mgrwt>
<rscale>  0 0.15252147E+03</rscale>
<asrwt>0</asrwt>
<pdfrwt beam="1">  1        5 0.29313669E-02 0.15252331E+03</pdfrwt>
<pdfrwt beam="2">  1       -5 0.35350627E+00 0.15252331E+03</pdfrwt>
<totfact> 0.58193168E+00</totfact>
</mgrwt>
</event>
<event>
 8    1  0.3674342E-007  0.1442745E+03  0.7546771E-02  0.1207697E+00
          5   -1    0    0  501    0  0.00000000000E+00  0.00000000000E+00  0.68435452273E+02  0.68596655369E+02  0.47000000000E+01 0.  1.
         -5   -1    0    0    0  501 -0.00000000000E+00 -0.00000000000E+00 -0.30431358046E+03  0.30434987309E+03  0.47000000000E+01 0.  1.
         25    2    1    2    0    0 -0.32560295851E+02  0.64222773457E+02 -0.12710151467E+03  0.19226037039E+03  0.12499806996E+03 0.  0.
         25    2    1    2    0    0  0.32560295851E+02 -0.64222773457E+02 -0.10877661352E+03  0.18068615808E+03  0.12502159244E+03 0.  0.
          5    1    4    4  502    0  0.12950940109E+02 -0.10120378494E+03 -0.78228040441E+02  0.12865321313E+03  0.47000000000E+01 0. -1.
         -5    1    4    4    0  502  0.19609355742E+02  0.36981011486E+02 -0.30548573077E+02  0.52032944950E+02  0.47000000000E+01 0. -1.
          5    1    3    3  503    0  0.43698591261E+02  0.46290864814E+02 -0.41542741307E+02  0.76159703247E+02  0.47000000000E+01 0. -1.
         -5    1    3    3    0  503 -0.76258887112E+02  0.17931908642E+02 -0.85558773363E+02  0.11610066714E+03  0.47000000000E+01 0. -1.
<mgrwt>
<rscale>  0 0.14426942E+03</rscale>
<asrwt>0</asrwt>
<pdfrwt beam="1">  1        5 0.10543723E-01 0.14427452E+03</pdfrwt>
<pdfrwt beam="2">  1       -5 0.46832665E-01 0.14427452E+03</pdfrwt>
<totfact> 0.23538256E+02</totfact>
</mgrwt>
</event>
<event>
 8    1  0.3674342E-007  0.1543760E+03  0.7546771E-02  0.1195203E+00
          5   -1    0    0  501    0  0.00000000000E+00  0.00000000000E+00  0.54685127581E+03  0.54687147288E+03  0.47000000000E+01 0. -1.
         -5   -1    0    0    0  501 -0.00000000000E+00 -0.00000000000E+00 -0.45919363234E+02  0.46159266890E+02  0.47000000000E+01 0. -1.
         25    2    1    2    0    0  0.90585026750E+02 -0.13374613381E+01  0.18156356750E+03  0.23830819079E+03  0.12497211241E+03 0.  0.
         25    2    1    2    0    0 -0.90585026750E+02  0.13374613381E+01  0.31936834507E+03  0.35472254898E+03  0.12499804418E+03 0.  0.
          5    1    4    4  502    0 -0.16086947702E+02 -0.28942381000E+02  0.23759253009E+03  0.23993489045E+03  0.47000000000E+01 0.  1.
         -5    1    4    4    0  502 -0.74498079048E+02  0.30279842338E+02  0.81775814985E+02  0.11478765853E+03  0.47000000000E+01 0.  1.
          5    1    3    3  503    0  0.10615342407E+03 -0.23083945655E+02  0.18099672663E+03  0.21114763328E+03  0.47000000000E+01 0. -1.
         -5    1    3    3    0  503 -0.15568397324E+02  0.21746484317E+02  0.56684086953E+00  0.27160557505E+02  0.47000000000E+01 0. -1.
<mgrwt>
<rscale>  0 0.15437074E+03</rscale>
<asrwt>0</asrwt>
<pdfrwt beam="1">  1        5 0.84150971E-01 0.15437599E+03</pdfrwt>
<pdfrwt beam="2">  1       -5 0.70845254E-02 0.15437599E+03</pdfrwt>
<totfact> 0.13070066E+02</totfact>
</mgrwt>
</event>
<event>
 8    1  0.3674342E-007  0.1277522E+03  0.7546771E-02  0.1230832E+00
          5   -1    0    0  501    0  0.00000000000E+00  0.00000000000E+00  0.28720444576E+03  0.28724290011E+03  0.47000000000E+01 0.  1.
         -5   -1    0    0    0  501 -0.00000000000E+00 -0.00000000000E+00 -0.60209874661E+02  0.60393037734E+02  0.47000000000E+01 0.  1.
         25    2    1    2    0    0 -0.36592533164E+01 -0.26105522849E+02  0.71512587591E+02  0.14640157024E+03  0.12499792450E+03 0.  0.
         25    2    1    2    0    0  0.36592533164E+01  0.26105522849E+02  0.15548198350E+03  0.20123436760E+03  0.12500294016E+03 0.  0.
          5    1    3    3  502    0  0.39447197889E+02 -0.30411572276E+02  0.86830334799E+02  0.10021248521E+03  0.47000000000E+01 0. -1.
         -5    1    3    3    0  502 -0.43106451206E+02  0.43060494271E+01 -0.15317747209E+02  0.46189085039E+02  0.47000000000E+01 0. -1.
          5    1    4    4  503    0 -0.53985760960E+02 -0.14855266355E+02  0.79236653155E+02  0.97137420843E+02  0.47000000000E+01 0. -1.
         -5    1    4    4    0  503  0.57645014276E+02  0.40960789204E+02  0.76245330349E+02  0.10409694675E+03  0.47000000000E+01 0. -1.
<mgrwt>
<rscale>  0 0.12775097E+03</rscale>
<asrwt>0</asrwt>
<pdfrwt beam="1">  1        5 0.44202347E-01 0.12775220E+03</pdfrwt>
<pdfrwt beam="2">  1       -5 0.92801051E-02 0.12775220E+03</pdfrwt>
<totfact> 0.31805196E+02</totfact>
</mgrwt>
</event>
<event>
 8    1  0.3674342E-007  0.1267062E+03  0.7546771E-02  0.1232432E+00
         -5   -1    0    0    0  501 -0.00000000000E+00  0.00000000000E+00  0.22131717533E+02  0.22625271733E+02  0.47000000000E+01 0.  1.
          5   -1    0    0  501    0  0.00000000000E+00 -0.00000000000E+00 -0.75731325212E+03  0.75732783644E+03  0.47000000000E+01 0.  1.
         25    2    1    2    0    0 -0.13426424421E+01 -0.20589397616E+02 -0.27746638751E+03  0.30502797446E+03  0.12501497120E+03 0.  0.
         25    2    1    2    0    0  0.13426424421E+01  0.20589397616E+02 -0.45771514708E+03  0.47492513371E+03  0.12500000310E+03 0.  0.
          5    1    4    4  502    0 -0.11555312503E+02 -0.31500272760E+02 -0.37298788686E+03  0.37452349215E+03  0.47000000000E+01 0. -1.
         -5    1    4    4    0  502  0.12897954945E+02  0.52089670376E+02 -0.84727260225E+02  0.10040164155E+03  0.47000000000E+01 0. -1.
          5    1    3    3  503    0 -0.17071152009E+02 -0.56005170780E+02 -0.59553153550E+02  0.83646108593E+02  0.47000000000E+01 0.  1.
         -5    1    3    3    0  503  0.15728509566E+02  0.35415773164E+02 -0.21791323396E+03  0.22138186587E+03  0.47000000000E+01 0.  1.
<mgrwt>
<rscale>  0 0.12670254E+03</rscale>
<asrwt>0</asrwt>
<pdfrwt beam="2">  1        5 0.11654880E+00 0.12670623E+03</pdfrwt>
<pdfrwt beam="1">  1       -5 0.34439678E-02 0.12670623E+03</pdfrwt>
<totfact> 0.18412332E+02</totfact>
</mgrwt>
</event>
<event>
 8    1  0.3674342E-007  0.1261114E+03  0.7546771E-02  0.1233347E+00
         -5   -1    0    0    0  501 -0.00000000000E+00  0.00000000000E+00  0.13905721550E+04  0.13905800978E+04  0.47000000000E+01 0.  1.
          5   -1    0    0  501    0  0.00000000000E+00 -0.00000000000E+00 -0.11756287761E+02  0.12660975552E+02  0.47000000000E+01 0.  1.
         25    2    1    2    0    0  0.11383050540E+02  0.12211515187E+02  0.86672560443E+03  0.87585077858E+03  0.12499047171E+03 0.  0.
         25    2    1    2    0    0 -0.11383050540E+02 -0.12211515187E+02  0.51209026284E+03  0.52739029476E+03  0.12500156305E+03 0.  0.
          5    1    4    4  502    0 -0.28045332981E+02 -0.44328893509E+02  0.46423311349E+03  0.46721094289E+03  0.47000000000E+01 0.  1.
         -5    1    4    4    0  502  0.16662282442E+02  0.32117378323E+02  0.47857149356E+02  0.60179351865E+02  0.47000000000E+01 0.  1.
          5    1    3    3  503    0 -0.36738107676E+02 -0.23795076495E+02  0.14309949403E+03  0.14971789944E+03  0.47000000000E+01 0. -1.
         -5    1    3    3    0  503  0.48121158215E+02  0.36006591682E+02  0.72362611040E+03  0.72613287914E+03  0.47000000000E+01 0. -1.
<mgrwt>
<rscale>  0 0.12610865E+03</rscale>
<asrwt>0</asrwt>
<pdfrwt beam="2">  1        5 0.18788618E-02 0.12611140E+03</pdfrwt>
<pdfrwt beam="1">  1       -5 0.21400441E+00 0.12611140E+03</pdfrwt>
<totfact> 0.88003376E+01</totfact>
</mgrwt>
</event>
<event>
 8    1  0.3674342E-007  0.1261905E+03  0.7546771E-02  0.1233222E+00
          5   -1    0    0  501    0  0.00000000000E+00  0.00000000000E+00  0.18367124639E+02  0.18958936349E+02  0.47000000000E+01 0.  1.
         -5   -1    0    0    0  501 -0.00000000000E+00 -0.00000000000E+00 -0.87351052895E+03  0.87352317324E+03  0.47000000000E+01 0.  1.
         25    2    1    2    0    0  0.68948639260E+01 -0.15821446687E+02 -0.49659053565E+03  0.51237310183E+03  0.12500471214E+03 0.  0.
         25    2    1    2    0    0 -0.68948639260E+01  0.15821446687E+02 -0.35855286867E+03  0.38010900776E+03  0.12499936332E+03 0.  0.
          5    1    3    3  502    0  0.44804487845E+02 -0.38597763406E+02 -0.41700625265E+03  0.42120486016E+03  0.47000000000E+01 0.  1.
         -5    1    3    3    0  502 -0.37909623919E+02  0.22776316719E+02 -0.79584282993E+02  0.91168241666E+02  0.47000000000E+01 0.  1.
          5    1    4    4  503    0 -0.53270111953E+02  0.82159131603E+01 -0.74034627609E+02  0.91697448938E+02  0.47000000000E+01 0. -1.
         -5    1    4    4    0  503  0.46375248027E+02  0.76055335266E+01 -0.28451824106E+03  0.28841155883E+03  0.47000000000E+01 0. -1.
<mgrwt>
<rscale>  0 0.12618915E+03</rscale>
<asrwt>0</asrwt>
<pdfrwt beam="1">  1        5 0.28722088E-02 0.12619047E+03</pdfrwt>
<pdfrwt beam="2">  1       -5 0.13443270E+00 0.12619047E+03</pdfrwt>
<totfact> 0.17083118E+02</totfact>
</mgrwt>
</event>
<event>
 8    1  0.3674342E-007  0.1525387E+03  0.7546771E-02  0.1197390E+00
         -5   -1    0    0    0  501 -0.00000000000E+00  0.00000000000E+00  0.52562837787E+03  0.52564939039E+03  0.47000000000E+01 0.  1.
          5   -1    0    0  501    0  0.00000000000E+00 -0.00000000000E+00 -0.58697734599E+02  0.58885601356E+02  0.47000000000E+01 0.  1.
         25    2    1    2    0    0 -0.87410937404E+02 -0.71292134334E-01  0.37882386077E+03  0.40837916646E+03  0.12500139618E+03 0.  0.
         25    2    1    2    0    0  0.87410937404E+02  0.71292134334E-01  0.88106782497E+02  0.17615582529E+03  0.12500957004E+03 0.  0.
          5    1    3    3  502    0 -0.19585550391E+01  0.69200693700E+01 -0.82406479722E+01  0.11904687183E+02  0.47000000000E+01 0. -1.
         -5    1    3    3    0  502 -0.85452382365E+02 -0.69913615044E+01  0.38706450875E+03  0.39647447928E+03  0.47000000000E+01 0. -1.
          5    1    4    4  503    0  0.26670566053E+02 -0.41424471301E+02  0.89677322695E+02  0.10242762382E+03  0.47000000000E+01 0. -1.
         -5    1    4    4    0  503  0.60740371351E+02  0.41495763436E+02 -0.15705401988E+01  0.73728201466E+02  0.47000000000E+01 0. -1.
<mgrwt>
<rscale>  0 0.15253707E+03</rscale>
<asrwt>0</asrwt>
<pdfrwt beam="2">  1        5 0.90464883E-02 0.15253875E+03</pdfrwt>
<pdfrwt beam="1">  1       -5 0.80881972E-01 0.15253875E+03</pdfrwt>
<totfact> 0.93839057E+01</totfact>
</mgrwt>
</event>
<event>
 8    1  0.3674342E-007  0.1678448E+03  0.7546771E-02  0.1180115E+00
         -5   -1    0    0    0  501 -0.00000000000E+00  0.00000000000E+00  0.58466817481E+03  0.58468706556E+03  0.47000000000E+01 0.  1.
          5   -1    0    0  501    0  0.00000000000E+00 -0.00000000000E+00 -0.70555306056E+02  0.70711676636E+02  0.47000000000E+01 0.  1.
         25    2    1    2    0    0 -0.10716035088E+03  0.32608390864E+02  0.44185722331E+03  0.47266190050E+03  0.12499927373E+03 0.  0.
         25    2    1    2    0    0  0.10716035088E+03 -0.32608390864E+02  0.72255645446E+02  0.18273684170E+03  0.12500090824E+03 0.  0.
          5    1    3    3  502    0 -0.33230057007E+02  0.34718459977E+02  0.36355166260E+02  0.60443331027E+02  0.47000000000E+01 0.  1.
         -5    1    3    3    0  502 -0.73930293876E+02 -0.21100691129E+01  0.40550205705E+03  0.41221856947E+03  0.47000000000E+01 0.  1.
          5    1    4    4  503    0 -0.36962626956E+01  0.16767947811E+02  0.57744409983E+02  0.60426263462E+02  0.47000000000E+01 0.  1.
         -5    1    4    4    0  503  0.11085661358E+03 -0.49376338675E+02  0.14511235463E+02  0.12231057824E+03  0.47000000000E+01 0.  1.
<mgrwt>
<rscale>  0 0.16784449E+03</rscale>
<asrwt>0</asrwt>
<pdfrwt beam="2">  1        5 0.10868144E-01 0.16784479E+03</pdfrwt>
<pdfrwt beam="1">  1       -5 0.89962433E-01 0.16784479E+03</pdfrwt>
<totfact> 0.54530126E+01</totfact>
</mgrwt>
</event>
<event>
 8    1  0.3674342E-007  0.1543945E+03  0.7546771E-02  0.1195175E+00
         -5   -1    0    0    0  501 -0.00000000000E+00  0.00000000000E+00  0.22516995173E+03  0.22521899823E+03  0.47000000000E+01 0. -1.
          5   -1    0    0  501    0  0.00000000000E+00 -0.00000000000E+00 -0.14871307644E+03  0.14878732844E+03  0.47000000000E+01 0. -1.
         25    2    1    2    0    0 -0.89007283786E+02 -0.17038826013E+02  0.13869325547E+03  0.20754004482E+03  0.12499773170E+03 0.  0.
         25    2    1    2    0    0  0.89007283786E+02  0.17038826013E+02 -0.62236380184E+02  0.16646628185E+03  0.12500015126E+03 0.  0.
          5    1    3    3  502    0  0.25208029555E+02  0.12435179820E+02  0.45670991198E+01  0.28862204447E+02  0.47000000000E+01 0. -1.
         -5    1    3    3    0  502 -0.11421531334E+03 -0.29474005833E+02  0.13412615635E+03  0.17867784037E+03  0.47000000000E+01 0. -1.
          5    1    4    4  503    0  0.83417108556E+02  0.44145875309E+02  0.39440828368E+01  0.94577577132E+02  0.47000000000E+01 0. -1.
         -5    1    4    4    0  503  0.55901752294E+01 -0.27107049296E+02 -0.66180463020E+02  0.71888704719E+02  0.47000000000E+01 0. -1.
<mgrwt>
<rscale>  0 0.15439399E+03</rscale>
<asrwt>0</asrwt>
<pdfrwt beam="2">  1        5 0.22888419E-01 0.15439448E+03</pdfrwt>
<pdfrwt beam="1">  1       -5 0.34651016E-01 0.15439448E+03</pdfrwt>
<totfact> 0.10875815E+02</totfact>
</mgrwt>
</event>
<event>
 8    1  0.3674342E-007  0.1520632E+03  0.7546771E-02  0.1197962E+00
          5   -1    0    0  501    0  0.00000000000E+00  0.00000000000E+00  0.31785183328E+03  0.31788658028E+03  0.47000000000E+01 0. -1.
         -5   -1    0    0    0  501 -0.00000000000E+00 -0.00000000000E+00 -0.97877369042E+02  0.97990149355E+02  0.47000000000E+01 0. -1.
         25    2    1    2    0    0  0.71606795240E+02 -0.48676141460E+02  0.44729104528E+01  0.15212897490E+03  0.12500527271E+03 0.  0.
         25    2    1    2    0    0 -0.71606795240E+02  0.48676141460E+02  0.21550155379E+03  0.26374775473E+03  0.12500023427E+03 0.  0.
          5    1    3    3  502    0  0.24863769183E+02  0.19787884950E+02  0.48479574864E+02  0.58156053750E+02  0.47000000000E+01 0.  1.
         -5    1    3    3    0  502  0.46743026057E+02 -0.68464026410E+02 -0.44006664411E+02  0.93972921152E+02  0.47000000000E+01 0.  1.
          5    1    4    4  503    0 -0.91948980535E+02 -0.33861284114E+01  0.16123677913E+03  0.18570263820E+03  0.47000000000E+01 0. -1.
         -5    1    4    4    0  503  0.20342185295E+02  0.52062269871E+02  0.54264774651E+02  0.78045116533E+02  0.47000000000E+01 0. -1.
<mgrwt>
<rscale>  0 0.15206217E+03</rscale>
<asrwt>0</asrwt>
<pdfrwt beam="1">  1        5 0.48911629E-01 0.15206320E+03</pdfrwt>
<pdfrwt beam="2">  1       -5 0.15069405E-01 0.15206320E+03</pdfrwt>
<totfact> 0.11557964E+02</totfact>
</mgrwt>
</event>
<event>
 8    1  0.3674342E-007  0.1379658E+03  0.7546771E-02  0.1216093E+00
         -5   -1    0    0    0  501 -0.00000000000E+00  0.00000000000E+00  0.13146411620E+02  0.13961308624E+02  0.47000000000E+01 0.  1.
          5   -1    0    0  501    0  0.00000000000E+00 -0.00000000000E+00 -0.17191233964E+04  0.17191298212E+04  0.47000000000E+01 0.  1.
         25    2    1    2    0    0  0.19048278192E+02 -0.55194916032E+02 -0.48179813509E+03  0.50116264955E+03  0.12500097067E+03 0.  0.
         25    2    1    2    0    0 -0.19048278192E+02  0.55194916032E+02 -0.12241788497E+04  0.12319284803E+04  0.12499843504E+03 0.  0.
          5    1    4    4  502    0 -0.66555656755E+02  0.35849835866E+02 -0.94551418141E+03  0.94854310573E+03  0.47000000000E+01 0.  1.
         -5    1    4    4    0  502  0.47507378563E+02  0.19345080166E+02 -0.27866466829E+03  0.28338537453E+03  0.47000000000E+01 0.  1.
          5    1    3    3  503    0  0.66365943552E+02 -0.18316179895E+02 -0.16754087596E+03  0.18119590511E+03  0.47000000000E+01 0.  1.
         -5    1    3    3    0  503 -0.47317665360E+02 -0.36878736137E+02 -0.31425725913E+03  0.31996674445E+03  0.47000000000E+01 0.  1.
<mgrwt>
<rscale>  0 0.13796521E+03</rscale>
<asrwt>0</asrwt>
<pdfrwt beam="2">  1        5 0.26454353E+00 0.13796579E+03</pdfrwt>
<pdfrwt beam="1">  1       -5 0.20857048E-02 0.13796579E+03</pdfrwt>
<totfact> 0.36398750E+01</totfact>
</mgrwt>
</event>
<event>
 8    1  0.3674342E-007  0.1424153E+03  0.7546771E-02  0.1210117E+00
          5   -1    0    0  501    0  0.00000000000E+00  0.00000000000E+00  0.43402757666E+02  0.43656492908E+02  0.47000000000E+01 0. -1.
         -5   -1    0    0    0  501 -0.00000000000E+00 -0.00000000000E+00 -0.51656110092E+03  0.51658248226E+03  0.47000000000E+01 0. -1.
         25    2    1    2    0    0 -0.67366198925E+02  0.10752727377E+02 -0.32449002195E+03  0.35436689439E+03  0.12501318167E+03 0.  0.
         25    2    1    2    0    0  0.67366198925E+02 -0.10752727377E+02 -0.14866832130E+03  0.20587208077E+03  0.12500887161E+03 0.  0.
          5    1    4    4  502    0 -0.16330411955E+02  0.32390944208E+02 -0.95274706456E+01  0.37798390418E+02  0.47000000000E+01 0. -1.
         -5    1    4    4    0  502  0.83696610880E+02 -0.43143671585E+02 -0.13914085065E+03  0.16807369036E+03  0.47000000000E+01 0. -1.
          5    1    3    3  503    0 -0.62445344911E+02  0.61244150138E+02 -0.24252608471E+03  0.25785899013E+03  0.47000000000E+01 0.  1.
         -5    1    3    3    0  503 -0.49208540136E+01 -0.50491422760E+02 -0.81963937246E+02  0.96507904264E+02  0.47000000000E+01 0.  1.
<mgrwt>
<rscale>  0 0.14241437E+03</rscale>
<asrwt>0</asrwt>
<pdfrwt beam="1">  1        5 0.66985105E-02 0.14241531E+03</pdfrwt>
<pdfrwt beam="2">  1       -5 0.79492097E-01 0.14241531E+03</pdfrwt>
<totfact> 0.15993540E+02</totfact>
</mgrwt>
</event>
<event>
 8    1  0.3674342E-007  0.1256936E+03  0.7546771E-02  0.1233997E+00
          5   -1    0    0  501    0  0.00000000000E+00  0.00000000000E+00  0.28979364139E+02  0.29358023535E+02  0.47000000000E+01 0. -1.
         -5   -1    0    0    0  501 -0.00000000000E+00 -0.00000000000E+00 -0.62320265760E+03  0.62322038031E+03  0.47000000000E+01 0. -1.
         25    2    1    2    0    0 -0.12939129148E+02 -0.28020616108E+01 -0.41543710800E+03  0.43403005788E+03  0.12497530888E+03 0.  0.
         25    2    1    2    0    0  0.12939129148E+02  0.28020616108E+01 -0.17878618546E+03  0.21854834597E+03  0.12499442708E+03 0.  0.
          5    1    4    4  502    0  0.23869228150E+02  0.39861502907E+02 -0.17300750560E+03  0.17919923677E+03  0.47000000000E+01 0. -1.
         -5    1    4    4    0  502 -0.10930099003E+02 -0.37059441296E+02 -0.57786798599E+01  0.39349109194E+02  0.47000000000E+01 0. -1.
          5    1    3    3  503    0  0.47711865451E+02  0.27419837343E+02 -0.14415052561E+03  0.15436882334E+03  0.47000000000E+01 0.  1.
         -5    1    3    3    0  503 -0.60650994599E+02 -0.30221898953E+02 -0.27128658239E+03  0.27966123454E+03  0.47000000000E+01 0.  1.
<mgrwt>
<rscale>  0 0.12568884E+03</rscale>
<asrwt>0</asrwt>
<pdfrwt beam="1">  1        5 0.44888551E-02 0.12569359E+03</pdfrwt>
<pdfrwt beam="2">  1       -5 0.95907813E-01 0.12569359E+03</pdfrwt>
<totfact> 0.19228095E+02</totfact>
</mgrwt>
</event>
<event>
 8    1  0.3674342E-007  0.1349938E+03  0.7546771E-02  0.1220229E+00
         -5   -1    0    0    0  501 -0.00000000000E+00  0.00000000000E+00  0.57560054548E+02  0.57751622311E+02  0.47000000000E+01 0. -1.
          5   -1    0    0  501    0  0.00000000000E+00 -0.00000000000E+00 -0.31646519654E+03  0.31650009576E+03  0.47000000000E+01 0. -1.
         25    2    1    2    0    0 -0.43164543717E+01  0.50790550095E+02 -0.12124092357E+03  0.18144606464E+03  0.12500000428E+03 0.  0.
         25    2    1    2    0    0  0.43164543717E+01 -0.50790550095E+02 -0.13766421842E+03  0.19280565343E+03  0.12499708479E+03 0.  0.
          5    1    4    4  502    0  0.59306490790E+02 -0.46548377723E+02 -0.10212299007E+03  0.12702443237E+03  0.47000000000E+01 0. -1.
         -5    1    4    4    0  502 -0.54990036418E+02 -0.42421723716E+01 -0.35541228347E+02  0.65781221060E+02  0.47000000000E+01 0. -1.
          5    1    3    3  503    0  0.20190101563E+01 -0.39947886641E+02 -0.19035795245E+02  0.44546173233E+02  0.47000000000E+01 0.  1.
         -5    1    3    3    0  503 -0.63354645279E+01  0.90738436736E+02 -0.10220512833E+03  0.13689989141E+03  0.47000000000E+01 0.  1.
<mgrwt>
<rscale>  0 0.13499308E+03</rscale>
<asrwt>0</asrwt>
<pdfrwt beam="2">  1        5 0.48704373E-01 0.13499375E+03</pdfrwt>
<pdfrwt beam="1">  1       -5 0.88728137E-02 0.13499375E+03</pdfrwt>
<totfact> 0.28619142E+02</totfact>
</mgrwt>
</event>
<event>
 8    1  0.3674342E-007  0.1301904E+03  0.7546771E-02  0.1227174E+00
          5   -1    0    0  501    0  0.00000000000E+00  0.00000000000E+00  0.12782945507E+03  0.12791583007E+03  0.47000000000E+01 0. -1.
         -5   -1    0    0    0  501 -0.00000000000E+00 -0.00000000000E+00 -0.13242472981E+03  0.13250810943E+03  0.47000000000E+01 0. -1.
         25    2    1    2    0    0 -0.53690518229E+01  0.35991322178E+02 -0.29156118761E+01  0.13022268249E+03  0.12500097700E+03 0.  0.
         25    2    1    2    0    0  0.53690518229E+01 -0.35991322178E+02 -0.16796628584E+01  0.13020125702E+03  0.12500137628E+03 0.  0.
          5    1    4    4  502    0  0.58716065985E+02 -0.32110102941E+02  0.23250035505E+02  0.71002037060E+02  0.47000000000E+01 0.  1.
         -5    1    4    4    0  502 -0.53347014162E+02 -0.38812192364E+01 -0.24929698364E+02  0.59199219955E+02  0.47000000000E+01 0.  1.
          5    1    3    3  503    0 -0.45028096862E+02  0.26513827362E+02 -0.46677513130E+02  0.70223876142E+02  0.47000000000E+01 0. -1.
         -5    1    3    3    0  503  0.39659045039E+02  0.94774948155E+01  0.43761901254E+02  0.59998806344E+02  0.47000000000E+01 0. -1.
<mgrwt>
<rscale>  0 0.13019033E+03</rscale>
<asrwt>0</asrwt>
<pdfrwt beam="1">  1        5 0.19679128E-01 0.13019042E+03</pdfrwt>
<pdfrwt beam="2">  1       -5 0.20386094E-01 0.13019042E+03</pdfrwt>
<totfact> 0.38062341E+02</totfact>
</mgrwt>
</event>
<event>
 8    1  0.3674342E-007  0.1434656E+03  0.7546771E-02  0.1208741E+00
          5   -1    0    0  501    0  0.00000000000E+00  0.00000000000E+00  0.31399487765E+03  0.31403005141E+03  0.47000000000E+01 0. -1.
         -5   -1    0    0    0  501 -0.00000000000E+00 -0.00000000000E+00 -0.67946392338E+02  0.68108752974E+02  0.47000000000E+01 0. -1.
         25    2    1    2    0    0 -0.62329850444E+02  0.32741497207E+02  0.86281821801E+02  0.16741160335E+03  0.12500030506E+03 0.  0.
         25    2    1    2    0    0  0.62329850444E+02 -0.32741497207E+02  0.15976666351E+03  0.21472720104E+03  0.12500147280E+03 0.  0.
          5    1    3    3  502    0 -0.65078642187E+02 -0.24429373096E+02  0.77211257356E+01  0.70098000837E+02  0.47000000000E+01 0.  1.
         -5    1    3    3    0  502  0.27487917426E+01  0.57170870302E+02  0.78560696065E+02  0.97313602510E+02  0.47000000000E+01 0.  1.
          5    1    4    4  503    0 -0.36743911412E+02 -0.20485799462E+02  0.35405453656E+02  0.55185316471E+02  0.47000000000E+01 0.  1.
         -5    1    4    4    0  503  0.99073761856E+02 -0.12255697744E+02  0.12436120986E+03  0.15954188457E+03  0.47000000000E+01 0.  1.
<mgrwt>
<rscale>  0 0.14346537E+03</rscale>
<asrwt>0</asrwt>
<pdfrwt beam="1">  1        5 0.48322099E-01 0.14346562E+03</pdfrwt>
<pdfrwt beam="2">  1       -5 0.10468486E-01 0.14346562E+03</pdfrwt>
<totfact> 0.22274408E+02</totfact>
</mgrwt>
</event>
<event>
 8    1  0.3674342E-007  0.1741282E+03  0.7546771E-02  0.1173612E+00
          5   -1    0    0  501    0  0.00000000000E+00  0.00000000000E+00  0.89511334110E+02  0.89634641373E+02  0.47000000000E+01 0.  1.
         -5   -1    0    0    0  501 -0.00000000000E+00 -0.00000000000E+00 -0.34114491775E+03  0.34117729249E+03  0.47000000000E+01 0.  1.
         25    2    1    2    0    0 -0.27736718243E+01  0.12119101653E+03 -0.14532426050E+03  0.22680337070E+03  0.12500269008E+03 0.  0.
         25    2    1    2    0    0  0.27736718243E+01 -0.12119101653E+03 -0.10630932315E+03  0.20400856316E+03  0.12499146335E+03 0.  0.
          5    1    4    4  502    0  0.45442821291E+02 -0.10898580619E+03 -0.41356801820E+02  0.12520156155E+03  0.47000000000E+01 0.  1.
         -5    1    4    4    0  502 -0.42669149467E+02 -0.12205210340E+02 -0.64952521329E+02  0.78807001609E+02  0.47000000000E+01 0.  1.
          5    1    3    3  503    0 -0.17761028374E+02  0.49053357226E+02  0.11358272272E+02  0.53598379948E+02  0.47000000000E+01 0. -1.
         -5    1    3    3    0  503  0.14987356550E+02  0.72137659308E+02 -0.15668253277E+03  0.17320499075E+03  0.47000000000E+01 0. -1.
<mgrwt>
<rscale>  0 0.17412618E+03</rscale>
<asrwt>0</asrwt>
<pdfrwt beam="1">  1        5 0.13782950E-01 0.17412819E+03</pdfrwt>
<pdfrwt beam="2">  1       -5 0.52495809E-01 0.17412819E+03</pdfrwt>
<totfact> 0.12174445E+02</totfact>
</mgrwt>
</event>
<event>
 8    1  0.3674342E-007  0.1284172E+03  0.7546771E-02  0.1229824E+00
          5   -1    0    0  501    0  0.00000000000E+00  0.00000000000E+00  0.11508057780E+04  0.11508153756E+04  0.47000000000E+01 0. -1.
         -5   -1    0    0    0  501 -0.00000000000E+00 -0.00000000000E+00 -0.13962502472E+02  0.14732327558E+02  0.47000000000E+01 0. -1.
         25    2    1    2    0    0  0.29421199563E+02 -0.33320371988E+00  0.54300713410E+03  0.55798507590E+03  0.12499951696E+03 0.  0.
         25    2    1    2    0    0 -0.29421199563E+02  0.33320371988E+00  0.59383614140E+03  0.60756262721E+03  0.12500106055E+03 0.  0.
          5    1    3    3  502    0 -0.62076963122E+01  0.57518023332E+02  0.19856051600E+03  0.20687007279E+03  0.47000000000E+01 0. -1.
         -5    1    3    3    0  502  0.35628895876E+02 -0.57851227052E+02  0.34444661810E+03  0.35111500311E+03  0.47000000000E+01 0. -1.
          5    1    4    4  503    0  0.30695481728E+02 -0.42017102827E+02  0.30693412349E+03  0.31134915399E+03  0.47000000000E+01 0. -1.
         -5    1    4    4    0  503 -0.60116681291E+02  0.42350306547E+02  0.28690201791E+03  0.29621347322E+03  0.47000000000E+01 0. -1.
<mgrwt>
<rscale>  0 0.12841685E+03</rscale>
<asrwt>0</asrwt>
<pdfrwt beam="1">  1        5 0.17710698E+00 0.12841722E+03</pdfrwt>
<pdfrwt beam="2">  1       -5 0.22080331E-02 0.12841722E+03</pdfrwt>
<totfact> 0.12233207E+02</totfact>
</mgrwt>
</event>
<event>
 8    1  0.3674342E-007  0.1796996E+03  0.7546771E-02  0.1168095E+00
         -5   -1    0    0    0  501 -0.00000000000E+00  0.00000000000E+00  0.98858948868E+02  0.98970610644E+02  0.47000000000E+01 0. -1.
          5   -1    0    0  501    0  0.00000000000E+00 -0.00000000000E+00 -0.33779065020E+03  0.33782334638E+03  0.47000000000E+01 0. -1.
         25    2    1    2    0    0 -0.77501498728E+01  0.12886738185E+03 -0.79240319582E+02  0.19639165657E+03  0.12499515029E+03 0.  0.
         25    2    1    2    0    0  0.77501498728E+01 -0.12886738185E+03 -0.15969138175E+03  0.24040230046E+03  0.12500024692E+03 0.  0.
          5    1    4    4  502    0  0.30316020014E+02 -0.22409283554E+02 -0.11767323896E+03  0.12365402633E+03  0.47000000000E+01 0.  1.
         -5    1    4    4    0  502 -0.22565870141E+02 -0.10645809830E+03 -0.42018142783E+02  0.11674827413E+03  0.47000000000E+01 0.  1.
          5    1    3    3  503    0  0.15151039714E+02 -0.17397824658E+02 -0.34298780753E+02  0.41602099327E+02  0.47000000000E+01 0.  1.
         -5    1    3    3    0  503 -0.22901189587E+02  0.14626520651E+03 -0.44941538829E+02  0.15478955724E+03  0.47000000000E+01 0.  1.
<mgrwt>
<rscale>  0 0.17969866E+03</rscale>
<asrwt>0</asrwt>
<pdfrwt beam="2">  1        5 0.51978896E-01 0.17969955E+03</pdfrwt>
<pdfrwt beam="1">  1       -5 0.15220174E-01 0.17969955E+03</pdfrwt>
<totfact> 0.10486077E+02</totfact>
</mgrwt>
</event>
<event>
 8    1  0.3674342E-007  0.1823750E+03  0.7546771E-02  0.1165525E+00
         -5   -1    0    0    0  501 -0.00000000000E+00  0.00000000000E+00  0.31685306242E+03  0.31688791894E+03  0.47000000000E+01 0. -1.
          5   -1    0    0  501    0  0.00000000000E+00 -0.00000000000E+00 -0.10710625036E+03  0.10720932267E+03  0.47000000000E+01 0. -1.
         25    2    1    2    0    0  0.13279628914E+03 -0.27181305452E+00  0.74305190845E+02  0.19693119024E+03  0.12500281601E+03 0.  0.
         25    2    1    2    0    0 -0.13279628914E+03  0.27181305452E+00  0.13544162122E+03  0.22716605136E+03  0.12500021537E+03 0.  0.
          5    1    4    4  502    0 -0.67820514183E+01 -0.37039345531E+02  0.71484526346E+02  0.80932297914E+02  0.47000000000E+01 0.  1.
         -5    1    4    4    0  502 -0.12601423772E+03  0.37311158585E+02  0.63957094873E+02  0.14623375345E+03  0.47000000000E+01 0.  1.
          5    1    3    3  503    0 -0.20740849878E+01 -0.21580550052E+02 -0.20843590393E+02  0.30439566843E+02  0.47000000000E+01 0.  1.
         -5    1    3    3    0  503  0.13487037413E+03  0.21308736998E+02  0.95148781238E+02  0.16649162340E+03  0.47000000000E+01 0.  1.
<mgrwt>
<rscale>  0 0.18237453E+03</rscale>
<asrwt>0</asrwt>
<pdfrwt beam="2">  1        5 0.16488495E-01 0.18237498E+03</pdfrwt>
<pdfrwt beam="1">  1       -5 0.48757234E-01 0.18237498E+03</pdfrwt>
<totfact> 0.10427334E+02</totfact>
</mgrwt>
</event>
<event>
 8    1  0.3674342E-007  0.1281145E+03  0.7546771E-02  0.1230281E+00
         -5   -1    0    0    0  501 -0.00000000000E+00  0.00000000000E+00  0.59169551419E+03  0.59171418059E+03  0.47000000000E+01 0. -1.
          5   -1    0    0  501    0  0.00000000000E+00 -0.00000000000E+00 -0.28390142464E+02  0.28776556242E+02  0.47000000000E+01 0. -1.
         25    2    1    2    0    0 -0.19211762912E+02 -0.20472932355E+02  0.33555490031E+03  0.35917940551E+03  0.12499808571E+03 0.  0.
         25    2    1    2    0    0  0.19211762912E+02  0.20472932355E+02  0.22775047142E+03  0.26131133132E+03  0.12500040741E+03 0.  0.
          5    1    3    3  502    0 -0.20849277181E+02 -0.54261066736E+01 -0.11702001064E+01  0.22081538916E+02  0.47000000000E+01 0. -1.
         -5    1    3    3    0  502  0.16375142688E+01 -0.15046825682E+02  0.33672510041E+03  0.33709786660E+03  0.47000000000E+01 0. -1.
          5    1    4    4  503    0  0.56802299293E+02 -0.49600371293E+01  0.19973753811E+03  0.20776976994E+03  0.47000000000E+01 0. -1.
         -5    1    4    4    0  503 -0.37590536380E+02  0.25432969484E+02  0.28012933317E+02  0.53541561381E+02  0.47000000000E+01 0. -1.
<mgrwt>
<rscale>  0 0.12811397E+03</rscale>
<asrwt>0</asrwt>
<pdfrwt beam="2">  1        5 0.43988742E-02 0.12811454E+03</pdfrwt>
<pdfrwt beam="1">  1       -5 0.91061240E-01 0.12811454E+03</pdfrwt>
<totfact> 0.22652725E+02</totfact>
</mgrwt>
</event>
<event>
 8    1  0.3674342E-007  0.1552546E+03  0.7546771E-02  0.1194162E+00
          5   -1    0    0  501    0  0.00000000000E+00  0.00000000000E+00  0.54217964695E+03  0.54220001804E+03  0.47000000000E+01 0.  1.
         -5   -1    0    0    0  501 -0.00000000000E+00 -0.00000000000E+00 -0.44765332597E+02  0.45011387476E+02  0.47000000000E+01 0.  1.
         25    2    1    2    0    0  0.85961072402E+02 -0.32999793747E+02  0.27821641252E+03  0.31860376119E+03  0.12500276835E+03 0.  0.
         25    2    1    2    0    0 -0.85961072402E+02  0.32999793747E+02  0.21919790183E+03  0.26860764433E+03  0.12499621621E+03 0.  0.
          5    1    4    4  502    0 -0.50831557970E+02  0.46236852212E+02  0.22024116319E+03  0.23075951498E+03  0.47000000000E+01 0. -1.
         -5    1    4    4    0  502 -0.35129514431E+02 -0.13237058465E+02 -0.10432613589E+01  0.37848129350E+02  0.47000000000E+01 0. -1.
          5    1    3    3  503    0  0.93417625383E+02  0.30640517232E+01  0.10162472220E+03  0.13815178358E+03  0.47000000000E+01 0. -1.
         -5    1    3    3    0  503 -0.74565529816E+01 -0.36063845470E+02  0.17659169032E+03  0.18045197761E+03  0.47000000000E+01 0. -1.
<mgrwt>
<rscale>  0 0.15525326E+03</rscale>
<asrwt>0</asrwt>
<pdfrwt beam="1">  1        5 0.83432750E-01 0.15525458E+03</pdfrwt>
<pdfrwt beam="2">  1       -5 0.69074684E-02 0.15525458E+03</pdfrwt>
<totfact> 0.13946980E+02</totfact>
</mgrwt>
</event>
<event>
 8    1  0.3674342E-007  0.1336580E+03  0.7546771E-02  0.1222152E+00
         -5   -1    0    0    0  501 -0.00000000000E+00  0.00000000000E+00  0.69020288743E+03  0.69021888979E+03  0.47000000000E+01 0.  1.
          5   -1    0    0  501    0  0.00000000000E+00 -0.00000000000E+00 -0.27030760633E+02  0.27436326657E+02  0.47000000000E+01 0.  1.
         25    2    1    2    0    0  0.43544529440E+02  0.18490298942E+02  0.41243419482E+03  0.43355096215E+03  0.12500581798E+03 0.  0.
         25    2    1    2    0    0 -0.43544529440E+02 -0.18490298942E+02  0.25073793198E+03  0.28410425429E+03  0.12493077913E+03 0.  0.
          5    1    4    4  502    0 -0.10154726502E+02  0.45233347472E+02  0.40119746084E+02  0.61488683672E+02  0.47000000000E+01 0.  1.
         -5    1    4    4    0  502 -0.33389802939E+02 -0.63723646414E+02  0.21061818589E+03  0.22261557062E+03  0.47000000000E+01 0.  1.
          5    1    3    3  503    0  0.21681681820E+02  0.49593517938E+02  0.68214394650E+02  0.87206112088E+02  0.47000000000E+01 0.  1.
         -5    1    3    3    0  503  0.21862847620E+02 -0.31103218996E+02  0.34421980017E+03  0.34634485006E+03  0.47000000000E+01 0.  1.
<mgrwt>
<rscale>  0 0.13364049E+03</rscale>
<asrwt>0</asrwt>
<pdfrwt beam="2">  1        5 0.41910074E-02 0.13365804E+03</pdfrwt>
<pdfrwt beam="1">  1       -5 0.10621748E+00 0.13365804E+03</pdfrwt>
<totfact> 0.17145824E+02</totfact>
</mgrwt>
</event>
<event>
 8    1  0.3674342E-007  0.1800164E+03  0.7546771E-02  0.1167788E+00
          5   -1    0    0  501    0  0.00000000000E+00  0.00000000000E+00  0.10878125482E+03  0.10888274152E+03  0.47000000000E+01 0.  1.
         -5   -1    0    0    0  501 -0.00000000000E+00 -0.00000000000E+00 -0.38210010243E+03  0.38212900737E+03  0.47000000000E+01 0.  1.
         25    2    1    2    0    0 -0.57492436534E+02  0.11608366179E+03 -0.25206472760E+03  0.30974498827E+03  0.12499813625E+03 0.  0.
         25    2    1    2    0    0  0.57492436534E+02 -0.11608366179E+03 -0.21254120012E+02  0.18126676063E+03  0.12500041639E+03 0.  0.
          5    1    4    4  502    0 -0.22515663982E+02 -0.49513330739E+02  0.33006320983E+02  0.63796804546E+02  0.47000000000E+01 0.  1.
         -5    1    4    4    0  502  0.80008100516E+02 -0.66570331053E+02 -0.54260440994E+02  0.11746995608E+03  0.47000000000E+01 0.  1.
          5    1    3    3  503    0  0.26776320414E+02  0.80555884026E+02 -0.15156892433E+03  0.17378564558E+03  0.47000000000E+01 0. -1.
         -5    1    3    3    0  503 -0.84268756948E+02  0.35527777766E+02 -0.10049580326E+03  0.13595934269E+03  0.47000000000E+01 0. -1.
<mgrwt>
<rscale>  0 0.18001599E+03</rscale>
<asrwt>0</asrwt>
<pdfrwt beam="1">  1        5 0.16745608E-01 0.18001639E+03</pdfrwt>
<pdfrwt beam="2">  1       -5 0.58794661E-01 0.18001639E+03</pdfrwt>
<totfact> 0.67440753E+01</totfact>
</mgrwt>
</event>
<event>
 8    1  0.3674342E-007  0.1584809E+03  0.7546771E-02  0.1190427E+00
         -5   -1    0    0    0  501 -0.00000000000E+00  0.00000000000E+00  0.18953761819E+03  0.18959588262E+03  0.47000000000E+01 0.  1.
          5   -1    0    0  501    0  0.00000000000E+00 -0.00000000000E+00 -0.19839253168E+03  0.19844819633E+03  0.47000000000E+01 0.  1.
         25    2    1    2    0    0 -0.28274393192E+02  0.93224241219E+02  0.10745592525E+03  0.19146225035E+03  0.12498326679E+03 0.  0.
         25    2    1    2    0    0  0.28274393192E+02 -0.93224241219E+02 -0.11631083875E+03  0.19658182860E+03  0.12500401460E+03 0.  0.
          5    1    3    3  502    0 -0.59750725744E+02  0.12568457124E+02  0.79515840276E+02  0.10036420774E+03  0.47000000000E+01 0. -1.
         -5    1    3    3    0  502  0.31476332552E+02  0.80655784095E+02  0.27940084976E+02  0.91098042609E+02  0.47000000000E+01 0. -1.
          5    1    4    4  503    0 -0.45845294640E+02 -0.16172987976E+02 -0.20596515353E+02  0.53006254588E+02  0.47000000000E+01 0.  1.
         -5    1    4    4    0  503  0.74119687832E+02 -0.77051253243E+02 -0.95714323393E+02  0.14357557401E+03  0.47000000000E+01 0.  1.
<mgrwt>
<rscale>  0 0.15847684E+03</rscale>
<asrwt>0</asrwt>
<pdfrwt beam="2">  1        5 0.30530692E-01 0.15848093E+03</pdfrwt>
<pdfrwt beam="1">  1       -5 0.29168397E-01 0.15848093E+03</pdfrwt>
<totfact> 0.88362309E+01</totfact>
</mgrwt>
</event>
<event>
 8    1  0.3674342E-007  0.1275436E+03  0.7546771E-02  0.1231148E+00
         -5   -1    0    0    0  501 -0.00000000000E+00  0.00000000000E+00  0.74538694461E+02  0.74686725541E+02  0.47000000000E+01 0. -1.
          5   -1    0    0  501    0  0.00000000000E+00 -0.00000000000E+00 -0.21789951725E+03  0.21795019986E+03  0.47000000000E+01 0. -1.
         25    2    1    2    0    0 -0.25133522913E+02  0.34277296459E+01 -0.69379074463E+02  0.14519236816E+03  0.12499569791E+03 0.  0.
         25    2    1    2    0    0  0.25133522913E+02 -0.34277296459E+01 -0.73981748329E+02  0.14744455724E+03  0.12499262006E+03 0.  0.
          5    1    3    3  502    0  0.48501591894E+02 -0.11606929395E+02 -0.14936058291E+02  0.52271417271E+02  0.47000000000E+01 0.  1.
         -5    1    3    3    0  502 -0.73635114807E+02  0.15034659041E+02 -0.54443016172E+02  0.92920950893E+02  0.47000000000E+01 0.  1.
          5    1    4    4  503    0  0.57483023519E+02  0.41354257175E+02 -0.51164731365E+02  0.87489384013E+02  0.47000000000E+01 0.  1.
         -5    1    4    4    0  503 -0.32349500606E+02 -0.44781986821E+02 -0.22817016964E+02  0.59955173223E+02  0.47000000000E+01 0.  1.
<mgrwt>
<rscale>  0 0.12754284E+03</rscale>
<asrwt>0</asrwt>
<pdfrwt beam="2">  1        5 0.33538288E-01 0.12754359E+03</pdfrwt>
<pdfrwt beam="1">  1       -5 0.11482777E-01 0.12754359E+03</pdfrwt>
<totfact> 0.38380795E+02</totfact>
</mgrwt>
</event>
<event>
 8    1  0.3674342E-007  0.1367893E+03  0.7546771E-02  0.1217717E+00
         -5   -1    0    0    0  501 -0.00000000000E+00  0.00000000000E+00  0.25934744055E+04  0.25934786643E+04  0.47000000000E+01 0. -1.
          5   -1    0    0  501    0  0.00000000000E+00 -0.00000000000E+00 -0.68075450696E+01  0.82724041170E+01  0.47000000000E+01 0. -1.
         25    2    1    2    0    0  0.25944170000E+02  0.49130234795E+02  0.15652619107E+04  0.15712272336E+04  0.12499316112E+03 0.  0.
         25    2    1    2    0    0 -0.25944170000E+02 -0.49130234795E+02  0.10214049497E+04  0.10305238349E+04  0.12499769182E+03 0.  0.
          5    1    3    3  502    0 -0.19521895759E+02  0.15005941410E+01  0.11921787808E+04  0.11923488129E+04  0.47000000000E+01 0.  1.
         -5    1    3    3    0  502  0.45466065758E+02  0.47629640654E+02  0.37308312992E+03  0.37887842065E+03  0.47000000000E+01 0.  1.
          5    1    4    4  503    0 -0.13630544712E+02  0.41254575177E+02  0.25816491473E+03  0.26183763083E+03  0.47000000000E+01 0.  1.
         -5    1    4    4    0  503 -0.12313625288E+02 -0.90384809971E+02  0.76324003500E+03  0.76868620403E+03  0.47000000000E+01 0.  1.
<mgrwt>
<rscale>  0 0.13678823E+03</rscale>
<asrwt>0</asrwt>
<pdfrwt beam="2">  1        5 0.11603235E-02 0.13678926E+03</pdfrwt>
<pdfrwt beam="1">  1       -5 0.39910913E+00 0.13678926E+03</pdfrwt>
<totfact> 0.12075274E+01</totfact>
</mgrwt>
</event>
<event>
 8    1  0.3674342E-007  0.1427487E+03  0.7546771E-02  0.1209678E+00
         -5   -1    0    0    0  501 -0.00000000000E+00  0.00000000000E+00  0.38639426968E+03  0.38642285341E+03  0.47000000000E+01 0. -1.
          5   -1    0    0  501    0  0.00000000000E+00 -0.00000000000E+00 -0.65176455874E+02  0.65345699172E+02  0.47000000000E+01 0. -1.
         25    2    1    2    0    0  0.50647800126E+01 -0.68752555273E+02  0.25966342805E+03  0.29631395791E+03  0.12499719969E+03 0.  0.
         25    2    1    2    0    0 -0.50647800126E+01  0.68752555273E+02  0.61554385755E+02  0.15545459468E+03  0.12499849098E+03 0.  0.
          5    1    4    4  502    0 -0.34492176830E+02  0.58725654473E+02  0.90062853939E+02  0.11301247902E+03  0.47000000000E+01 0. -1.
         -5    1    4    4    0  502  0.29427396818E+02  0.10026900800E+02 -0.28508468184E+02  0.42442115655E+02  0.47000000000E+01 0. -1.
          5    1    3    3  503    0  0.58977038009E+02 -0.60361818866E+02  0.12452021830E+03  0.15049656127E+03  0.47000000000E+01 0. -1.
         -5    1    3    3    0  503 -0.53912257996E+02 -0.83907364071E+01  0.13514320975E+03  0.14581739663E+03  0.47000000000E+01 0. -1.
<mgrwt>
<rscale>  0 0.14274841E+03</rscale>
<asrwt>0</asrwt>
<pdfrwt beam="2">  1        5 0.10042365E-01 0.14274869E+03</pdfrwt>
<pdfrwt beam="1">  1       -5 0.59460489E-01 0.14274869E+03</pdfrwt>
<totfact> 0.15320713E+02</totfact>
</mgrwt>
</event>
<event>
 8    1  0.3674342E-007  0.2131202E+03  0.7546771E-02  0.1139119E+00
         -5   -1    0    0    0  501 -0.00000000000E+00  0.00000000000E+00  0.11192424933E+04  0.11192523615E+04  0.47000000000E+01 0.  1.
          5   -1    0    0  501    0  0.00000000000E+00 -0.00000000000E+00 -0.40780377779E+02  0.41050325355E+02  0.47000000000E+01 0.  1.
         25    2    1    2    0    0 -0.65674873906E+02  0.15962455070E+03  0.59248206473E+03  0.62964688852E+03  0.12500808351E+03 0.  0.
         25    2    1    2    0    0  0.65674873906E+02 -0.15962455070E+03  0.48598005076E+03  0.53065579835E+03  0.12500312130E+03 0.  0.
          5    1    3    3  502    0 -0.60507299264E+02  0.16063740805E+03  0.59704042015E+03  0.62124460836E+03  0.47000000000E+01 0.  1.
         -5    1    3    3    0  502 -0.51675746416E+01 -0.10128573562E+01 -0.45583554154E+01  0.84022801544E+01  0.47000000000E+01 0.  1.
          5    1    4    4  503    0 -0.22685709724E+02 -0.16169844591E+02  0.17191449927E+03  0.17422052221E+03  0.47000000000E+01 0.  1.
         -5    1    4    4    0  503  0.88360583630E+02 -0.14345470610E+03  0.31406555150E+03  0.35643527614E+03  0.47000000000E+01 0.  1.
<mgrwt>
<rscale>  0 0.21311944E+03</rscale>
<asrwt>0</asrwt>
<pdfrwt beam="2">  1        5 0.62954290E-02 0.21312017E+03</pdfrwt>
<pdfrwt beam="1">  1       -5 0.17221266E+00 0.21312017E+03</pdfrwt>
<totfact> 0.27317426E+01</totfact>
</mgrwt>
</event>
<event>
 8    1  0.3674342E-007  0.1259474E+03  0.7546771E-02  0.1233597E+00
         -5   -1    0    0    0  501 -0.00000000000E+00  0.00000000000E+00  0.16467837326E+03  0.16474542974E+03  0.47000000000E+01 0. -1.
          5   -1    0    0  501    0  0.00000000000E+00 -0.00000000000E+00 -0.10147052690E+03  0.10157931792E+03  0.47000000000E+01 0. -1.
         25    2    1    2    0    0  0.10769382330E+02 -0.11106110577E+02  0.61985556397E+02  0.14037433684E+03  0.12499367966E+03 0.  0.
         25    2    1    2    0    0 -0.10769382330E+02  0.11106110577E+02  0.12222899676E+01  0.12595041082E+03  0.12499074648E+03 0.  0.
          5    1    4    4  502    0 -0.25431156272E+02 -0.57770918931E+01  0.58533331362E+02  0.64252310312E+02  0.47000000000E+01 0.  1.
         -5    1    4    4    0  502  0.14661773942E+02  0.16883202471E+02 -0.57311041394E+02  0.61698100509E+02  0.47000000000E+01 0.  1.
          5    1    3    3  503    0  0.16298767385E+02 -0.25018997540E+02 -0.32622496860E+02  0.44473782811E+02  0.47000000000E+01 0.  1.
         -5    1    3    3    0  503 -0.55293850548E+01  0.13912886963E+02  0.94608053256E+02  0.95900554032E+02  0.47000000000E+01 0.  1.
<mgrwt>
<rscale>  0 0.12594666E+03</rscale>
<asrwt>0</asrwt>
<pdfrwt beam="2">  1        5 0.15624377E-01 0.12594739E+03</pdfrwt>
<pdfrwt beam="1">  1       -5 0.25348661E-01 0.12594739E+03</pdfrwt>
<totfact> 0.38041368E+02</totfact>
</mgrwt>
</event>
<event>
 8    1  0.3674342E-007  0.1258232E+03  0.7546771E-02  0.1233794E+00
         -5   -1    0    0    0  501 -0.00000000000E+00  0.00000000000E+00  0.20830242153E+03  0.20835543865E+03  0.47000000000E+01 0.  1.
          5   -1    0    0  501    0  0.00000000000E+00 -0.00000000000E+00 -0.80031375862E+02  0.80169265447E+02  0.47000000000E+01 0.  1.
         25    2    1    2    0    0 -0.10132340573E+01  0.14321109362E+02  0.97036773351E+02  0.15888263509E+03  0.12498574132E+03 0.  0.
         25    2    1    2    0    0  0.10132340573E+01 -0.14321109362E+02  0.31234272320E+02  0.12964206901E+03  0.12500146189E+03 0.  0.
          5    1    4    4  502    0 -0.57924257953E+02 -0.18412537640E+02  0.34932116069E+02  0.70260827882E+02  0.47000000000E+01 0.  1.
         -5    1    4    4    0  502  0.58937492010E+02  0.40914282785E+01 -0.36978437488E+01  0.59381241130E+02  0.47000000000E+01 0.  1.
          5    1    3    3  503    0 -0.18680919030E+02  0.31803077419E+02 -0.17849570750E+02  0.41244510484E+02  0.47000000000E+01 0.  1.
         -5    1    3    3    0  503  0.17667684972E+02 -0.17481968057E+02  0.11488634410E+03  0.11763812460E+03  0.47000000000E+01 0.  1.
<mgrwt>
<rscale>  0 0.12581933E+03</rscale>
<asrwt>0</asrwt>
<pdfrwt beam="2">  1        5 0.12327205E-01 0.12582323E+03</pdfrwt>
<pdfrwt beam="1">  1       -5 0.32061210E-01 0.12582323E+03</pdfrwt>
<totfact> 0.36832313E+02</totfact>
</mgrwt>
</event>
<event>
 8    1  0.3674342E-007  0.1350703E+03  0.7546771E-02  0.1220131E+00
         -5   -1    0    0    0  501 -0.00000000000E+00  0.00000000000E+00  0.10532900951E+03  0.10543381926E+03  0.47000000000E+01 0. -1.
          5   -1    0    0  501    0  0.00000000000E+00 -0.00000000000E+00 -0.18203343283E+03  0.18209409839E+03  0.47000000000E+01 0. -1.
         25    2    1    2    0    0  0.29734235024E+02  0.41549332316E+02 -0.62550453855E+01  0.13521508862E+03  0.12503408675E+03 0.  0.
         25    2    1    2    0    0 -0.29734235024E+02 -0.41549332316E+02 -0.70449377940E+02  0.15231282903E+03  0.12500244512E+03 0.  0.
          5    1    3    3  502    0  0.63388416856E+02  0.66764580282E+02  0.15043797993E+01  0.92195193640E+02  0.47000000000E+01 0. -1.
         -5    1    3    3    0  502 -0.33654181832E+02 -0.25215247966E+02 -0.77594251849E+01  0.43019894978E+02  0.47000000000E+01 0. -1.
          5    1    4    4  503    0 -0.62902404745E+02 -0.26375694307E+02 -0.88102813706E+02  0.11151944026E+03  0.47000000000E+01 0.  1.
         -5    1    4    4    0  503  0.33168169721E+02 -0.15173638009E+02  0.17653435766E+02  0.40793388771E+02  0.47000000000E+01 0.  1.
<mgrwt>
<rscale>  0 0.13506301E+03</rscale>
<asrwt>0</asrwt>
<pdfrwt beam="2">  1        5 0.28017872E-01 0.13507033E+03</pdfrwt>
<pdfrwt beam="1">  1       -5 0.16217192E-01 0.13507033E+03</pdfrwt>
<totfact> 0.30054375E+02</totfact>
</mgrwt>
</event>
<event>
 8    1  0.3674342E-007  0.1255238E+03  0.7546771E-02  0.1234259E+00
         -5   -1    0    0    0  501 -0.00000000000E+00  0.00000000000E+00  0.97527690129E+03  0.97528822622E+03  0.47000000000E+01 0. -1.
          5   -1    0    0  501    0  0.00000000000E+00 -0.00000000000E+00 -0.17253191911E+02  0.17881907927E+02  0.47000000000E+01 0. -1.
         25    2    1    2    0    0 -0.71428293123E+01  0.89921432613E+01  0.62038342081E+03  0.63295189879E+03  0.12498255363E+03 0.  0.
         25    2    1    2    0    0  0.71428293123E+01 -0.89921432613E+01  0.33764028857E+03  0.36021823536E+03  0.12499733583E+03 0.  0.
          5    1    4    4  502    0 -0.14525295669E+02  0.55087744108E+02  0.13775160449E+03  0.14914167193E+03  0.47000000000E+01 0. -1.
         -5    1    4    4    0  502  0.21668124982E+02 -0.64079887369E+02  0.19988868408E+03  0.21107656343E+03  0.47000000000E+01 0. -1.
          5    1    3    3  503    0 -0.26568614374E+02  0.11564318783E+02  0.29130841176E+02  0.41356023096E+02  0.47000000000E+01 0.  1.
         -5    1    3    3    0  503  0.19425785062E+02 -0.25721755213E+01  0.59125257963E+03  0.59159587569E+03  0.47000000000E+01 0.  1.
<mgrwt>
<rscale>  0 0.12552007E+03</rscale>
<asrwt>0</asrwt>
<pdfrwt beam="2">  1        5 0.27035705E-02 0.12552375E+03</pdfrwt>
<pdfrwt beam="1">  1       -5 0.15009187E+00 0.12552375E+03</pdfrwt>
<totfact> 0.13998824E+02</totfact>
</mgrwt>
</event>
<event>
 8    1  0.3674342E-007  0.1527257E+03  0.7546771E-02  0.1197168E+00
          5   -1    0    0  501    0  0.00000000000E+00  0.00000000000E+00  0.63911165923E+03  0.63912894080E+03  0.47000000000E+01 0.  1.
         -5   -1    0    0    0  501 -0.00000000000E+00 -0.00000000000E+00 -0.42940515215E+02  0.43196965715E+02  0.47000000000E+01 0.  1.
         25    2    1    2    0    0  0.72830050250E+02 -0.48898110704E+02  0.16462971036E+03  0.22456196052E+03  0.12501956298E+03 0.  0.
         25    2    1    2    0    0 -0.72830050250E+02  0.48898110704E+02  0.43154143365E+03  0.45776394599E+03  0.12499831937E+03 0.  0.
          5    1    4    4  502    0 -0.24090938676E+01 -0.28558607831E+02  0.26259688225E+02  0.39154297851E+02  0.47000000000E+01 0.  1.
         -5    1    4    4    0  502 -0.70420956382E+02  0.77456718535E+02  0.40528174543E+03  0.41860964814E+03  0.47000000000E+01 0.  1.
          5    1    3    3  503    0 -0.22662304543E+02 -0.56455615362E+01 -0.57062051628E+01  0.24497003686E+02  0.47000000000E+01 0. -1.
         -5    1    3    3    0  503  0.95492354793E+02 -0.43252549168E+02  0.17033591553E+03  0.20006495683E+03  0.47000000000E+01 0. -1.
<mgrwt>
<rscale>  0 0.15272133E+03</rscale>
<asrwt>0</asrwt>
<pdfrwt beam="1">  1        5 0.98345915E-01 0.15272568E+03</pdfrwt>
<pdfrwt beam="2">  1       -5 0.66272902E-02 0.15272568E+03</pdfrwt>
<totfact> 0.10061502E+02</totfact>
</mgrwt>
</event>
<event>
 8    1  0.3674342E-007  0.1343935E+03  0.7546771E-02  0.1221080E+00
         -5   -1    0    0    0  501 -0.00000000000E+00  0.00000000000E+00  0.18817113048E+02  0.19395198980E+02  0.47000000000E+01 0. -1.
          5   -1    0    0  501    0  0.00000000000E+00 -0.00000000000E+00 -0.99179302487E+03  0.99180416121E+03  0.47000000000E+01 0. -1.
         25    2    1    2    0    0  0.27666020840E+02  0.40878666183E+02 -0.37637079503E+03  0.39964455986E+03  0.12499729922E+03 0.  0.
         25    2    1    2    0    0 -0.27666020840E+02 -0.40878666183E+02 -0.59660511679E+03  0.61155480033E+03  0.12500053745E+03 0.  0.
          5    1    3    3  502    0 -0.60069845085E+01  0.37426276003E+02 -0.22918252458E+02  0.44543757072E+02  0.47000000000E+01 0.  1.
         -5    1    3    3    0  502  0.33673005349E+02  0.34523901804E+01 -0.35345254258E+03  0.35510080279E+03  0.47000000000E+01 0.  1.
          5    1    4    4  503    0  0.58937649319E+01  0.42816308569E+02 -0.22244028803E+03  0.22664894548E+03  0.47000000000E+01 0. -1.
         -5    1    4    4    0  503 -0.33559785772E+02 -0.83694974752E+02 -0.37416482876E+03  0.38490585485E+03  0.47000000000E+01 0. -1.
<mgrwt>
<rscale>  0 0.13439273E+03</rscale>
<asrwt>0</asrwt>
<pdfrwt beam="2">  1        5 0.15262883E+00 0.13439348E+03</pdfrwt>
<pdfrwt beam="1">  1       -5 0.29402660E-02 0.13439348E+03</pdfrwt>
<totfact> 0.11949870E+02</totfact>
</mgrwt>
</event>
<event>
 8    1  0.3674342E-007  0.1496205E+03  0.7546771E-02  0.1200944E+00
         -5   -1    0    0    0  501 -0.00000000000E+00  0.00000000000E+00  0.10725107463E+03  0.10735400789E+03  0.47000000000E+01 0. -1.
          5   -1    0    0  501    0  0.00000000000E+00 -0.00000000000E+00 -0.23019243229E+03  0.23024040888E+03  0.47000000000E+01 0. -1.
         25    2    1    2    0    0 -0.81645300798E+02  0.96245296241E+01 -0.96470242308E+01  0.14991942949E+03  0.12499673416E+03 0.  0.
         25    2    1    2    0    0  0.81645300798E+02 -0.96245296241E+01 -0.11329433342E+03  0.18767498728E+03  0.12501083214E+03 0.  0.
          5    1    4    4  502    0 -0.85061214232E+01  0.84514292909E+00 -0.94336789554E+02  0.94839802992E+02  0.47000000000E+01 0. -1.
         -5    1    4    4    0  502  0.90151422221E+02 -0.10469672553E+02 -0.18957543869E+02  0.92835184286E+02  0.47000000000E+01 0. -1.
          5    1    3    3  503    0 -0.43290809320E+02 -0.83087706641E+01 -0.65858922396E+02  0.79389026324E+02  0.47000000000E+01 0. -1.
         -5    1    3    3    0  503 -0.38354491478E+02  0.17933300288E+02  0.56211898165E+02  0.70530403168E+02  0.47000000000E+01 0. -1.
<mgrwt>
<rscale>  0 0.14961756E+03</rscale>
<asrwt>0</asrwt>
<pdfrwt beam="2">  1        5 0.35425829E-01 0.14962050E+03</pdfrwt>
<pdfrwt beam="1">  1       -5 0.16511774E-01 0.14962050E+03</pdfrwt>
<totfact> 0.18929422E+02</totfact>
</mgrwt>
</event>
<event>
 8    1  0.3674342E-007  0.1469653E+03  0.7546771E-02  0.1204254E+00
          5   -1    0    0  501    0  0.00000000000E+00  0.00000000000E+00  0.12478577815E+04  0.12478666327E+04  0.47000000000E+01 0.  1.
         -5   -1    0    0    0  501 -0.00000000000E+00 -0.00000000000E+00 -0.27345388712E+02  0.27746356225E+02  0.47000000000E+01 0.  1.
         25    2    1    2    0    0  0.53235844401E+02  0.56036061279E+02  0.22132314128E+03  0.26567408820E+03  0.12499877192E+03 0.  0.
         25    2    1    2    0    0 -0.53235844401E+02 -0.56036061279E+02  0.99918925154E+03  0.10099389007E+04  0.12499330962E+03 0.  0.
          5    1    3    3  502    0  0.59671133110E+02  0.46789168804E+02  0.23521550486E+03  0.24718069134E+03  0.47000000000E+01 0.  1.
         -5    1    3    3    0  502 -0.64352887087E+01  0.92468924750E+01 -0.13892363587E+02  0.18493396855E+02  0.47000000000E+01 0.  1.
          5    1    4    4  503    0  0.10671222963E+02 -0.58254658697E+02  0.75955805276E+03  0.76187794677E+03  0.47000000000E+01 0.  1.
         -5    1    4    4    0  503 -0.63907067364E+02  0.22185974184E+01  0.23963119877E+03  0.24806095392E+03  0.47000000000E+01 0.  1.
<mgrwt>
<rscale>  0 0.14696410E+03</rscale>
<asrwt>0</asrwt>
<pdfrwt beam="1">  1        5 0.19200964E+00 0.14696526E+03</pdfrwt>
<pdfrwt beam="2">  1       -5 0.42385075E-02 0.14696526E+03</pdfrwt>
<totfact> 0.34860526E+01</totfact>
</mgrwt>
</event>
<event>
 8    1  0.3674342E-007  0.1510274E+03  0.7546771E-02  0.1199218E+00
         -5   -1    0    0    0  501 -0.00000000000E+00  0.00000000000E+00  0.70660786739E+02  0.70816924407E+02  0.47000000000E+01 0.  1.
          5   -1    0    0  501    0  0.00000000000E+00 -0.00000000000E+00 -0.34341360968E+03  0.34344577055E+03  0.47000000000E+01 0.  1.
         25    2    1    2    0    0  0.83184263260E+02 -0.16245674728E+02 -0.84975441164E+02  0.17328631934E+03  0.12499511698E+03 0.  0.
         25    2    1    2    0    0 -0.83184263260E+02  0.16245674728E+02 -0.18777738177E+03  0.24097637562E+03  0.12500289956E+03 0.  0.
          5    1    3    3  502    0 -0.29316091448E+02  0.11278346758E+02 -0.42746946517E+01  0.32046799181E+02  0.47000000000E+01 0.  1.
         -5    1    3    3    0  502  0.11250035471E+03 -0.27524021486E+02 -0.80700746513E+02  0.14123952016E+03  0.47000000000E+01 0.  1.
          5    1    4    4  503    0 -0.26277804843E+02  0.65002394365E+02 -0.12370402254E+03  0.14226949600E+03  0.47000000000E+01 0.  1.
         -5    1    4    4    0  503 -0.56906458417E+02 -0.48756719637E+02 -0.64073359234E+02  0.98706879613E+02  0.47000000000E+01 0.  1.
<mgrwt>
<rscale>  0 0.15102577E+03</rscale>
<asrwt>0</asrwt>
<pdfrwt beam="2">  1        5 0.52847347E-01 0.15102738E+03</pdfrwt>
<pdfrwt beam="1">  1       -5 0.10885375E-01 0.15102738E+03</pdfrwt>
<totfact> 0.17486750E+02</totfact>
</mgrwt>
</event>
<event>
 8    1  0.3674342E-007  0.1436660E+03  0.7546771E-02  0.1208483E+00
          5   -1    0    0  501    0  0.00000000000E+00  0.00000000000E+00  0.50247977495E+02  0.50467308650E+02  0.47000000000E+01 0. -1.
         -5   -1    0    0    0  501 -0.00000000000E+00 -0.00000000000E+00 -0.47812732395E+03  0.47815042393E+03  0.47000000000E+01 0. -1.
         25    2    1    2    0    0  0.22403514005E+02 -0.67166501448E+02 -0.31398210303E+03  0.34528926698E+03  0.12500664188E+03 0.  0.
         25    2    1    2    0    0 -0.22403514005E+02  0.67166501448E+02 -0.11389724343E+03  0.18332846560E+03  0.12499395139E+03 0.  0.
          5    1    4    4  502    0 -0.50846868056E+02  0.69191656540E+02 -0.24559270382E+02  0.89432304497E+02  0.47000000000E+01 0.  1.
         -5    1    4    4    0  502  0.28443354051E+02 -0.20251550920E+01 -0.89337973045E+02  0.93896161107E+02  0.47000000000E+01 0.  1.
          5    1    3    3  503    0 -0.34306261623E+02 -0.28458317979E+02 -0.32106283242E+02  0.55133464179E+02  0.47000000000E+01 0.  1.
         -5    1    3    3    0  503  0.56709775628E+02 -0.38708183469E+02 -0.28187581978E+03  0.29015580280E+03  0.47000000000E+01 0.  1.
<mgrwt>
<rscale>  0 0.14366323E+03</rscale>
<asrwt>0</asrwt>
<pdfrwt beam="1">  1        5 0.77491070E-02 0.14366599E+03</pdfrwt>
<pdfrwt beam="2">  1       -5 0.73576695E-01 0.14366599E+03</pdfrwt>
<totfact> 0.14944483E+02</totfact>
</mgrwt>
</event>
<event>
 8    1  0.3674342E-007  0.1378152E+03  0.7546771E-02  0.1216302E+00
          5   -1    0    0  501    0  0.00000000000E+00  0.00000000000E+00  0.15191576299E+03  0.15198845036E+03  0.47000000000E+01 0. -1.
         -5   -1    0    0    0  501 -0.00000000000E+00 -0.00000000000E+00 -0.20218057175E+03  0.20223519376E+03  0.47000000000E+01 0. -1.
         25    2    1    2    0    0  0.40296168063E+02  0.41751024468E+02 -0.13461435759E+03  0.19264434258E+03  0.12499555294E+03 0.  0.
         25    2    1    2    0    0 -0.40296168063E+02 -0.41751024468E+02  0.84349548821E+02  0.16157930154E+03  0.12500438031E+03 0.  0.
          5    1    3    3  502    0  0.73554962062E+02  0.63523094358E+02 -0.87898132584E+02  0.13112470275E+03  0.47000000000E+01 0.  1.
         -5    1    3    3    0  502 -0.33258793999E+02 -0.21772069890E+02 -0.46716225003E+02  0.61519639824E+02  0.47000000000E+01 0.  1.
          5    1    4    4  503    0 -0.58612162815E+01 -0.73283771155E+02  0.10973878487E+02  0.74480742343E+02  0.47000000000E+01 0.  1.
         -5    1    4    4    0  503 -0.34434951782E+02  0.31532746687E+02  0.73375670334E+02  0.87098559200E+02  0.47000000000E+01 0.  1.
<mgrwt>
<rscale>  0 0.13781318E+03</rscale>
<asrwt>0</asrwt>
<pdfrwt beam="1">  1        5 0.23381449E-01 0.13781518E+03</pdfrwt>
<pdfrwt beam="2">  1       -5 0.31114496E-01 0.13781518E+03</pdfrwt>
<totfact> 0.12473955E+02</totfact>
</mgrwt>
</event>
<event>
 8    1  0.3674342E-007  0.1563718E+03  0.7546771E-02  0.1192855E+00
         -5   -1    0    0    0  501 -0.00000000000E+00  0.00000000000E+00  0.11020663115E+03  0.11030680645E+03  0.47000000000E+01 0. -1.
          5   -1    0    0  501    0  0.00000000000E+00 -0.00000000000E+00 -0.22791125768E+03  0.22795971438E+03  0.47000000000E+01 0. -1.
         25    2    1    2    0    0  0.69298980131E+02  0.63438265187E+02 -0.30825732654E+02  0.15938086331E+03  0.12500108663E+03 0.  0.
         25    2    1    2    0    0 -0.69298980131E+02 -0.63438265187E+02 -0.86878893878E+02  0.17888565752E+03  0.12500149650E+03 0.  0.
          5    1    3    3  502    0  0.80309511628E+02  0.12789814075E+02 -0.58641435813E+02  0.10036984107E+03  0.47000000000E+01 0. -1.
         -5    1    3    3    0  502 -0.11010531497E+02  0.50648451111E+02  0.27815703159E+02  0.59011022242E+02  0.47000000000E+01 0. -1.
          5    1    4    4  503    0 -0.92980447814E+02 -0.92158825012E+01 -0.34463437833E+02  0.99700123938E+02  0.47000000000E+01 0. -1.
         -5    1    4    4    0  503  0.23681467684E+02 -0.54222382685E+02 -0.52415456045E+02  0.79185533579E+02  0.47000000000E+01 0. -1.
<mgrwt>
<rscale>  0 0.15637171E+03</rscale>
<asrwt>0</asrwt>
<pdfrwt beam="2">  1        5 0.35074704E-01 0.15637179E+03</pdfrwt>
<pdfrwt beam="1">  1       -5 0.16966300E-01 0.15637179E+03</pdfrwt>
<totfact> 0.18641522E+02</totfact>
</mgrwt>
</event>
<event>
 8    1  0.3674342E-007  0.1253873E+03  0.7546771E-02  0.1234466E+00
          5   -1    0    0  501    0  0.00000000000E+00  0.00000000000E+00  0.11874076557E+02  0.12770422628E+02  0.47000000000E+01 0. -1.
         -5   -1    0    0    0  501 -0.00000000000E+00 -0.00000000000E+00 -0.13397577290E+04  0.13397659730E+04  0.47000000000E+01 0. -1.
         25    2    1    2    0    0 -0.31667524947E+01 -0.93170891520E+01 -0.81258879309E+03  0.82220588368E+03  0.12500052812E+03 0.  0.
         25    2    1    2    0    0  0.31667524947E+01  0.93170891520E+01 -0.51529485940E+03  0.53033051200E+03  0.12499929344E+03 0.  0.
          5    1    3    3  502    0 -0.63259088204E+02  0.41641788926E+01 -0.40027755077E+03  0.40529404174E+03  0.47000000000E+01 0. -1.
         -5    1    3    3    0  502  0.60092335710E+02 -0.13481268045E+02 -0.41231124232E+03  0.41691184194E+03  0.47000000000E+01 0. -1.
          5    1    4    4  503    0 -0.28688051476E+02  0.58675798020E+02 -0.30388622556E+03  0.31086135439E+03  0.47000000000E+01 0. -1.
         -5    1    4    4    0  503  0.31854803970E+02 -0.49358708868E+02 -0.21140863384E+03  0.21946915760E+03  0.47000000000E+01 0. -1.
<mgrwt>
<rscale>  0 0.12538697E+03</rscale>
<asrwt>0</asrwt>
<pdfrwt beam="1">  1        5 0.18963659E-02 0.12538727E+03</pdfrwt>
<pdfrwt beam="2">  1       -5 0.20618604E+00 0.12538727E+03</pdfrwt>
<totfact> 0.97488561E+01</totfact>
</mgrwt>
</event>
<event>
 8    1  0.3674342E-007  0.1284188E+03  0.7546771E-02  0.1229823E+00
         -5   -1    0    0    0  501 -0.00000000000E+00  0.00000000000E+00  0.71569194483E+03  0.71570737728E+03  0.47000000000E+01 0. -1.
          5   -1    0    0  501    0  0.00000000000E+00 -0.00000000000E+00 -0.16106465584E+03  0.16113321619E+03  0.47000000000E+01 0.  1.
         25    2    1    2    0    0 -0.12449111576E+02 -0.26664950437E+02  0.68317429068E+03  0.69513831021E+03  0.12499663561E+03 0.  0.
         25    2    1    2    0    0  0.12449111576E+02  0.26664950437E+02 -0.12854700169E+03  0.18170228326E+03  0.12500155254E+03 0.  0.
          5    1    3    3  502    0 -0.10433643356E+02 -0.72880112854E+02  0.29051525553E+03  0.29973584280E+03  0.47000000000E+01 0. -1.
         -5    1    3    3    0  502 -0.20154682194E+01  0.46215162417E+02  0.39265903514E+03  0.39540246740E+03  0.47000000000E+01 0. -1.
          5    1    4    4  503    0  0.15516593649E+02  0.76535212276E+02 -0.78183048412E+02  0.11060326603E+03  0.47000000000E+01 0.  1.
         -5    1    4    4    0  503 -0.30674820734E+01 -0.49870261838E+02 -0.50363953281E+02  0.71099017238E+02  0.47000000000E+01 0.  1.
<mgrwt>
<rscale>  0 0.12841760E+03</rscale>
<asrwt>0</asrwt>
<pdfrwt beam="2">  1        5 0.24785638E-01 0.12841880E+03</pdfrwt>
<pdfrwt beam="1">  1       -5 0.11011292E+00 0.12841880E+03</pdfrwt>
<totfact> 0.68258794E+00</totfact>
</mgrwt>
</event>
<event>
 8    1  0.3674342E-007  0.1425063E+03  0.7546771E-02  0.1209998E+00
          5   -1    0    0  501    0  0.00000000000E+00  0.00000000000E+00  0.40687606993E+03  0.40690321488E+03  0.47000000000E+01 0.  1.
         -5   -1    0    0    0  501 -0.00000000000E+00 -0.00000000000E+00 -0.49888402610E+02  0.50109307668E+02  0.47000000000E+01 0.  1.
         25    2    1    2    0    0 -0.52583317131E+02 -0.43776890687E+02  0.18957357444E+03  0.23716278348E+03  0.12500649721E+03 0.  0.
         25    2    1    2    0    0  0.52583317131E+02  0.43776890687E+02  0.16741409288E+03  0.21984973907E+03  0.12500003150E+03 0.  0.
          5    1    3    3  502    0 -0.82854527600E+02  0.56127506367E+01  0.12649483347E+03  0.15139157377E+03  0.47000000000E+01 0.  1.
         -5    1    3    3    0  502  0.30271210469E+02 -0.49389641324E+02  0.63078740969E+02  0.85771209713E+02  0.47000000000E+01 0.  1.
          5    1    4    4  503    0  0.14653189078E+02  0.73972589671E+01 -0.19331785456E+02  0.25792311244E+02  0.47000000000E+01 0.  1.
         -5    1    4    4    0  503  0.37930128054E+02  0.36379631720E+02  0.18674587834E+03  0.19405742782E+03  0.47000000000E+01 0.  1.
<mgrwt>
<rscale>  0 0.14250488E+03</rscale>
<asrwt>0</asrwt>
<pdfrwt beam="1">  1        5 0.62615401E-01 0.14250630E+03</pdfrwt>
<pdfrwt beam="2">  1       -5 0.76942194E-02 0.14250630E+03</pdfrwt>
<totfact> 0.21658927E+02</totfact>
</mgrwt>
</event>
<event>
 8    1  0.3674342E-007  0.1306556E+03  0.7546771E-02  0.1226489E+00
          5   -1    0    0  501    0  0.00000000000E+00  0.00000000000E+00  0.14423191935E+02  0.15169656081E+02  0.47000000000E+01 0.  1.
         -5   -1    0    0    0  501 -0.00000000000E+00 -0.00000000000E+00 -0.13769549766E+04  0.13769629979E+04  0.47000000000E+01 0.  1.
         25    2    1    2    0    0  0.37736219592E+02  0.45815256192E+01 -0.96195717260E+03  0.97078849247E+03  0.12499473010E+03 0.  0.
         25    2    1    2    0    0 -0.37736219592E+02 -0.45815256192E+01 -0.40057461210E+03  0.42134416154E+03  0.12500347980E+03 0.  0.
          5    1    4    4  502    0 -0.40837559164E+02 -0.37091514967E+02 -0.70587127719E+02  0.89711310996E+02  0.47000000000E+01 0. -1.
         -5    1    4    4    0  502  0.31013395715E+01  0.32509989348E+02 -0.32998748438E+03  0.33163285055E+03  0.47000000000E+01 0. -1.
          5    1    3    3  503    0  0.50829712588E+02 -0.35154322161E+02 -0.24931327259E+03  0.25690209018E+03  0.47000000000E+01 0.  1.
         -5    1    3    3    0  503 -0.13093492995E+02  0.39735847781E+02 -0.71264390001E+03  0.71388640229E+03  0.47000000000E+01 0.  1.
<mgrwt>
<rscale>  0 0.13065349E+03</rscale>
<asrwt>0</asrwt>
<pdfrwt beam="1">  1        5 0.22769910E-02 0.13065559E+03</pdfrwt>
<pdfrwt beam="2">  1       -5 0.21189716E+00 0.13065559E+03</pdfrwt>
<totfact> 0.67723103E+01</totfact>
</mgrwt>
</event>
<event>
 8    1  0.3674342E-007  0.1391466E+03  0.7546771E-02  0.1214485E+00
          5   -1    0    0  501    0  0.00000000000E+00  0.00000000000E+00  0.31133481757E+03  0.31137029182E+03  0.47000000000E+01 0. -1.
         -5   -1    0    0    0  501 -0.00000000000E+00 -0.00000000000E+00 -0.83062938438E+02  0.83195803632E+02  0.47000000000E+01 0. -1.
         25    2    1    2    0    0 -0.39686748700E+02  0.46475149844E+02  0.15042656495E+02  0.13995729445E+03  0.12500714051E+03 0.  0.
         25    2    1    2    0    0  0.39686748700E+02 -0.46475149844E+02  0.21322922263E+03  0.25460880101E+03  0.12499585030E+03 0.  0.
          5    1    3    3  502    0  0.12995772410E+02 -0.49347800792E+01 -0.43423570467E+02  0.45835997066E+02  0.47000000000E+01 0.  1.
         -5    1    3    3    0  502 -0.52682521110E+02  0.51409929923E+02  0.58466226961E+02  0.94121297379E+02  0.47000000000E+01 0.  1.
          5    1    4    4  503    0 -0.14163570123E+02 -0.35785734480E+02  0.48587950187E+01  0.39075867232E+02  0.47000000000E+01 0.  1.
         -5    1    4    4    0  503  0.53850318823E+02 -0.10689415364E+02  0.20837042762E+03  0.21553293378E+03  0.47000000000E+01 0.  1.
<mgrwt>
<rscale>  0 0.13914402E+03</rscale>
<asrwt>0</asrwt>
<pdfrwt beam="1">  1        5 0.47910613E-01 0.13914655E+03</pdfrwt>
<pdfrwt beam="2">  1       -5 0.12791863E-01 0.13914655E+03</pdfrwt>
<totfact> 0.15752679E+02</totfact>
</mgrwt>
</event>
<event>
 8    1  0.3674342E-007  0.1307450E+03  0.7546771E-02  0.1226361E+00
         -5   -1    0    0    0  501 -0.00000000000E+00  0.00000000000E+00  0.41831952342E+03  0.41834592585E+03  0.47000000000E+01 0. -1.
          5   -1    0    0  501    0  0.00000000000E+00 -0.00000000000E+00 -0.73620242865E+02  0.73770116981E+02  0.47000000000E+01 0. -1.
         25    2    1    2    0    0  0.38234673202E+02 -0.18891429823E+01  0.33664176439E+03  0.36113976789E+03  0.12501518038E+03 0.  0.
         25    2    1    2    0    0 -0.38234673202E+02  0.18891429823E+01  0.80575161597E+01  0.13097627493E+03  0.12499760771E+03 0.  0.
          5    1    4    4  502    0 -0.77621579001E+02  0.67147621998E+01  0.32039704052E+02  0.84373160388E+02  0.47000000000E+01 0. -1.
         -5    1    4    4    0  502  0.39386905799E+02 -0.48256192175E+01 -0.23982187893E+02  0.46603114546E+02  0.47000000000E+01 0. -1.
          5    1    3    3  503    0  0.24770338007E+02 -0.19526915201E+02  0.95873957212E+01  0.33299823107E+02  0.47000000000E+01 0.  1.
         -5    1    3    3    0  503  0.13464335196E+02  0.17637772219E+02  0.32705436867E+03  0.32783994479E+03  0.47000000000E+01 0.  1.
<mgrwt>
<rscale>  0 0.13074080E+03</rscale>
<asrwt>0</asrwt>
<pdfrwt beam="2">  1        5 0.11339751E-01 0.13074500E+03</pdfrwt>
<pdfrwt beam="1">  1       -5 0.64370409E-01 0.13074500E+03</pdfrwt>
<totfact> 0.10101118E+02</totfact>
</mgrwt>
</event>
<event>
 8    1  0.3674342E-007  0.1354107E+03  0.7546771E-02  0.1219641E+00
          5   -1    0    0  501    0  0.00000000000E+00  0.00000000000E+00  0.38225113850E+02  0.38512976110E+02  0.47000000000E+01 0.  1.
         -5   -1    0    0    0  501 -0.00000000000E+00 -0.00000000000E+00 -0.49786048935E+03  0.49788267379E+03  0.47000000000E+01 0.  1.
         25    2    1    2    0    0 -0.33278002126E+02  0.40047352384E+02 -0.28392280473E+03  0.31456021387E+03  0.12499901296E+03 0.  0.
         25    2    1    2    0    0  0.33278002126E+02 -0.40047352384E+02 -0.17571257077E+03  0.22183543603E+03  0.12499934918E+03 0.  0.
          5    1    4    4  502    0  0.38645202417E+02 -0.68958971351E+02 -0.17496060533E+03  0.19204711614E+03  0.47000000000E+01 0. -1.
         -5    1    4    4    0  502 -0.53672002911E+01  0.28911618967E+02 -0.75196544266E+00  0.29788319897E+02  0.47000000000E+01 0. -1.
          5    1    3    3  503    0 -0.66229974329E+02 -0.17371338425E+02 -0.13209585437E+03  0.14886093390E+03  0.47000000000E+01 0.  1.
         -5    1    3    3    0  503  0.32951972203E+02  0.57418690808E+02 -0.15182695036E+03  0.16569927997E+03  0.47000000000E+01 0.  1.
<mgrwt>
<rscale>  0 0.13541061E+03</rscale>
<asrwt>0</asrwt>
<pdfrwt beam="1">  1        5 0.59046369E-02 0.13541068E+03</pdfrwt>
<pdfrwt beam="2">  1       -5 0.76617766E-01 0.13541068E+03</pdfrwt>
<totfact> 0.21179468E+02</totfact>
</mgrwt>
</event>
<event>
 8    1  0.3674342E-007  0.1699123E+03  0.7546771E-02  0.1177942E+00
         -5   -1    0    0    0  501 -0.00000000000E+00  0.00000000000E+00  0.45430658291E+03  0.45433089403E+03  0.47000000000E+01 0.  1.
          5   -1    0    0  501    0  0.00000000000E+00 -0.00000000000E+00 -0.63819075909E+02  0.63991909253E+02  0.47000000000E+01 0.  1.
         25    2    1    2    0    0 -0.11225994112E+03 -0.25300047044E+02  0.21540605306E+03  0.27434796786E+03  0.12499861206E+03 0.  0.
         25    2    1    2    0    0  0.11225994112E+03  0.25300047044E+02  0.17508145394E+03  0.24397483542E+03  0.12501127167E+03 0.  0.
          5    1    3    3  502    0 -0.99728759682E+02 -0.63721885894E+02  0.11112305346E+03  0.16240913540E+03  0.47000000000E+01 0. -1.
         -5    1    3    3    0  502 -0.12531181436E+02  0.38421838851E+02  0.10428299960E+03  0.11193883247E+03  0.47000000000E+01 0. -1.
          5    1    4    4  503    0  0.13561780794E+03  0.18832388125E+01  0.13060428425E+03  0.18834889297E+03  0.47000000000E+01 0. -1.
         -5    1    4    4    0  503 -0.23357866821E+02  0.23416808231E+02  0.44477169684E+02  0.55625942448E+02  0.47000000000E+01 0. -1.
<mgrwt>
<rscale>  0 0.16991002E+03</rscale>
<asrwt>0</asrwt>
<pdfrwt beam="2">  1        5 0.98334840E-02 0.16991234E+03</pdfrwt>
<pdfrwt beam="1">  1       -5 0.69908488E-01 0.16991234E+03</pdfrwt>
<totfact> 0.11711057E+02</totfact>
</mgrwt>
</event>
<event>
 8    1  0.3674342E-007  0.1266333E+03  0.7546771E-02  0.1232540E+00
          5   -1    0    0  501    0  0.00000000000E+00  0.00000000000E+00  0.19382967635E+03  0.19388665100E+03  0.47000000000E+01 0. -1.
         -5   -1    0    0    0  501 -0.00000000000E+00 -0.00000000000E+00 -0.92804090303E+02  0.92923028239E+02  0.47000000000E+01 0. -1.
         25    2    1    2    0    0 -0.11363817197E+02 -0.16785234084E+02  0.29941446323E+01  0.12666553030E+03  0.12499724493E+03 0.  0.
         25    2    1    2    0    0  0.11363817197E+02  0.16785234084E+02  0.98031441419E+02  0.16014414893E+03  0.12500041803E+03 0.  0.
          5    1    3    3  502    0 -0.21602208355E+02  0.47303793147E+02 -0.22396766700E+02  0.56815573661E+02  0.47000000000E+01 0.  1.
         -5    1    3    3    0  502  0.10238391158E+02 -0.64089027230E+02  0.25390911332E+02  0.69849956643E+02  0.47000000000E+01 0.  1.
          5    1    4    4  503    0 -0.42061747033E+02  0.46894847190E+02  0.35625578892E+02  0.72523024812E+02  0.47000000000E+01 0. -1.
         -5    1    4    4    0  503  0.53425564230E+02 -0.30109613106E+02  0.62405862527E+02  0.87621124122E+02  0.47000000000E+01 0. -1.
<mgrwt>
<rscale>  0 0.12663249E+03</rscale>
<asrwt>0</asrwt>
<pdfrwt beam="1">  1        5 0.29833481E-01 0.12663327E+03</pdfrwt>
<pdfrwt beam="2">  1       -5 0.14291084E-01 0.12663327E+03</pdfrwt>
<totfact> 0.32666391E+02</totfact>
</mgrwt>
</event>
<event>
 8    1  0.3674342E-007  0.1322819E+03  0.7546771E-02  0.1224114E+00
          5   -1    0    0  501    0  0.00000000000E+00  0.00000000000E+00  0.10239037232E+03  0.10249818702E+03  0.47000000000E+01 0.  1.
         -5   -1    0    0    0  501 -0.00000000000E+00 -0.00000000000E+00 -0.21150005450E+03  0.21155227026E+03  0.47000000000E+01 0.  1.
         25    2    1    2    0    0 -0.18011117474E+02 -0.39317502692E+02 -0.12353380493E+03  0.18098449443E+03  0.12499807955E+03 0.  0.
         25    2    1    2    0    0  0.18011117474E+02  0.39317502692E+02  0.14424122749E+02  0.13306596286E+03  0.12501291447E+03 0.  0.
          5    1    3    3  502    0  0.22618317754E+02  0.38124832772E+02 -0.45201827570E+02  0.63485324190E+02  0.47000000000E+01 0.  1.
         -5    1    3    3    0  502 -0.40629435228E+02 -0.77442335464E+02 -0.78331977364E+02  0.11749917024E+03  0.47000000000E+01 0.  1.
          5    1    4    4  503    0  0.14396552445E+02 -0.44013473086E+02 -0.63577288848E+01  0.46978263611E+02  0.47000000000E+01 0.  1.
         -5    1    4    4    0  503  0.36145650290E+01  0.83330975777E+02  0.20781851634E+02  0.86087699247E+02  0.47000000000E+01 0.  1.
<mgrwt>
<rscale>  0 0.13227837E+03</rscale>
<asrwt>0</asrwt>
<pdfrwt beam="1">  1        5 0.15764675E-01 0.13228188E+03</pdfrwt>
<pdfrwt beam="2">  1       -5 0.32550780E-01 0.13228188E+03</pdfrwt>
<totfact> 0.23405544E+02</totfact>
</mgrwt>
</event>
<event>
 8    1  0.3674342E-007  0.1468490E+03  0.7546771E-02  0.1204400E+00
          5   -1    0    0  501    0  0.00000000000E+00  0.00000000000E+00  0.26978999075E+02  0.27385331678E+02  0.47000000000E+01 0. -1.
         -5   -1    0    0    0  501 -0.00000000000E+00 -0.00000000000E+00 -0.79732000040E+03  0.79733385294E+03  0.47000000000E+01 0. -1.
         25    2    1    2    0    0  0.71643406088E+02 -0.28388768054E+02 -0.41582192878E+03  0.44099035590E+03  0.12500367096E+03 0.  0.
         25    2    1    2    0    0 -0.71643406088E+02  0.28388768054E+02 -0.35451907255E+03  0.38372882872E+03  0.12500136560E+03 0.  0.
          5    1    4    4  502    0 -0.95254176641E+02  0.15550777448E+02 -0.15713908744E+03  0.18447213244E+03  0.47000000000E+01 0. -1.
         -5    1    4    4    0  502  0.23610770553E+02  0.12837990606E+02 -0.19737998511E+03  0.19925669628E+03  0.47000000000E+01 0. -1.
          5    1    3    3  503    0  0.74968450576E+02  0.33841784236E+02 -0.20007110256E+03  0.21637021750E+03  0.47000000000E+01 0.  1.
         -5    1    3    3    0  503 -0.33250444881E+01 -0.62230552290E+02 -0.21575082622E+03  0.22462013840E+03  0.47000000000E+01 0.  1.
<mgrwt>
<rscale>  0 0.14684847E+03</rscale>
<asrwt>0</asrwt>
<pdfrwt beam="1">  1        5 0.41829378E-02 0.14684896E+03</pdfrwt>
<pdfrwt beam="2">  1       -5 0.12269692E+00 0.14684896E+03</pdfrwt>
<totfact> 0.12338345E+02</totfact>
</mgrwt>
</event>
<event>
 8    1  0.3674342E-007  0.1407214E+03  0.7546771E-02  0.1212363E+00
         -5   -1    0    0    0  501 -0.00000000000E+00  0.00000000000E+00  0.65982643005E+02  0.66149823718E+02  0.47000000000E+01 0. -1.
          5   -1    0    0  501    0  0.00000000000E+00 -0.00000000000E+00 -0.30333972833E+03  0.30337613746E+03  0.47000000000E+01 0. -1.
         25    2    1    2    0    0  0.63066657247E+02 -0.14138139674E+02 -0.98003791567E+02  0.17148084818E+03  0.12499459141E+03 0.  0.
         25    2    1    2    0    0 -0.63066657247E+02  0.14138139674E+02 -0.13935329375E+03  0.19804511300E+03  0.12500094421E+03 0.  0.
          5    1    3    3  502    0  0.21873678421E+02  0.48244816666E+02 -0.70364106510E+01  0.53643463885E+02  0.47000000000E+01 0.  1.
         -5    1    3    3    0  502  0.41192978826E+02 -0.62382956340E+02 -0.90967380916E+02  0.11783738429E+03  0.47000000000E+01 0.  1.
          5    1    4    4  503    0  0.26176647010E+02  0.38537371509E+02 -0.34693631897E+02  0.58275929385E+02  0.47000000000E+01 0.  1.
         -5    1    4    4    0  503 -0.89243304257E+02 -0.24399231835E+02 -0.10465966186E+03  0.13976918362E+03  0.47000000000E+01 0.  1.
<mgrwt>
<rscale>  0 0.14072004E+03</rscale>
<asrwt>0</asrwt>
<pdfrwt beam="2">  1        5 0.46683311E-01 0.14072145E+03</pdfrwt>
<pdfrwt beam="1">  1       -5 0.10166837E-01 0.14072145E+03</pdfrwt>
<totfact> 0.25045721E+02</totfact>
</mgrwt>
</event>
<event>
 8    1  0.3674342E-007  0.1251509E+03  0.7546771E-02  0.1234839E+00
          5   -1    0    0  501    0  0.00000000000E+00  0.00000000000E+00  0.17858542215E+03  0.17864725859E+03  0.47000000000E+01 0. -1.
         -5   -1    0    0    0  501 -0.00000000000E+00 -0.00000000000E+00 -0.91331841959E+02  0.91452694633E+02  0.47000000000E+01 0. -1.
         25    2    1    2    0    0 -0.24746422689E+01  0.53383741139E+01  0.16191614075E+02  0.12618142760E+03  0.12499984885E+03 0.  0.
         25    2    1    2    0    0  0.24746422689E+01 -0.53383741139E+01  0.71061966112E+02  0.14391852563E+03  0.12501246698E+03 0.  0.
          5    1    4    4  502    0  0.47301347653E+02  0.83168250378E+01  0.82388083977E+02  0.95480225439E+02  0.47000000000E+01 0.  1.
         -5    1    4    4    0  502 -0.44826705384E+02 -0.13655199152E+02 -0.11326117866E+02  0.48438300190E+02  0.47000000000E+01 0.  1.
          5    1    3    3  503    0 -0.17048694645E+02 -0.35874645103E+02  0.54681365139E+02  0.67747987748E+02  0.47000000000E+01 0. -1.
         -5    1    3    3    0  503  0.14574052376E+02  0.41213019217E+02 -0.38489751064E+02  0.58433439850E+02  0.47000000000E+01 0. -1.
<mgrwt>
<rscale>  0 0.12514771E+03</rscale>
<asrwt>0</asrwt>
<pdfrwt beam="1">  1        5 0.27488733E-01 0.12515086E+03</pdfrwt>
<pdfrwt beam="2">  1       -5 0.14065106E-01 0.12515086E+03</pdfrwt>
<totfact> 0.39252536E+02</totfact>
</mgrwt>
</event>
<event>
 8    1  0.3674342E-007  0.1397899E+03  0.7546771E-02  0.1213616E+00
         -5   -1    0    0    0  501 -0.00000000000E+00  0.00000000000E+00  0.50484835107E+02  0.50703141675E+02  0.47000000000E+01 0. -1.
          5   -1    0    0  501    0  0.00000000000E+00 -0.00000000000E+00 -0.49124867096E+03  0.49127115397E+03  0.47000000000E+01 0. -1.
         25    2    1    2    0    0  0.39493217381E+02 -0.48519222106E+02 -0.94957038870E+02  0.16898157984E+03  0.12499642379E+03 0.  0.
         25    2    1    2    0    0 -0.39493217381E+02  0.48519222106E+02 -0.34580679699E+03  0.37299271581E+03  0.12500958392E+03 0.  0.
          5    1    3    3  502    0  0.30288561370E+02 -0.58548323212E+02 -0.12176923610E+03  0.13854652634E+03  0.47000000000E+01 0.  1.
         -5    1    3    3    0  502  0.92046560110E+01  0.10029101106E+02  0.26812197227E+02  0.30435053498E+02  0.47000000000E+01 0.  1.
          5    1    4    4  503    0 -0.48358307121E+02  0.78024364533E+02 -0.31869686648E+03  0.33168676493E+03  0.47000000000E+01 0.  1.
         -5    1    4    4    0  503  0.88650897399E+01 -0.29505142427E+02 -0.27109930512E+02  0.41305950880E+02  0.47000000000E+01 0.  1.
<mgrwt>
<rscale>  0 0.13978699E+03</rscale>
<asrwt>0</asrwt>
<pdfrwt beam="2">  1        5 0.75595238E-01 0.13978993E+03</pdfrwt>
<pdfrwt beam="1">  1       -5 0.77854203E-02 0.13978993E+03</pdfrwt>
<totfact> 0.13814186E+02</totfact>
</mgrwt>
</event>
<event>
 8    1  0.3674342E-007  0.1289554E+03  0.7546771E-02  0.1229015E+00
         -5   -1    0    0    0  501 -0.00000000000E+00  0.00000000000E+00  0.59137486912E+03  0.59139354564E+03  0.47000000000E+01 0. -1.
          5   -1    0    0  501    0  0.00000000000E+00 -0.00000000000E+00 -0.34209213162E+02  0.34530570009E+02  0.47000000000E+01 0. -1.
         25    2    1    2    0    0 -0.30670823035E+02  0.79605016665E+01  0.41221259578E+03  0.43191284806E+03  0.12500166091E+03 0.  0.
         25    2    1    2    0    0  0.30670823035E+02 -0.79605016665E+01  0.14495306017E+03  0.19401126758E+03  0.12499965329E+03 0.  0.
          5    1    3    3  502    0  0.68472825569E+01  0.12154894627E+02  0.38465643540E+03  0.38493803402E+03  0.47000000000E+01 0.  1.
         -5    1    3    3    0  502 -0.37518105592E+02 -0.41943929601E+01  0.27556160386E+02  0.46974814046E+02  0.47000000000E+01 0.  1.
          5    1    4    4  503    0  0.71888848752E+02 -0.10247312475E+02  0.44476969765E+02  0.85283672689E+02  0.47000000000E+01 0.  1.
         -5    1    4    4    0  503 -0.41218025718E+02  0.22868108085E+01  0.10047609041E+03  0.10872759489E+03  0.47000000000E+01 0.  1.
<mgrwt>
<rscale>  0 0.12895487E+03</rscale>
<asrwt>0</asrwt>
<pdfrwt beam="2">  1        5 0.52891124E-02 0.12895536E+03</pdfrwt>
<pdfrwt beam="1">  1       -5 0.91006903E-01 0.12895536E+03</pdfrwt>
<totfact> 0.16757903E+02</totfact>
</mgrwt>
</event>
<event>
 8    1  0.3674342E-007  0.2554613E+03  0.7546771E-02  0.1109907E+00
          5   -1    0    0  501    0  0.00000000000E+00  0.00000000000E+00  0.61028412531E+03  0.61030222317E+03  0.47000000000E+01 0. -1.
         -5   -1    0    0    0  501 -0.00000000000E+00 -0.00000000000E+00 -0.16108964375E+03  0.16115819347E+03  0.47000000000E+01 0. -1.
         25    2    1    2    0    0  0.11405925352E+03 -0.19133098571E+03  0.85107870862E+00  0.25546275671E+03  0.12507372355E+03 0.  0.
         25    2    1    2    0    0 -0.11405925352E+03  0.19133098571E+03  0.44834340285E+03  0.51599765993E+03  0.12499887508E+03 0.  0.
          5    1    4    4  502    0 -0.17447633484E+02 -0.49932637734E+01  0.11963391202E+03  0.12109382934E+03  0.47000000000E+01 0.  1.
         -5    1    4    4    0  502 -0.96611620036E+02  0.19632424948E+03  0.32870949083E+03  0.39490383060E+03  0.47000000000E+01 0.  1.
          5    1    3    3  503    0  0.43171291535E+02 -0.17114426099E+03 -0.22517789527E+02  0.17799791945E+03  0.47000000000E+01 0.  1.
         -5    1    3    3    0  503  0.70887961984E+02 -0.20186724721E+02  0.23368868235E+02  0.77464837261E+02  0.47000000000E+01 0.  1.
<mgrwt>
<rscale>  0 0.25545218E+03</rscale>
<asrwt>0</asrwt>
<pdfrwt beam="1">  1        5 0.93896532E-01 0.25546134E+03</pdfrwt>
<pdfrwt beam="2">  1       -5 0.24789687E-01 0.25546134E+03</pdfrwt>
<totfact> 0.11928674E+01</totfact>
</mgrwt>
</event>
<event>
 8    1  0.3674342E-007  0.1329763E+03  0.7546771E-02  0.1223105E+00
         -5   -1    0    0    0  501 -0.00000000000E+00  0.00000000000E+00  0.13734892697E+02  0.14516792945E+02  0.47000000000E+01 0.  1.
          5   -1    0    0  501    0  0.00000000000E+00 -0.00000000000E+00 -0.12931937732E+04  0.12932023140E+04  0.47000000000E+01 0.  1.
         25    2    1    2    0    0  0.33384767089E+02  0.30719946255E+02 -0.52166678455E+03  0.53834834289E+03  0.12499778568E+03 0.  0.
         25    2    1    2    0    0 -0.33384767089E+02 -0.30719946255E+02 -0.75779209594E+03  0.76937076407E+03  0.12499701667E+03 0.  0.
          5    1    3    3  502    0  0.50211756235E+02 -0.36188479116E+02 -0.29062566188E+03  0.29718040284E+03  0.47000000000E+01 0. -1.
         -5    1    3    3    0  502 -0.16826989146E+02  0.66908425371E+02 -0.23104112266E+03  0.24116794006E+03  0.47000000000E+01 0. -1.
          5    1    4    4  503    0 -0.84653184210E+01 -0.24078135417E+02 -0.73245047971E+03  0.73291009916E+03  0.47000000000E+01 0. -1.
         -5    1    4    4    0  503 -0.24919448668E+02 -0.66418108384E+01 -0.25341616227E+02  0.36460664916E+02  0.47000000000E+01 0. -1.
<mgrwt>
<rscale>  0 0.13297615E+03</rscale>
<asrwt>0</asrwt>
<pdfrwt beam="2">  1        5 0.19901360E+00 0.13297633E+03</pdfrwt>
<pdfrwt beam="1">  1       -5 0.21738646E-02 0.13297633E+03</pdfrwt>
<totfact> 0.89331784E+01</totfact>
</mgrwt>
</event>
<event>
 8    1  0.3674342E-007  0.1369009E+03  0.7546771E-02  0.1217562E+00
         -5   -1    0    0    0  501 -0.00000000000E+00  0.00000000000E+00  0.21426638005E+02  0.21936062003E+02  0.47000000000E+01 0. -1.
          5   -1    0    0  501    0  0.00000000000E+00 -0.00000000000E+00 -0.89640143391E+03  0.89641375531E+03  0.47000000000E+01 0. -1.
         25    2    1    2    0    0  0.27024092353E+02  0.48839639213E+02 -0.35006017921E+03  0.37587760471E+03  0.12500493080E+03 0.  0.
         25    2    1    2    0    0 -0.27024092353E+02 -0.48839639213E+02 -0.52491461669E+03  0.54247221261E+03  0.12500053884E+03 0.  0.
          5    1    3    3  502    0 -0.28500146440E+02  0.66510886529E+02 -0.13779215703E+03  0.15570717681E+03  0.47000000000E+01 0.  1.
         -5    1    3    3    0  502  0.55524238793E+02 -0.17671247316E+02 -0.21226802218E+03  0.22017042789E+03  0.47000000000E+01 0.  1.
          5    1    4    4  503    0 -0.65286686674E+02 -0.55032925785E+02 -0.23768354897E+03  0.25259955231E+03  0.47000000000E+01 0.  1.
         -5    1    4    4    0  503  0.38262594321E+02  0.61932865712E+01 -0.28723106772E+03  0.28987266030E+03  0.47000000000E+01 0.  1.
<mgrwt>
<rscale>  0 0.13689985E+03</rscale>
<asrwt>0</asrwt>
<pdfrwt beam="2">  1        5 0.13794802E+00 0.13690086E+03</pdfrwt>
<pdfrwt beam="1">  1       -5 0.33365408E-02 0.13690086E+03</pdfrwt>
<totfact> 0.12869089E+02</totfact>
</mgrwt>
</event>
<event>
 8    1  0.3674342E-007  0.1385542E+03  0.7546771E-02  0.1215289E+00
         -5   -1    0    0    0  501 -0.00000000000E+00  0.00000000000E+00  0.31504417111E+03  0.31507922774E+03  0.47000000000E+01 0. -1.
          5   -1    0    0  501    0  0.00000000000E+00 -0.00000000000E+00 -0.82437780747E+02  0.82571651882E+02  0.47000000000E+01 0. -1.
         25    2    1    2    0    0  0.58657381850E+02 -0.11456078284E+02  0.21803712325E+03  0.25833592886E+03  0.12500133940E+03 0.  0.
         25    2    1    2    0    0 -0.58657381850E+02  0.11456078284E+02  0.14569267115E+02  0.13931495076E+03  0.12499784712E+03 0.  0.
          5    1    4    4  502    0  0.10556685930E+02  0.36086593220E+02  0.45718602426E+02  0.59379848735E+02  0.47000000000E+01 0.  1.
         -5    1    4    4    0  502 -0.69214067780E+02 -0.24630514937E+02 -0.31149335311E+02  0.79935102021E+02  0.47000000000E+01 0.  1.
          5    1    3    3  503    0  0.51926535047E+02  0.42141152690E+02  0.55625623103E+02  0.87112236440E+02  0.47000000000E+01 0. -1.
         -5    1    3    3    0  503  0.67308468031E+01 -0.53597230973E+02  0.16241150015E+03  0.17122369242E+03  0.47000000000E+01 0. -1.
<mgrwt>
<rscale>  0 0.13855341E+03</rscale>
<asrwt>0</asrwt>
<pdfrwt beam="2">  1        5 0.12695730E-01 0.13855420E+03</pdfrwt>
<pdfrwt beam="1">  1       -5 0.48481329E-01 0.13855420E+03</pdfrwt>
<totfact> 0.15550613E+02</totfact>
</mgrwt>
</event>
<event>
 8    1  0.3674342E-007  0.1305306E+03  0.7546771E-02  0.1226673E+00
         -5   -1    0    0    0  501 -0.00000000000E+00  0.00000000000E+00  0.29629304269E+03  0.29633031763E+03  0.47000000000E+01 0. -1.
          5   -1    0    0  501    0  0.00000000000E+00 -0.00000000000E+00 -0.57812228234E+02  0.58002963144E+02  0.47000000000E+01 0. -1.
         25    2    1    2    0    0 -0.28745757395E+02  0.24223029599E+02  0.13478493588E+03  0.18762676263E+03  0.12499499744E+03 0.  0.
         25    2    1    2    0    0  0.28745757395E+02 -0.24223029599E+02  0.10369587857E+03  0.16670651814E+03  0.12500061690E+03 0.  0.
          5    1    4    4  502    0 -0.32990022182E+02  0.29508142840E+02  0.57142315408E+02  0.72432080376E+02  0.47000000000E+01 0. -1.
         -5    1    4    4    0  502  0.61735779577E+02 -0.53731172439E+02  0.46553563166E+02  0.94274437761E+02  0.47000000000E+01 0. -1.
          5    1    3    3  503    0  0.41296186248E+02 -0.20592446853E+02  0.58752461939E+02  0.74855632052E+02  0.47000000000E+01 0. -1.
         -5    1    3    3    0  503 -0.70041943643E+02  0.44815476453E+02  0.76032473940E+02  0.11277113058E+03  0.47000000000E+01 0. -1.
<mgrwt>
<rscale>  0 0.13052922E+03</rscale>
<asrwt>0</asrwt>
<pdfrwt beam="2">  1        5 0.89117283E-02 0.13053056E+03</pdfrwt>
<pdfrwt beam="1">  1       -5 0.45601084E-01 0.13053056E+03</pdfrwt>
<totfact> 0.32225456E+02</totfact>
</mgrwt>
</event>
<event>
 8    1  0.3674342E-007  0.1461337E+03  0.7546771E-02  0.1205307E+00
         -5   -1    0    0    0  501 -0.00000000000E+00  0.00000000000E+00  0.65253144894E+02  0.65422189803E+02  0.47000000000E+01 0.  1.
          5   -1    0    0  501    0  0.00000000000E+00 -0.00000000000E+00 -0.32810616529E+03  0.32813982644E+03  0.47000000000E+01 0.  1.
         25    2    1    2    0    0  0.66977853579E+02 -0.35272118854E+02 -0.11831689145E+03  0.18802644275E+03  0.12499960453E+03 0.  0.
         25    2    1    2    0    0 -0.66977853579E+02  0.35272118854E+02 -0.14453612894E+03  0.20553557349E+03  0.12499609659E+03 0.  0.
          5    1    3    3  502    0  0.43722793927E+02  0.76321737371E+01 -0.13015111305E+03  0.13759118799E+03  0.47000000000E+01 0. -1.
         -5    1    3    3    0  502  0.23255059653E+02 -0.42904292591E+02  0.11834221598E+02  0.50435254763E+02  0.47000000000E+01 0. -1.
          5    1    4    4  503    0 -0.33589145559E+02 -0.39321702114E+02 -0.99174990646E+02  0.11194728995E+03  0.47000000000E+01 0.  1.
         -5    1    4    4    0  503 -0.33388708020E+02  0.74593820968E+02 -0.45361138294E+02  0.93588283547E+02  0.47000000000E+01 0.  1.
<mgrwt>
<rscale>  0 0.14613294E+03</rscale>
<asrwt>0</asrwt>
<pdfrwt beam="2">  1        5 0.50493464E-01 0.14613369E+03</pdfrwt>
<pdfrwt beam="1">  1       -5 0.10054538E-01 0.14613369E+03</pdfrwt>
<totfact> 0.21913994E+02</totfact>
</mgrwt>
</event>
<event>
 8    1  0.3674342E-007  0.1720291E+03  0.7546771E-02  0.1175750E+00
         -5   -1    0    0    0  501 -0.00000000000E+00  0.00000000000E+00  0.37551724022E+03  0.37554665183E+03  0.47000000000E+01 0.  1.
          5   -1    0    0  501    0  0.00000000000E+00 -0.00000000000E+00 -0.10614434566E+03  0.10624835112E+03  0.47000000000E+01 0.  1.
         25    2    1    2    0    0  0.10977909676E+03  0.43763092926E+02  0.25708352436E+03  0.30932754145E+03  0.12499972407E+03 0.  0.
         25    2    1    2    0    0 -0.10977909676E+03 -0.43763092926E+02  0.12289370202E+02  0.17246746150E+03  0.12500935273E+03 0.  0.
          5    1    4    4  502    0 -0.12377943963E+02  0.29048229116E+02  0.36387207408E+02  0.48405908467E+02  0.47000000000E+01 0.  1.
         -5    1    4    4    0  502 -0.97401152796E+02 -0.72811322042E+02 -0.24097837206E+02  0.12406155303E+03  0.47000000000E+01 0.  1.
          5    1    3    3  503    0  0.13124163004E+03  0.11313524713E+02  0.18315891452E+03  0.22565823554E+03  0.47000000000E+01 0.  1.
         -5    1    3    3    0  503 -0.21462533286E+02  0.32449568213E+02  0.73924609835E+02  0.83669305911E+02  0.47000000000E+01 0.  1.
<mgrwt>
<rscale>  0 0.17202731E+03</rscale>
<asrwt>0</asrwt>
<pdfrwt beam="2">  1        5 0.16340162E-01 0.17202906E+03</pdfrwt>
<pdfrwt beam="1">  1       -5 0.57782146E-01 0.17202906E+03</pdfrwt>
<totfact> 0.72336489E+01</totfact>
</mgrwt>
</event>
<event>
 8    1  0.3674342E-007  0.1621092E+03  0.7546771E-02  0.1186337E+00
          5   -1    0    0  501    0  0.00000000000E+00  0.00000000000E+00  0.41608817462E+02  0.41873424634E+02  0.47000000000E+01 0. -1.
         -5   -1    0    0    0  501 -0.00000000000E+00 -0.00000000000E+00 -0.65727380551E+03  0.65729060955E+03  0.47000000000E+01 0. -1.
         25    2    1    2    0    0 -0.13284390671E+02 -0.10235629895E+03 -0.37994833400E+03  0.41308407447E+03  0.12499771640E+03 0.  0.
         25    2    1    2    0    0  0.13284390671E+02  0.10235629895E+03 -0.23571665405E+03  0.28607995972E+03  0.12500446146E+03 0.  0.
          5    1    3    3  502    0 -0.63352544844E+02 -0.90221670526E+02 -0.25498339047E+03  0.27783468860E+03  0.47000000000E+01 0. -1.
         -5    1    3    3    0  502  0.50068154173E+02 -0.12134628421E+02 -0.12496494352E+03  0.13524938587E+03  0.47000000000E+01 0. -1.
          5    1    4    4  503    0 -0.24442288557E+02  0.58417204122E+02 -0.21533977807E+03  0.22450680441E+03  0.47000000000E+01 0. -1.
         -5    1    4    4    0  503  0.37726679229E+02  0.43939094824E+02 -0.20376875978E+02  0.61573155305E+02  0.47000000000E+01 0. -1.
<mgrwt>
<rscale>  0 0.16210793E+03</rscale>
<asrwt>0</asrwt>
<pdfrwt beam="1">  1        5 0.64230041E-02 0.16210923E+03</pdfrwt>
<pdfrwt beam="2">  1       -5 0.10114069E+00 0.16210923E+03</pdfrwt>
<totfact> 0.10090292E+02</totfact>
</mgrwt>
</event>
<event>
 8    1  0.3674342E-007  0.1251449E+03  0.7546771E-02  0.1234846E+00
         -5   -1    0    0    0  501 -0.00000000000E+00  0.00000000000E+00  0.65527673451E+02  0.65696011963E+02  0.47000000000E+01 0.  1.
          5   -1    0    0  501    0  0.00000000000E+00 -0.00000000000E+00 -0.25679720440E+03  0.25684021139E+03  0.47000000000E+01 0.  1.
         25    2    1    2    0    0 -0.55082354935E+00  0.57937476903E+01 -0.52589804799E+02  0.13573870488E+03  0.12500175005E+03 0.  0.
         25    2    1    2    0    0  0.55082354935E+00 -0.57937476903E+01 -0.13867972615E+03  0.18679751848E+03  0.12500950182E+03 0.  0.
          5    1    3    3  502    0  0.53408148131E+02  0.23435459660E+02 -0.52741732778E+02  0.78774560822E+02  0.47000000000E+01 0. -1.
         -5    1    3    3    0  502 -0.53958971681E+02 -0.17641711970E+02  0.15192797891E+00  0.56964144057E+02  0.47000000000E+01 0. -1.
          5    1    4    4  503    0  0.35189812799E+02  0.16166828792E+02 -0.14016135823E+03  0.14548878176E+03  0.47000000000E+01 0. -1.
         -5    1    4    4    0  503 -0.34638989250E+02 -0.21960576483E+02  0.14816320735E+01  0.41308736719E+02  0.47000000000E+01 0. -1.
<mgrwt>
<rscale>  0 0.12514297E+03</rscale>
<asrwt>0</asrwt>
<pdfrwt beam="2">  1        5 0.39523519E-01 0.12514490E+03</pdfrwt>
<pdfrwt beam="1">  1       -5 0.10097438E-01 0.12514490E+03</pdfrwt>
<totfact> 0.34307981E+02</totfact>
</mgrwt>
</event>
<event>
 8    1  0.3674342E-007  0.1303806E+03  0.7546771E-02  0.1226899E+00
         -5   -1    0    0    0  501 -0.00000000000E+00  0.00000000000E+00  0.29999200837E+02  0.30365145329E+02  0.47000000000E+01 0.  1.
          5   -1    0    0  501    0  0.00000000000E+00 -0.00000000000E+00 -0.73826764034E+03  0.73828260089E+03  0.47000000000E+01 0.  1.
         25    2    1    2    0    0  0.63024205080E+01  0.36553809113E+02 -0.16681672319E+03  0.21172366091E+03  0.12499275174E+03 0.  0.
         25    2    1    2    0    0 -0.63024205080E+01 -0.36553809113E+02 -0.54145171631E+03  0.55692408531E+03  0.12497429428E+03 0.  0.
          5    1    4    4  502    0  0.98690546956E+00 -0.33031728339E+02 -0.54564624101E+03  0.54666624131E+03  0.47000000000E+01 0.  1.
         -5    1    4    4    0  502 -0.72893259776E+01 -0.35220807736E+01  0.41945246917E+01  0.10257844002E+02  0.47000000000E+01 0.  1.
          5    1    3    3  503    0  0.12304167256E+02  0.70353600876E+02 -0.43785172775E+02  0.83906215759E+02  0.47000000000E+01 0.  1.
         -5    1    3    3    0  503 -0.60017467484E+01 -0.33799791763E+02 -0.12303155041E+03  0.12781744515E+03  0.47000000000E+01 0.  1.
<mgrwt>
<rscale>  0 0.13037613E+03</rscale>
<asrwt>0</asrwt>
<pdfrwt beam="2">  1        5 0.11360892E+00 0.13038056E+03</pdfrwt>
<pdfrwt beam="1">  1       -5 0.46445626E-02 0.13038056E+03</pdfrwt>
<totfact> 0.12145885E+02</totfact>
</mgrwt>
</event>
<event>
 8    1  0.3674342E-007  0.1431106E+03  0.7546771E-02  0.1209204E+00
          5   -1    0    0  501    0  0.00000000000E+00  0.00000000000E+00  0.27968389454E+03  0.27972338277E+03  0.47000000000E+01 0. -1.
         -5   -1    0    0    0  501 -0.00000000000E+00 -0.00000000000E+00 -0.73163876991E+02  0.73314684044E+02  0.47000000000E+01 0. -1.
         25    2    1    2    0    0 -0.69419913105E+02  0.60652659263E+01  0.98356300956E+02  0.17365009327E+03  0.12499792466E+03 0.  0.
         25    2    1    2    0    0  0.69419913105E+02 -0.60652659263E+01  0.10816371660E+03  0.17938797354E+03  0.12499897471E+03 0.  0.
          5    1    4    4  502    0 -0.10662218286E+02  0.29562718704E+02 -0.89676779218E+01  0.33017366389E+02  0.47000000000E+01 0. -1.
         -5    1    4    4    0  502  0.80082131391E+02 -0.35627984630E+02  0.11713139452E+03  0.14637060715E+03  0.47000000000E+01 0. -1.
          5    1    3    3  503    0 -0.93618901196E+02  0.14995486030E+02  0.28622008848E+02  0.99149748628E+02  0.47000000000E+01 0.  1.
         -5    1    3    3    0  503  0.24198988091E+02 -0.89302201036E+01  0.69734292108E+02  0.74500344640E+02  0.47000000000E+01 0.  1.
<mgrwt>
<rscale>  0 0.14311041E+03</rscale>
<asrwt>0</asrwt>
<pdfrwt beam="1">  1        5 0.43042929E-01 0.14311064E+03</pdfrwt>
<pdfrwt beam="2">  1       -5 0.11270619E-01 0.14311064E+03</pdfrwt>
<totfact> 0.24891293E+02</totfact>
</mgrwt>
</event>
<event>
 8    1  0.3674342E-007  0.1508925E+03  0.7546771E-02  0.1199393E+00
         -5   -1    0    0    0  501 -0.00000000000E+00  0.00000000000E+00  0.17099648261E+04  0.17099712853E+04  0.47000000000E+01 0.  1.
          5   -1    0    0  501    0  0.00000000000E+00 -0.00000000000E+00 -0.16286489783E+02  0.16951098768E+02  0.47000000000E+01 0.  1.
         25    2    1    2    0    0  0.69234669685E+02  0.48470574392E+02  0.12322406338E+04  0.12414398515E+04  0.12495234793E+03 0.  0.
         25    2    1    2    0    0 -0.69234669685E+02 -0.48470574392E+02  0.46143770245E+03  0.48548253248E+03  0.12500280009E+03 0.  0.
          5    1    3    3  502    0  0.16377957847E+02  0.55594871500E+02  0.21301125203E+03  0.22080514200E+03  0.47000000000E+01 0. -1.
         -5    1    3    3    0  502  0.52856711839E+02 -0.71242971083E+01  0.10192293818E+04  0.10206347095E+04  0.47000000000E+01 0. -1.
          5    1    4    4  503    0 -0.56216375292E+01  0.44973072636E+01 -0.61692310201E+01  0.10581965437E+02  0.47000000000E+01 0.  1.
         -5    1    4    4    0  503 -0.63613032156E+02 -0.52967881656E+02  0.46760693347E+03  0.47490056705E+03  0.47000000000E+01 0.  1.
<mgrwt>
<rscale>  0 0.15088202E+03</rscale>
<asrwt>0</asrwt>
<pdfrwt beam="2">  1        5 0.25572326E-02 0.15089247E+03</pdfrwt>
<pdfrwt beam="1">  1       -5 0.26312332E+00 0.15089247E+03</pdfrwt>
<totfact> 0.27446784E+01</totfact>
</mgrwt>
</event>
<event>
 8    1  0.3674342E-007  0.1312745E+03  0.7546771E-02  0.1225578E+00
          5   -1    0    0  501    0  0.00000000000E+00  0.00000000000E+00  0.49735192848E+03  0.49737413560E+03  0.47000000000E+01 0.  1.
         -5   -1    0    0    0  501 -0.00000000000E+00 -0.00000000000E+00 -0.36415007000E+02  0.36717063265E+02  0.47000000000E+01 0.  1.
         25    2    1    2    0    0 -0.24155130286E+02 -0.31969370803E+02  0.16896710839E+03  0.21396719300E+03  0.12500625973E+03 0.  0.
         25    2    1    2    0    0  0.24155130286E+02  0.31969370803E+02  0.29196981308E+03  0.32012400586E+03  0.12500998516E+03 0.  0.
          5    1    4    4  502    0  0.33335072733E+02  0.36041330661E+02  0.29598269739E+02  0.57518276761E+02  0.47000000000E+01 0.  1.
         -5    1    4    4    0  502 -0.91799424474E+01 -0.40719598582E+01  0.26237154334E+03  0.26260572910E+03  0.47000000000E+01 0.  1.
          5    1    3    3  503    0 -0.24414186185E+02 -0.74487343913E+02  0.66400760659E+02  0.10283758022E+03  0.47000000000E+01 0. -1.
         -5    1    3    3    0  503  0.25905589943E+00  0.42517973110E+02  0.10256634774E+03  0.11112961277E+03  0.47000000000E+01 0. -1.
<mgrwt>
<rscale>  0 0.13127366E+03</rscale>
<asrwt>0</asrwt>
<pdfrwt beam="1">  1        5 0.76540624E-01 0.13127455E+03</pdfrwt>
<pdfrwt beam="2">  1       -5 0.56272521E-02 0.13127455E+03</pdfrwt>
<totfact> 0.22767663E+02</totfact>
</mgrwt>
</event>
<event>
 8    1  0.3674342E-007  0.1676831E+03  0.7546771E-02  0.1180287E+00
         -5   -1    0    0    0  501 -0.00000000000E+00  0.00000000000E+00  0.48773394610E+02  0.48999326748E+02  0.47000000000E+01 0.  1.
          5   -1    0    0  501    0  0.00000000000E+00 -0.00000000000E+00 -0.58770603271E+03  0.58772482582E+03  0.47000000000E+01 0.  1.
         25    2    1    2    0    0  0.10141320523E+03  0.46972502683E+02 -0.22250828872E+03  0.27861526507E+03  0.12500189270E+03 0.  0.
         25    2    1    2    0    0 -0.10141320523E+03 -0.46972502683E+02 -0.31642434938E+03  0.35810888750E+03  0.12500620873E+03 0.  0.
          5    1    3    3  502    0  0.10778752509E+03  0.32841663523E+02 -0.23331519089E+03  0.25914241978E+03  0.47000000000E+01 0. -1.
         -5    1    3    3    0  502 -0.63743198571E+01  0.14130839161E+02  0.10806902175E+02  0.19472845289E+02  0.47000000000E+01 0. -1.
          5    1    4    4  503    0 -0.93048122127E+02  0.23238226889E+02 -0.19909265184E+03  0.22103832753E+03  0.47000000000E+01 0.  1.
         -5    1    4    4    0  503 -0.83650831017E+01 -0.70210729572E+02 -0.11733169754E+03  0.13707055997E+03  0.47000000000E+01 0.  1.
<mgrwt>
<rscale>  0 0.16768225E+03</rscale>
<asrwt>0</asrwt>
<pdfrwt beam="2">  1        5 0.90435133E-01 0.16768305E+03</pdfrwt>
<pdfrwt beam="1">  1       -5 0.75224246E-02 0.16768305E+03</pdfrwt>
<totfact> 0.10202677E+02</totfact>
</mgrwt>
</event>
<event>
 8    1  0.3674342E-007  0.1358064E+03  0.7546771E-02  0.1219088E+00
         -5   -1    0    0    0  501 -0.00000000000E+00  0.00000000000E+00  0.21231609204E+04  0.21231661226E+04  0.47000000000E+01 0.  1.
          5   -1    0    0  501    0  0.00000000000E+00 -0.00000000000E+00 -0.84005644968E+01  0.96259796315E+01  0.47000000000E+01 0.  1.
         25    2    1    2    0    0 -0.81376701062E+01 -0.52442064109E+02  0.12620547186E+04  0.12693405770E+04  0.12500798340E+03 0.  0.
         25    2    1    2    0    0  0.81376701062E+01  0.52442064109E+02  0.85270563730E+03  0.86345152517E+03  0.12500096270E+03 0.  0.
          5    1    4    4  502    0  0.35433517968E+02 -0.30573558588E+02  0.35622114919E+03  0.35931305822E+03  0.47000000000E+01 0.  1.
         -5    1    4    4    0  502 -0.27295847862E+02  0.83015622696E+02  0.49648448811E+03  0.50413846695E+03  0.47000000000E+01 0.  1.
          5    1    3    3  503    0  0.23560825631E+02  0.34746692490E+02  0.33836706808E+03  0.34099385318E+03  0.47000000000E+01 0. -1.
         -5    1    3    3    0  503 -0.31698495737E+02 -0.87188756599E+02  0.92368765056E+03  0.92834672386E+03  0.47000000000E+01 0. -1.
<mgrwt>
<rscale>  0 0.13580482E+03</rscale>
<asrwt>0</asrwt>
<pdfrwt beam="2">  1        5 0.13870582E-02 0.13580643E+03</pdfrwt>
<pdfrwt beam="1">  1       -5 0.32673461E+00 0.13580643E+03</pdfrwt>
<totfact> 0.27848255E+01</totfact>
</mgrwt>
</event>
<event>
 8    1  0.3674342E-007  0.1434153E+03  0.7546771E-02  0.1208818E+00
         -5   -1    0    0    0  501 -0.00000000000E+00  0.00000000000E+00  0.51307765782E+02  0.51522585626E+02  0.47000000000E+01 0.  1.
          5   -1    0    0  501    0  0.00000000000E+00 -0.00000000000E+00 -0.68551513484E+03  0.68553124662E+03  0.47000000000E+01 0.  1.
         25    2    1    2    0    0 -0.70107853961E+02  0.52708793305E+01 -0.79160587809E+02  0.16377825181E+03  0.12495608727E+03 0.  0.
         25    2    1    2    0    0  0.70107853961E+02 -0.52708793305E+01 -0.55504678125E+03  0.57327558044E+03  0.12500027359E+03 0.  0.
          5    1    3    3  502    0  0.17122573192E+02  0.43192216960E+02 -0.37228322213E+02  0.59722592822E+02  0.47000000000E+01 0.  1.
         -5    1    3    3    0  502 -0.87230427152E+02 -0.37921337629E+02 -0.41932265595E+02  0.10405565898E+03  0.47000000000E+01 0.  1.
          5    1    4    4  503    0  0.10650263617E+03 -0.31780707103E+01 -0.41487939430E+03  0.42836889880E+03  0.47000000000E+01 0. -1.
         -5    1    4    4    0  503 -0.36394782208E+02 -0.20928086203E+01 -0.14016738694E+03  0.14490668164E+03  0.47000000000E+01 0. -1.
<mgrwt>
<rscale>  0 0.14340572E+03</rscale>
<asrwt>0</asrwt>
<pdfrwt beam="2">  1        5 0.10548162E+00 0.14341535E+03</pdfrwt>
<pdfrwt beam="1">  1       -5 0.79112669E-02 0.14341535E+03</pdfrwt>
<totfact> 0.61454653E+01</totfact>
</mgrwt>
</event>
<event>
 8    1  0.3674342E-007  0.1482020E+03  0.7546771E-02  0.1202701E+00
         -5   -1    0    0    0  501 -0.00000000000E+00  0.00000000000E+00  0.31149321692E+03  0.31152867314E+03  0.47000000000E+01 0.  1.
          5   -1    0    0  501    0  0.00000000000E+00 -0.00000000000E+00 -0.11418134930E+03  0.11427804044E+03  0.47000000000E+01 0.  1.
         25    2    1    2    0    0  0.15888351288E+02 -0.78007106372E+02  0.23040935823E+03  0.27395673824E+03  0.12500509478E+03 0.  0.
         25    2    1    2    0    0 -0.15888351288E+02  0.78007106372E+02 -0.33097490597E+02  0.15184997534E+03  0.12500169109E+03 0.  0.
          5    1    3    3  502    0 -0.45681933972E+01 -0.47218458867E+02  0.78665600619E+01  0.48315877472E+02  0.47000000000E+01 0.  1.
         -5    1    3    3    0  502  0.20456544685E+02 -0.30788647505E+02  0.22254279816E+03  0.22564086077E+03  0.47000000000E+01 0.  1.
          5    1    4    4  503    0  0.48449039675E+02  0.83355895441E+01  0.47968312836E+01  0.49617447423E+02  0.47000000000E+01 0. -1.
         -5    1    4    4    0  503 -0.64337390963E+02  0.69671516828E+02 -0.37894321881E+02  0.10223252791E+03  0.47000000000E+01 0. -1.
<mgrwt>
<rscale>  0 0.14820125E+03</rscale>
<asrwt>0</asrwt>
<pdfrwt beam="2">  1        5 0.17576527E-01 0.14820196E+03</pdfrwt>
<pdfrwt beam="1">  1       -5 0.47932197E-01 0.14820196E+03</pdfrwt>
<totfact> 0.90305021E+01</totfact>
</mgrwt>
</event>
<event>
 8    1  0.3674342E-007  0.1336198E+03  0.7546771E-02  0.1222207E+00
          5   -1    0    0  501    0  0.00000000000E+00  0.00000000000E+00  0.52311795147E+03  0.52313906483E+03  0.47000000000E+01 0. -1.
         -5   -1    0    0    0  501 -0.00000000000E+00 -0.00000000000E+00 -0.58028090164E+02  0.58218117868E+02  0.47000000000E+01 0. -1.
         25    2    1    2    0    0 -0.30216208125E+02  0.36267443194E+02  0.45701489786E+02  0.14121923890E+03  0.12500360234E+03 0.  0.
         25    2    1    2    0    0  0.30216208125E+02 -0.36267443194E+02  0.41938837152E+03  0.44013794379E+03  0.12492580491E+03 0.  0.
          5    1    4    4  502    0 -0.35284515864E+02 -0.52306653438E+02  0.15920738785E+03  0.17131860786E+03  0.47000000000E+01 0.  1.
         -5    1    4    4    0  502  0.65500723989E+02  0.16039210244E+02  0.26018098366E+03  0.26881933593E+03  0.47000000000E+01 0.  1.
          5    1    3    3  503    0 -0.16203743559E+02  0.12355199962E+02 -0.43191337496E+02  0.47987434878E+02  0.47000000000E+01 0. -1.
         -5    1    3    3    0  503 -0.14012464566E+02  0.23912243232E+02  0.88892827282E+02  0.93231804025E+02  0.47000000000E+01 0. -1.
<mgrwt>
<rscale>  0 0.13360159E+03</rscale>
<asrwt>0</asrwt>
<pdfrwt beam="1">  1        5 0.80495930E-01 0.13361979E+03</pdfrwt>
<pdfrwt beam="2">  1       -5 0.89436397E-02 0.13361979E+03</pdfrwt>
<totfact> 0.92820614E+01</totfact>
</mgrwt>
</event>
<event>
 8    1  0.3674342E-007  0.1427679E+03  0.7546771E-02  0.1209653E+00
         -5   -1    0    0    0  501 -0.00000000000E+00  0.00000000000E+00  0.50331091020E+03  0.50333285440E+03  0.47000000000E+01 0. -1.
          5   -1    0    0  501    0  0.00000000000E+00 -0.00000000000E+00 -0.46925353090E+02  0.47160139552E+02  0.47000000000E+01 0. -1.
         25    2    1    2    0    0 -0.61668970491E+02 -0.30875149172E+02  0.33102483188E+03  0.36049980458E+03  0.12500533197E+03 0.  0.
         25    2    1    2    0    0  0.61668970491E+02  0.30875149172E+02  0.12536072523E+03  0.18999318938E+03  0.12500305526E+03 0.  0.
          5    1    3    3  502    0 -0.46512384242E+02 -0.71434146773E+02  0.28332562590E+03  0.29590832957E+03  0.47000000000E+01 0.  1.
         -5    1    3    3    0  502 -0.15156586249E+02  0.40558997602E+02  0.47699205977E+02  0.64591475010E+02  0.47000000000E+01 0.  1.
          5    1    4    4  503    0  0.50662215628E+02  0.65436296212E+02  0.30494907560E+02  0.88320996039E+02  0.47000000000E+01 0.  1.
         -5    1    4    4    0  503  0.11006754863E+02 -0.34561147040E+02  0.94865817667E+02  0.10167219334E+03  0.47000000000E+01 0.  1.
<mgrwt>
<rscale>  0 0.14276739E+03</rscale>
<asrwt>0</asrwt>
<pdfrwt beam="2">  1        5 0.72390333E-02 0.14276789E+03</pdfrwt>
<pdfrwt beam="1">  1       -5 0.77452199E-01 0.14276789E+03</pdfrwt>
<totfact> 0.14896297E+02</totfact>
</mgrwt>
</event>
<event>
 8    1  0.3674342E-007  0.2021166E+03  0.7546771E-02  0.1147966E+00
          5   -1    0    0  501    0  0.00000000000E+00  0.00000000000E+00  0.87350273121E+02  0.87476626674E+02  0.47000000000E+01 0. -1.
         -5   -1    0    0    0  501 -0.00000000000E+00 -0.00000000000E+00 -0.67159225983E+03  0.67160870562E+03  0.47000000000E+01 0. -1.
         25    2    1    2    0    0  0.59925424079E+02  0.14709113723E+03 -0.50148520865E+03  0.54068249284E+03  0.12499313764E+03 0.  0.
         25    2    1    2    0    0 -0.59925424079E+02 -0.14709113723E+03 -0.82756778058E+02  0.21840283946E+03  0.12499702743E+03 0.  0.
          5    1    4    4  502    0 -0.57273827092E+02 -0.87848956194E+02 -0.11080430756E+03  0.15263490737E+03  0.47000000000E+01 0. -1.
         -5    1    4    4    0  502 -0.26515969870E+01 -0.59242181038E+02  0.28047529499E+02  0.65767932092E+02  0.47000000000E+01 0. -1.
          5    1    3    3  503    0 -0.14384055451E+02 -0.10399314412E+02 -0.14252677946E+02  0.23243829721E+02  0.47000000000E+01 0.  1.
         -5    1    3    3    0  503  0.74309479530E+02  0.15749045164E+03 -0.48723253071E+03  0.51743866311E+03  0.47000000000E+01 0.  1.
<mgrwt>
<rscale>  0 0.20211599E+03</rscale>
<asrwt>0</asrwt>
<pdfrwt beam="1">  1        5 0.13449489E-01 0.20211659E+03</pdfrwt>
<pdfrwt beam="2">  1       -5 0.10333287E+00 0.20211659E+03</pdfrwt>
<totfact> 0.27984235E+01</totfact>
</mgrwt>
</event>
<event>
 8    1  0.3674342E-007  0.1977230E+03  0.7546771E-02  0.1151675E+00
         -5   -1    0    0    0  501 -0.00000000000E+00  0.00000000000E+00  0.99545875037E+02  0.99656767140E+02  0.47000000000E+01 0. -1.
          5   -1    0    0  501    0  0.00000000000E+00 -0.00000000000E+00 -0.40962091868E+03  0.40964788175E+03  0.47000000000E+01 0. -1.
         25    2    1    2    0    0 -0.31025181505E+02 -0.15002381371E+03 -0.10279511816E+03  0.22284800580E+03  0.12499876322E+03 0.  0.
         25    2    1    2    0    0  0.31025181505E+02  0.15002381371E+03 -0.20727992548E+03  0.28645664309E+03  0.12499093684E+03 0.  0.
          5    1    4    4  502    0  0.78896992647E+02  0.10303964559E+03 -0.12564715061E+03  0.18069643181E+03  0.47000000000E+01 0. -1.
         -5    1    4    4    0  502 -0.47871811141E+02  0.46984168116E+02 -0.81632774877E+02  0.10576021128E+03  0.47000000000E+01 0. -1.
          5    1    3    3  503    0 -0.47152398118E+02 -0.12524798321E+03 -0.12684419539E+03  0.18445038859E+03  0.47000000000E+01 0.  1.
         -5    1    3    3    0  503  0.16127216613E+02 -0.24775830499E+02  0.24049077226E+02  0.38397617218E+02  0.47000000000E+01 0.  1.
<mgrwt>
<rscale>  0 0.19772180E+03</rscale>
<asrwt>0</asrwt>
<pdfrwt beam="2">  1        5 0.63029206E-01 0.19772303E+03</pdfrwt>
<pdfrwt beam="1">  1       -5 0.15325355E-01 0.19772303E+03</pdfrwt>
<totfact> 0.69832508E+01</totfact>
</mgrwt>
</event>
<event>
 8    1  0.3674342E-007  0.1327638E+03  0.7546771E-02  0.1223412E+00
         -5   -1    0    0    0  501 -0.00000000000E+00  0.00000000000E+00  0.48655859689E+02  0.48882335072E+02  0.47000000000E+01 0. -1.
          5   -1    0    0  501    0  0.00000000000E+00 -0.00000000000E+00 -0.37737220851E+03  0.37740147556E+03  0.47000000000E+01 0. -1.
         25    2    1    2    0    0 -0.16249311372E+02  0.41687960849E+02 -0.12021966941E+03  0.17910554929E+03  0.12499641064E+03 0.  0.
         25    2    1    2    0    0  0.16249311372E+02 -0.41687960849E+02 -0.20849667941E+03  0.24717826134E+03  0.12499720539E+03 0.  0.
          5    1    3    3  502    0 -0.19916540268E+02  0.54954881857E+02 -0.64018596553E+00  0.58644756408E+02  0.47000000000E+01 0. -1.
         -5    1    3    3    0  502  0.36672288952E+01 -0.13266921008E+02 -0.11957948344E+03  0.12046079288E+03  0.47000000000E+01 0. -1.
          5    1    4    4  503    0  0.25535267335E+02 -0.12471931409E+02  0.68516827188E+01  0.29608014236E+02  0.47000000000E+01 0.  1.
         -5    1    4    4    0  503 -0.92859559623E+01 -0.29216029440E+02 -0.21534836213E+03  0.21757024710E+03  0.47000000000E+01 0.  1.
<mgrwt>
<rscale>  0 0.13276362E+03</rscale>
<asrwt>0</asrwt>
<pdfrwt beam="2">  1        5 0.58076933E-01 0.13276380E+03</pdfrwt>
<pdfrwt beam="1">  1       -5 0.75051896E-02 0.13276380E+03</pdfrwt>
<totfact> 0.26020609E+02</totfact>
</mgrwt>
</event>
<event>
 8    1  0.3674342E-007  0.1406654E+03  0.7546771E-02  0.1212448E+00
         -5   -1    0    0    0  501 -0.00000000000E+00  0.00000000000E+00  0.23292936056E+03  0.23297677355E+03  0.47000000000E+01 0.  1.
          5   -1    0    0  501    0  0.00000000000E+00 -0.00000000000E+00 -0.90433672668E+02  0.90555724017E+02  0.47000000000E+01 0.  1.
         25    2    1    2    0    0  0.62720332792E+02  0.14996500696E+02  0.11155484191E+03  0.17950443408E+03  0.12497449309E+03 0.  0.
         25    2    1    2    0    0 -0.62720332792E+02 -0.14996500696E+02  0.30940845988E+02  0.14402806348E+03  0.12501204719E+03 0.  0.
          5    1    4    4  502    0 -0.51545757017E+02 -0.50681620590E+02 -0.24950377003E+02  0.76617250307E+02  0.47000000000E+01 0. -1.
         -5    1    4    4    0  502 -0.11174575775E+02  0.35685119894E+02  0.55891222991E+02  0.67410813176E+02  0.47000000000E+01 0. -1.
          5    1    3    3  503    0 -0.10042651473E+02  0.27424628483E+02 -0.14811504630E+02  0.33082257562E+02  0.47000000000E+01 0. -1.
         -5    1    3    3    0  503  0.72762984264E+02 -0.12428127786E+02  0.12636634654E+03  0.14642217652E+03  0.47000000000E+01 0. -1.
<mgrwt>
<rscale>  0 0.14065703E+03</rscale>
<asrwt>0</asrwt>
<pdfrwt beam="2">  1        5 0.13925909E-01 0.14066537E+03</pdfrwt>
<pdfrwt beam="1">  1       -5 0.35848321E-01 0.14066537E+03</pdfrwt>
<totfact> 0.24662771E+02</totfact>
</mgrwt>
</event>
<event>
 8    1  0.3674342E-007  0.1971418E+03  0.7546771E-02  0.1152174E+00
         -5   -1    0    0    0  501 -0.00000000000E+00  0.00000000000E+00  0.16209671389E+03  0.16216483791E+03  0.47000000000E+01 0. -1.
          5   -1    0    0  501    0  0.00000000000E+00 -0.00000000000E+00 -0.23987175541E+03  0.23991779643E+03  0.47000000000E+01 0. -1.
         25    2    1    2    0    0 -0.14782982719E+03  0.37226175084E+02 -0.45432961830E+02  0.20230548810E+03  0.12499564224E+03 0.  0.
         25    2    1    2    0    0  0.14782982719E+03 -0.37226175084E+02 -0.32342079692E+02  0.19977714623E+03  0.12500180847E+03 0.  0.
          5    1    4    4  502    0  0.16018406168E+03 -0.36432598962E+01 -0.19529393333E+02  0.16147970201E+03  0.47000000000E+01 0.  1.
         -5    1    4    4    0  502 -0.12354234488E+02 -0.33582915188E+02 -0.12812686359E+02  0.38297444223E+02  0.47000000000E+01 0.  1.
          5    1    3    3  503    0 -0.15992033444E+03  0.59970972996E+02 -0.41502211092E+02  0.17582819596E+03  0.47000000000E+01 0. -1.
         -5    1    3    3    0  503  0.12090507254E+02 -0.22744797912E+02 -0.39307507382E+01  0.26477292140E+02  0.47000000000E+01 0. -1.
<mgrwt>
<rscale>  0 0.19714084E+03</rscale>
<asrwt>0</asrwt>
<pdfrwt beam="2">  1        5 0.36912129E-01 0.19714182E+03</pdfrwt>
<pdfrwt beam="1">  1       -5 0.24946738E-01 0.19714182E+03</pdfrwt>
<totfact> 0.87209831E+01</totfact>
</mgrwt>
</event>
<event>
 8    1  0.3674342E-007  0.1323900E+03  0.7546771E-02  0.1223961E+00
         -5   -1    0    0    0  501 -0.00000000000E+00  0.00000000000E+00  0.25408325431E+03  0.25412672059E+03  0.47000000000E+01 0.  1.
          5   -1    0    0  501    0  0.00000000000E+00 -0.00000000000E+00 -0.75878348809E+02  0.76023771401E+02  0.47000000000E+01 0.  1.
         25    2    1    2    0    0 -0.28944172103E+02 -0.32582660876E+02  0.13932185156E+03  0.19219182644E+03  0.12501089929E+03 0.  0.
         25    2    1    2    0    0  0.28944172103E+02  0.32582660876E+02  0.38883053933E+02  0.13795866555E+03  0.12498522564E+03 0.  0.
          5    1    3    3  502    0 -0.54287279567E+02 -0.29100166581E+02  0.15139797399E+03  0.16351564129E+03  0.47000000000E+01 0. -1.
         -5    1    3    3    0  502  0.25343107464E+02 -0.34824942944E+01 -0.12076122423E+02  0.28676185158E+02  0.47000000000E+01 0. -1.
          5    1    4    4  503    0 -0.14629111354E+02 -0.42598507060E+02  0.11373256506E+02  0.46691376787E+02  0.47000000000E+01 0.  1.
         -5    1    4    4    0  503  0.43573283457E+02  0.75181167935E+02  0.27509797426E+02  0.91267288761E+02  0.47000000000E+01 0.  1.
<mgrwt>
<rscale>  0 0.13238397E+03</rscale>
<asrwt>0</asrwt>
<pdfrwt beam="2">  1        5 0.11688122E-01 0.13239003E+03</pdfrwt>
<pdfrwt beam="1">  1       -5 0.39104261E-01 0.13239003E+03</pdfrwt>
<totfact> 0.27684732E+02</totfact>
</mgrwt>
</event>
<event>
 8    1  0.3674342E-007  0.1323236E+03  0.7546771E-02  0.1224057E+00
         -5   -1    0    0    0  501 -0.00000000000E+00  0.00000000000E+00  0.29635539988E+02  0.30005919922E+02  0.47000000000E+01 0. -1.
          5   -1    0    0  501    0  0.00000000000E+00 -0.00000000000E+00 -0.58735165327E+03  0.58737045772E+03  0.47000000000E+01 0. -1.
         25    2    1    2    0    0 -0.26938385198E+01 -0.43331862304E+02 -0.28939268814E+03  0.31821008850E+03  0.12499850167E+03 0.  0.
         25    2    1    2    0    0  0.26938385198E+01  0.43331862304E+02 -0.26832342515E+03  0.29916628914E+03  0.12497240102E+03 0.  0.
          5    1    4    4  502    0 -0.30828637255E+01  0.63729265263E+02 -0.26991520887E+03  0.27739364319E+03  0.47000000000E+01 0. -1.
         -5    1    4    4    0  502  0.57767022452E+01 -0.20397402959E+02  0.15917837257E+01  0.21772645951E+02  0.47000000000E+01 0. -1.
          5    1    3    3  503    0  0.52398721232E+02  0.24915813937E+01 -0.17839606099E+03  0.18600827546E+03  0.47000000000E+01 0. -1.
         -5    1    3    3    0  503 -0.55092559752E+02 -0.45823443698E+02 -0.11099662715E+03  0.13220181304E+03  0.47000000000E+01 0. -1.
<mgrwt>
<rscale>  0 0.13231743E+03</rscale>
<asrwt>0</asrwt>
<pdfrwt beam="2">  1        5 0.90391722E-01 0.13232359E+03</pdfrwt>
<pdfrwt beam="1">  1       -5 0.45892515E-02 0.13232359E+03</pdfrwt>
<totfact> 0.21744206E+02</totfact>
</mgrwt>
</event>
<event>
 8    1  0.3674342E-007  0.1494768E+03  0.7546771E-02  0.1201118E+00
          5   -1    0    0  501    0  0.00000000000E+00  0.00000000000E+00  0.41345127296E+03  0.41347798625E+03  0.47000000000E+01 0. -1.
         -5   -1    0    0    0  501 -0.00000000000E+00 -0.00000000000E+00 -0.57990261088E+02  0.58180412348E+02  0.47000000000E+01 0. -1.
         25    2    1    2    0    0  0.81941969287E+02 -0.13920234320E+01  0.11529572020E+03  0.18877608242E+03  0.12500752832E+03 0.  0.
         25    2    1    2    0    0 -0.81941969287E+02  0.13920234320E+01  0.24016529167E+03  0.28288231618E+03  0.12500645353E+03 0.  0.
          5    1    3    3  502    0 -0.33107414586E+02 -0.63970640922E+01  0.22511117237E+02  0.40814993922E+02  0.47000000000E+01 0. -1.
         -5    1    3    3    0  502  0.11504938387E+03  0.50050406603E+01  0.92784602966E+02  0.14796108850E+03  0.47000000000E+01 0. -1.
          5    1    4    4  503    0 -0.26871518984E+02 -0.50845731164E+02  0.16956283696E+03  0.17911173213E+03  0.47000000000E+01 0. -1.
         -5    1    4    4    0  503 -0.55070450304E+02  0.52237754596E+02  0.70602454710E+02  0.10377058404E+03  0.47000000000E+01 0. -1.
<mgrwt>
<rscale>  0 0.14947655E+03</rscale>
<asrwt>0</asrwt>
<pdfrwt beam="1">  1        5 0.63624570E-01 0.14947677E+03</pdfrwt>
<pdfrwt beam="2">  1       -5 0.89382605E-02 0.14947677E+03</pdfrwt>
<totfact> 0.16408664E+02</totfact>
</mgrwt>
</event>
<event>
 8    1  0.3674342E-007  0.1590057E+03  0.7546771E-02  0.1189826E+00
         -5   -1    0    0    0  501 -0.00000000000E+00  0.00000000000E+00  0.20533112660E+03  0.20538491072E+03  0.47000000000E+01 0.  1.
          5   -1    0    0  501    0  0.00000000000E+00 -0.00000000000E+00 -0.12668685562E+03  0.12677400911E+03  0.47000000000E+01 0.  1.
         25    2    1    2    0    0 -0.31820798235E+02  0.92978683566E+02  0.67589415948E+02  0.17276939369E+03  0.12499334163E+03 0.  0.
         25    2    1    2    0    0  0.31820798235E+02 -0.92978683566E+02  0.11054855036E+02  0.15938952613E+03  0.12500084969E+03 0.  0.
          5    1    3    3  502    0 -0.67113279939E+02  0.28441305074E+02  0.41412742866E+00  0.73043560154E+02  0.47000000000E+01 0. -1.
         -5    1    3    3    0  502  0.35292481705E+02  0.64537378492E+02  0.67175288520E+02  0.99725833540E+02  0.47000000000E+01 0. -1.
          5    1    4    4  503    0 -0.36019248404E+02 -0.62925198054E+00 -0.18765706791E+02  0.40890389641E+02  0.47000000000E+01 0.  1.
         -5    1    4    4    0  503  0.67840046638E+02 -0.92349431586E+02  0.29820561827E+02  0.11849913649E+03  0.47000000000E+01 0.  1.
<mgrwt>
<rscale>  0 0.15900422E+03</rscale>
<asrwt>0</asrwt>
<pdfrwt beam="2">  1        5 0.19501127E-01 0.15900570E+03</pdfrwt>
<pdfrwt beam="1">  1       -5 0.31600245E-01 0.15900570E+03</pdfrwt>
<totfact> 0.17836259E+02</totfact>
</mgrwt>
</event>
<event>
 8    1  0.3674342E-007  0.2016194E+03  0.7546771E-02  0.1148380E+00
         -5   -1    0    0    0  501 -0.00000000000E+00  0.00000000000E+00  0.37585220303E+03  0.37588158843E+03  0.47000000000E+01 0.  1.
          5   -1    0    0  501    0  0.00000000000E+00 -0.00000000000E+00 -0.11771284259E+03  0.11780663526E+03  0.47000000000E+01 0.  1.
         25    2    1    2    0    0 -0.26360789124E+02 -0.15598273317E+03  0.19968111677E+03  0.28376501838E+03  0.12499813203E+03 0.  0.
         25    2    1    2    0    0  0.26360789124E+02  0.15598273317E+03  0.58458243668E+02  0.20992320531E+03  0.12499952650E+03 0.  0.
          5    1    4    4  502    0  0.13612473594E+01  0.13184014373E+02 -0.34765221196E+02  0.37501757748E+02  0.47000000000E+01 0.  1.
         -5    1    4    4    0  502  0.24999541765E+02  0.14279871879E+03  0.93223464864E+02  0.17242144756E+03  0.47000000000E+01 0.  1.
          5    1    3    3  503    0 -0.75574885552E+02 -0.11309827973E+03  0.13822756092E+03  0.19398900175E+03  0.47000000000E+01 0. -1.
         -5    1    3    3    0  503  0.49214096428E+02 -0.42884453440E+02  0.61453555852E+02  0.89776016624E+02  0.47000000000E+01 0. -1.
<mgrwt>
<rscale>  0 0.20161919E+03</rscale>
<asrwt>0</asrwt>
<pdfrwt beam="2">  1        5 0.18119144E-01 0.20161941E+03</pdfrwt>
<pdfrwt beam="1">  1       -5 0.57832890E-01 0.20161941E+03</pdfrwt>
<totfact> 0.62346424E+01</totfact>
</mgrwt>
</event>
<event>
 8    1  0.3674342E-007  0.1359446E+03  0.7546771E-02  0.1218895E+00
         -5   -1    0    0    0  501 -0.00000000000E+00  0.00000000000E+00  0.69075121957E+02  0.69234835692E+02  0.47000000000E+01 0.  1.
          5   -1    0    0  501    0  0.00000000000E+00 -0.00000000000E+00 -0.26735594343E+03  0.26739725220E+03  0.47000000000E+01 0.  1.
         25    2    1    2    0    0  0.44637641783E+02  0.29344382003E+02 -0.10486343581E+03  0.17168944505E+03  0.12500925387E+03 0.  0.
         25    2    1    2    0    0 -0.44637641783E+02 -0.29344382003E+02 -0.93417385661E+02  0.16494264284E+03  0.12500262263E+03 0.  0.
          5    1    4    4  502    0  0.24700028146E+02  0.25969242876E+02 -0.14938896380E+00  0.36146995491E+02  0.47000000000E+01 0.  1.
         -5    1    4    4    0  502 -0.69337669930E+02 -0.55313624878E+02 -0.93267996697E+02  0.12879564735E+03  0.47000000000E+01 0.  1.
          5    1    3    3  503    0 -0.28752922785E+02  0.45503296541E+02 -0.70762489242E+02  0.89032019232E+02  0.47000000000E+01 0.  1.
         -5    1    3    3    0  503  0.73390564568E+02 -0.16158914538E+02 -0.34100946566E+02  0.82657425821E+02  0.47000000000E+01 0.  1.
<mgrwt>
<rscale>  0 0.13594304E+03</rscale>
<asrwt>0</asrwt>
<pdfrwt beam="2">  1        5 0.41147146E-01 0.13594457E+03</pdfrwt>
<pdfrwt beam="1">  1       -5 0.10642405E-01 0.13594457E+03</pdfrwt>
<totfact> 0.29690823E+02</totfact>
</mgrwt>
</event>
<event>
 8    1  0.3674342E-007  0.1276935E+03  0.7546771E-02  0.1230927E+00
          5   -1    0    0  501    0  0.00000000000E+00  0.00000000000E+00  0.87306002879E+02  0.87432420409E+02  0.47000000000E+01 0.  1.
         -5   -1    0    0    0  501 -0.00000000000E+00 -0.00000000000E+00 -0.19728614606E+03  0.19734212279E+03  0.47000000000E+01 0.  1.
         25    2    1    2    0    0  0.23368867558E+02  0.11645915879E+02 -0.88358924732E+02  0.15528337593E+03  0.12499558366E+03 0.  0.
         25    2    1    2    0    0 -0.23368867558E+02 -0.11645915879E+02 -0.21621218451E+02  0.12949116727E+03  0.12497501344E+03 0.  0.
          5    1    4    4  502    0 -0.39538284101E+02  0.23780108063E+02 -0.59178153493E+02  0.75185858378E+02  0.47000000000E+01 0. -1.
         -5    1    4    4    0  502  0.16169416544E+02 -0.35426023942E+02  0.37556935042E+02  0.54305308888E+02  0.47000000000E+01 0. -1.
          5    1    3    3  503    0  0.39092871606E+02 -0.33902190172E+02  0.28336483536E+01  0.52035859480E+02  0.47000000000E+01 0.  1.
         -5    1    3    3    0  503 -0.15724004049E+02  0.45548106050E+02 -0.91192573085E+02  0.10324751645E+03  0.47000000000E+01 0.  1.
<mgrwt>
<rscale>  0 0.12768846E+03</rscale>
<asrwt>0</asrwt>
<pdfrwt beam="1">  1        5 0.13445723E-01 0.12769349E+03</pdfrwt>
<pdfrwt beam="2">  1       -5 0.30365745E-01 0.12769349E+03</pdfrwt>
<totfact> 0.35309059E+02</totfact>
</mgrwt>
</event>
<event>
 8    1  0.3674342E-007  0.1533965E+03  0.7546771E-02  0.1196366E+00
         -5   -1    0    0    0  501 -0.00000000000E+00  0.00000000000E+00  0.14237977788E+03  0.14245733098E+03  0.47000000000E+01 0. -1.
          5   -1    0    0  501    0  0.00000000000E+00 -0.00000000000E+00 -0.17189247240E+03  0.17195671568E+03  0.47000000000E+01 0. -1.
         25    2    1    2    0    0  0.85470251142E+02  0.24371412153E+02  0.16508396270E+02  0.15426281218E+03  0.12500143405E+03 0.  0.
         25    2    1    2    0    0 -0.85470251142E+02 -0.24371412153E+02 -0.46021090783E+02  0.16015123448E+03  0.12502538761E+03 0.  0.
          5    1    4    4  502    0 -0.88806063058E+01  0.47306063841E+02 -0.16028044544E+02  0.50948180109E+02  0.47000000000E+01 0. -1.
         -5    1    4    4    0  502 -0.76589644836E+02 -0.71677475994E+02 -0.29993046239E+02  0.10920305437E+03  0.47000000000E+01 0. -1.
          5    1    3    3  503    0  0.67132581590E+02 -0.43346002776E+02  0.23955081497E+02  0.83555941722E+02  0.47000000000E+01 0. -1.
         -5    1    3    3    0  503  0.18337669551E+02  0.67717414929E+02 -0.74466852266E+01  0.70706870459E+02  0.47000000000E+01 0. -1.
<mgrwt>
<rscale>  0 0.15339159E+03</rscale>
<asrwt>0</asrwt>
<pdfrwt beam="2">  1        5 0.26455903E-01 0.15339647E+03</pdfrwt>
<pdfrwt beam="1">  1       -5 0.21915489E-01 0.15339647E+03</pdfrwt>
<totfact> 0.20048056E+02</totfact>
</mgrwt>
</event>
<event>
 8    1  0.3674342E-007  0.1253961E+03  0.7546771E-02  0.1234468E+00
          5   -1    0    0  501    0  0.00000000000E+00  0.00000000000E+00  0.17972718225E+03  0.17978862600E+03  0.47000000000E+01 0. -1.
         -5   -1    0    0    0  501 -0.00000000000E+00 -0.00000000000E+00 -0.87519122457E+02  0.87645232590E+02  0.47000000000E+01 0. -1.
         25    2    1    2    0    0  0.45267701564E+01 -0.87607264056E+01  0.52474459125E+02  0.13589321343E+03  0.12496461347E+03 0.  0.
         25    2    1    2    0    0 -0.45267701564E+01  0.87607264056E+01  0.39733600667E+02  0.13154064516E+03  0.12500776109E+03 0.  0.
          5    1    3    3  502    0 -0.59015036361E+02  0.50255219181E+01  0.32441779481E+02  0.67694825823E+02  0.47000000000E+01 0. -1.
         -5    1    3    3    0  502  0.63541806517E+02 -0.13786248324E+02  0.20032679644E+02  0.68198387606E+02  0.47000000000E+01 0. -1.
          5    1    4    4  503    0  0.32097316038E+02 -0.27475848836E+02  0.62034999094E+02  0.75203663998E+02  0.47000000000E+01 0. -1.
         -5    1    4    4    0  503 -0.36624086194E+02  0.36236575241E+02 -0.22301398428E+02  0.56336981164E+02  0.47000000000E+01 0. -1.
<mgrwt>
<rscale>  0 0.12538535E+03</rscale>
<asrwt>0</asrwt>
<pdfrwt beam="1">  1        5 0.27664763E-01 0.12539610E+03</pdfrwt>
<pdfrwt beam="2">  1       -5 0.13478908E-01 0.12539610E+03</pdfrwt>
<totfact> 0.41874724E+02</totfact>
</mgrwt>
</event>
<event>
 8    1  0.3674342E-007  0.1292685E+03  0.7546771E-02  0.1228545E+00
         -5   -1    0    0    0  501 -0.00000000000E+00  0.00000000000E+00  0.43709254150E+03  0.43711781002E+03  0.47000000000E+01 0.  1.
          5   -1    0    0  501    0  0.00000000000E+00 -0.00000000000E+00 -0.85213930832E+02  0.85343447363E+02  0.47000000000E+01 0.  1.
         25    2    1    2    0    0 -0.25987274195E+02  0.20232132540E+02  0.36999762503E+03  0.39192931364E+03  0.12500266698E+03 0.  0.
         25    2    1    2    0    0  0.25987274195E+02 -0.20232132540E+02 -0.18119014361E+02  0.13053194375E+03  0.12500244817E+03 0.  0.
          5    1    3    3  502    0 -0.41742265568E+02  0.43800166598E+02  0.35375028726E+03  0.35891813421E+03  0.47000000000E+01 0.  1.
         -5    1    3    3    0  502  0.15754991373E+02 -0.23568034058E+02  0.16247337770E+02  0.33011179427E+02  0.47000000000E+01 0.  1.
          5    1    4    4  503    0 -0.51905343039E+01 -0.29624022310E+01 -0.68344630994E+02  0.68766242147E+02  0.47000000000E+01 0.  1.
         -5    1    4    4    0  503  0.31177808499E+02 -0.17269730309E+02  0.50225616633E+02  0.61765701598E+02  0.47000000000E+01 0.  1.
<mgrwt>
<rscale>  0 0.12926844E+03</rscale>
<asrwt>0</asrwt>
<pdfrwt beam="2">  1        5 0.13121742E-01 0.12926850E+03</pdfrwt>
<pdfrwt beam="1">  1       -5 0.67256912E-01 0.12926850E+03</pdfrwt>
<totfact> 0.70458706E+01</totfact>
</mgrwt>
</event>
<event>
 8    1  0.3674342E-007  0.1268770E+03  0.7546771E-02  0.1232174E+00
          5   -1    0    0  501    0  0.00000000000E+00  0.00000000000E+00  0.74828640772E+03  0.74830116796E+03  0.47000000000E+01 0. -1.
         -5   -1    0    0    0  501 -0.00000000000E+00 -0.00000000000E+00 -0.24255425561E+02  0.24706591613E+02  0.47000000000E+01 0. -1.
         25    2    1    2    0    0  0.21349543439E+02 -0.40726106160E+01  0.22707622560E+03  0.26011802442E+03  0.12500154093E+03 0.  0.
         25    2    1    2    0    0 -0.21349543439E+02  0.40726106160E+01  0.49695475656E+03  0.51288973515E+03  0.12497784283E+03 0.  0.
          5    1    3    3  502    0  0.67874529990E+02 -0.27122603537E+02  0.11255051238E+03  0.13428438212E+03  0.47000000000E+01 0.  1.
         -5    1    3    3    0  502 -0.46524986551E+02  0.23049992921E+02  0.11452571322E+03  0.12583364231E+03  0.47000000000E+01 0.  1.
          5    1    4    4  503    0 -0.47432430111E+02  0.52121342859E+02  0.24197998763E+03  0.25207711959E+03  0.47000000000E+01 0. -1.
         -5    1    4    4    0  503  0.26082886672E+02 -0.48048732243E+02  0.25497476892E+03  0.26081261556E+03  0.47000000000E+01 0. -1.
<mgrwt>
<rscale>  0 0.12687117E+03</rscale>
<asrwt>0</asrwt>
<pdfrwt beam="1">  1        5 0.11515681E+00 0.12687700E+03</pdfrwt>
<pdfrwt beam="2">  1       -5 0.37674449E-02 0.12687700E+03</pdfrwt>
<totfact> 0.16402832E+02</totfact>
</mgrwt>
</event>
<event>
 8    1  0.3674342E-007  0.1603296E+03  0.7546771E-02  0.1188326E+00
          5   -1    0    0  501    0  0.00000000000E+00  0.00000000000E+00  0.64600188229E+02  0.64770937304E+02  0.47000000000E+01 0.  1.
         -5   -1    0    0    0  501 -0.00000000000E+00 -0.00000000000E+00 -0.39763086268E+03  0.39765863873E+03  0.47000000000E+01 0.  1.
         25    2    1    2    0    0  0.30201091568E+02  0.95751644714E+02 -0.15892655862E+03  0.22574870763E+03  0.12499737822E+03 0.  0.
         25    2    1    2    0    0 -0.30201091568E+02 -0.95751644714E+02 -0.17410411582E+03  0.23668086840E+03  0.12500042769E+03 0.  0.
          5    1    4    4  502    0 -0.54381521754E+01  0.13063053071E+02 -0.10344034955E+03  0.10450939082E+03  0.47000000000E+01 0. -1.
         -5    1    4    4    0  502 -0.24762939392E+02 -0.10881469779E+03 -0.70663766273E+02  0.13217147758E+03  0.47000000000E+01 0. -1.
          5    1    3    3  503    0  0.16473581781E+02  0.12405026998E+03 -0.14332551605E+03  0.19032640891E+03  0.47000000000E+01 0. -1.
         -5    1    3    3    0  503  0.13727509787E+02 -0.28298625266E+02 -0.15601042574E+02  0.35422298715E+02  0.47000000000E+01 0. -1.
<mgrwt>
<rscale>  0 0.16032904E+03</rscale>
<asrwt>0</asrwt>
<pdfrwt beam="1">  1        5 0.99537619E-02 0.16032963E+03</pdfrwt>
<pdfrwt beam="2">  1       -5 0.61189249E-01 0.16032963E+03</pdfrwt>
<totfact> 0.15168997E+02</totfact>
</mgrwt>
</event>
<event>
 8    1  0.3674342E-007  0.1379842E+03  0.7546771E-02  0.1216097E+00
          5   -1    0    0  501    0  0.00000000000E+00  0.00000000000E+00  0.99319797448E+03  0.99320909506E+03  0.47000000000E+01 0. -1.
         -5   -1    0    0    0  501 -0.00000000000E+00 -0.00000000000E+00 -0.22730115968E+02  0.23210949398E+02  0.47000000000E+01 0. -1.
         25    2    1    2    0    0 -0.57457183020E+02  0.10634704523E+02  0.27781433535E+03  0.31015625538E+03  0.12490665717E+03 0.  0.
         25    2    1    2    0    0  0.57457183020E+02 -0.10634704523E+02  0.69265352316E+03  0.70626378907E+03  0.12500084716E+03 0.  0.
          5    1    3    3  502    0 -0.38768774744E+02 -0.46329108580E+02  0.21425228822E+03  0.22265564714E+03  0.47000000000E+01 0.  1.
         -5    1    3    3    0  502 -0.18688408276E+02  0.56963813103E+02  0.63562047131E+02  0.87500608241E+02  0.47000000000E+01 0.  1.
          5    1    4    4  503    0  0.92708206790E+02  0.12204130097E+02  0.41641193700E+03  0.42680761904E+03  0.47000000000E+01 0. -1.
         -5    1    4    4    0  503 -0.35251023769E+02 -0.22838834620E+02  0.27624158616E+03  0.27945617003E+03  0.47000000000E+01 0. -1.
<mgrwt>
<rscale>  0 0.13796285E+03</rscale>
<asrwt>0</asrwt>
<pdfrwt beam="1">  1        5 0.15283753E+00 0.13798419E+03</pdfrwt>
<pdfrwt beam="2">  1       -5 0.35347836E-02 0.13798419E+03</pdfrwt>
<totfact> 0.89053474E+01</totfact>
</mgrwt>
</event>
<event>
 8    1  0.3674342E-007  0.1807995E+03  0.7546771E-02  0.1167032E+00
         -5   -1    0    0    0  501 -0.00000000000E+00  0.00000000000E+00  0.16626011509E+03  0.16632653387E+03  0.47000000000E+01 0. -1.
          5   -1    0    0  501    0  0.00000000000E+00 -0.00000000000E+00 -0.22639615137E+03  0.22644493228E+03  0.47000000000E+01 0. -1.
         25    2    1    2    0    0 -0.12894446809E+03  0.20859633252E+02  0.41308938688E+02  0.18545640400E+03  0.12500339683E+03 0.  0.
         25    2    1    2    0    0  0.12894446809E+03 -0.20859633252E+02 -0.10144497496E+03  0.20731506215E+03  0.12500660743E+03 0.  0.
          5    1    4    4  502    0  0.25120568341E+02 -0.51346681448E+02  0.22095526784E+01  0.57397707032E+02  0.47000000000E+01 0. -1.
         -5    1    4    4    0  502  0.10382389974E+03  0.30487048196E+02 -0.10365452764E+03  0.14991735512E+03  0.47000000000E+01 0. -1.
          5    1    3    3  503    0 -0.11023002961E+03 -0.20651672262E+02  0.69189472316E+02  0.13185759013E+03  0.47000000000E+01 0.  1.
         -5    1    3    3    0  503 -0.18714438476E+02  0.41511305515E+02 -0.27880533628E+02  0.53598813871E+02  0.47000000000E+01 0.  1.
<mgrwt>
<rscale>  0 0.18079893E+03</rscale>
<asrwt>0</asrwt>
<pdfrwt beam="2">  1        5 0.34839039E-01 0.18079948E+03</pdfrwt>
<pdfrwt beam="1">  1       -5 0.25587341E-01 0.18079948E+03</pdfrwt>
<totfact> 0.91092089E+01</totfact>
</mgrwt>
</event>
<event>
 8    1  0.3674342E-007  0.1278980E+03  0.7546771E-02  0.1230609E+00
          5   -1    0    0  501    0  0.00000000000E+00  0.00000000000E+00  0.50875733475E+03  0.50877904405E+03  0.47000000000E+01 0. -1.
         -5   -1    0    0    0  501 -0.00000000000E+00 -0.00000000000E+00 -0.33238928519E+02  0.33569575051E+02  0.47000000000E+01 0. -1.
         25    2    1    2    0    0  0.19642670441E+02 -0.18623139399E+02  0.18481719992E+03  0.22475596677E+03  0.12500076557E+03 0.  0.
         25    2    1    2    0    0 -0.19642670441E+02  0.18623139399E+02  0.29070120632E+03  0.31759265233E+03  0.12500098254E+03 0.  0.
          5    1    4    4  502    0 -0.23644279327E+02 -0.40614605188E+02  0.46670015016E+02  0.66398632524E+02  0.47000000000E+01 0. -1.
         -5    1    4    4    0  502  0.40016088858E+01  0.59237744586E+02  0.24403119130E+03  0.25119401980E+03  0.47000000000E+01 0. -1.
          5    1    3    3  503    0 -0.12196412176E+02 -0.61499935291E+02  0.14478386010E+03  0.15784628807E+03  0.47000000000E+01 0. -1.
         -5    1    3    3    0  503  0.31839082617E+02  0.42876795893E+02  0.40033339816E+02  0.66909678707E+02  0.47000000000E+01 0. -1.
<mgrwt>
<rscale>  0 0.12789796E+03</rscale>
<asrwt>0</asrwt>
<pdfrwt beam="1">  1        5 0.78297453E-01 0.12789801E+03</pdfrwt>
<pdfrwt beam="2">  1       -5 0.51407863E-02 0.12789801E+03</pdfrwt>
<totfact> 0.24894958E+02</totfact>
</mgrwt>
</event>
<event>
 8    1  0.3674342E-007  0.1295336E+03  0.7546771E-02  0.1228154E+00
         -5   -1    0    0    0  501 -0.00000000000E+00  0.00000000000E+00  0.47863440252E+03  0.47865747803E+03  0.47000000000E+01 0. -1.
          5   -1    0    0  501    0  0.00000000000E+00 -0.00000000000E+00 -0.34883984613E+02  0.35199181560E+02  0.47000000000E+01 0. -1.
         25    2    1    2    0    0 -0.31608773913E+02  0.12319412413E+02  0.22686713883E+03  0.26124252811E+03  0.12501230859E+03 0.  0.
         25    2    1    2    0    0  0.31608773913E+02 -0.12319412413E+02  0.21688327907E+03  0.25261413148E+03  0.12499864069E+03 0.  0.
          5    1    3    3  502    0  0.17067890986E+02 -0.79198509097E+00 -0.90888006114E+01  0.19915733470E+02  0.47000000000E+01 0.  1.
         -5    1    3    3    0  502 -0.48676664899E+02  0.13111397504E+02  0.23595593945E+03  0.24132679464E+03  0.47000000000E+01 0.  1.
          5    1    4    4  503    0  0.37657969757E+02 -0.16065439660E+02  0.23179850678E+03  0.23543334255E+03  0.47000000000E+01 0.  1.
         -5    1    4    4    0  503 -0.60491958437E+01  0.37460272469E+01 -0.14915227714E+02  0.17180788930E+02  0.47000000000E+01 0.  1.
<mgrwt>
<rscale>  0 0.12953033E+03</rscale>
<asrwt>0</asrwt>
<pdfrwt beam="2">  1        5 0.53927880E-02 0.12953362E+03</pdfrwt>
<pdfrwt beam="1">  1       -5 0.73662080E-01 0.12953362E+03</pdfrwt>
<totfact> 0.26551238E+02</totfact>
</mgrwt>
</event>
<event>
 8    1  0.3674342E-007  0.2023794E+03  0.7546771E-02  0.1147747E+00
          5   -1    0    0  501    0  0.00000000000E+00  0.00000000000E+00  0.36011050554E+02  0.36316466816E+02  0.47000000000E+01 0.  1.
         -5   -1    0    0    0  501 -0.00000000000E+00 -0.00000000000E+00 -0.13439724372E+04  0.13439806553E+04  0.47000000000E+01 0.  1.
         25    2    1    2    0    0 -0.15535412430E+03 -0.34601803265E+02 -0.92788850741E+03  0.94970233151E+03  0.12500099025E+03 0.  0.
         25    2    1    2    0    0  0.15535412430E+03  0.34601803265E+02 -0.38007287921E+03  0.43059479063E+03  0.12499716589E+03 0.  0.
          5    1    4    4  502    0  0.55977827614E+02  0.24970461313E+02 -0.28869616776E+03  0.29516877952E+03  0.47000000000E+01 0.  1.
         -5    1    4    4    0  502  0.99376296684E+02  0.96313419522E+01 -0.91376711447E+02  0.13542601111E+03  0.47000000000E+01 0.  1.
          5    1    3    3  503    0 -0.57497332301E+02  0.36427766089E+02 -0.18829890422E+03  0.20027853778E+03  0.47000000000E+01 0.  1.
         -5    1    3    3    0  503 -0.97856791996E+02 -0.71029569354E+02 -0.73958960319E+03  0.74942379373E+03  0.47000000000E+01 0.  1.
<mgrwt>
<rscale>  0 0.20237885E+03</rscale>
<asrwt>0</asrwt>
<pdfrwt beam="1">  1        5 0.55642884E-02 0.20237944E+03</pdfrwt>
<pdfrwt beam="2">  1       -5 0.20678908E+00 0.20237944E+03</pdfrwt>
<totfact> 0.19002863E+01</totfact>
</mgrwt>
</event>
<event>
 8    1  0.3674342E-007  0.2126183E+03  0.7546771E-02  0.1139510E+00
         -5   -1    0    0    0  501 -0.00000000000E+00  0.00000000000E+00  0.26533589472E+03  0.26537751793E+03  0.47000000000E+01 0.  1.
          5   -1    0    0  501    0  0.00000000000E+00 -0.00000000000E+00 -0.21548100011E+03  0.21553225143E+03  0.47000000000E+01 0.  1.
         25    2    1    2    0    0 -0.16558914110E+03 -0.46491639019E+02  0.13502914491E+03  0.25187182980E+03  0.12500125008E+03 0.  0.
         25    2    1    2    0    0  0.16558914110E+03  0.46491639019E+02 -0.85174250302E+02  0.22903793957E+03  0.12498995438E+03 0.  0.
          5    1    4    4  502    0  0.66019576282E+01  0.31566485139E+02  0.19562155605E+02  0.38010482244E+02  0.47000000000E+01 0.  1.
         -5    1    4    4    0  502  0.15898718348E+03  0.14925153880E+02 -0.10473640591E+03  0.19102745732E+03  0.47000000000E+01 0.  1.
          5    1    3    3  503    0 -0.46568051686E+02 -0.10991301684E+02  0.11672632586E+03  0.12623991959E+03  0.47000000000E+01 0.  1.
         -5    1    3    3    0  503 -0.11902108942E+03 -0.35500337335E+02  0.18302819052E+02  0.12563191021E+03  0.47000000000E+01 0.  1.
<mgrwt>
<rscale>  0 0.21261666E+03</rscale>
<asrwt>0</asrwt>
<pdfrwt beam="2">  1        5 0.33158067E-01 0.21261832E+03</pdfrwt>
<pdfrwt beam="1">  1       -5 0.40828051E-01 0.21261832E+03</pdfrwt>
<totfact> 0.41346051E+01</totfact>
</mgrwt>
</event>
<event>
 8    1  0.3674342E-007  0.1319216E+03  0.7546771E-02  0.1224634E+00
         -5   -1    0    0    0  501 -0.00000000000E+00  0.00000000000E+00  0.63218845120E+03  0.63220592202E+03  0.47000000000E+01 0.  1.
          5   -1    0    0  501    0  0.00000000000E+00 -0.00000000000E+00 -0.29708079030E+02  0.30077565721E+02  0.47000000000E+01 0.  1.
         25    2    1    2    0    0 -0.37543642205E+02  0.19187625629E+02  0.39472221929E+03  0.41618378765E+03  0.12500249862E+03 0.  0.
         25    2    1    2    0    0  0.37543642205E+02 -0.19187625629E+02  0.20775815289E+03  0.24609970009E+03  0.12499568890E+03 0.  0.
          5    1    4    4  502    0  0.72434473818E+02  0.11364156466E+02  0.73267266012E+02  0.10375971915E+03  0.47000000000E+01 0. -1.
         -5    1    4    4    0  502 -0.34890831613E+02 -0.30551782094E+02  0.13449088688E+03  0.14233998093E+03  0.47000000000E+01 0. -1.
          5    1    3    3  503    0 -0.32526214607E+02  0.51254374929E+02  0.84051414806E+02  0.10378678103E+03  0.47000000000E+01 0.  1.
         -5    1    3    3    0  503 -0.50174275983E+01 -0.32066749300E+02  0.31067080448E+03  0.31239700662E+03  0.47000000000E+01 0.  1.
<mgrwt>
<rscale>  0 0.13192001E+03</rscale>
<asrwt>0</asrwt>
<pdfrwt beam="2">  1        5 0.46002395E-02 0.13192162E+03</pdfrwt>
<pdfrwt beam="1">  1       -5 0.97289531E-01 0.13192162E+03</pdfrwt>
<totfact> 0.18146083E+02</totfact>
</mgrwt>
</event>
<event>
 8    1  0.3674342E-007  0.1584883E+03  0.7546771E-02  0.1190415E+00
         -5   -1    0    0    0  501 -0.00000000000E+00  0.00000000000E+00  0.54518308974E+02  0.54720526436E+02  0.47000000000E+01 0.  1.
          5   -1    0    0  501    0  0.00000000000E+00 -0.00000000000E+00 -0.47564000624E+03  0.47566322702E+03  0.47000000000E+01 0.  1.
         25    2    1    2    0    0 -0.79970961891E+00 -0.97430527009E+02 -0.16195881317E+03  0.22660103885E+03  0.12499610600E+03 0.  0.
         25    2    1    2    0    0  0.79970961891E+00  0.97430527009E+02 -0.25916288410E+03  0.30378271460E+03  0.12500076028E+03 0.  0.
          5    1    4    4  502    0 -0.99161649773E+01 -0.10650101863E+02 -0.14623056305E+03  0.14702796526E+03  0.47000000000E+01 0.  1.
         -5    1    4    4    0  502  0.10715874596E+02  0.10808062887E+03 -0.11293232105E+03  0.15675474935E+03  0.47000000000E+01 0.  1.
          5    1    3    3  503    0 -0.14697652508E+02 -0.63650522245E+02 -0.53413082361E+01  0.65711715432E+02  0.47000000000E+01 0. -1.
         -5    1    3    3    0  503  0.13897942889E+02 -0.33780004763E+02 -0.15661750494E+03  0.16088932342E+03  0.47000000000E+01 0. -1.
<mgrwt>
<rscale>  0 0.15848737E+03</rscale>
<asrwt>0</asrwt>
<pdfrwt beam="2">  1        5 0.73192724E-01 0.15848829E+03</pdfrwt>
<pdfrwt beam="1">  1       -5 0.84047738E-02 0.15848829E+03</pdfrwt>
<totfact> 0.13574063E+02</totfact>
</mgrwt>
</event>
<event>
 8    1  0.3674342E-007  0.1380681E+03  0.7546771E-02  0.1215956E+00
         -5   -1    0    0    0  501 -0.00000000000E+00  0.00000000000E+00  0.10469329725E+03  0.10479874279E+03  0.47000000000E+01 0.  1.
          5   -1    0    0  501    0  0.00000000000E+00 -0.00000000000E+00 -0.19410921078E+03  0.19416610340E+03  0.47000000000E+01 0.  1.
         25    2    1    2    0    0 -0.58606792953E+02  0.19021301415E+01 -0.71453633380E+01  0.13825286457E+03  0.12499769624E+03 0.  0.
         25    2    1    2    0    0  0.58606792953E+02 -0.19021301415E+01 -0.82270550190E+02  0.16071198161E+03  0.12498609253E+03 0.  0.
          5    1    3    3  502    0  0.36860767530E+02 -0.15272871492E+02 -0.87863686876E+01  0.41125017462E+02  0.47000000000E+01 0.  1.
         -5    1    3    3    0  502 -0.95467560483E+02  0.17175001633E+02  0.16410053496E+01  0.97127847110E+02  0.47000000000E+01 0.  1.
          5    1    4    4  503    0 -0.38394527470E+02 -0.11394887927E+02 -0.27559598508E+02  0.48842652267E+02  0.47000000000E+01 0. -1.
         -5    1    4    4    0  503  0.97001320423E+02  0.94927577857E+01 -0.54710951682E+02  0.11186932935E+03  0.47000000000E+01 0. -1.
<mgrwt>
<rscale>  0 0.13806547E+03</rscale>
<asrwt>0</asrwt>
<pdfrwt beam="2">  1        5 0.29875443E-01 0.13806809E+03</pdfrwt>
<pdfrwt beam="1">  1       -5 0.16119149E-01 0.13806809E+03</pdfrwt>
<totfact> 0.27010543E+02</totfact>
</mgrwt>
</event>
<event>
 8    1  0.3674342E-007  0.1417262E+03  0.7546771E-02  0.1211025E+00
          5   -1    0    0  501    0  0.00000000000E+00  0.00000000000E+00  0.90245028827E+02  0.90367334961E+02  0.47000000000E+01 0. -1.
         -5   -1    0    0    0  501 -0.00000000000E+00 -0.00000000000E+00 -0.23038254369E+03  0.23043048070E+03  0.47000000000E+01 0. -1.
         25    2    1    2    0    0 -0.65723084052E+02  0.11907025826E+02 -0.10014558086E+03  0.17353723851E+03  0.12499893897E+03 0.  0.
         25    2    1    2    0    0  0.65723084052E+02 -0.11907025826E+02 -0.39991934004E+02  0.14726057715E+03  0.12500008702E+03 0.  0.
          5    1    3    3  502    0 -0.93147873789E+02 -0.41391061851E+01 -0.10560740428E+03  0.14095627843E+03  0.47000000000E+01 0. -1.
         -5    1    3    3    0  502  0.27424789737E+02  0.16046132011E+02  0.54618234220E+01  0.32580960080E+02  0.47000000000E+01 0. -1.
          5    1    4    4  503    0  0.69152233571E+02 -0.52046388157E+02  0.48304111879E+01  0.86811754966E+02  0.47000000000E+01 0. -1.
         -5    1    4    4    0  503 -0.34291495189E+01  0.40139362331E+02 -0.44822345192E+02  0.60448822183E+02  0.47000000000E+01 0. -1.
<mgrwt>
<rscale>  0 0.14172597E+03</rscale>
<asrwt>0</asrwt>
<pdfrwt beam="1">  1        5 0.13896946E-01 0.14172622E+03</pdfrwt>
<pdfrwt beam="2">  1       -5 0.35456564E-01 0.14172622E+03</pdfrwt>
<totfact> 0.25372609E+02</totfact>
</mgrwt>
</event>
<event>
 8    1  0.3674342E-007  0.1491491E+03  0.7546771E-02  0.1201530E+00
          5   -1    0    0  501    0  0.00000000000E+00  0.00000000000E+00  0.94150613371E+02  0.94267852410E+02  0.47000000000E+01 0. -1.
         -5   -1    0    0    0  501 -0.00000000000E+00 -0.00000000000E+00 -0.24384710142E+03  0.24389239199E+03  0.47000000000E+01 0. -1.
         25    2    1    2    0    0  0.80694491528E+02  0.10050860885E+02 -0.10527262187E+03  0.18255897411E+03  0.12503132946E+03 0.  0.
         25    2    1    2    0    0 -0.80694491528E+02 -0.10050860885E+02 -0.44423866176E+02  0.15560127028E+03  0.12500261861E+03 0.  0.
          5    1    3    3  502    0 -0.19783888383E+02  0.35475055253E+02 -0.51319137808E+02  0.65617266707E+02  0.47000000000E+01 0. -1.
         -5    1    3    3    0  502  0.10047837991E+03 -0.25424194369E+02 -0.53953484063E+02  0.11694170741E+03  0.47000000000E+01 0. -1.
          5    1    4    4  503    0  0.24390702707E+02  0.22452646226E+02 -0.29256024147E+02  0.44463835304E+02  0.47000000000E+01 0.  1.
         -5    1    4    4    0  503 -0.10508519424E+03 -0.32503507111E+02 -0.15167842029E+02  0.11113743498E+03  0.47000000000E+01 0.  1.
<mgrwt>
<rscale>  0 0.14914308E+03</rscale>
<asrwt>0</asrwt>
<pdfrwt beam="1">  1        5 0.14497212E-01 0.14914910E+03</pdfrwt>
<pdfrwt beam="2">  1       -5 0.37527441E-01 0.14914910E+03</pdfrwt>
<totfact> 0.21325595E+02</totfact>
</mgrwt>
</event>
<event>
 8    1  0.3674342E-007  0.1732646E+03  0.7546771E-02  0.1174486E+00
          5   -1    0    0  501    0  0.00000000000E+00  0.00000000000E+00  0.48866248530E+03  0.48868508729E+03  0.47000000000E+01 0.  1.
         -5   -1    0    0    0  501 -0.00000000000E+00 -0.00000000000E+00 -0.63904553823E+02  0.64077156611E+02  0.47000000000E+01 0.  1.
         25    2    1    2    0    0 -0.55173503299E+02 -0.10653728030E+03  0.26787756911E+03  0.31902722362E+03  0.12500267924E+03 0.  0.
         25    2    1    2    0    0  0.55173503299E+02  0.10653728030E+03  0.15688036237E+03  0.23373502028E+03  0.12500521610E+03 0.  0.
          5    1    3    3  502    0 -0.52752078833E+02 -0.10243907503E+03  0.10484065383E+03  0.15585313153E+03  0.47000000000E+01 0.  1.
         -5    1    3    3    0  502 -0.24214244660E+01 -0.40982052700E+01  0.16303691529E+03  0.16317409209E+03  0.47000000000E+01 0.  1.
          5    1    4    4  503    0  0.39068188210E+02 -0.16217579692E+02  0.14423645989E+02  0.44938455522E+02  0.47000000000E+01 0. -1.
         -5    1    4    4    0  503  0.16105315089E+02  0.12275485999E+03  0.14245671638E+03  0.18879656476E+03  0.47000000000E+01 0. -1.
<mgrwt>
<rscale>  0 0.17326411E+03</rscale>
<asrwt>0</asrwt>
<pdfrwt beam="1">  1        5 0.75193858E-01 0.17326457E+03</pdfrwt>
<pdfrwt beam="2">  1       -5 0.98464858E-02 0.17326457E+03</pdfrwt>
<totfact> 0.99530104E+01</totfact>
</mgrwt>
</event>
<event>
 8    1  0.3674342E-007  0.1271463E+03  0.7546771E-02  0.1231756E+00
          5   -1    0    0  501    0  0.00000000000E+00  0.00000000000E+00  0.80238830074E+02  0.80376363763E+02  0.47000000000E+01 0.  1.
         -5   -1    0    0    0  501 -0.00000000000E+00 -0.00000000000E+00 -0.24575858075E+03  0.24580351912E+03  0.47000000000E+01 0.  1.
         25    2    1    2    0    0  0.19542937806E+02 -0.12508072782E+02 -0.15224081447E+03  0.19835184624E+03  0.12501124356E+03 0.  0.
         25    2    1    2    0    0 -0.19542937806E+02  0.12508072782E+02 -0.13278936211E+02  0.12782803664E+03  0.12500119400E+03 0.  0.
          5    1    3    3  502    0 -0.30483627680E+02  0.42233592782E+02 -0.53984074263E+02  0.75161813375E+02  0.47000000000E+01 0.  1.
         -5    1    3    3    0  502  0.50026565486E+02 -0.54741665564E+02 -0.98256740202E+02  0.12319003287E+03  0.47000000000E+01 0.  1.
          5    1    4    4  503    0 -0.40481508963E+02 -0.45822439495E+02 -0.21823451315E+02  0.65090717898E+02  0.47000000000E+01 0. -1.
         -5    1    4    4    0  503  0.20938571157E+02  0.58330512277E+02  0.85445151037E+01  0.62737318742E+02  0.47000000000E+01 0. -1.
<mgrwt>
<rscale>  0 0.12714386E+03</rscale>
<asrwt>0</asrwt>
<pdfrwt beam="1">  1        5 0.12358472E-01 0.12714633E+03</pdfrwt>
<pdfrwt beam="2">  1       -5 0.37823048E-01 0.12714633E+03</pdfrwt>
<totfact> 0.26446693E+02</totfact>
</mgrwt>
</event>
<event>
 8    1  0.3674342E-007  0.1433719E+03  0.7546771E-02  0.1208867E+00
         -5   -1    0    0    0  501 -0.00000000000E+00  0.00000000000E+00  0.75648156419E+03  0.75649616453E+03  0.47000000000E+01 0. -1.
          5   -1    0    0  501    0  0.00000000000E+00 -0.00000000000E+00 -0.27116677187E+02  0.27520977120E+02  0.47000000000E+01 0. -1.
         25    2    1    2    0    0 -0.56287660918E+02 -0.41978769924E+02  0.39501264313E+03  0.42022196165E+03  0.12498396267E+03 0.  0.
         25    2    1    2    0    0  0.56287660918E+02  0.41978769924E+02  0.33435224387E+03  0.36379518001E+03  0.12499996847E+03 0.  0.
          5    1    4    4  502    0  0.12867236061E+02 -0.40006327987E+02  0.16824810251E+03  0.17348079444E+03  0.47000000000E+01 0. -1.
         -5    1    4    4    0  502  0.43420424857E+02  0.81985097911E+02  0.16610414137E+03  0.19031438557E+03  0.47000000000E+01 0. -1.
          5    1    3    3  503    0 -0.14575986625E+02 -0.70802815689E+02  0.32884786289E+03  0.33673209681E+03  0.47000000000E+01 0. -1.
         -5    1    3    3    0  503 -0.41711674293E+02  0.28824045765E+02  0.66164780239E+02  0.83489864838E+02  0.47000000000E+01 0. -1.
<mgrwt>
<rscale>  0 0.14336844E+03</rscale>
<asrwt>0</asrwt>
<pdfrwt beam="2">  1        5 0.42040197E-02 0.14337193E+03</pdfrwt>
<pdfrwt beam="1">  1       -5 0.11641400E+00 0.14337193E+03</pdfrwt>
<totfact> 0.13884894E+02</totfact>
</mgrwt>
</event>
<event>
 8    1  0.3674342E-007  0.1298647E+03  0.7546771E-02  0.1227658E+00
         -5   -1    0    0    0  501 -0.00000000000E+00  0.00000000000E+00  0.20340551985E+02  0.20876495277E+02  0.47000000000E+01 0. -1.
          5   -1    0    0  501    0  0.00000000000E+00 -0.00000000000E+00 -0.84930167856E+03  0.84931468327E+03  0.47000000000E+01 0. -1.
         25    2    1    2    0    0 -0.27496326612E+02  0.21990316826E+02 -0.33068678134E+03  0.35527161180E+03  0.12499819512E+03 0.  0.
         25    2    1    2    0    0  0.27496326612E+02 -0.21990316826E+02 -0.49827434524E+03  0.51491956674E+03  0.12500086034E+03 0.  0.
          5    1    4    4  502    0  0.72396212456E+02  0.10569268812E+02 -0.31255902377E+03  0.32104229373E+03  0.47000000000E+01 0. -1.
         -5    1    4    4    0  502 -0.44899885844E+02 -0.32559585638E+02 -0.18571532146E+03  0.19387727301E+03  0.47000000000E+01 0. -1.
          5    1    3    3  503    0 -0.48313374254E+02  0.87265244765E+01 -0.32600200498E+03  0.32971158853E+03  0.47000000000E+01 0. -1.
         -5    1    3    3    0  503  0.20817047642E+02  0.13263792349E+02 -0.46847763665E+01  0.25560023271E+02  0.47000000000E+01 0. -1.
<mgrwt>
<rscale>  0 0.12986405E+03</rscale>
<asrwt>0</asrwt>
<pdfrwt beam="2">  1        5 0.13070400E+00 0.12986469E+03</pdfrwt>
<pdfrwt beam="1">  1       -5 0.31715431E-02 0.12986469E+03</pdfrwt>
<totfact> 0.15820700E+02</totfact>
</mgrwt>
</event>
<event>
 8    1  0.3674342E-007  0.1297056E+03  0.7546771E-02  0.1227895E+00
          5   -1    0    0  501    0  0.00000000000E+00  0.00000000000E+00  0.32754921107E+03  0.32758292946E+03  0.47000000000E+01 0.  1.
         -5   -1    0    0    0  501 -0.00000000000E+00 -0.00000000000E+00 -0.71995270541E+02  0.72148520292E+02  0.47000000000E+01 0.  1.
         25    2    1    2    0    0 -0.33574070138E+02 -0.84442607456E+01  0.20566155301E+02  0.13132600941E+03  0.12500012112E+03 0.  0.
         25    2    1    2    0    0  0.33574070138E+02  0.84442607456E+01  0.23498778522E+03  0.26840544033E+03  0.12499478978E+03 0.  0.
          5    1    4    4  502    0  0.20474807127E+02  0.38632570641E+02  0.15824345900E+02  0.46735352405E+02  0.47000000000E+01 0.  1.
         -5    1    4    4    0  502  0.13099263011E+02 -0.30188309896E+02  0.21916343932E+03  0.22167008793E+03  0.47000000000E+01 0.  1.
          5    1    3    3  503    0  0.19119192119E+02  0.27438954929E+02  0.50491030067E+02  0.60744332016E+02  0.47000000000E+01 0. -1.
         -5    1    3    3    0  503 -0.52693262257E+02 -0.35883215675E+02 -0.29924874766E+02  0.70581677397E+02  0.47000000000E+01 0. -1.
<mgrwt>
<rscale>  0 0.12970436E+03</rscale>
<asrwt>0</asrwt>
<pdfrwt beam="1">  1        5 0.50406570E-01 0.12970564E+03</pdfrwt>
<pdfrwt beam="2">  1       -5 0.11090577E-01 0.12970564E+03</pdfrwt>
<totfact> 0.17790229E+02</totfact>
</mgrwt>
</event>
<event>
 8    1  0.3674342E-007  0.1250425E+03  0.7546771E-02  0.1235003E+00
         -5   -1    0    0    0  501 -0.00000000000E+00  0.00000000000E+00  0.51486636943E+02  0.51700713571E+02  0.47000000000E+01 0. -1.
          5   -1    0    0  501    0  0.00000000000E+00 -0.00000000000E+00 -0.30654536960E+03  0.30658139804E+03  0.47000000000E+01 0. -1.
         25    2    1    2    0    0 -0.20214000379E+01 -0.24757940822E+01 -0.10778467405E+03  0.16508532743E+03  0.12500165502E+03 0.  0.
         25    2    1    2    0    0  0.20214000379E+01  0.24757940822E+01 -0.14727405861E+03  0.19319678418E+03  0.12500053386E+03 0.  0.
          5    1    3    3  502    0  0.29413988659E+02  0.44982320822E+02 -0.14775435319E+02  0.55937424005E+02  0.47000000000E+01 0.  1.
         -5    1    3    3    0  502 -0.31435388697E+02 -0.47458114904E+02 -0.93009238727E+02  0.10914790342E+03  0.47000000000E+01 0.  1.
          5    1    4    4  503    0  0.53133110990E+02  0.35386579855E+02 -0.72485443252E+02  0.96703500458E+02  0.47000000000E+01 0. -1.
         -5    1    4    4    0  503 -0.51111710952E+02 -0.32910785773E+02 -0.74788615356E+02  0.96493283723E+02  0.47000000000E+01 0. -1.
<mgrwt>
<rscale>  0 0.12504223E+03</rscale>
<asrwt>0</asrwt>
<pdfrwt beam="2">  1        5 0.47180064E-01 0.12504251E+03</pdfrwt>
<pdfrwt beam="1">  1       -5 0.79402601E-02 0.12504251E+03</pdfrwt>
<totfact> 0.36025280E+02</totfact>
</mgrwt>
</event>
<event>
 8    1  0.3674342E-007  0.1314029E+03  0.7546771E-02  0.1225390E+00
         -5   -1    0    0    0  501 -0.00000000000E+00  0.00000000000E+00  0.53357891232E+03  0.53359961176E+03  0.47000000000E+01 0.  1.
          5   -1    0    0  501    0  0.00000000000E+00 -0.00000000000E+00 -0.32570744808E+02  0.32908105648E+02  0.47000000000E+01 0.  1.
         25    2    1    2    0    0  0.21690367335E+02 -0.34211493014E+02  0.28186329685E+03  0.31098818134E+03  0.12500333008E+03 0.  0.
         25    2    1    2    0    0 -0.21690367335E+02  0.34211493014E+02  0.21914487066E+03  0.25551953607E+03  0.12499944275E+03 0.  0.
          5    1    3    3  502    0 -0.37812273470E+01  0.41979850273E+02  0.15546804241E+03  0.16114902333E+03  0.47000000000E+01 0. -1.
         -5    1    3    3    0  502  0.25471594682E+02 -0.76191343287E+02  0.12639525444E+03  0.14983915801E+03  0.47000000000E+01 0. -1.
          5    1    4    4  503    0  0.12124244835E+02 -0.36067802120E+02  0.13652391303E+03  0.14180533309E+03  0.47000000000E+01 0.  1.
         -5    1    4    4    0  503 -0.33814612170E+02  0.70279295134E+02  0.82620957627E+02  0.11371420298E+03  0.47000000000E+01 0.  1.
<mgrwt>
<rscale>  0 0.13140201E+03</rscale>
<asrwt>0</asrwt>
<pdfrwt beam="2">  1        5 0.50384269E-02 0.13140293E+03</pdfrwt>
<pdfrwt beam="1">  1       -5 0.82116607E-01 0.13140293E+03</pdfrwt>
<totfact> 0.23280561E+02</totfact>
</mgrwt>
</event>
<event>
 8    1  0.3674342E-007  0.1252349E+03  0.7546771E-02  0.1234717E+00
          5   -1    0    0  501    0  0.00000000000E+00  0.00000000000E+00  0.22697457979E+03  0.22702323642E+03  0.47000000000E+01 0. -1.
         -5   -1    0    0    0  501 -0.00000000000E+00 -0.00000000000E+00 -0.84027623478E+02  0.84158965698E+02  0.47000000000E+01 0. -1.
         25    2    1    2    0    0 -0.69011067867E+01  0.33861833413E+01  0.56352259261E+01  0.12536163576E+03  0.12499876974E+03 0.  0.
         25    2    1    2    0    0  0.69011067867E+01 -0.33861833413E+01  0.13731173039E+03  0.18582056635E+03  0.12496271470E+03 0.  0.
          5    1    4    4  502    0  0.44761200634E+02 -0.31995229395E+01  0.14047004315E+03  0.14753889335E+03  0.47000000000E+01 0. -1.
         -5    1    4    4    0  502 -0.37860093847E+02 -0.18666040184E+00 -0.31583127605E+01  0.38281673001E+02  0.47000000000E+01 0. -1.
          5    1    3    3  503    0 -0.30392367904E+02  0.52872732163E+02 -0.20467027120E+02  0.64499697924E+02  0.47000000000E+01 0. -1.
         -5    1    3    3    0  503  0.23491261117E+02 -0.49486548821E+02  0.26102253046E+02  0.60861937836E+02  0.47000000000E+01 0. -1.
<mgrwt>
<rscale>  0 0.12522592E+03</rscale>
<asrwt>0</asrwt>
<pdfrwt beam="1">  1        5 0.34933012E-01 0.12523492E+03</pdfrwt>
<pdfrwt beam="2">  1       -5 0.12941173E-01 0.12523492E+03</pdfrwt>
<totfact> 0.28436066E+02</totfact>
</mgrwt>
</event>
<event>
 8    1  0.3674342E-007  0.1271351E+03  0.7546771E-02  0.1231770E+00
          5   -1    0    0  501    0  0.00000000000E+00  0.00000000000E+00  0.40846647724E+02  0.41116160208E+02  0.47000000000E+01 0.  1.
         -5   -1    0    0    0  501 -0.00000000000E+00 -0.00000000000E+00 -0.54051542268E+03  0.54053585649E+03  0.47000000000E+01 0.  1.
         25    2    1    2    0    0  0.13435863863E+02  0.18939010004E+02 -0.40114582448E+03  0.42081030746E+03  0.12499653525E+03 0.  0.
         25    2    1    2    0    0 -0.13435863863E+02 -0.18939010004E+02 -0.98522950468E+02  0.16084170924E+03  0.12499630044E+03 0.  0.
          5    1    3    3  502    0 -0.43410938941E+02  0.45651314771E+02 -0.22691060087E+03  0.23553993918E+03  0.47000000000E+01 0.  1.
         -5    1    3    3    0  502  0.56846802804E+02 -0.26712304767E+02 -0.17423522361E+03  0.18527036828E+03  0.47000000000E+01 0.  1.
          5    1    4    4  503    0  0.18192234823E+02  0.48757246228E+02 -0.39303340884E+02  0.65384012360E+02  0.47000000000E+01 0. -1.
         -5    1    4    4    0  503 -0.31628098686E+02 -0.67696256232E+02 -0.59219609585E+02  0.95457696881E+02  0.47000000000E+01 0. -1.
<mgrwt>
<rscale>  0 0.12713508E+03</rscale>
<asrwt>0</asrwt>
<pdfrwt beam="1">  1        5 0.63064036E-02 0.12713513E+03</pdfrwt>
<pdfrwt beam="2">  1       -5 0.83178517E-01 0.12713513E+03</pdfrwt>
<totfact> 0.15345823E+02</totfact>
</mgrwt>
</event>
<event>
 8    1  0.3674342E-007  0.1434390E+03  0.7546771E-02  0.1208779E+00
          5   -1    0    0  501    0  0.00000000000E+00  0.00000000000E+00  0.33765593154E+03  0.33768864077E+03  0.47000000000E+01 0.  1.
         -5   -1    0    0    0  501 -0.00000000000E+00 -0.00000000000E+00 -0.64373111803E+02  0.64544461599E+02  0.47000000000E+01 0.  1.
         25    2    1    2    0    0 -0.26312295977E+02 -0.65230184746E+02  0.89357443980E+02  0.16899560150E+03  0.12500978606E+03 0.  0.
         25    2    1    2    0    0  0.26312295977E+02  0.65230184746E+02  0.18392537576E+03  0.23323750087E+03  0.12499549609E+03 0.  0.
          5    1    4    4  502    0  0.53447913770E+02  0.91031501045E+02  0.13371740471E+03  0.17042842484E+03  0.47000000000E+01 0.  1.
         -5    1    4    4    0  502 -0.27135617793E+02 -0.25801316298E+02  0.50207971046E+02  0.62809076035E+02  0.47000000000E+01 0.  1.
          5    1    3    3  503    0  0.44056287472E+02 -0.44825727616E+02  0.15604471813E+02  0.64929899604E+02  0.47000000000E+01 0. -1.
         -5    1    3    3    0  503 -0.70368583449E+02 -0.20404457130E+02  0.73752972167E+02  0.10406570189E+03  0.47000000000E+01 0. -1.
<mgrwt>
<rscale>  0 0.14343593E+03</rscale>
<asrwt>0</asrwt>
<pdfrwt beam="1">  1        5 0.51962762E-01 0.14343905E+03</pdfrwt>
<pdfrwt beam="2">  1       -5 0.99192527E-02 0.14343905E+03</pdfrwt>
<totfact> 0.20978575E+02</totfact>
</mgrwt>
</event>
<event>
 8    1  0.3674342E-007  0.1311332E+03  0.7546771E-02  0.1225784E+00
         -5   -1    0    0    0  501 -0.00000000000E+00  0.00000000000E+00  0.32060399187E+03  0.32063844062E+03  0.47000000000E+01 0. -1.
          5   -1    0    0  501    0  0.00000000000E+00 -0.00000000000E+00 -0.69572635978E+02  0.69731210207E+02  0.47000000000E+01 0. -1.
         25    2    1    2    0    0  0.29334907141E+02 -0.26645966601E+02  0.21919756773E+03  0.25542781544E+03  0.12500100355E+03 0.  0.
         25    2    1    2    0    0 -0.29334907141E+02  0.26645966601E+02  0.31833788162E+02  0.13494183539E+03  0.12500145821E+03 0.  0.
          5    1    4    4  502    0 -0.18411794579E+02 -0.42672639270E+02  0.43285837488E+02  0.63684394077E+02  0.47000000000E+01 0. -1.
         -5    1    4    4    0  502 -0.10923112562E+02  0.69318605871E+02 -0.11452049326E+02  0.71257441308E+02  0.47000000000E+01 0. -1.
          5    1    3    3  503    0  0.77290322897E+02 -0.52482668634E+01  0.14409749041E+03  0.16366891904E+03  0.47000000000E+01 0.  1.
         -5    1    3    3    0  503 -0.47955415757E+02 -0.21397699738E+02  0.75100077319E+02  0.91758896396E+02  0.47000000000E+01 0.  1.
<mgrwt>
<rscale>  0 0.13113306E+03</rscale>
<asrwt>0</asrwt>
<pdfrwt beam="2">  1        5 0.10718331E-01 0.13113317E+03</pdfrwt>
<pdfrwt beam="1">  1       -5 0.49338538E-01 0.13113317E+03</pdfrwt>
<totfact> 0.19842066E+02</totfact>
</mgrwt>
</event>
<event>
 8    1  0.3674342E-007  0.1552146E+03  0.7546771E-02  0.1194220E+00
         -5   -1    0    0    0  501 -0.00000000000E+00  0.00000000000E+00  0.35242314887E+03  0.35245448765E+03  0.47000000000E+01 0.  1.
          5   -1    0    0  501    0  0.00000000000E+00 -0.00000000000E+00 -0.70385484940E+02  0.70542231963E+02  0.47000000000E+01 0.  1.
         25    2    1    2    0    0  0.10060237514E+02 -0.91397171423E+02  0.17799128351E+03  0.23613522348E+03  0.12499718174E+03 0.  0.
         25    2    1    2    0    0 -0.10060237514E+02  0.91397171423E+02  0.10404638042E+03  0.18686149612E+03  0.12504766344E+03 0.  0.
          5    1    4    4  502    0 -0.12060057398E+02  0.95653392275E+02  0.12895592650E+03  0.16107991004E+03  0.47000000000E+01 0. -1.
         -5    1    4    4    0  502  0.19998198839E+01 -0.42562208516E+01 -0.24909546075E+02  0.25781586087E+02  0.47000000000E+01 0. -1.
          5    1    3    3  503    0  0.11339265802E+02 -0.94821163697E+02  0.49797263533E+02  0.10780301243E+03  0.47000000000E+01 0.  1.
         -5    1    3    3    0  503 -0.12790282887E+01  0.34239922740E+01  0.12819401998E+03  0.12833221105E+03  0.47000000000E+01 0.  1.
<mgrwt>
<rscale>  0 0.15520442E+03</rscale>
<asrwt>0</asrwt>
<pdfrwt beam="2">  1        5 0.10843004E-01 0.15521459E+03</pdfrwt>
<pdfrwt beam="1">  1       -5 0.54233414E-01 0.15521459E+03</pdfrwt>
<totfact> 0.16803012E+02</totfact>
</mgrwt>
</event>
<event>
 8    1  0.3674342E-007  0.1254423E+03  0.7546771E-02  0.1234382E+00
          5   -1    0    0  501    0  0.00000000000E+00  0.00000000000E+00  0.17051224791E+02  0.17687121498E+02  0.47000000000E+01 0.  1.
         -5   -1    0    0    0  501 -0.00000000000E+00 -0.00000000000E+00 -0.10066112115E+04  0.10066221839E+04  0.47000000000E+01 0.  1.
         25    2    1    2    0    0 -0.10261397971E+02  0.21854946315E+01 -0.65724044008E+03  0.66910445777E+03  0.12500282662E+03 0.  0.
         25    2    1    2    0    0  0.10261397971E+02 -0.21854946315E+01 -0.33231954665E+03  0.35520484764E+03  0.12499652006E+03 0.  0.
          5    1    3    3  502    0 -0.88999866016E+01  0.23045938746E+02 -0.64274137103E+03  0.64323314986E+03  0.47000000000E+01 0.  1.
         -5    1    3    3    0  502 -0.13614113693E+01 -0.20860444115E+02 -0.14499069049E+02  0.25871307908E+02  0.47000000000E+01 0.  1.
          5    1    4    4  503    0  0.31664737540E+02 -0.16649020203E+02 -0.32627214221E+03  0.32826124697E+03  0.47000000000E+01 0. -1.
         -5    1    4    4    0  503 -0.21403339570E+02  0.14463525571E+02 -0.60474044329E+01  0.26943600670E+02  0.47000000000E+01 0. -1.
<mgrwt>
<rscale>  0 0.12544076E+03</rscale>
<asrwt>0</asrwt>
<pdfrwt beam="1">  1        5 0.26730253E-02 0.12544233E+03</pdfrwt>
<pdfrwt beam="2">  1       -5 0.15491298E+00 0.12544233E+03</pdfrwt>
<totfact> 0.13073406E+02</totfact>
</mgrwt>
</event>
<event>
 8    1  0.3674342E-007  0.1837633E+03  0.7546771E-02  0.1164210E+00
         -5   -1    0    0    0  501 -0.00000000000E+00  0.00000000000E+00  0.61747170186E+02  0.61925786438E+02  0.47000000000E+01 0. -1.
          5   -1    0    0  501    0  0.00000000000E+00 -0.00000000000E+00 -0.56195099716E+03  0.56197065155E+03  0.47000000000E+01 0. -1.
         25    2    1    2    0    0  0.12930035593E+03 -0.37756871239E+02 -0.30280511429E+03  0.35420179033E+03  0.12499523056E+03 0.  0.
         25    2    1    2    0    0 -0.12930035593E+03  0.37756871239E+02 -0.19739871268E+03  0.26969464766E+03  0.12499915136E+03 0.  0.
          5    1    4    4  502    0 -0.92718947682E+02  0.78911584624E+02 -0.99643360010E+02  0.15739990674E+03  0.47000000000E+01 0. -1.
         -5    1    4    4    0  502 -0.36581408248E+02 -0.41154713385E+02 -0.97755352668E+02  0.11229474092E+03  0.47000000000E+01 0. -1.
          5    1    3    3  503    0  0.12469922064E+03 -0.10674039011E+02 -0.30129697395E+03  0.32629095489E+03  0.47000000000E+01 0. -1.
         -5    1    3    3    0  503  0.46011352896E+01 -0.27082832228E+02 -0.15081403467E+01  0.27910835436E+02  0.47000000000E+01 0. -1.
<mgrwt>
<rscale>  0 0.18376264E+03</rscale>
<asrwt>0</asrwt>
<pdfrwt beam="2">  1        5 0.86469248E-01 0.18376330E+03</pdfrwt>
<pdfrwt beam="1">  1       -5 0.95148166E-02 0.18376330E+03</pdfrwt>
<totfact> 0.77605081E+01</totfact>
</mgrwt>
</event>
<event>
 8    1  0.3674342E-007  0.2816692E+03  0.7546771E-02  0.1094781E+00
         -5   -1    0    0    0  501 -0.00000000000E+00  0.00000000000E+00  0.96639448020E+03  0.96640590921E+03  0.47000000000E+01 0.  1.
          5   -1    0    0  501    0  0.00000000000E+00 -0.00000000000E+00 -0.11156459463E+03  0.11166355169E+03  0.47000000000E+01 0.  1.
         25    2    1    2    0    0 -0.24795153523E+03 -0.47250281805E+02  0.70465997840E+03  0.75886960683E+03  0.12499936822E+03 0.  0.
         25    2    1    2    0    0  0.24795153523E+03  0.47250281805E+02  0.15016990717E+03  0.31919985408E+03  0.12499997148E+03 0.  0.
          5    1    4    4  502    0  0.19856484029E+03  0.62139227405E+02  0.62367109348E+02  0.21725797042E+03  0.47000000000E+01 0. -1.
         -5    1    4    4    0  502  0.49386694938E+02 -0.14888945600E+02  0.87802797825E+02  0.10194188366E+03  0.47000000000E+01 0. -1.
          5    1    3    3  503    0 -0.19055788807E+03 -0.41543735877E+02  0.65223161515E+03  0.68078363707E+03  0.47000000000E+01 0.  1.
         -5    1    3    3    0  503 -0.57393647153E+02 -0.57065459273E+01  0.52428363246E+02  0.78085969755E+02  0.47000000000E+01 0.  1.
<mgrwt>
<rscale>  0 0.28166915E+03</rscale>
<asrwt>0</asrwt>
<pdfrwt beam="2">  1        5 0.17172274E-01 0.28166921E+03</pdfrwt>
<pdfrwt beam="1">  1       -5 0.14868457E+00 0.28166921E+03</pdfrwt>
<totfact> 0.74312466E+00</totfact>
</mgrwt>
</event>
<event>
 8    1  0.3674342E-007  0.1583620E+03  0.7546771E-02  0.1190561E+00
          5   -1    0    0  501    0  0.00000000000E+00  0.00000000000E+00  0.22880690857E+03  0.22885517562E+03  0.47000000000E+01 0. -1.
         -5   -1    0    0    0  501 -0.00000000000E+00 -0.00000000000E+00 -0.10983704255E+03  0.10993755462E+03  0.47000000000E+01 0. -1.
         25    2    1    2    0    0 -0.49199337852E+02  0.83857232443E+02  0.49974166742E+02  0.16605324672E+03  0.12499461239E+03 0.  0.
         25    2    1    2    0    0  0.49199337852E+02 -0.83857232443E+02  0.68995699280E+02  0.17273948353E+03  0.12500364943E+03 0.  0.
          5    1    4    4  502    0  0.64578919881E+02 -0.21235031088E+02 -0.11907606706E+02  0.69175461948E+02  0.47000000000E+01 0. -1.
         -5    1    4    4    0  502 -0.15379582029E+02 -0.62622201355E+02  0.80903305986E+02  0.10356402158E+03  0.47000000000E+01 0. -1.
          5    1    3    3  503    0 -0.37719729477E+02  0.30190409836E+02  0.87040376021E+02  0.99661205570E+02  0.47000000000E+01 0. -1.
         -5    1    3    3    0  503 -0.11479608376E+02  0.53666822607E+02 -0.37066209279E+02  0.66392041146E+02  0.47000000000E+01 0. -1.
<mgrwt>
<rscale>  0 0.15836022E+03</rscale>
<asrwt>0</asrwt>
<pdfrwt beam="1">  1        5 0.35212507E-01 0.15836200E+03</pdfrwt>
<pdfrwt beam="2">  1       -5 0.16909451E-01 0.15836200E+03</pdfrwt>
<totfact> 0.18686245E+02</totfact>
</mgrwt>
</event>
<event>
 8    1  0.3674342E-007  0.1622008E+03  0.7546771E-02  0.1186237E+00
         -5   -1    0    0    0  501 -0.00000000000E+00  0.00000000000E+00  0.27258659341E+02  0.27660884098E+02  0.47000000000E+01 0.  1.
          5   -1    0    0  501    0  0.00000000000E+00 -0.00000000000E+00 -0.96342117876E+03  0.96343264304E+03  0.47000000000E+01 0.  1.
         25    2    1    2    0    0  0.10158031959E+03 -0.19076265913E+02 -0.42968507463E+03  0.45927728721E+03  0.12499559166E+03 0.  0.
         25    2    1    2    0    0 -0.10158031959E+03  0.19076265913E+02 -0.50647744478E+03  0.53181623993E+03  0.12500658275E+03 0.  0.
          5    1    4    4  502    0 -0.12393971758E+03  0.17548822811E+02 -0.48316382951E+03  0.49913764727E+03  0.47000000000E+01 0. -1.
         -5    1    4    4    0  502  0.22359397992E+02  0.15274431022E+01 -0.23313615267E+02  0.32678592654E+02  0.47000000000E+01 0. -1.
          5    1    3    3  503    0  0.35135413775E+02 -0.69859821412E+02 -0.19993473780E+03  0.21473444374E+03  0.47000000000E+01 0.  1.
         -5    1    3    3    0  503  0.66444905813E+02  0.50783555499E+02 -0.22975033683E+03  0.24454284347E+03  0.47000000000E+01 0.  1.
<mgrwt>
<rscale>  0 0.16219872E+03</rscale>
<asrwt>0</asrwt>
<pdfrwt beam="2">  1        5 0.14825044E+00 0.16220084E+03</pdfrwt>
<pdfrwt beam="1">  1       -5 0.42254629E-02 0.16220084E+03</pdfrwt>
<totfact> 0.75809074E+01</totfact>
</mgrwt>
</event>
<event>
 8    1  0.3674342E-007  0.1311112E+03  0.7546771E-02  0.1225836E+00
         -5   -1    0    0    0  501 -0.00000000000E+00  0.00000000000E+00  0.14516293643E+03  0.14523900342E+03  0.47000000000E+01 0.  1.
          5   -1    0    0  501    0  0.00000000000E+00 -0.00000000000E+00 -0.13261529058E+03  0.13269855046E+03  0.47000000000E+01 0.  1.
         25    2    1    2    0    0  0.21019521495E+02 -0.33332768825E+02  0.52033754300E+02  0.14100946427E+03  0.12499305447E+03 0.  0.
         25    2    1    2    0    0 -0.21019521495E+02  0.33332768825E+02 -0.39486108445E+02  0.13692808961E+03  0.12504901120E+03 0.  0.
          5    1    4    4  502    0 -0.60076581386E+02 -0.61478611523E+01  0.11192404583E+02  0.61598309620E+02  0.47000000000E+01 0. -1.
         -5    1    4    4    0  502  0.39057059891E+02  0.39480629977E+02 -0.50678513028E+02  0.75329779990E+02  0.47000000000E+01 0. -1.
          5    1    3    3  503    0  0.98268602379E+01 -0.14306588551E+00  0.89118873643E+02  0.89782243731E+02  0.47000000000E+01 0. -1.
         -5    1    3    3    0  503  0.11192661257E+02 -0.33189702939E+02 -0.37085119343E+02  0.51227220536E+02  0.47000000000E+01 0. -1.
<mgrwt>
<rscale>  0 0.13109786E+03</rscale>
<asrwt>0</asrwt>
<pdfrwt beam="2">  1        5 0.20414608E-01 0.13111121E+03</pdfrwt>
<pdfrwt beam="1">  1       -5 0.22345015E-01 0.13111121E+03</pdfrwt>
<totfact> 0.29994795E+02</totfact>
</mgrwt>
</event>
<event>
 8    1  0.3674342E-007  0.1400923E+03  0.7546771E-02  0.1213207E+00
          5   -1    0    0  501    0  0.00000000000E+00  0.00000000000E+00  0.34690641622E+02  0.35007579410E+02  0.47000000000E+01 0. -1.
         -5   -1    0    0    0  501 -0.00000000000E+00 -0.00000000000E+00 -0.57020359155E+03  0.57022296149E+03  0.47000000000E+01 0. -1.
         25    2    1    2    0    0  0.55174579692E+02 -0.30920369681E+02 -0.30218894910E+03  0.33307997953E+03  0.12499523309E+03 0.  0.
         25    2    1    2    0    0 -0.55174579692E+02  0.30920369681E+02 -0.23332400082E+03  0.27215056138E+03  0.12500214075E+03 0.  0.
          5    1    4    4  502    0  0.39334750117E+02  0.20991370037E+02 -0.69671795241E+02  0.82849919945E+02  0.47000000000E+01 0. -1.
         -5    1    4    4    0  502 -0.94509329809E+02  0.99289996436E+01 -0.16365220558E+03  0.18930064143E+03  0.47000000000E+01 0. -1.
          5    1    3    3  503    0  0.58462435562E+02 -0.51785571922E+02 -0.30143913819E+03  0.31142775384E+03  0.47000000000E+01 0. -1.
         -5    1    3    3    0  503 -0.32878558698E+01  0.20865202242E+02 -0.74981091880E+00  0.21652225687E+02  0.47000000000E+01 0. -1.
<mgrwt>
<rscale>  0 0.14009071E+03</rscale>
<asrwt>0</asrwt>
<pdfrwt beam="1">  1        5 0.53628920E-02 0.14009225E+03</pdfrwt>
<pdfrwt beam="2">  1       -5 0.87749493E-01 0.14009225E+03</pdfrwt>
<totfact> 0.18354053E+02</totfact>
</mgrwt>
</event>
<event>
 8    1  0.3674342E-007  0.2081737E+03  0.7546771E-02  0.1143023E+00
         -5   -1    0    0    0  501 -0.00000000000E+00  0.00000000000E+00  0.46527374916E+03  0.46529748727E+03  0.47000000000E+01 0. -1.
          5   -1    0    0  501    0  0.00000000000E+00 -0.00000000000E+00 -0.12772084723E+03  0.12780729564E+03  0.47000000000E+01 0. -1.
         25    2    1    2    0    0  0.15475562236E+03  0.61336583907E+02  0.32321099959E+03  0.38444980528E+03  0.12499929339E+03 0.  0.
         25    2    1    2    0    0 -0.15475562236E+03 -0.61336583907E+02  0.14341902336E+02  0.20865497762E+03  0.12497891960E+03 0.  0.
          5    1    3    3  502    0  0.11716406942E+03 -0.12533515621E+01  0.26882309418E+03  0.29328644022E+03  0.47000000000E+01 0. -1.
         -5    1    3    3    0  502  0.37591552939E+02  0.62589935469E+02  0.54387905414E+02  0.91163365064E+02  0.47000000000E+01 0. -1.
          5    1    4    4  503    0 -0.15642174417E+03 -0.11059901936E+02  0.31880706336E+01  0.15691506388E+03  0.47000000000E+01 0.  1.
         -5    1    4    4    0  503  0.16661218038E+01 -0.50276681971E+02  0.11153831703E+02  0.51739913737E+02  0.47000000000E+01 0.  1.
<mgrwt>
<rscale>  0 0.20817067E+03</rscale>
<asrwt>0</asrwt>
<pdfrwt beam="2">  1        5 0.19657837E-01 0.20817373E+03</pdfrwt>
<pdfrwt beam="1">  1       -5 0.71589053E-01 0.20817373E+03</pdfrwt>
<totfact> 0.33509335E+01</totfact>
</mgrwt>
</event>
<event>
 8    1  0.3674342E-007  0.1256044E+03  0.7546771E-02  0.1234133E+00
          5   -1    0    0  501    0  0.00000000000E+00  0.00000000000E+00  0.34636064545E+02  0.34953497209E+02  0.47000000000E+01 0.  1.
         -5   -1    0    0    0  501 -0.00000000000E+00 -0.00000000000E+00 -0.45366216039E+03  0.45368650605E+03  0.47000000000E+01 0.  1.
         25    2    1    2    0    0 -0.19987235696E+01  0.12156138962E+02 -0.21855487097E+03  0.25207041552E+03  0.12498598380E+03 0.  0.
         25    2    1    2    0    0  0.19987235696E+01 -0.12156138962E+02 -0.20047122487E+03  0.23656958773E+03  0.12499876490E+03 0.  0.
          5    1    4    4  502    0 -0.43671870092E+02 -0.32787679561E+02 -0.16788909271E+03  0.17661002695E+03  0.47000000000E+01 0. -1.
         -5    1    4    4    0  502  0.45670593662E+02  0.20631540599E+02 -0.32582132166E+02  0.59959560784E+02  0.47000000000E+01 0. -1.
          5    1    3    3  503    0 -0.43812127265E+02  0.44570858438E+02 -0.68274709394E+02  0.92680040247E+02  0.47000000000E+01 0. -1.
         -5    1    3    3    0  503  0.41813403696E+02 -0.32414719476E+02 -0.15028016158E+03  0.15939037528E+03  0.47000000000E+01 0. -1.
<mgrwt>
<rscale>  0 0.12560119E+03</rscale>
<asrwt>0</asrwt>
<pdfrwt beam="1">  1        5 0.53549163E-02 0.12560437E+03</pdfrwt>
<pdfrwt beam="2">  1       -5 0.69820465E-01 0.12560437E+03</pdfrwt>
<totfact> 0.29985621E+02</totfact>
</mgrwt>
</event>
<event>
 8    1  0.3674342E-007  0.1565231E+03  0.7546771E-02  0.1192681E+00
          5   -1    0    0  501    0  0.00000000000E+00  0.00000000000E+00  0.24358673759E+03  0.24363207656E+03  0.47000000000E+01 0.  1.
         -5   -1    0    0    0  501 -0.00000000000E+00 -0.00000000000E+00 -0.10621870955E+03  0.10632264227E+03  0.47000000000E+01 0.  1.
         25    2    1    2    0    0 -0.92816753687E+02  0.16123759954E+02  0.27984538057E+02  0.15900504789E+03  0.12499818192E+03 0.  0.
         25    2    1    2    0    0  0.92816753687E+02 -0.16123759954E+02  0.10938348998E+03  0.19094967094E+03  0.12498841367E+03 0.  0.
          5    1    4    4  502    0 -0.26510169029E+02  0.17043490230E+02  0.30013249726E+02  0.43773905244E+02  0.47000000000E+01 0.  1.
         -5    1    4    4    0  502  0.11932692272E+03 -0.33167250184E+02  0.79370240256E+02  0.14717576570E+03  0.47000000000E+01 0.  1.
          5    1    3    3  503    0 -0.78944960792E+02 -0.42347067500E+02  0.38843727999E+02  0.97757384197E+02  0.47000000000E+01 0.  1.
         -5    1    3    3    0  503 -0.13871792895E+02  0.58470827454E+02 -0.10859189942E+02  0.61247663690E+02  0.47000000000E+01 0.  1.
<mgrwt>
<rscale>  0 0.15652112E+03</rscale>
<asrwt>0</asrwt>
<pdfrwt beam="1">  1        5 0.37486365E-01 0.15652307E+03</pdfrwt>
<pdfrwt beam="2">  1       -5 0.16352823E-01 0.15652307E+03</pdfrwt>
<totfact> 0.17442728E+02</totfact>
</mgrwt>
</event>
<event>
 8    1  0.3674342E-007  0.1427393E+03  0.7546771E-02  0.1209695E+00
         -5   -1    0    0    0  501 -0.00000000000E+00  0.00000000000E+00  0.87487331382E+02  0.87613487274E+02  0.47000000000E+01 0.  1.
          5   -1    0    0  501    0  0.00000000000E+00 -0.00000000000E+00 -0.23376782940E+03  0.23381507236E+03  0.47000000000E+01 0.  1.
         25    2    1    2    0    0 -0.51998950039E+02  0.45184166879E+02 -0.61511134655E+02  0.15542882362E+03  0.12501599812E+03 0.  0.
         25    2    1    2    0    0  0.51998950039E+02 -0.45184166879E+02 -0.84769363366E+02  0.16599973601E+03  0.12499827058E+03 0.  0.
          5    1    3    3  502    0  0.39167024073E+01  0.66359220122E+02  0.38110138629E+01  0.66749535426E+02  0.47000000000E+01 0.  1.
         -5    1    3    3    0  502 -0.55915652446E+02 -0.21175053242E+02 -0.65322148518E+02  0.88679288198E+02  0.47000000000E+01 0.  1.
          5    1    4    4  503    0 -0.53338535323E+01  0.14752313844E+02 -0.81213709545E+02  0.82848279254E+02  0.47000000000E+01 0.  1.
         -5    1    4    4    0  503  0.57332803571E+02 -0.59936480724E+02 -0.35556538205E+01  0.83151456758E+02  0.47000000000E+01 0.  1.
<mgrwt>
<rscale>  0 0.14273539E+03</rscale>
<asrwt>0</asrwt>
<pdfrwt beam="2">  1        5 0.35977620E-01 0.14273927E+03</pdfrwt>
<pdfrwt beam="1">  1       -5 0.13472928E-01 0.14273927E+03</pdfrwt>
<totfact> 0.26111062E+02</totfact>
</mgrwt>
</event>
<event>
 8    1  0.3674342E-007  0.1289958E+03  0.7546771E-02  0.1228954E+00
         -5   -1    0    0    0  501 -0.00000000000E+00  0.00000000000E+00  0.67187635757E+02  0.67351825503E+02  0.47000000000E+01 0. -1.
          5   -1    0    0  501    0  0.00000000000E+00 -0.00000000000E+00 -0.26175853219E+03  0.26180072417E+03  0.47000000000E+01 0. -1.
         25    2    1    2    0    0 -0.31761530565E+02 -0.26421361243E+01 -0.58446273693E+02  0.14161630726E+03  0.12499374330E+03 0.  0.
         25    2    1    2    0    0  0.31761530565E+02  0.26421361243E+01 -0.13612462274E+03  0.18753624242E+03  0.12499661434E+03 0.  0.
          5    1    3    3  502    0 -0.23765968025E+02 -0.15021206766E+02  0.35995956494E+02  0.45915757347E+02  0.47000000000E+01 0.  1.
         -5    1    3    3    0  502 -0.79955625398E+01  0.12379070642E+02 -0.94442230186E+02  0.95700549909E+02  0.47000000000E+01 0.  1.
          5    1    4    4  503    0  0.22844306462E+01 -0.46262796444E+02 -0.80737798553E+01  0.47251887574E+02  0.47000000000E+01 0. -1.
         -5    1    4    4    0  503  0.29477099919E+02  0.48904932568E+02 -0.12805084289E+03  0.14028435484E+03  0.47000000000E+01 0. -1.
<mgrwt>
<rscale>  0 0.12899515E+03</rscale>
<asrwt>0</asrwt>
<pdfrwt beam="2">  1        5 0.40286419E-01 0.12899585E+03</pdfrwt>
<pdfrwt beam="1">  1       -5 0.10352435E-01 0.12899585E+03</pdfrwt>
<totfact> 0.31942527E+02</totfact>
</mgrwt>
</event>
<event>
 8    1  0.3674342E-007  0.1409208E+03  0.7546771E-02  0.1212097E+00
          5   -1    0    0  501    0  0.00000000000E+00  0.00000000000E+00  0.20121483049E+03  0.20126971459E+03  0.47000000000E+01 0. -1.
         -5   -1    0    0    0  501 -0.00000000000E+00 -0.00000000000E+00 -0.11659609645E+03  0.11669078673E+03  0.47000000000E+01 0. -1.
         25    2    1    2    0    0 -0.29604373126E+02  0.57938614442E+02 -0.20165988746E+02  0.14235634377E+03  0.12500143822E+03 0.  0.
         25    2    1    2    0    0  0.29604373126E+02 -0.57938614442E+02  0.10478472279E+03  0.17560415755E+03  0.12499472015E+03 0.  0.
          5    1    3    3  502    0 -0.77951678492E+02  0.24191072865E+02 -0.10552729886E+02  0.82432531771E+02  0.47000000000E+01 0.  1.
         -5    1    3    3    0  502  0.48347305366E+02  0.33747541577E+02 -0.96132588599E+01  0.59923812000E+02  0.47000000000E+01 0.  1.
          5    1    4    4  503    0 -0.32837810697E+02  0.15664784236E+02  0.55717520801E+01  0.37105817573E+02  0.47000000000E+01 0.  1.
         -5    1    4    4    0  503  0.62442183823E+02 -0.73603398679E+02  0.99212970712E+02  0.13849833997E+03  0.47000000000E+01 0.  1.
<mgrwt>
<rscale>  0 0.14091927E+03</rscale>
<asrwt>0</asrwt>
<pdfrwt beam="1">  1        5 0.30967634E-01 0.14092076E+03</pdfrwt>
<pdfrwt beam="2">  1       -5 0.17949367E-01 0.14092076E+03</pdfrwt>
<totfact> 0.20807023E+02</totfact>
</mgrwt>
</event>
<event>
 8    1  0.3674342E-007  0.1465335E+03  0.7546771E-02  0.1204800E+00
         -5   -1    0    0    0  501 -0.00000000000E+00  0.00000000000E+00  0.15038114419E+04  0.15038187865E+04  0.47000000000E+01 0.  1.
          5   -1    0    0  501    0  0.00000000000E+00 -0.00000000000E+00 -0.15683476094E+02  0.16372581421E+02  0.47000000000E+01 0.  1.
         25    2    1    2    0    0 -0.37686085941E+01  0.76366137831E+02  0.99569614385E+03  0.10064208234E+04  0.12500429364E+03 0.  0.
         25    2    1    2    0    0  0.37686085941E+01 -0.76366137831E+02  0.49243182195E+03  0.51377054460E+03  0.12500033522E+03 0.  0.
          5    1    4    4  502    0  0.41407855420E+02 -0.60821980826E+02  0.44505516687E+03  0.45112095429E+03  0.47000000000E+01 0. -1.
         -5    1    4    4    0  502 -0.37639246826E+02 -0.15544157004E+02  0.47376655083E+02  0.62649590306E+02  0.47000000000E+01 0. -1.
          5    1    3    3  503    0  0.40736879147E+02 -0.13785579234E+02  0.21916045337E+03  0.22338963682E+03  0.47000000000E+01 0.  1.
         -5    1    3    3    0  503 -0.44505487741E+02  0.90151717065E+02  0.77653569048E+03  0.78303118656E+03  0.47000000000E+01 0.  1.
<mgrwt>
<rscale>  0 0.14653264E+03</rscale>
<asrwt>0</asrwt>
<pdfrwt beam="2">  1        5 0.24664154E-02 0.14653349E+03</pdfrwt>
<pdfrwt beam="1">  1       -5 0.23140920E+00 0.14653349E+03</pdfrwt>
<totfact> 0.45945965E+01</totfact>
</mgrwt>
</event>
<event>
 8    1  0.3674342E-007  0.1317626E+03  0.7546771E-02  0.1224865E+00
         -5   -1    0    0    0  501 -0.00000000000E+00  0.00000000000E+00  0.57120003180E+02  0.57313041825E+02  0.47000000000E+01 0.  1.
          5   -1    0    0  501    0  0.00000000000E+00 -0.00000000000E+00 -0.30325058183E+03  0.30328700167E+03  0.47000000000E+01 0.  1.
         25    2    1    2    0    0  0.27676188078E+02  0.31137181603E+02 -0.12103460273E+03  0.17891553972E+03  0.12500359927E+03 0.  0.
         25    2    1    2    0    0 -0.27676188078E+02 -0.31137181603E+02 -0.12509597592E+03  0.18168450377E+03  0.12499904101E+03 0.  0.
          5    1    3    3  502    0  0.15513883820E+02  0.57118001650E+02 -0.53268838748E+01  0.59612183281E+02  0.47000000000E+01 0. -1.
         -5    1    3    3    0  502  0.12162304258E+02 -0.25980820048E+02 -0.11570771886E+03  0.11930335644E+03  0.47000000000E+01 0. -1.
          5    1    4    4  503    0 -0.60255135180E+02  0.69619463495E+01 -0.11533640945E+03  0.13039834109E+03  0.47000000000E+01 0.  1.
         -5    1    4    4    0  503  0.32578947102E+02 -0.38099127952E+02 -0.97595664628E+01  0.51286162681E+02  0.47000000000E+01 0.  1.
<mgrwt>
<rscale>  0 0.13176157E+03</rscale>
<asrwt>0</asrwt>
<pdfrwt beam="2">  1        5 0.46671585E-01 0.13176265E+03</pdfrwt>
<pdfrwt beam="1">  1       -5 0.88053436E-02 0.13176265E+03</pdfrwt>
<totfact> 0.31450582E+02</totfact>
</mgrwt>
</event>
<event>
 8    1  0.3674342E-007  0.2097600E+03  0.7546771E-02  0.1141757E+00
         -5   -1    0    0    0  501 -0.00000000000E+00  0.00000000000E+00  0.16136628112E+03  0.16143471338E+03  0.47000000000E+01 0. -1.
          5   -1    0    0  501    0  0.00000000000E+00 -0.00000000000E+00 -0.29306183879E+03  0.29309952466E+03  0.47000000000E+01 0. -1.
         25    2    1    2    0    0 -0.10333758386E+03 -0.13302399656E+03 -0.56865472755E+01  0.20983711316E+03  0.12500094936E+03 0.  0.
         25    2    1    2    0    0  0.10333758386E+03  0.13302399656E+03 -0.12600901040E+03  0.24469712488E+03  0.12499748927E+03 0.  0.
          5    1    4    4  502    0  0.67189594087E+02  0.43483025620E+02 -0.12441421101E+03  0.14800743553E+03  0.47000000000E+01 0.  1.
         -5    1    4    4    0  502  0.36147989769E+02  0.89540970942E+02 -0.15947993865E+01  0.96689689351E+02  0.47000000000E+01 0.  1.
          5    1    3    3  503    0 -0.78932537119E+01  0.22496491024E+02 -0.12194418995E+02  0.27188038127E+02  0.47000000000E+01 0. -1.
         -5    1    3    3    0  503 -0.95444330144E+02 -0.15552048759E+03  0.65078717195E+01  0.18264907503E+03  0.47000000000E+01 0. -1.
<mgrwt>
<rscale>  0 0.20975953E+03</rscale>
<asrwt>0</asrwt>
<pdfrwt beam="2">  1        5 0.45094600E-01 0.20976005E+03</pdfrwt>
<pdfrwt beam="1">  1       -5 0.24833745E-01 0.20976005E+03</pdfrwt>
<totfact> 0.59128632E+01</totfact>
</mgrwt>
</event>
<event>
 8    1  0.3674342E-007  0.1451996E+03  0.7546771E-02  0.1206502E+00
          5   -1    0    0  501    0  0.00000000000E+00  0.00000000000E+00  0.31510645242E+02  0.31859233569E+02  0.47000000000E+01 0. -1.
         -5   -1    0    0    0  501 -0.00000000000E+00 -0.00000000000E+00 -0.67124919591E+03  0.67126565010E+03  0.47000000000E+01 0. -1.
         25    2    1    2    0    0 -0.72527075897E+02 -0.14020929767E+02 -0.35381061218E+03  0.38244170472E+03  0.12499177977E+03 0.  0.
         25    2    1    2    0    0  0.72527075897E+02  0.14020929767E+02 -0.28592793848E+03  0.32068317895E+03  0.12500460809E+03 0.  0.
          5    1    4    4  502    0  0.23791508665E+02  0.56625689488E+02 -0.61445676125E+02  0.87006699219E+02  0.47000000000E+01 0. -1.
         -5    1    4    4    0  502  0.48735567233E+02 -0.42604759720E+02 -0.22448226236E+03  0.23367647973E+03  0.47000000000E+01 0. -1.
          5    1    3    3  503    0 -0.66088329290E+01  0.35674864797E+02 -0.27365048542E+02  0.45687071833E+02  0.47000000000E+01 0. -1.
         -5    1    3    3    0  503 -0.65918242969E+02 -0.49695794564E+02 -0.32644556364E+03  0.33675463289E+03  0.47000000000E+01 0. -1.
<mgrwt>
<rscale>  0 0.14519681E+03</rscale>
<asrwt>0</asrwt>
<pdfrwt beam="1">  1        5 0.48758722E-02 0.14519957E+03</pdfrwt>
<pdfrwt beam="2">  1       -5 0.10329718E+00 0.14519957E+03</pdfrwt>
<totfact> 0.14692025E+02</totfact>
</mgrwt>
</event>
<event>
 8    1  0.3674342E-007  0.1341525E+03  0.7546771E-02  0.1221429E+00
          5   -1    0    0  501    0  0.00000000000E+00  0.00000000000E+00  0.65924626995E+03  0.65926302371E+03  0.47000000000E+01 0.  1.
         -5   -1    0    0    0  501 -0.00000000000E+00 -0.00000000000E+00 -0.40129915362E+02  0.40404209026E+02  0.47000000000E+01 0.  1.
         25    2    1    2    0    0  0.47964101614E+02 -0.80951217367E+01  0.11092411356E+03  0.17407201254E+03  0.12502328000E+03 0.  0.
         25    2    1    2    0    0 -0.47964101614E+02  0.80951217367E+01  0.50819224103E+03  0.52559522020E+03  0.12499958247E+03 0.  0.
          5    1    4    4  502    0 -0.62749243794E+01 -0.92049821848E+01 -0.29472556729E+01  0.12445187383E+02  0.47000000000E+01 0. -1.
         -5    1    4    4    0  502 -0.41689177235E+02  0.17300103922E+02  0.51113949670E+03  0.51315003282E+03  0.47000000000E+01 0. -1.
          5    1    3    3  503    0  0.33209080549E+02 -0.65960621406E+02  0.55969852264E+02  0.92781253331E+02  0.47000000000E+01 0. -1.
         -5    1    3    3    0  503  0.14755021065E+02  0.57865499669E+02  0.54954261293E+02  0.81290759210E+02  0.47000000000E+01 0. -1.
<mgrwt>
<rscale>  0 0.13414703E+03</rscale>
<asrwt>0</asrwt>
<pdfrwt beam="1">  1        5 0.10144489E+00 0.13415255E+03</pdfrwt>
<pdfrwt beam="2">  1       -5 0.61962216E-02 0.13415255E+03</pdfrwt>
<totfact> 0.10033786E+02</totfact>
</mgrwt>
</event>
<event>
 8    1  0.3674342E-007  0.1501740E+03  0.7546771E-02  0.1200261E+00
         -5   -1    0    0    0  501 -0.00000000000E+00  0.00000000000E+00  0.86300357588E+02  0.86428246077E+02  0.47000000000E+01 0.  1.
          5   -1    0    0  501    0  0.00000000000E+00 -0.00000000000E+00 -0.29701432457E+03  0.29705150900E+03  0.47000000000E+01 0.  1.
         25    2    1    2    0    0 -0.79946510673E+02 -0.23113198174E+02 -0.38584375111E+02  0.15505152273E+03  0.12500622464E+03 0.  0.
         25    2    1    2    0    0  0.79946510673E+02  0.23113198174E+02 -0.17212959187E+03  0.22842823235E+03  0.12500078574E+03 0.  0.
          5    1    3    3  502    0 -0.80287427140E+02  0.35321639902E+02 -0.61541309717E+01  0.88054826842E+02  0.47000000000E+01 0. -1.
         -5    1    3    3    0  502  0.34091646692E+00 -0.58434838077E+02 -0.32430244139E+02  0.66996695889E+02  0.47000000000E+01 0. -1.
          5    1    4    4  503    0  0.78742154015E+01  0.35259907325E+02  0.49809533396E+01  0.36771785773E+02  0.47000000000E+01 0. -1.
         -5    1    4    4    0  503  0.72072295271E+02 -0.12146709150E+02 -0.17711054521E+03  0.19165644657E+03  0.47000000000E+01 0. -1.
<mgrwt>
<rscale>  0 0.15017284E+03</rscale>
<asrwt>0</asrwt>
<pdfrwt beam="2">  1        5 0.45707209E-01 0.15017397E+03</pdfrwt>
<pdfrwt beam="1">  1       -5 0.13289676E-01 0.15017397E+03</pdfrwt>
<totfact> 0.16652006E+02</totfact>
</mgrwt>
</event>
<event>
 8    1  0.3674342E-007  0.1864245E+03  0.7546771E-02  0.1161727E+00
         -5   -1    0    0    0  501 -0.00000000000E+00  0.00000000000E+00  0.49202773146E+02  0.49426742612E+02  0.47000000000E+01 0. -1.
          5   -1    0    0  501    0  0.00000000000E+00 -0.00000000000E+00 -0.70490775349E+03  0.70492342203E+03  0.47000000000E+01 0. -1.
         25    2    1    2    0    0 -0.13545957529E+03 -0.27889397058E+02 -0.33704453689E+03  0.38516378148E+03  0.12500001486E+03 0.  0.
         25    2    1    2    0    0  0.13545957529E+03  0.27889397058E+02 -0.31866044345E+03  0.36918638316E+03  0.12500796888E+03 0.  0.
          5    1    3    3  502    0 -0.42909273893E+02  0.46712141248E+02 -0.15668661315E+03  0.16910356196E+03  0.47000000000E+01 0. -1.
         -5    1    3    3    0  502 -0.92550301397E+02 -0.74601538306E+02 -0.18035792373E+03  0.21606021952E+03  0.47000000000E+01 0. -1.
          5    1    4    4  503    0  0.11432855198E+03 -0.19728619856E+02 -0.13423348821E+03  0.17748508556E+03  0.47000000000E+01 0.  1.
         -5    1    4    4    0  503  0.21131023312E+02  0.47618016914E+02 -0.18442695525E+03  0.19170129760E+03  0.47000000000E+01 0.  1.
<mgrwt>
<rscale>  0 0.18642320E+03</rscale>
<asrwt>0</asrwt>
<pdfrwt beam="2">  1        5 0.10846577E+00 0.18642454E+03</pdfrwt>
<pdfrwt beam="1">  1       -5 0.75880916E-02 0.18642454E+03</pdfrwt>
<totfact> 0.66435069E+01</totfact>
</mgrwt>
</event>
<event>
 8    1  0.3674342E-007  0.1625067E+03  0.7546771E-02  0.1185898E+00
         -5   -1    0    0    0  501 -0.00000000000E+00  0.00000000000E+00  0.33742442672E+02  0.34068202733E+02  0.47000000000E+01 0.  1.
          5   -1    0    0  501    0  0.00000000000E+00 -0.00000000000E+00 -0.77867015309E+03  0.77868433740E+03  0.47000000000E+01 0.  1.
         25    2    1    2    0    0 -0.25008084452E+02 -0.10078994276E+03 -0.37838845927E+03  0.41180852799E+03  0.12499768304E+03 0.  0.
         25    2    1    2    0    0  0.25008084452E+02  0.10078994276E+03 -0.36653925115E+03  0.40094401214E+03  0.12498424458E+03 0.  0.
          5    1    4    4  502    0  0.13473564420E+01  0.12684840217E+03 -0.28251740686E+03  0.30972650465E+03  0.47000000000E+01 0.  1.
         -5    1    4    4    0  502  0.23660728010E+02 -0.26058459406E+02 -0.84021844288E+02  0.91217507498E+02  0.47000000000E+01 0.  1.
          5    1    3    3  503    0 -0.53460327294E+02 -0.91436884018E+02 -0.36228559757E+03  0.37748066779E+03  0.47000000000E+01 0.  1.
         -5    1    3    3    0  503  0.28452242842E+02 -0.93530587446E+01 -0.16102861705E+02  0.34327860197E+02  0.47000000000E+01 0.  1.
<mgrwt>
<rscale>  0 0.16250415E+03</rscale>
<asrwt>0</asrwt>
<pdfrwt beam="2">  1        5 0.11982154E+00 0.16250673E+03</pdfrwt>
<pdfrwt beam="1">  1       -5 0.52172952E-02 0.16250673E+03</pdfrwt>
<totfact> 0.93764677E+01</totfact>
</mgrwt>
</event>
<event>
 8    1  0.3674342E-007  0.1388040E+03  0.7546771E-02  0.1214948E+00
         -5   -1    0    0    0  501 -0.00000000000E+00  0.00000000000E+00  0.38317716972E+02  0.38604888731E+02  0.47000000000E+01 0. -1.
          5   -1    0    0  501    0  0.00000000000E+00 -0.00000000000E+00 -0.50087550298E+03  0.50089755388E+03  0.47000000000E+01 0. -1.
         25    2    1    2    0    0 -0.45982293212E+02  0.39080233250E+02 -0.22526017671E+03  0.26459157370E+03  0.12499967097E+03 0.  0.
         25    2    1    2    0    0  0.45982293212E+02 -0.39080233250E+02 -0.23729760930E+03  0.27491086891E+03  0.12499677814E+03 0.  0.
          5    1    4    4  502    0 -0.79240714155E+01  0.40931143458E+02 -0.64371557247E+02  0.76837079558E+02  0.47000000000E+01 0. -1.
         -5    1    4    4    0  502  0.53906364627E+02 -0.80011376708E+02 -0.17292605205E+03  0.19807378935E+03  0.47000000000E+01 0. -1.
          5    1    3    3  503    0  0.43544078644E+01  0.59859537024E+02 -0.19057088899E+03  0.19985364337E+03  0.47000000000E+01 0. -1.
         -5    1    3    3    0  503 -0.50336701076E+02 -0.20779303774E+02 -0.34689287720E+02  0.64737930328E+02  0.47000000000E+01 0. -1.
<mgrwt>
<rscale>  0 0.13880336E+03</rscale>
<asrwt>0</asrwt>
<pdfrwt beam="2">  1        5 0.77081551E-01 0.13880401E+03</pdfrwt>
<pdfrwt beam="1">  1       -5 0.59188201E-02 0.13880401E+03</pdfrwt>
<totfact> 0.20976549E+02</totfact>
</mgrwt>
</event>
<event>
 8    1  0.3674342E-007  0.1440110E+03  0.7546771E-02  0.1208037E+00
          5   -1    0    0  501    0  0.00000000000E+00  0.00000000000E+00  0.21871547692E+02  0.22370842596E+02  0.47000000000E+01 0.  1.
         -5   -1    0    0    0  501 -0.00000000000E+00 -0.00000000000E+00 -0.93796522774E+03  0.93797700316E+03  0.47000000000E+01 0.  1.
         25    2    1    2    0    0 -0.14560529919E+02  0.70000019513E+02 -0.47424741838E+03  0.49563068522E+03  0.12500860182E+03 0.  0.
         25    2    1    2    0    0  0.14560529919E+02 -0.70000019513E+02 -0.44184626167E+03  0.46471716054E+03  0.12498763370E+03 0.  0.
          5    1    3    3  502    0 -0.94210551758E+01  0.91942762050E+02 -0.19948885771E+03  0.21990934979E+03  0.47000000000E+01 0.  1.
         -5    1    3    3    0  502 -0.51394747436E+01 -0.21942742537E+02 -0.27475856067E+03  0.27572133543E+03  0.47000000000E+01 0.  1.
          5    1    4    4  503    0  0.45032861628E+02 -0.55991364253E+02 -0.41581220738E+03  0.42200103472E+03  0.47000000000E+01 0.  1.
         -5    1    4    4    0  503 -0.30472331708E+02 -0.14008655260E+02 -0.26034054292E+02  0.42716125817E+02  0.47000000000E+01 0.  1.
<mgrwt>
<rscale>  0 0.14400643E+03</rscale>
<asrwt>0</asrwt>
<pdfrwt beam="1">  1        5 0.34041673E-02 0.14401098E+03</pdfrwt>
<pdfrwt beam="2">  1       -5 0.14434162E+00 0.14401098E+03</pdfrwt>
<totfact> 0.11207719E+02</totfact>
</mgrwt>
</event>
<event>
 8    1  0.3674342E-007  0.1288731E+03  0.7546771E-02  0.1229146E+00
         -5   -1    0    0    0  501 -0.00000000000E+00  0.00000000000E+00  0.19628799175E+04  0.19628855444E+04  0.47000000000E+01 0. -1.
          5   -1    0    0  501    0  0.00000000000E+00 -0.00000000000E+00 -0.87756482238E+01  0.99549988321E+01  0.47000000000E+01 0. -1.
         25    2    1    2    0    0 -0.28031150291E+02 -0.13888592299E+02  0.12847394440E+04  0.12911869375E+04  0.12501851985E+03 0.  0.
         25    2    1    2    0    0  0.28031150291E+02  0.13888592299E+02  0.66936482527E+03  0.68165360572E+03  0.12499492190E+03 0.  0.
          5    1    4    4  502    0  0.25478065998E+02  0.50557366334E+02  0.14133150610E+03  0.15232158007E+03  0.47000000000E+01 0. -1.
         -5    1    4    4    0  502  0.25530842925E+01 -0.36668774035E+02  0.52803331917E+03  0.52933202565E+03  0.47000000000E+01 0. -1.
          5    1    3    3  503    0  0.12351033786E+02 -0.15406576002E+02  0.11558722210E+04  0.11560504280E+04  0.47000000000E+01 0.  1.
         -5    1    3    3    0  503 -0.40382184077E+02  0.15179837027E+01  0.12886722293E+03  0.13513650954E+03  0.47000000000E+01 0.  1.
<mgrwt>
<rscale>  0 0.12886735E+03</rscale>
<asrwt>0</asrwt>
<pdfrwt beam="2">  1        5 0.14412510E-02 0.12887307E+03</pdfrwt>
<pdfrwt beam="1">  1       -5 0.30207285E+00 0.12887307E+03</pdfrwt>
<totfact> 0.37170617E+01</totfact>
</mgrwt>
</event>
<event>
 8    1  0.3674342E-007  0.1327827E+03  0.7546771E-02  0.1223395E+00
          5   -1    0    0  501    0  0.00000000000E+00  0.00000000000E+00  0.10841490399E+02  0.11816425604E+02  0.47000000000E+01 0.  1.
         -5   -1    0    0    0  501 -0.00000000000E+00 -0.00000000000E+00 -0.16365750412E+04  0.16365817900E+04  0.47000000000E+01 0.  1.
         25    2    1    2    0    0  0.33418595256E+02 -0.29667152128E+02 -0.99678495090E+03  0.10055859637E+04  0.12500379883E+03 0.  0.
         25    2    1    2    0    0 -0.33418595256E+02  0.29667152128E+02 -0.62894859990E+03  0.64281225189E+03  0.12503722422E+03 0.  0.
          5    1    3    3  502    0 -0.67238956864E+01  0.44560503404E+02 -0.25416696989E+03  0.25817394877E+03  0.47000000000E+01 0. -1.
         -5    1    3    3    0  502  0.40142490942E+02 -0.74227655532E+02 -0.74261798101E+03  0.74741201498E+03  0.47000000000E+01 0. -1.
          5    1    4    4  503    0 -0.31868736600E+02 -0.13277667408E+02 -0.43334127238E+02  0.55604400975E+02  0.47000000000E+01 0. -1.
         -5    1    4    4    0  503 -0.15498586551E+01  0.42944819535E+02 -0.58561447266E+03  0.58720785092E+03  0.47000000000E+01 0. -1.
<mgrwt>
<rscale>  0 0.13277485E+03</rscale>
<asrwt>0</asrwt>
<pdfrwt beam="1">  1        5 0.17434371E-02 0.13278272E+03</pdfrwt>
<pdfrwt beam="2">  1       -5 0.25185610E+00 0.13278272E+03</pdfrwt>
<totfact> 0.57509487E+01</totfact>
</mgrwt>
</event>
<event>
 8    1  0.3674342E-007  0.1450903E+03  0.7546771E-02  0.1206641E+00
          5   -1    0    0  501    0  0.00000000000E+00  0.00000000000E+00  0.15971822590E+03  0.15978736397E+03  0.47000000000E+01 0. -1.
         -5   -1    0    0    0  501 -0.00000000000E+00 -0.00000000000E+00 -0.13459907438E+03  0.13468110789E+03  0.47000000000E+01 0. -1.
         25    2    1    2    0    0 -0.52723709886E+02  0.51421182245E+02 -0.91974112364E+01  0.14538154935E+03  0.12500909947E+03 0.  0.
         25    2    1    2    0    0  0.52723709886E+02 -0.51421182245E+02  0.34316562757E+02  0.14908692250E+03  0.12500142565E+03 0.  0.
          5    1    3    3  502    0 -0.73611521453E+02  0.79304425478E+02 -0.16276311401E+02  0.10952103133E+03  0.47000000000E+01 0.  1.
         -5    1    3    3    0  502  0.20887811567E+02 -0.27883243233E+02  0.70789001643E+01  0.35860518022E+02  0.47000000000E+01 0.  1.
          5    1    4    4  503    0  0.79585938478E+02 -0.71382445002E+02  0.10051266083E+02  0.10748252420E+03  0.47000000000E+01 0. -1.
         -5    1    4    4    0  503 -0.26862228592E+02  0.19961262757E+02  0.24265296673E+02  0.41604398306E+02  0.47000000000E+01 0. -1.
<mgrwt>
<rscale>  0 0.14508867E+03</rscale>
<asrwt>0</asrwt>
<pdfrwt beam="1">  1        5 0.24583663E-01 0.14509033E+03</pdfrwt>
<pdfrwt beam="2">  1       -5 0.20719178E-01 0.14509033E+03</pdfrwt>
<totfact> 0.25191515E+02</totfact>
</mgrwt>
</event>
<event>
 8    1  0.3674342E-007  0.1422190E+03  0.7546771E-02  0.1210394E+00
          5   -1    0    0  501    0  0.00000000000E+00  0.00000000000E+00  0.27846483231E+02  0.28240336902E+02  0.47000000000E+01 0. -1.
         -5   -1    0    0    0  501 -0.00000000000E+00 -0.00000000000E+00 -0.72338703799E+03  0.72340230628E+03  0.47000000000E+01 0. -1.
         25    2    1    2    0    0 -0.59869232019E+02 -0.31891154998E+02 -0.32427242595E+03  0.35408877606E+03  0.12499953755E+03 0.  0.
         25    2    1    2    0    0  0.59869232019E+02  0.31891154998E+02 -0.37126812881E+03  0.39755386713E+03  0.12493071315E+03 0.  0.
          5    1    3    3  502    0 -0.19581191905E+02 -0.75283960537E+02 -0.13690297411E+03  0.15752971818E+03  0.47000000000E+01 0.  1.
         -5    1    3    3    0  502 -0.40288040114E+02  0.43392805539E+02 -0.18736945184E+03  0.19655905788E+03  0.47000000000E+01 0.  1.
          5    1    4    4  503    0  0.55041532513E+01 -0.45695798984E+02 -0.10010968728E+03  0.11028345857E+03  0.47000000000E+01 0.  1.
         -5    1    4    4    0  503  0.54365078768E+02  0.77586953982E+02 -0.27115844153E+03  0.28727040856E+03  0.47000000000E+01 0.  1.
<mgrwt>
<rscale>  0 0.14220391E+03</rscale>
<asrwt>0</asrwt>
<pdfrwt beam="1">  1        5 0.43155458E-02 0.14221904E+03</pdfrwt>
<pdfrwt beam="2">  1       -5 0.11132177E+00 0.14221904E+03</pdfrwt>
<totfact> 0.14837448E+02</totfact>
</mgrwt>
</event>
<event>
 8    1  0.3674342E-007  0.1806024E+03  0.7546771E-02  0.1167222E+00
          5   -1    0    0  501    0  0.00000000000E+00  0.00000000000E+00  0.76163571554E+02  0.76308450593E+02  0.47000000000E+01 0. -1.
         -5   -1    0    0    0  501 -0.00000000000E+00 -0.00000000000E+00 -0.54175145258E+03  0.54177183977E+03  0.47000000000E+01 0. -1.
         25    2    1    2    0    0  0.93339820392E+02 -0.90987316343E+02 -0.37457745514E+03  0.41584245403E+03  0.12500265143E+03 0.  0.
         25    2    1    2    0    0 -0.93339820392E+02  0.90987316343E+02 -0.91010425881E+02  0.20223783634E+03  0.12500492399E+03 0.  0.
          5    1    4    4  502    0  0.23196344618E+02  0.35644291095E+02  0.24594812136E+01  0.42857029052E+02  0.47000000000E+01 0. -1.
         -5    1    4    4    0  502 -0.11653616501E+03  0.55343025248E+02 -0.93469907095E+02  0.15938080729E+03  0.47000000000E+01 0. -1.
          5    1    3    3  503    0  0.43760460329E+02  0.16034930931E+02 -0.41914140907E+02  0.62856838181E+02  0.47000000000E+01 0. -1.
         -5    1    3    3    0  503  0.49579360063E+02 -0.10702224727E+03 -0.33266331423E+03  0.35298561584E+03  0.47000000000E+01 0. -1.
<mgrwt>
<rscale>  0 0.18060206E+03</rscale>
<asrwt>0</asrwt>
<pdfrwt beam="1">  1        5 0.11730186E-01 0.18060245E+03</pdfrwt>
<pdfrwt beam="2">  1       -5 0.83359088E-01 0.18060245E+03</pdfrwt>
<totfact> 0.58224295E+01</totfact>
</mgrwt>
</event>
<event>
 8    1  0.3674342E-007  0.1649587E+03  0.7546771E-02  0.1183211E+00
          5   -1    0    0  501    0  0.00000000000E+00  0.00000000000E+00  0.21511528642E+03  0.21516662486E+03  0.47000000000E+01 0.  1.
         -5   -1    0    0    0  501 -0.00000000000E+00 -0.00000000000E+00 -0.17380097057E+03  0.17386450866E+03  0.47000000000E+01 0.  1.
         25    2    1    2    0    0 -0.91439532789E+02  0.56779090173E+02 -0.80908024479E+02  0.18372730126E+03  0.12499823824E+03 0.  0.
         25    2    1    2    0    0  0.91439532789E+02 -0.56779090173E+02  0.12222234033E+03  0.20530383226E+03  0.12500523921E+03 0.  0.
          5    1    4    4  502    0  0.19522123979E+02  0.18330910263E+02 -0.16549575421E+02  0.31829452436E+02  0.47000000000E+01 0.  1.
         -5    1    4    4    0  502  0.71917408810E+02 -0.75110000436E+02  0.13877191575E+03  0.17347437983E+03  0.47000000000E+01 0.  1.
          5    1    3    3  503    0 -0.68053614670E+02  0.19792872102E+02 -0.11002206906E+03  0.13095800066E+03  0.47000000000E+01 0.  1.
         -5    1    3    3    0  503 -0.23385918119E+02  0.36986218071E+02  0.29114044584E+02  0.52769300597E+02  0.47000000000E+01 0.  1.
<mgrwt>
<rscale>  0 0.16495734E+03</rscale>
<asrwt>0</asrwt>
<pdfrwt beam="1">  1        5 0.33103496E-01 0.16495867E+03</pdfrwt>
<pdfrwt beam="2">  1       -5 0.26747448E-01 0.16495867E+03</pdfrwt>
<totfact> 0.90179965E+01</totfact>
</mgrwt>
</event>
<event>
 8    1  0.3674342E-007  0.1360647E+03  0.7546771E-02  0.1218725E+00
         -5   -1    0    0    0  501 -0.00000000000E+00  0.00000000000E+00  0.98143681989E+03  0.98144807374E+03  0.47000000000E+01 0.  1.
          5   -1    0    0  501    0  0.00000000000E+00 -0.00000000000E+00 -0.25457929766E+02  0.25888147635E+02  0.47000000000E+01 0.  1.
         25    2    1    2    0    0  0.52455833607E+02 -0.11669420801E+02  0.73754370754E+03  0.74998909430E+03  0.12500052467E+03 0.  0.
         25    2    1    2    0    0 -0.52455833607E+02  0.11669420801E+02  0.21843518259E+03  0.25734712707E+03  0.12500329980E+03 0.  0.
          5    1    4    4  502    0 -0.58862938861E+02  0.23541739663E+02  0.23021502763E+03  0.23883070997E+03  0.47000000000E+01 0. -1.
         -5    1    4    4    0  502  0.64071052540E+01 -0.11872318862E+02 -0.11779845049E+02  0.18516417101E+02  0.47000000000E+01 0. -1.
          5    1    3    3  503    0 -0.39865025921E+02 -0.15711713137E+02  0.26289872829E+03  0.26640928955E+03  0.47000000000E+01 0. -1.
         -5    1    3    3    0  503  0.92320859528E+02  0.40422923364E+01  0.47464497925E+03  0.48357980475E+03  0.47000000000E+01 0. -1.
<mgrwt>
<rscale>  0 0.13606411E+03</rscale>
<asrwt>0</asrwt>
<pdfrwt beam="2">  1        5 0.39505645E-02 0.13606474E+03</pdfrwt>
<pdfrwt beam="1">  1       -5 0.15102422E+00 0.13606474E+03</pdfrwt>
<totfact> 0.76402647E+01</totfact>
</mgrwt>
</event>
<event>
 8    1  0.3674342E-007  0.1373527E+03  0.7546771E-02  0.1216936E+00
         -5   -1    0    0    0  501 -0.00000000000E+00  0.00000000000E+00  0.83790501849E+03  0.83791820007E+03  0.47000000000E+01 0.  1.
          5   -1    0    0  501    0  0.00000000000E+00 -0.00000000000E+00 -0.22274208635E+02  0.22764673736E+02  0.47000000000E+01 0.  1.
         25    2    1    2    0    0 -0.34528948624E+02  0.45261800431E+02  0.39579879188E+03  0.41895366656E+03  0.12499844877E+03 0.  0.
         25    2    1    2    0    0  0.34528948624E+02 -0.45261800431E+02  0.41983201797E+03  0.44172920725E+03  0.12499956140E+03 0.  0.
          5    1    3    3  502    0 -0.25391696660E+01 -0.26481293776E+02  0.26452125960E+03  0.26589714757E+03  0.47000000000E+01 0. -1.
         -5    1    3    3    0  502 -0.31989778958E+02  0.71743094207E+02  0.13127753228E+03  0.15305651899E+03  0.47000000000E+01 0. -1.
          5    1    4    4  503    0 -0.29906714470E+02 -0.24406230071E+02  0.31125443248E+03  0.31367417391E+03  0.47000000000E+01 0.  1.
         -5    1    4    4    0  503  0.64435663094E+02 -0.20855570360E+02  0.10857758549E+03  0.12805503334E+03  0.47000000000E+01 0.  1.
<mgrwt>
<rscale>  0 0.13735247E+03</rscale>
<asrwt>0</asrwt>
<pdfrwt beam="2">  1        5 0.34655430E-02 0.13735272E+03</pdfrwt>
<pdfrwt beam="1">  1       -5 0.12894722E+00 0.13735272E+03</pdfrwt>
<totfact> 0.14454532E+02</totfact>
</mgrwt>
</event>
<event>
 8    1  0.3674342E-007  0.1273548E+03  0.7546771E-02  0.1231438E+00
         -5   -1    0    0    0  501 -0.00000000000E+00  0.00000000000E+00  0.24928781201E+03  0.24933211429E+03  0.47000000000E+01 0.  1.
          5   -1    0    0  501    0  0.00000000000E+00 -0.00000000000E+00 -0.65739310231E+02  0.65907108188E+02  0.47000000000E+01 0.  1.
         25    2    1    2    0    0  0.83663712378E+01 -0.22863389210E+02  0.10931294454E+03  0.16782765025E+03  0.12499627839E+03 0.  0.
         25    2    1    2    0    0 -0.83663712378E+01  0.22863389210E+02  0.74235557240E+02  0.14741157222E+03  0.12500609158E+03 0.  0.
          5    1    3    3  502    0  0.23597072393E+02  0.39451969048E+02  0.89158902693E+02  0.10042250553E+03  0.47000000000E+01 0. -1.
         -5    1    3    3    0  502 -0.15230701155E+02 -0.62315358258E+02  0.20154041845E+02  0.67405144724E+02  0.47000000000E+01 0. -1.
          5    1    4    4  503    0  0.17953798237E+02 -0.47857732849E+02  0.35925006221E+02  0.62652993038E+02  0.47000000000E+01 0.  1.
         -5    1    4    4    0  503 -0.26320169475E+02  0.70721122059E+02  0.38310551018E+02  0.84758579187E+02  0.47000000000E+01 0.  1.
<mgrwt>
<rscale>  0 0.12735243E+03</rscale>
<asrwt>0</asrwt>
<pdfrwt beam="2">  1        5 0.10130056E-01 0.12735483E+03</pdfrwt>
<pdfrwt beam="1">  1       -5 0.38368286E-01 0.12735483E+03</pdfrwt>
<totfact> 0.36471142E+02</totfact>
</mgrwt>
</event>
<event>
 8    1  0.3674342E-007  0.1317724E+03  0.7546771E-02  0.1224850E+00
          5   -1    0    0  501    0  0.00000000000E+00  0.00000000000E+00  0.21598789517E+02  0.22104246393E+02  0.47000000000E+01 0. -1.
         -5   -1    0    0    0  501 -0.00000000000E+00 -0.00000000000E+00 -0.83761477591E+03  0.83762796205E+03  0.47000000000E+01 0. -1.
         25    2    1    2    0    0 -0.30520097694E+02 -0.28413337471E+02 -0.50593802147E+03  0.52281664436E+03  0.12500067175E+03 0.  0.
         25    2    1    2    0    0  0.30520097694E+02  0.28413337471E+02 -0.31007796492E+03  0.33691556409E+03  0.12499983555E+03 0.  0.
          5    1    3    3  502    0 -0.62480908447E+02 -0.42922283649E+02 -0.18576455915E+03  0.20069067689E+03  0.47000000000E+01 0.  1.
         -5    1    3    3    0  502  0.31960810753E+02  0.14508946177E+02 -0.32017346232E+03  0.32212596747E+03  0.47000000000E+01 0.  1.
          5    1    4    4  503    0  0.28965984061E+02  0.58870947089E+02 -0.29560037108E+03  0.30283078778E+03  0.47000000000E+01 0. -1.
         -5    1    4    4    0  503  0.15541136327E+01 -0.30457609618E+02 -0.14477593838E+02  0.34084776311E+02  0.47000000000E+01 0. -1.
<mgrwt>
<rscale>  0 0.13177219E+03</rscale>
<asrwt>0</asrwt>
<pdfrwt beam="1">  1        5 0.33627870E-02 0.13177239E+03</pdfrwt>
<pdfrwt beam="2">  1       -5 0.12890368E+00 0.13177239E+03</pdfrwt>
<totfact> 0.14990424E+02</totfact>
</mgrwt>
</event>
<event>
 8    1  0.3674342E-007  0.1320308E+03  0.7546771E-02  0.1224476E+00
         -5   -1    0    0    0  501 -0.00000000000E+00  0.00000000000E+00  0.79041943260E+03  0.79043340607E+03  0.47000000000E+01 0. -1.
          5   -1    0    0  501    0  0.00000000000E+00 -0.00000000000E+00 -0.32703935585E+02  0.33039936482E+02  0.47000000000E+01 0. -1.
         25    2    1    2    0    0 -0.39325928782E+00 -0.42480241403E+02  0.61516651522E+03  0.62917369027E+03  0.12499986207E+03 0.  0.
         25    2    1    2    0    0  0.39325928782E+00  0.42480241403E+02  0.14254898179E+03  0.19429965228E+03  0.12500966804E+03 0.  0.
          5    1    4    4  502    0 -0.13949734691E+02 -0.41289941835E+02  0.29703601994E+02  0.52951377377E+02  0.47000000000E+01 0.  1.
         -5    1    4    4    0  502  0.14342993979E+02  0.83770183239E+02  0.11284537980E+03  0.14134827490E+03  0.47000000000E+01 0.  1.
          5    1    3    3  503    0 -0.36654156537E+02 -0.52168575252E+02  0.55093415953E+03  0.55463107159E+03  0.47000000000E+01 0. -1.
         -5    1    3    3    0  503  0.36260897250E+02  0.96883338491E+01  0.64232355686E+02  0.74542618676E+02  0.47000000000E+01 0. -1.
<mgrwt>
<rscale>  0 0.13202852E+03</rscale>
<asrwt>0</asrwt>
<pdfrwt beam="2">  1        5 0.50582961E-02 0.13203084E+03</pdfrwt>
<pdfrwt beam="1">  1       -5 0.12162990E+00 0.13203084E+03</pdfrwt>
<totfact> 0.89136239E+01</totfact>
</mgrwt>
</event>
<event>
 8    1  0.3674342E-007  0.2779774E+03  0.7546771E-02  0.1096799E+00
          5   -1    0    0  501    0  0.00000000000E+00  0.00000000000E+00  0.96937538240E+02  0.97051410706E+02  0.47000000000E+01 0. -1.
         -5   -1    0    0    0  501 -0.00000000000E+00 -0.00000000000E+00 -0.82659140265E+03  0.82660476465E+03  0.47000000000E+01 0. -1.
         25    2    1    2    0    0  0.24173850022E+03 -0.56643064743E+02 -0.45288977252E+03  0.53139491980E+03  0.12500190182E+03 0.  0.
         25    2    1    2    0    0 -0.24173850022E+03  0.56643064743E+02 -0.27676409189E+03  0.39226125555E+03  0.12499836309E+03 0.  0.
          5    1    4    4  502    0 -0.12189371943E+03 -0.14126981741E+02 -0.19595663519E+03  0.23125471524E+03  0.47000000000E+01 0.  1.
         -5    1    4    4    0  502 -0.11984478080E+03  0.70770046483E+02 -0.80807456700E+02  0.16100654031E+03  0.47000000000E+01 0.  1.
          5    1    3    3  503    0  0.17647860256E+03  0.19181314574E+02 -0.27873229627E+03  0.33049417994E+03  0.47000000000E+01 0. -1.
         -5    1    3    3    0  503  0.65259897668E+02 -0.75824379317E+02 -0.17415747625E+03  0.20090073986E+03  0.47000000000E+01 0. -1.
<mgrwt>
<rscale>  0 0.27797697E+03</rscale>
<asrwt>0</asrwt>
<pdfrwt beam="1">  1        5 0.14923255E-01 0.27797736E+03</pdfrwt>
<pdfrwt beam="2">  1       -5 0.12717769E+00 0.27797736E+03</pdfrwt>
<totfact> 0.14646129E+01</totfact>
</mgrwt>
</event>
<event>
 8    1  0.3674342E-007  0.1587903E+03  0.7546771E-02  0.1190074E+00
         -5   -1    0    0    0  501 -0.00000000000E+00  0.00000000000E+00  0.44432148094E+03  0.44434633837E+03  0.47000000000E+01 0. -1.
          5   -1    0    0  501    0  0.00000000000E+00 -0.00000000000E+00 -0.60184097582E+02  0.60367338866E+02  0.47000000000E+01 0. -1.
         25    2    1    2    0    0  0.24566033044E+02  0.94763003382E+02  0.25337882579E+03  0.29901445612E+03  0.12500119528E+03 0.  0.
         25    2    1    2    0    0 -0.24566033044E+02 -0.94763003382E+02  0.13075855756E+03  0.20569922111E+03  0.12502340741E+03 0.  0.
          5    1    3    3  502    0 -0.41049296088E+02 -0.22510159456E+01  0.59996829692E+02  0.72882243072E+02  0.47000000000E+01 0. -1.
         -5    1    3    3    0  502  0.65615329132E+02  0.97014019327E+02  0.19338199610E+03  0.22613221305E+03  0.47000000000E+01 0. -1.
          5    1    4    4  503    0  0.49178783535E+02 -0.46483941549E+02  0.38418658193E+02  0.77957635093E+02  0.47000000000E+01 0. -1.
         -5    1    4    4    0  503 -0.73744816578E+02 -0.48279061832E+02  0.92339899371E+02  0.12774158602E+03  0.47000000000E+01 0. -1.
<mgrwt>
<rscale>  0 0.15878596E+03</rscale>
<asrwt>0</asrwt>
<pdfrwt beam="2">  1        5 0.92751001E-02 0.15879033E+03</pdfrwt>
<pdfrwt beam="1">  1       -5 0.68373154E-01 0.15879033E+03</pdfrwt>
<totfact> 0.13360628E+02</totfact>
</mgrwt>
</event>
<event>
 8    1  0.3674342E-007  0.1309015E+03  0.7546771E-02  0.1226125E+00
         -5   -1    0    0    0  501 -0.00000000000E+00  0.00000000000E+00  0.42309325253E+03  0.42311935708E+03  0.47000000000E+01 0. -1.
          5   -1    0    0  501    0  0.00000000000E+00 -0.00000000000E+00 -0.42312703513E+02  0.42572935987E+02  0.47000000000E+01 0. -1.
         25    2    1    2    0    0 -0.36039096054E+02  0.14510700208E+02  0.24055449879E+03  0.27386281518E+03  0.12499999116E+03 0.  0.
         25    2    1    2    0    0  0.36039096054E+02 -0.14510700208E+02  0.14022605023E+03  0.19182947788E+03  0.12500330618E+03 0.  0.
          5    1    4    4  502    0 -0.28027503365E+02 -0.42865211135E+02  0.95815311269E+02  0.10874571782E+03  0.47000000000E+01 0. -1.
         -5    1    4    4    0  502  0.64066599419E+02  0.28354510927E+02  0.44410738963E+02  0.83083760064E+02  0.47000000000E+01 0. -1.
          5    1    3    3  503    0  0.25895937394E+02  0.25495734131E+02  0.14897466210E+02  0.39555739556E+02  0.47000000000E+01 0.  1.
         -5    1    3    3    0  503 -0.61935033448E+02 -0.10985033923E+02  0.22565703258E+03  0.23430707563E+03  0.47000000000E+01 0.  1.
<mgrwt>
<rscale>  0 0.13090071E+03</rscale>
<asrwt>0</asrwt>
<pdfrwt beam="2">  1        5 0.65316724E-02 0.13090150E+03</pdfrwt>
<pdfrwt beam="1">  1       -5 0.65113298E-01 0.13090150E+03</pdfrwt>
<totfact> 0.25493675E+02</totfact>
</mgrwt>
</event>
<event>
 8    1  0.3674342E-007  0.1339135E+03  0.7546771E-02  0.1221762E+00
         -5   -1    0    0    0  501 -0.00000000000E+00  0.00000000000E+00  0.11001719642E+04  0.11001820035E+04  0.47000000000E+01 0. -1.
          5   -1    0    0  501    0  0.00000000000E+00 -0.00000000000E+00 -0.16381100463E+02  0.17042020197E+02  0.47000000000E+01 0. -1.
         25    2    1    2    0    0 -0.46883679124E+02  0.10442983777E+02  0.63062828058E+03  0.64468974357E+03  0.12500280767E+03 0.  0.
         25    2    1    2    0    0  0.46883679124E+02 -0.10442983777E+02  0.45316258313E+03  0.47253428009E+03  0.12500073533E+03 0.  0.
          5    1    3    3  502    0 -0.41437144562E+02 -0.22623216712E+02  0.58960354635E+03  0.59150932263E+03  0.47000000000E+01 0.  1.
         -5    1    3    3    0  502 -0.54465345620E+01  0.33066200490E+02  0.41024734224E+02  0.53180420943E+02  0.47000000000E+01 0.  1.
          5    1    4    4  503    0  0.45457990744E+02  0.46826102353E+02  0.33254794992E+03  0.33892379937E+03  0.47000000000E+01 0.  1.
         -5    1    4    4    0  503  0.14256883797E+01 -0.57269086130E+02  0.12061463321E+03  0.13361048072E+03  0.47000000000E+01 0.  1.
<mgrwt>
<rscale>  0 0.13391306E+03</rscale>
<asrwt>0</asrwt>
<pdfrwt beam="2">  1        5 0.25717810E-02 0.13391354E+03</pdfrwt>
<pdfrwt beam="1">  1       -5 0.16930887E+00 0.13391354E+03</pdfrwt>
<totfact> 0.11069591E+02</totfact>
</mgrwt>
</event>
<event>
 8    1  0.3674342E-007  0.1261010E+03  0.7546771E-02  0.1233360E+00
          5   -1    0    0  501    0  0.00000000000E+00  0.00000000000E+00  0.32507116683E+03  0.32510514223E+03  0.47000000000E+01 0. -1.
         -5   -1    0    0    0  501 -0.00000000000E+00 -0.00000000000E+00 -0.55215722822E+02  0.55415395394E+02  0.47000000000E+01 0. -1.
         25    2    1    2    0    0  0.13724542472E+02 -0.92470773447E+01  0.70043744109E+02  0.14424488646E+03  0.12500635854E+03 0.  0.
         25    2    1    2    0    0 -0.13724542472E+02  0.92470773447E+01  0.19981169990E+03  0.23627565117E+03  0.12501038522E+03 0.  0.
          5    1    4    4  502    0 -0.19198743635E+02  0.65697837166E+02  0.97819500428E+02  0.11948030059E+03  0.47000000000E+01 0. -1.
         -5    1    4    4    0  502  0.54742011623E+01 -0.56450759821E+02  0.10199219947E+03  0.11679535057E+03  0.47000000000E+01 0. -1.
          5    1    3    3  503    0  0.56199358731E+02  0.23754867570E+02  0.66144956994E+02  0.90110526525E+02  0.47000000000E+01 0.  1.
         -5    1    3    3    0  503 -0.42474816258E+02 -0.33001944914E+02  0.38987871147E+01  0.54134359932E+02  0.47000000000E+01 0.  1.
<mgrwt>
<rscale>  0 0.12610002E+03</rscale>
<asrwt>0</asrwt>
<pdfrwt beam="1">  1        5 0.50028923E-01 0.12610102E+03</pdfrwt>
<pdfrwt beam="2">  1       -5 0.85126993E-02 0.12610102E+03</pdfrwt>
<totfact> 0.28345148E+02</totfact>
</mgrwt>
</event>
<event>
 8    1  0.3674342E-007  0.1602304E+03  0.7546771E-02  0.1188442E+00
          5   -1    0    0  501    0  0.00000000000E+00  0.00000000000E+00  0.94096187021E+03  0.94097360813E+03  0.47000000000E+01 0.  1.
         -5   -1    0    0    0  501 -0.00000000000E+00 -0.00000000000E+00 -0.27991905983E+02  0.28383741835E+02  0.47000000000E+01 0.  1.
         25    2    1    2    0    0  0.57130612420E+02 -0.82330195015E+02  0.36899166789E+03  0.40227166603E+03  0.12500189771E+03 0.  0.
         25    2    1    2    0    0 -0.57130612420E+02  0.82330195015E+02  0.54397829634E+03  0.56708568393E+03  0.12502646979E+03 0.  0.
          5    1    3    3  502    0 -0.17597213070E+02 -0.31163372034E+01  0.20206683062E+03  0.20290999853E+03  0.47000000000E+01 0.  1.
         -5    1    3    3    0  502  0.74727825490E+02 -0.79213857811E+02  0.16692483727E+03  0.19936166750E+03  0.47000000000E+01 0.  1.
          5    1    4    4  503    0 -0.58263486993E+02 -0.72969564772E+01  0.11960520946E+03  0.13332432494E+03  0.47000000000E+01 0.  1.
         -5    1    4    4    0  503  0.11328745734E+01  0.89627151492E+02  0.42437308688E+03  0.43376135900E+03  0.47000000000E+01 0.  1.
<mgrwt>
<rscale>  0 0.16022562E+03</rscale>
<asrwt>0</asrwt>
<pdfrwt beam="1">  1        5 0.14479441E+00 0.16023042E+03</pdfrwt>
<pdfrwt beam="2">  1       -5 0.43374913E-02 0.16023042E+03</pdfrwt>
<totfact> 0.77152255E+01</totfact>
</mgrwt>
</event>
<event>
 8    1  0.3674342E-007  0.1360147E+03  0.7546771E-02  0.1218802E+00
         -5   -1    0    0    0  501 -0.00000000000E+00  0.00000000000E+00  0.99594541450E+03  0.99595650441E+03  0.47000000000E+01 0. -1.
          5   -1    0    0  501    0  0.00000000000E+00 -0.00000000000E+00 -0.18341442883E+02  0.18934057331E+02  0.47000000000E+01 0. -1.
         25    2    1    2    0    0  0.41185008636E+02 -0.34297095014E+02  0.52138759641E+03  0.53883672023E+03  0.12500995846E+03 0.  0.
         25    2    1    2    0    0 -0.41185008636E+02  0.34297095014E+02  0.45621637521E+03  0.47605384151E+03  0.12498553254E+03 0.  0.
          5    1    3    3  502    0  0.62736729374E+02 -0.68502149193E+02  0.40484775124E+03  0.41539406994E+03  0.47000000000E+01 0. -1.
         -5    1    3    3    0  502 -0.21551720737E+02  0.34205054180E+02  0.11653984517E+03  0.12344265029E+03  0.47000000000E+01 0. -1.
          5    1    4    4  503    0 -0.61474416213E+02  0.58453513506E+02  0.19248413845E+03  0.21039997777E+03  0.47000000000E+01 0.  1.
         -5    1    4    4    0  503  0.20289407577E+02 -0.24156418492E+02  0.26373223676E+03  0.26565386374E+03  0.47000000000E+01 0.  1.
<mgrwt>
<rscale>  0 0.13600904E+03</rscale>
<asrwt>0</asrwt>
<pdfrwt beam="2">  1        5 0.28681987E-02 0.13601465E+03</pdfrwt>
<pdfrwt beam="1">  1       -5 0.15326884E+00 0.13601465E+03</pdfrwt>
<totfact> 0.12341616E+02</totfact>
</mgrwt>
</event>
<event>
 8    1  0.3674342E-007  0.1455638E+03  0.7546771E-02  0.1206038E+00
          5   -1    0    0  501    0  0.00000000000E+00  0.00000000000E+00  0.60196267176E+02  0.60379471527E+02  0.47000000000E+01 0. -1.
         -5   -1    0    0    0  501 -0.00000000000E+00 -0.00000000000E+00 -0.37219393245E+03  0.37222360666E+03  0.47000000000E+01 0. -1.
         25    2    1    2    0    0 -0.67563839109E+02 -0.31577468726E+02 -0.10467541694E+03  0.17929237292E+03  0.12500721255E+03 0.  0.
         25    2    1    2    0    0  0.67563839109E+02  0.31577468726E+02 -0.20732224833E+03  0.25331070527E+03  0.12498715879E+03 0.  0.
          5    1    3    3  502    0  0.27445713216E+02 -0.22939038127E+02 -0.67997126958E+02  0.76975099342E+02  0.47000000000E+01 0. -1.
         -5    1    3    3    0  502 -0.95009552324E+02 -0.86384305987E+01 -0.36678289982E+02  0.10231727358E+03  0.47000000000E+01 0. -1.
          5    1    4    4  503    0 -0.17598787860E+02  0.17837535415E+02 -0.14389302978E+03  0.14613414735E+03  0.47000000000E+01 0.  1.
         -5    1    4    4    0  503  0.85162626969E+02  0.13739933310E+02 -0.63429218556E+02  0.10717655791E+03  0.47000000000E+01 0.  1.
<mgrwt>
<rscale>  0 0.14555947E+03</rscale>
<asrwt>0</asrwt>
<pdfrwt beam="1">  1        5 0.92773397E-02 0.14556377E+03</pdfrwt>
<pdfrwt beam="2">  1       -5 0.57276979E-01 0.14556377E+03</pdfrwt>
<totfact> 0.19204716E+02</totfact>
</mgrwt>
</event>
<event>
 8    1  0.3674342E-007  0.1365149E+03  0.7546771E-02  0.1218098E+00
          5   -1    0    0  501    0  0.00000000000E+00  0.00000000000E+00  0.51099219372E+01  0.69427157658E+01  0.47000000000E+01 0.  1.
         -5   -1    0    0    0  501 -0.00000000000E+00 -0.00000000000E+00 -0.31223985449E+04  0.31224020822E+04  0.47000000000E+01 0.  1.
         25    2    1    2    0    0  0.11395740420E+02  0.53659106676E+02 -0.17165676975E+04  0.17219875080E+04  0.12500861859E+03 0.  0.
         25    2    1    2    0    0 -0.11395740420E+02 -0.53659106676E+02 -0.14007209254E+04  0.14073572900E+04  0.12500507306E+03 0.  0.
          5    1    4    4  502    0 -0.45677642733E+02 -0.31972014278E+02 -0.26217522981E+03  0.26807946185E+03  0.47000000000E+01 0. -1.
         -5    1    4    4    0  502  0.34281902313E+02 -0.21687092398E+02 -0.11385456956E+04  0.11392778282E+04  0.47000000000E+01 0. -1.
          5    1    3    3  503    0 -0.39287960514E+02  0.71559851917E+02 -0.94175308671E+03  0.94529642048E+03  0.47000000000E+01 0.  1.
         -5    1    3    3    0  503  0.50683700934E+02 -0.17900745241E+02 -0.77481461083E+03  0.77669108749E+03  0.47000000000E+01 0.  1.
<mgrwt>
<rscale>  0 0.13651409E+03</rscale>
<asrwt>0</asrwt>
<pdfrwt beam="1">  1        5 0.92740058E-03 0.13651490E+03</pdfrwt>
<pdfrwt beam="2">  1       -5 0.48050897E+00 0.13651490E+03</pdfrwt>
<totfact> 0.42666010E+00</totfact>
</mgrwt>
</event>
<event>
 8    1  0.3674342E-007  0.1542217E+03  0.7546771E-02  0.1195380E+00
          5   -1    0    0  501    0  0.00000000000E+00  0.00000000000E+00  0.58918597220E+02  0.59105761973E+02  0.47000000000E+01 0. -1.
         -5   -1    0    0    0  501 -0.00000000000E+00 -0.00000000000E+00 -0.40438980572E+03  0.40441711755E+03  0.47000000000E+01 0. -1.
         25    2    1    2    0    0  0.60626499613E+02  0.66952173260E+02 -0.18709705643E+03  0.24246575495E+03  0.12500467127E+03 0.  0.
         25    2    1    2    0    0 -0.60626499613E+02 -0.66952173260E+02 -0.15837415207E+03  0.22105712457E+03  0.12500285726E+03 0.  0.
          5    1    3    3  502    0  0.67466817652E+01  0.32142453041E+02 -0.17360598364E+03  0.17674779364E+03  0.47000000000E+01 0. -1.
         -5    1    3    3    0  502  0.53879817848E+02  0.34809720219E+02 -0.13491072790E+02  0.65717961305E+02  0.47000000000E+01 0. -1.
          5    1    4    4  503    0 -0.74451681396E+02  0.10181675231E+02 -0.85739200049E+02  0.11410530136E+03  0.47000000000E+01 0. -1.
         -5    1    4    4    0  503  0.13825181783E+02 -0.77133848491E+02 -0.72634952020E+02  0.10695182322E+03  0.47000000000E+01 0. -1.
<mgrwt>
<rscale>  0 0.15422134E+03</rscale>
<asrwt>0</asrwt>
<pdfrwt beam="1">  1        5 0.90808980E-02 0.15422170E+03</pdfrwt>
<pdfrwt beam="2">  1       -5 0.62230313E-01 0.15422170E+03</pdfrwt>
<totfact> 0.16936911E+02</totfact>
</mgrwt>
</event>
<event>
 8    1  0.3674342E-007  0.1406735E+03  0.7546771E-02  0.1212430E+00
         -5   -1    0    0    0  501 -0.00000000000E+00  0.00000000000E+00  0.53867308756E+02  0.54071960873E+02  0.47000000000E+01 0. -1.
          5   -1    0    0  501    0  0.00000000000E+00 -0.00000000000E+00 -0.36736856717E+03  0.36739863112E+03  0.47000000000E+01 0. -1.
         25    2    1    2    0    0 -0.49847930602E+02  0.40985504031E+02 -0.14602270359E+03  0.20275137666E+03  0.12498345110E+03 0.  0.
         25    2    1    2    0    0  0.49847930602E+02 -0.40985504031E+02 -0.16747855483E+03  0.21871921533E+03  0.12499760437E+03 0.  0.
          5    1    3    3  502    0  0.27304632065E+02  0.55119070964E+02 -0.71789327615E+02  0.94654384344E+02  0.47000000000E+01 0.  1.
         -5    1    3    3    0  502 -0.77152562667E+02 -0.14133566933E+02 -0.74233375971E+02  0.10809699232E+03  0.47000000000E+01 0.  1.
          5    1    4    4  503    0 -0.22784073191E+01  0.41970822828E+02 -0.44129177626E+02  0.61124589379E+02  0.47000000000E+01 0.  1.
         -5    1    4    4    0  503  0.52126337921E+02 -0.82956326859E+02 -0.12334937720E+03  0.15759462595E+03  0.47000000000E+01 0.  1.
<mgrwt>
<rscale>  0 0.14067034E+03</rscale>
<asrwt>0</asrwt>
<pdfrwt beam="2">  1        5 0.56536295E-01 0.14067348E+03</pdfrwt>
<pdfrwt beam="1">  1       -5 0.83053336E-02 0.14067348E+03</pdfrwt>
<totfact> 0.23648150E+02</totfact>
</mgrwt>
</event>
<event>
 8    1  0.3674342E-007  0.1258512E+03  0.7546771E-02  0.1233748E+00
          5   -1    0    0  501    0  0.00000000000E+00  0.00000000000E+00  0.13676195419E+03  0.13684269113E+03  0.47000000000E+01 0.  1.
         -5   -1    0    0    0  501 -0.00000000000E+00 -0.00000000000E+00 -0.12702100550E+03  0.12710792988E+03  0.47000000000E+01 0.  1.
         25    2    1    2    0    0 -0.14293336053E+02  0.27164455983E+01 -0.34606168857E+02  0.13051457219E+03  0.12499915239E+03 0.  0.
         25    2    1    2    0    0  0.14293336053E+02 -0.27164455983E+01  0.44347117550E+02  0.13343604882E+03  0.12500733482E+03 0.  0.
          5    1    3    3  502    0 -0.44782199931E+02 -0.42598229194E+02 -0.42464269228E+02  0.75135602228E+02  0.47000000000E+01 0.  1.
         -5    1    3    3    0  502  0.30488863879E+02  0.45314674793E+02  0.78581003706E+01  0.55378969958E+02  0.47000000000E+01 0.  1.
          5    1    4    4  503    0 -0.13200642939E+02  0.45829650347E+02  0.58561326272E+02  0.75671214868E+02  0.47000000000E+01 0.  1.
         -5    1    4    4    0  503  0.27493978991E+02 -0.48546095945E+02 -0.14214208722E+02  0.57764833955E+02  0.47000000000E+01 0.  1.
<mgrwt>
<rscale>  0 0.12584912E+03</rscale>
<asrwt>0</asrwt>
<pdfrwt beam="1">  1        5 0.21053198E-01 0.12585115E+03</pdfrwt>
<pdfrwt beam="2">  1       -5 0.19554590E-01 0.12585115E+03</pdfrwt>
<totfact> 0.35811091E+02</totfact>
</mgrwt>
</event>
<event>
 8    1  0.3674342E-007  0.1436542E+03  0.7546771E-02  0.1208497E+00
          5   -1    0    0  501    0  0.00000000000E+00  0.00000000000E+00  0.13886662214E+04  0.13886741751E+04  0.47000000000E+01 0.  1.
         -5   -1    0    0    0  501 -0.00000000000E+00 -0.00000000000E+00 -0.20357645152E+02  0.20893149981E+02  0.47000000000E+01 0.  1.
         25    2    1    2    0    0 -0.70524925096E+02 -0.61653009849E+01  0.31135701787E+03  0.34289897738E+03  0.12499896046E+03 0.  0.
         25    2    1    2    0    0  0.70524925096E+02  0.61653009849E+01  0.10569515584E+04  0.10666683476E+04  0.12499196424E+03 0.  0.
          5    1    4    4  502    0  0.39114875466E+02 -0.58933000966E+02  0.48683481021E+03  0.49196879425E+03  0.47000000000E+01 0. -1.
         -5    1    4    4    0  502  0.31410049630E+02  0.65098301951E+02  0.57011674816E+03  0.57469955340E+03  0.47000000000E+01 0. -1.
          5    1    3    3  503    0 -0.10315262910E+03 -0.19613727139E+02  0.25968690866E+03  0.28015093024E+03  0.47000000000E+01 0. -1.
         -5    1    3    3    0  503  0.32627704008E+02  0.13448426154E+02  0.51670109212E+02  0.62748047148E+02  0.47000000000E+01 0. -1.
<mgrwt>
<rscale>  0 0.14365263E+03</rscale>
<asrwt>0</asrwt>
<pdfrwt beam="1">  1        5 0.21368282E+00 0.14365415E+03</pdfrwt>
<pdfrwt beam="2">  1       -5 0.31737490E-02 0.14365415E+03</pdfrwt>
<totfact> 0.39711014E+01</totfact>
</mgrwt>
</event>
<event>
 8    1  0.3674342E-007  0.1284768E+03  0.7546771E-02  0.1229734E+00
         -5   -1    0    0    0  501 -0.00000000000E+00  0.00000000000E+00  0.82011988655E+02  0.82146553690E+02  0.47000000000E+01 0.  1.
          5   -1    0    0  501    0  0.00000000000E+00 -0.00000000000E+00 -0.20395475368E+03  0.20400890066E+03  0.47000000000E+01 0.  1.
         25    2    1    2    0    0  0.27202357185E+02  0.11895926280E+02 -0.43575379573E+02  0.13566381394E+03  0.12499750161E+03 0.  0.
         25    2    1    2    0    0 -0.27202357185E+02 -0.11895926280E+02 -0.78367385453E+02  0.15049164041E+03  0.12499922173E+03 0.  0.
          5    1    4    4  502    0  0.28681495314E+02 -0.24492878637E+02 -0.84531754209E+02  0.92683530074E+02  0.47000000000E+01 0. -1.
         -5    1    4    4    0  502 -0.55883852499E+02  0.12596952357E+02  0.61643687558E+01  0.57808110339E+02  0.47000000000E+01 0. -1.
          5    1    3    3  503    0 -0.21279666478E+01 -0.29005107267E+02 -0.71912763649E+02  0.77713319742E+02  0.47000000000E+01 0. -1.
         -5    1    3    3    0  503  0.29330323832E+02  0.40901033547E+02  0.28337384076E+02  0.57950494196E+02  0.47000000000E+01 0. -1.
<mgrwt>
<rscale>  0 0.12847638E+03</rscale>
<asrwt>0</asrwt>
<pdfrwt beam="2">  1        5 0.31392171E-01 0.12847679E+03</pdfrwt>
<pdfrwt beam="1">  1       -5 0.12631745E-01 0.12847679E+03</pdfrwt>
<totfact> 0.37054200E+02</totfact>
</mgrwt>
</event>
<event>
 8    1  0.3674342E-007  0.1255525E+03  0.7546771E-02  0.1234210E+00
          5   -1    0    0  501    0  0.00000000000E+00  0.00000000000E+00  0.55056853405E+03  0.55058859476E+03  0.47000000000E+01 0.  1.
         -5   -1    0    0    0  501 -0.00000000000E+00 -0.00000000000E+00 -0.28797817185E+02  0.29178832646E+02  0.47000000000E+01 0.  1.
         25    2    1    2    0    0 -0.84168089401E+01 -0.81854763205E+01  0.22774629242E+03  0.26005851671E+03  0.12499685480E+03 0.  0.
         25    2    1    2    0    0  0.84168089401E+01  0.81854763205E+01  0.29402442445E+03  0.31970891070E+03  0.12500232283E+03 0.  0.
          5    1    3    3  502    0  0.12251158835E+02  0.46323980995E+02  0.37505869171E+02  0.61030994833E+02  0.47000000000E+01 0. -1.
         -5    1    3    3    0  502 -0.20667967775E+02 -0.54509457316E+02  0.19024042325E+03  0.19902752188E+03  0.47000000000E+01 0. -1.
          5    1    4    4  503    0  0.87753581544E+01  0.63324783641E+02  0.20591145608E+03  0.21565864898E+03  0.47000000000E+01 0. -1.
         -5    1    4    4    0  503 -0.35854921432E+00 -0.55139307321E+02  0.88112968363E+02  0.10405026172E+03  0.47000000000E+01 0. -1.
<mgrwt>
<rscale>  0 0.12555112E+03</rscale>
<asrwt>0</asrwt>
<pdfrwt beam="1">  1        5 0.84733694E-01 0.12555248E+03</pdfrwt>
<pdfrwt beam="2">  1       -5 0.44612859E-02 0.12555248E+03</pdfrwt>
<totfact> 0.26035470E+02</totfact>
</mgrwt>
</event>
<event>
 8    1  0.3674342E-007  0.1551617E+03  0.7546771E-02  0.1194270E+00
         -5   -1    0    0    0  501 -0.00000000000E+00  0.00000000000E+00  0.35089584605E+02  0.35402951117E+02  0.47000000000E+01 0.  1.
          5   -1    0    0  501    0  0.00000000000E+00 -0.00000000000E+00 -0.83417805583E+03  0.83419129631E+03  0.47000000000E+01 0.  1.
         25    2    1    2    0    0  0.91725264144E+02 -0.60677645639E+01 -0.21431871564E+03  0.26458963309E+03  0.12499928087E+03 0.  0.
         25    2    1    2    0    0 -0.91725264144E+02  0.60677645639E+01 -0.58476975559E+03  0.60500461433E+03  0.12499829784E+03 0.  0.
          5    1    3    3  502    0  0.26048516302E+02  0.57581120427E+02 -0.80951886558E+02  0.10280762894E+03  0.47000000000E+01 0.  1.
         -5    1    3    3    0  502  0.65676747842E+02 -0.63648884991E+02 -0.13336682908E+03  0.16178200415E+03  0.47000000000E+01 0.  1.
          5    1    4    4  503    0 -0.32867971073E+01 -0.13895060521E+02 -0.19519071371E+01  0.15158353591E+02  0.47000000000E+01 0.  1.
         -5    1    4    4    0  503 -0.88438467037E+02  0.19962825085E+02 -0.58281784845E+03  0.58984626074E+03  0.47000000000E+01 0.  1.
<mgrwt>
<rscale>  0 0.15516153E+03</rscale>
<asrwt>0</asrwt>
<pdfrwt beam="2">  1        5 0.12836019E+00 0.15516173E+03</pdfrwt>
<pdfrwt beam="1">  1       -5 0.54235219E-02 0.15516173E+03</pdfrwt>
<totfact> 0.72565168E+01</totfact>
</mgrwt>
</event>
<event>
 8    1  0.3674342E-007  0.1367581E+03  0.7546771E-02  0.1217759E+00
          5   -1    0    0  501    0  0.00000000000E+00  0.00000000000E+00  0.13505390644E+02  0.14299845330E+02  0.47000000000E+01 0.  1.
         -5   -1    0    0    0  501 -0.00000000000E+00 -0.00000000000E+00 -0.13988727041E+04  0.13988805997E+04  0.47000000000E+01 0.  1.
         25    2    1    2    0    0  0.14541085154E+02 -0.53537382815E+02 -0.83199850539E+03  0.84316307487E+03  0.12499905332E+03 0.  0.
         25    2    1    2    0    0 -0.14541085154E+02  0.53537382815E+02 -0.55336880808E+03  0.57001737020E+03  0.12500028023E+03 0.  0.
          5    1    4    4  502    0  0.47984513184E+02 -0.80293270808E+01 -0.19545708895E+03  0.20147592218E+03  0.47000000000E+01 0.  1.
         -5    1    4    4    0  502 -0.62525598338E+02  0.61566709896E+02 -0.35791171913E+03  0.36854144802E+03  0.47000000000E+01 0.  1.
          5    1    3    3  503    0 -0.38148128541E+02 -0.70978876993E+02 -0.46272862084E+03  0.46971602829E+03  0.47000000000E+01 0.  1.
         -5    1    3    3    0  503  0.52689213694E+02  0.17441494178E+02 -0.36926988455E+03  0.37344704657E+03  0.47000000000E+01 0.  1.
<mgrwt>
<rscale>  0 0.13675777E+03</rscale>
<asrwt>0</asrwt>
<pdfrwt beam="1">  1        5 0.21394728E-02 0.13675805E+03</pdfrwt>
<pdfrwt beam="2">  1       -5 0.21527279E+00 0.13675805E+03</pdfrwt>
<totfact> 0.72000702E+01</totfact>
</mgrwt>
</event>
<event>
 8    1  0.3674342E-007  0.1777771E+03  0.7546771E-02  0.1169972E+00
          5   -1    0    0  501    0  0.00000000000E+00  0.00000000000E+00  0.27232679082E+03  0.27236734569E+03  0.47000000000E+01 0. -1.
         -5   -1    0    0    0  501 -0.00000000000E+00 -0.00000000000E+00 -0.12380326667E+03  0.12389244868E+03  0.47000000000E+01 0. -1.
         25    2    1    2    0    0 -0.97525124510E+02 -0.80428833391E+02  0.24410847846E+02  0.17944503254E+03  0.12499873223E+03 0.  0.
         25    2    1    2    0    0  0.97525124510E+02  0.80428833391E+02  0.12411267630E+03  0.21681476183E+03  0.12499894951E+03 0.  0.
          5    1    3    3  502    0 -0.93666234878E+02 -0.22813145188E+02 -0.28859728528E+02  0.10074113897E+03  0.47000000000E+01 0. -1.
         -5    1    3    3    0  502 -0.38588896318E+01 -0.57615688203E+02  0.53270576374E+02  0.78703893572E+02  0.47000000000E+01 0. -1.
          5    1    4    4  503    0  0.21268761730E+02  0.21725043661E+02  0.11612909567E+03  0.12013490171E+03  0.47000000000E+01 0.  1.
         -5    1    4    4    0  503  0.76256362780E+02  0.58703789730E+02  0.79835806308E+01  0.96679860119E+02  0.47000000000E+01 0.  1.
<mgrwt>
<rscale>  0 0.17777703E+03</rscale>
<asrwt>0</asrwt>
<pdfrwt beam="1">  1        5 0.41906409E-01 0.17777706E+03</pdfrwt>
<pdfrwt beam="2">  1       -5 0.19056636E-01 0.17777706E+03</pdfrwt>
<totfact> 0.10874756E+02</totfact>
</mgrwt>
</event>
<event>
 8    1  0.3674342E-007  0.1280320E+03  0.7546771E-02  0.1230431E+00
          5   -1    0    0  501    0  0.00000000000E+00  0.00000000000E+00  0.12631767701E+03  0.12640508505E+03  0.47000000000E+01 0. -1.
         -5   -1    0    0    0  501 -0.00000000000E+00 -0.00000000000E+00 -0.13131390283E+03  0.13139798734E+03  0.47000000000E+01 0. -1.
         25    2    1    2    0    0  0.19982783667E+02  0.18753624485E+02 -0.17522944408E+02  0.12915968577E+03  0.12499664305E+03 0.  0.
         25    2    1    2    0    0 -0.19982783667E+02 -0.18753624485E+02  0.12526718585E+02  0.12864338662E+03  0.12506475190E+03 0.  0.
          5    1    4    4  502    0  0.13477644421E+02 -0.22543443702E+01  0.63600010780E+02  0.65221011483E+02  0.47000000000E+01 0.  1.
         -5    1    4    4    0  502 -0.33460428087E+02 -0.16499280114E+02 -0.51073292195E+02  0.63422375134E+02  0.47000000000E+01 0.  1.
          5    1    3    3  503    0  0.75628865773E+01  0.10014008696E+02 -0.71574857003E+02  0.72818457677E+02  0.47000000000E+01 0. -1.
         -5    1    3    3    0  503  0.12419897090E+02  0.87396157882E+01  0.54051912595E+02  0.56341228093E+02  0.47000000000E+01 0. -1.
<mgrwt>
<rscale>  0 0.12801540E+03</rscale>
<asrwt>0</asrwt>
<pdfrwt beam="1">  1        5 0.19446681E-01 0.12803204E+03</pdfrwt>
<pdfrwt beam="2">  1       -5 0.20215331E-01 0.12803204E+03</pdfrwt>
<totfact> 0.39285336E+02</totfact>
</mgrwt>
</event>
<event>
 8    1  0.3674342E-007  0.1386799E+03  0.7546771E-02  0.1215117E+00
          5   -1    0    0  501    0  0.00000000000E+00  0.00000000000E+00  0.20731437766E+03  0.20736764739E+03  0.47000000000E+01 0.  1.
         -5   -1    0    0    0  501 -0.00000000000E+00 -0.00000000000E+00 -0.93035403662E+02  0.93154046259E+02  0.47000000000E+01 0.  1.
         25    2    1    2    0    0 -0.12180439372E+02  0.58799240956E+02  0.47386980914E+02  0.14655248589E+03  0.12500556516E+03 0.  0.
         25    2    1    2    0    0  0.12180439372E+02 -0.58799240956E+02  0.66891993087E+02  0.15396920776E+03  0.12500505734E+03 0.  0.
          5    1    3    3  502    0  0.37837688905E+02 -0.21323347040E+02  0.97025450542E+01  0.44750477218E+02  0.47000000000E+01 0.  1.
         -5    1    3    3    0  502 -0.50018128277E+02  0.80122587996E+02  0.37684435860E+02  0.10180200867E+03  0.47000000000E+01 0.  1.
          5    1    4    4  503    0  0.58357677586E+02 -0.32721539885E+02  0.74438447151E+02  0.10019725605E+03  0.47000000000E+01 0.  1.
         -5    1    4    4    0  503 -0.46177238215E+02 -0.26077701071E+02 -0.75464540637E+01  0.53771951715E+02  0.47000000000E+01 0.  1.
<mgrwt>
<rscale>  0 0.13867975E+03</rscale>
<asrwt>0</asrwt>
<pdfrwt beam="1">  1        5 0.31907743E-01 0.13867987E+03</pdfrwt>
<pdfrwt beam="2">  1       -5 0.14326363E-01 0.13867987E+03</pdfrwt>
<totfact> 0.29424212E+02</totfact>
</mgrwt>
</event>
<event>
 8    1  0.3674342E-007  0.1297243E+03  0.7546771E-02  0.1227871E+00
         -5   -1    0    0    0  501 -0.00000000000E+00  0.00000000000E+00  0.58757565521E+03  0.58759445249E+03  0.47000000000E+01 0.  1.
          5   -1    0    0  501    0  0.00000000000E+00 -0.00000000000E+00 -0.30136611536E+02  0.30500907444E+02  0.47000000000E+01 0.  1.
         25    2    1    2    0    0 -0.53304288668E+01 -0.34270194461E+02  0.35188181266E+03  0.37502711797E+03  0.12498667702E+03 0.  0.
         25    2    1    2    0    0  0.53304288668E+01  0.34270194461E+02  0.20555723101E+03  0.24306824196E+03  0.12500214130E+03 0.  0.
          5    1    3    3  502    0 -0.59651760343E+02 -0.14042935351E+02  0.10758624459E+03  0.12390490938E+03  0.47000000000E+01 0.  1.
         -5    1    3    3    0  502  0.54321331476E+02 -0.20227259111E+02  0.24429556807E+03  0.25112220859E+03  0.47000000000E+01 0.  1.
          5    1    4    4  503    0  0.33632315882E+00 -0.23347432814E+02 -0.52765450304E+01  0.24395648377E+02  0.47000000000E+01 0.  1.
         -5    1    4    4    0  503  0.49941057079E+01  0.57617627275E+02  0.21083377604E+03  0.21867259359E+03  0.47000000000E+01 0.  1.
<mgrwt>
<rscale>  0 0.12972058E+03</rscale>
<asrwt>0</asrwt>
<pdfrwt beam="2">  1        5 0.46658711E-02 0.12972430E+03</pdfrwt>
<pdfrwt beam="1">  1       -5 0.90425711E-01 0.12972430E+03</pdfrwt>
<totfact> 0.20991410E+02</totfact>
</mgrwt>
</event>
<event>
 8    1  0.3674342E-007  0.1302254E+03  0.7546771E-02  0.1227129E+00
          5   -1    0    0  501    0  0.00000000000E+00  0.00000000000E+00  0.46902769975E+03  0.46905124787E+03  0.47000000000E+01 0.  1.
         -5   -1    0    0    0  501 -0.00000000000E+00 -0.00000000000E+00 -0.36411969341E+02  0.36714050598E+02  0.47000000000E+01 0.  1.
         25    2    1    2    0    0 -0.34926344668E+02 -0.10560297875E+02  0.24392215485E+03  0.27650801035E+03  0.12500917053E+03 0.  0.
         25    2    1    2    0    0  0.34926344668E+02  0.10560297875E+02  0.18869357556E+03  0.22925728812E+03  0.12498907655E+03 0.  0.
          5    1    4    4  502    0 -0.10991232354E+02 -0.47012928312E+02  0.38554010781E+02  0.61963895653E+02  0.47000000000E+01 0. -1.
         -5    1    4    4    0  502  0.45917577022E+02  0.57573226187E+02  0.15013956478E+03  0.16729339247E+03  0.47000000000E+01 0. -1.
          5    1    3    3  503    0  0.37671559590E+02 -0.29984436520E+02  0.55655462711E+02  0.73741666410E+02  0.47000000000E+01 0.  1.
         -5    1    3    3    0  503 -0.72597904258E+02  0.19424138645E+02  0.18826669214E+03  0.20276634394E+03  0.47000000000E+01 0.  1.
<mgrwt>
<rscale>  0 0.13022061E+03</rscale>
<asrwt>0</asrwt>
<pdfrwt beam="1">  1        5 0.72183151E-01 0.13022543E+03</pdfrwt>
<pdfrwt beam="2">  1       -5 0.56268903E-02 0.13022543E+03</pdfrwt>
<totfact> 0.25946790E+02</totfact>
</mgrwt>
</event>
<event>
 8    1  0.3674342E-007  0.1367737E+03  0.7546771E-02  0.1217739E+00
          5   -1    0    0  501    0  0.00000000000E+00  0.00000000000E+00  0.16952861922E+03  0.16959375794E+03  0.47000000000E+01 0.  1.
         -5   -1    0    0    0  501 -0.00000000000E+00 -0.00000000000E+00 -0.13052660739E+03  0.13061119875E+03  0.47000000000E+01 0.  1.
         25    2    1    2    0    0  0.31985473692E+02 -0.45374717120E+02 -0.39685782351E+02  0.14241487210E+03  0.12500039598E+03 0.  0.
         25    2    1    2    0    0 -0.31985473692E+02  0.45374717120E+02  0.78687794174E+02  0.15779008458E+03  0.12499602538E+03 0.  0.
          5    1    4    4  502    0 -0.65094431966E+02  0.65266284169E+02  0.33575737057E+02  0.98216052869E+02  0.47000000000E+01 0. -1.
         -5    1    4    4    0  502  0.33108958274E+02 -0.19891567048E+02  0.45112057117E+02  0.59574031716E+02  0.47000000000E+01 0. -1.
          5    1    3    3  503    0 -0.40197980699E+02 -0.38694061381E+02 -0.41584775663E+02  0.69745907446E+02  0.47000000000E+01 0.  1.
         -5    1    3    3    0  503  0.72183454391E+02 -0.66806557399E+01  0.18989933127E+01  0.72668964659E+02  0.47000000000E+01 0.  1.
<mgrwt>
<rscale>  0 0.13677266E+03</rscale>
<asrwt>0</asrwt>
<pdfrwt beam="1">  1        5 0.26092843E-01 0.13677366E+03</pdfrwt>
<pdfrwt beam="2">  1       -5 0.20092534E-01 0.13677366E+03</pdfrwt>
<totfact> 0.23328930E+02</totfact>
</mgrwt>
</event>
<event>
 8    1  0.3674342E-007  0.1489369E+03  0.7546771E-02  0.1201787E+00
          5   -1    0    0  501    0  0.00000000000E+00  0.00000000000E+00  0.22296544835E+03  0.22301497968E+03  0.47000000000E+01 0.  1.
         -5   -1    0    0    0  501 -0.00000000000E+00 -0.00000000000E+00 -0.10242474290E+03  0.10253252146E+03  0.47000000000E+01 0.  1.
         25    2    1    2    0    0 -0.55508881615E+02 -0.58951036987E+02  0.32170739918E+02  0.15237172467E+03  0.12500290106E+03 0.  0.
         25    2    1    2    0    0  0.55508881615E+02  0.58951036987E+02  0.88369965538E+02  0.17317577647E+03  0.12499655214E+03 0.  0.
          5    1    3    3  502    0 -0.38855730427E+02  0.30378898409E+02 -0.12367728583E+02  0.51065604528E+02  0.47000000000E+01 0. -1.
         -5    1    3    3    0  502 -0.16653151188E+02 -0.89329935396E+02  0.44538468501E+02  0.10130612014E+03  0.47000000000E+01 0. -1.
          5    1    4    4  503    0  0.44913440953E+02 -0.32488876985E+02  0.43740933532E+02  0.70767955830E+02  0.47000000000E+01 0. -1.
         -5    1    4    4    0  503  0.10595440661E+02  0.91439913972E+02  0.44629032006E+02  0.10240782064E+03  0.47000000000E+01 0. -1.
<mgrwt>
<rscale>  0 0.14893552E+03</rscale>
<asrwt>0</asrwt>
<pdfrwt beam="1">  1        5 0.34314477E-01 0.14893685E+03</pdfrwt>
<pdfrwt beam="2">  1       -5 0.15769754E-01 0.14893685E+03</pdfrwt>
<totfact> 0.21914179E+02</totfact>
</mgrwt>
</event>
<event>
 8    1  0.3674342E-007  0.1603107E+03  0.7546771E-02  0.1188347E+00
         -5   -1    0    0    0  501 -0.00000000000E+00  0.00000000000E+00  0.15645106441E+03  0.15652164564E+03  0.47000000000E+01 0. -1.
          5   -1    0    0  501    0  0.00000000000E+00 -0.00000000000E+00 -0.16631922510E+03  0.16638562029E+03  0.47000000000E+01 0. -1.
         25    2    1    2    0    0  0.73070617675E+02 -0.68808445998E+02  0.13617924915E+02  0.16088531088E+03  0.12499887188E+03 0.  0.
         25    2    1    2    0    0 -0.73070617675E+02  0.68808445998E+02 -0.23486085606E+02  0.16202195505E+03  0.12500240115E+03 0.  0.
          5    1    4    4  502    0  0.65979171488E+01 -0.28139834372E+02  0.11825400393E+02  0.31580260981E+02  0.47000000000E+01 0.  1.
         -5    1    4    4    0  502 -0.79668534824E+02  0.96948280370E+02 -0.35311486000E+02  0.13044169407E+03  0.47000000000E+01 0.  1.
          5    1    3    3  503    0  0.20624194064E+02  0.18928140975E+02  0.45570045628E+02  0.53687530769E+02  0.47000000000E+01 0. -1.
         -5    1    3    3    0  503  0.52446423612E+02 -0.87736586973E+02 -0.31952120713E+02  0.10719778011E+03  0.47000000000E+01 0. -1.
<mgrwt>
<rscale>  0 0.16031000E+03</rscale>
<asrwt>0</asrwt>
<pdfrwt beam="2">  1        5 0.25598110E-01 0.16031069E+03</pdfrwt>
<pdfrwt beam="1">  1       -5 0.24079931E-01 0.16031069E+03</pdfrwt>
<totfact> 0.18120682E+02</totfact>
</mgrwt>
</event>
<event>
 8    1  0.3674342E-007  0.1294337E+03  0.7546771E-02  0.1228300E+00
          5   -1    0    0  501    0  0.00000000000E+00  0.00000000000E+00  0.38951443041E+03  0.38954278519E+03  0.47000000000E+01 0. -1.
         -5   -1    0    0    0  501 -0.00000000000E+00 -0.00000000000E+00 -0.43867799073E+02  0.44118859862E+02  0.47000000000E+01 0. -1.
         25    2    1    2    0    0  0.31573747920E+02  0.11456581046E+02  0.13991615140E+03  0.19060327657E+03  0.12499969923E+03 0.  0.
         25    2    1    2    0    0 -0.31573747920E+02 -0.11456581046E+02  0.20573047994E+03  0.24305836849E+03  0.12499674120E+03 0.  0.
          5    1    3    3  502    0  0.41128784311E+02 -0.28830362626E+02  0.65394909619E+01  0.50868670614E+02  0.47000000000E+01 0. -1.
         -5    1    3    3    0  502 -0.95550363914E+01  0.40286943672E+02  0.13337666044E+03  0.13973460595E+03  0.47000000000E+01 0. -1.
          5    1    4    4  503    0 -0.59053714852E+02  0.16786936837E+02  0.41869040430E+02  0.74459714159E+02  0.47000000000E+01 0.  1.
         -5    1    4    4    0  503  0.27479966932E+02 -0.28243517883E+02  0.16386143951E+03  0.16859865433E+03  0.47000000000E+01 0.  1.
<mgrwt>
<rscale>  0 0.12943297E+03</rscale>
<asrwt>0</asrwt>
<pdfrwt beam="1">  1        5 0.59946790E-01 0.12943369E+03</pdfrwt>
<pdfrwt beam="2">  1       -5 0.67703857E-02 0.12943369E+03</pdfrwt>
<totfact> 0.28667140E+02</totfact>
</mgrwt>
</event>
<event>
 8    1  0.3674342E-007  0.1372671E+03  0.7546771E-02  0.1217057E+00
         -5   -1    0    0    0  501 -0.00000000000E+00  0.00000000000E+00  0.19934986774E+02  0.20481545296E+02  0.47000000000E+01 0. -1.
          5   -1    0    0  501    0  0.00000000000E+00 -0.00000000000E+00 -0.10095912585E+04  0.10096021985E+04  0.47000000000E+01 0. -1.
         25    2    1    2    0    0  0.47258977619E+02  0.31343394382E+02 -0.35188872925E+03  0.37771138357E+03  0.12499756864E+03 0.  0.
         25    2    1    2    0    0 -0.47258977619E+02 -0.31343394382E+02 -0.63776754248E+03  0.65237236024E+03  0.12500575520E+03 0.  0.
          5    1    3    3  502    0  0.35866790383E+02 -0.26271666833E+02 -0.28537244898E+03  0.28885316644E+03  0.47000000000E+01 0. -1.
         -5    1    3    3    0  502  0.11392187236E+02  0.57615061215E+02 -0.66516280277E+02  0.88858217125E+02  0.47000000000E+01 0. -1.
          5    1    4    4  503    0 -0.58334657993E+02  0.33582946494E+02 -0.39796866988E+03  0.40364823649E+03  0.47000000000E+01 0. -1.
         -5    1    4    4    0  503  0.11075680374E+02 -0.64926340876E+02 -0.23979887260E+03  0.24872412375E+03  0.47000000000E+01 0. -1.
<mgrwt>
<rscale>  0 0.13726524E+03</rscale>
<asrwt>0</asrwt>
<pdfrwt beam="2">  1        5 0.15536458E+00 0.13726711E+03</pdfrwt>
<pdfrwt beam="1">  1       -5 0.31098063E-02 0.13726711E+03</pdfrwt>
<totfact> 0.10463162E+02</totfact>
</mgrwt>
</event>
<event>
 8    1  0.3674342E-007  0.1606158E+03  0.7546771E-02  0.1188003E+00
          5   -1    0    0  501    0  0.00000000000E+00  0.00000000000E+00  0.22489226187E+03  0.22494136892E+03  0.47000000000E+01 0. -1.
         -5   -1    0    0    0  501 -0.00000000000E+00 -0.00000000000E+00 -0.11467370023E+03  0.11476997658E+03  0.47000000000E+01 0. -1.
         25    2    1    2    0    0 -0.85619869587E+02 -0.53303341007E+02  0.50816876562E+02  0.16846297897E+03  0.12500164843E+03 0.  0.
         25    2    1    2    0    0  0.85619869587E+02  0.53303341007E+02  0.59401685083E+02  0.17124836652E+03  0.12500173844E+03 0.  0.
          5    1    3    3  502    0 -0.34109394390E+02 -0.49626596957E+02 -0.33804195435E+02  0.69217508914E+02  0.47000000000E+01 0. -1.
         -5    1    3    3    0  502 -0.51510475197E+02 -0.36767440493E+01  0.84621071997E+02  0.99245470061E+02  0.47000000000E+01 0. -1.
          5    1    4    4  503    0  0.32037855827E+02 -0.40182985196E+02  0.28971730232E+02  0.59182325553E+02  0.47000000000E+01 0.  1.
         -5    1    4    4    0  503  0.53582013759E+02  0.93486326203E+02  0.30429954851E+02  0.11206604097E+03  0.47000000000E+01 0.  1.
<mgrwt>
<rscale>  0 0.16061581E+03</rscale>
<asrwt>0</asrwt>
<pdfrwt beam="1">  1        5 0.34609993E-01 0.16061582E+03</pdfrwt>
<pdfrwt beam="2">  1       -5 0.17653291E-01 0.16061582E+03</pdfrwt>
<totfact> 0.17952417E+02</totfact>
</mgrwt>
</event>
<event>
 8    1  0.3674342E-007  0.1293500E+03  0.7546771E-02  0.1228425E+00
          5   -1    0    0  501    0  0.00000000000E+00  0.00000000000E+00  0.11051638484E+03  0.11061627962E+03  0.47000000000E+01 0.  1.
         -5   -1    0    0    0  501 -0.00000000000E+00 -0.00000000000E+00 -0.15557130020E+03  0.15564228039E+03  0.47000000000E+01 0.  1.
         25    2    1    2    0    0 -0.17131610055E+01  0.33216883749E+02 -0.17940563874E+00  0.12935012658E+03  0.12500050709E+03 0.  0.
         25    2    1    2    0    0  0.17131610055E+01 -0.33216883749E+02 -0.44875509724E+02  0.13690843344E+03  0.12499524586E+03 0.  0.
          5    1    4    4  502    0  0.19834092803E+02  0.44372921047E+02 -0.23986610972E+02  0.54403996779E+02  0.47000000000E+01 0.  1.
         -5    1    4    4    0  502 -0.18120931798E+02 -0.77589804796E+02 -0.20888898752E+02  0.82504436660E+02  0.47000000000E+01 0.  1.
          5    1    3    3  503    0 -0.21857026083E+02  0.54911236627E+02  0.45485419949E+02  0.74726079283E+02  0.47000000000E+01 0. -1.
         -5    1    3    3    0  503  0.20143865077E+02 -0.21694352878E+02 -0.45664825588E+02  0.54624047296E+02  0.47000000000E+01 0. -1.
<mgrwt>
<rscale>  0 0.12934873E+03</rscale>
<asrwt>0</asrwt>
<pdfrwt beam="1">  1        5 0.17015665E-01 0.12935000E+03</pdfrwt>
<pdfrwt beam="2">  1       -5 0.23947190E-01 0.12935000E+03</pdfrwt>
<totfact> 0.36658835E+02</totfact>
</mgrwt>
</event>
<event>
 8    1  0.3674342E-007  0.1424968E+03  0.7546771E-02  0.1210013E+00
         -5   -1    0    0    0  501 -0.00000000000E+00  0.00000000000E+00  0.42267875992E+02  0.42528382768E+02  0.47000000000E+01 0.  1.
          5   -1    0    0  501    0  0.00000000000E+00 -0.00000000000E+00 -0.48461108767E+03  0.48463387860E+03  0.47000000000E+01 0.  1.
         25    2    1    2    0    0 -0.67327125167E+02 -0.12023798460E+02 -0.19183475249E+03  0.23896843971E+03  0.12501131710E+03 0.  0.
         25    2    1    2    0    0  0.67327125167E+02  0.12023798460E+02 -0.25050845919E+03  0.28819382166E+03  0.12499470871E+03 0.  0.
          5    1    3    3  502    0  0.78936348670E+01  0.51754037450E+01 -0.15132591072E+03  0.15169283282E+03  0.47000000000E+01 0. -1.
         -5    1    3    3    0  502 -0.75220760034E+02 -0.17199202205E+02 -0.40508841772E+02  0.87275606892E+02  0.47000000000E+01 0. -1.
          5    1    4    4  503    0  0.87300920074E+02 -0.65152836577E+01 -0.24470754262E+03  0.25993801373E+03  0.47000000000E+01 0.  1.
         -5    1    4    4    0  503 -0.19973794907E+02  0.18539082117E+02 -0.58009165685E+01  0.28255807930E+02  0.47000000000E+01 0.  1.
<mgrwt>
<rscale>  0 0.14249317E+03</rscale>
<asrwt>0</asrwt>
<pdfrwt beam="2">  1        5 0.74577340E-01 0.14249682E+03</pdfrwt>
<pdfrwt beam="1">  1       -5 0.65245426E-02 0.14249682E+03</pdfrwt>
<totfact> 0.19366121E+02</totfact>
</mgrwt>
</event>
<event>
 8    1  0.3674342E-007  0.1633908E+03  0.7546771E-02  0.1184921E+00
          5   -1    0    0  501    0  0.00000000000E+00  0.00000000000E+00  0.45479038499E+03  0.45481467026E+03  0.47000000000E+01 0. -1.
         -5   -1    0    0    0  501 -0.00000000000E+00 -0.00000000000E+00 -0.66665902018E+02  0.66831373560E+02  0.47000000000E+01 0. -1.
         25    2    1    2    0    0 -0.29683733104E+02 -0.10094897617E+03  0.10336738826E+03  0.19334262083E+03  0.12499892909E+03 0.  0.
         25    2    1    2    0    0  0.29683733104E+02  0.10094897617E+03  0.28475709472E+03  0.32830342299E+03  0.12499885901E+03 0.  0.
          5    1    4    4  502    0 -0.77889433608E+01  0.73702159504E+02  0.51326184079E+02  0.90272604517E+02  0.47000000000E+01 0.  1.
         -5    1    4    4    0  502  0.37472676464E+02  0.27246816666E+02  0.23343091064E+03  0.23803081847E+03  0.47000000000E+01 0.  1.
          5    1    3    3  503    0 -0.25353468603E+02 -0.84805728281E+02  0.13250808521E+03  0.15942174433E+03  0.47000000000E+01 0. -1.
         -5    1    3    3    0  503 -0.43302645002E+01 -0.16143247889E+02 -0.29140696958E+02  0.33920876496E+02  0.47000000000E+01 0. -1.
<mgrwt>
<rscale>  0 0.16339078E+03</rscale>
<asrwt>0</asrwt>
<pdfrwt beam="1">  1        5 0.69982349E-01 0.16339080E+03</pdfrwt>
<pdfrwt beam="2">  1       -5 0.10270889E-01 0.16339080E+03</pdfrwt>
<totfact> 0.10701370E+02</totfact>
</mgrwt>
</event>
<event>
 8    1  0.3674342E-007  0.1691188E+03  0.7546771E-02  0.1178773E+00
          5   -1    0    0  501    0  0.00000000000E+00  0.00000000000E+00  0.25747586839E+03  0.25751876204E+03  0.47000000000E+01 0. -1.
         -5   -1    0    0    0  501 -0.00000000000E+00 -0.00000000000E+00 -0.11409541583E+03  0.11419217974E+03  0.47000000000E+01 0. -1.
         25    2    1    2    0    0  0.92786428551E+02 -0.66057738325E+02  0.40971325733E+02  0.17401098522E+03  0.12501290865E+03 0.  0.
         25    2    1    2    0    0 -0.92786428551E+02  0.66057738325E+02  0.10240912682E+03  0.19769995656E+03  0.12499878980E+03 0.  0.
          5    1    4    4  502    0 -0.12227557740E+03  0.58567571443E+02  0.68753827202E+02  0.15208765896E+03  0.47000000000E+01 0. -1.
         -5    1    4    4    0  502  0.29489148849E+02  0.74901668825E+01  0.33655299621E+02  0.45612297600E+02  0.47000000000E+01 0. -1.
          5    1    3    3  503    0  0.51288260273E+02 -0.74202011796E+02 -0.26598919593E+02  0.94159528036E+02  0.47000000000E+01 0. -1.
         -5    1    3    3    0  503  0.41498168278E+02  0.81442734708E+01  0.67570245326E+02  0.79851457183E+02  0.47000000000E+01 0. -1.
<mgrwt>
<rscale>  0 0.16911621E+03</rscale>
<asrwt>0</asrwt>
<pdfrwt beam="1">  1        5 0.39622415E-01 0.16911881E+03</pdfrwt>
<pdfrwt beam="2">  1       -5 0.17563884E-01 0.16911881E+03</pdfrwt>
<totfact> 0.13991386E+02</totfact>
</mgrwt>
</event>
<event>
 8    1  0.3674342E-007  0.1295218E+03  0.7546771E-02  0.1228168E+00
          5   -1    0    0  501    0  0.00000000000E+00  0.00000000000E+00  0.12229831185E+02  0.13101861350E+02  0.47000000000E+01 0.  1.
         -5   -1    0    0    0  501 -0.00000000000E+00 -0.00000000000E+00 -0.19621676498E+04  0.19621732788E+04  0.47000000000E+01 0.  1.
         25    2    1    2    0    0  0.31571106397E+02  0.12387577543E+02 -0.15382576684E+04  0.15437007690E+04  0.12500089210E+03 0.  0.
         25    2    1    2    0    0 -0.31571106397E+02 -0.12387577543E+02 -0.41168015026E+03  0.43157437115E+03  0.12500281949E+03 0.  0.
          5    1    4    4  502    0 -0.10442252808E+02 -0.50283087448E+02 -0.36112231518E+03  0.36478602776E+03  0.47000000000E+01 0. -1.
         -5    1    4    4    0  502 -0.21128853590E+02  0.37895509906E+02 -0.50557835076E+02  0.66788343389E+02  0.47000000000E+01 0. -1.
          5    1    3    3  503    0 -0.25509332051E+02  0.43607400678E+02 -0.35051985409E+03  0.35417310672E+03  0.47000000000E+01 0.  1.
         -5    1    3    3    0  503  0.57080438449E+02 -0.31219823136E+02 -0.11877378143E+04  0.11895276623E+04  0.47000000000E+01 0.  1.
<mgrwt>
<rscale>  0 0.12952132E+03</rscale>
<asrwt>0</asrwt>
<pdfrwt beam="1">  1        5 0.19490263E-02 0.12952178E+03</pdfrwt>
<pdfrwt beam="2">  1       -5 0.30193922E+00 0.12952178E+03</pdfrwt>
<totfact> 0.23204543E+01</totfact>
</mgrwt>
</event>
<event>
 8    1  0.3674342E-007  0.1735981E+03  0.7546771E-02  0.1174147E+00
          5   -1    0    0  501    0  0.00000000000E+00  0.00000000000E+00  0.10556660664E+03  0.10567118073E+03  0.47000000000E+01 0.  1.
         -5   -1    0    0    0  501 -0.00000000000E+00 -0.00000000000E+00 -0.29272150574E+03  0.29275923542E+03  0.47000000000E+01 0.  1.
         25    2    1    2    0    0 -0.20728550745E+02  0.11867398434E+03 -0.12549477890E+03  0.21420701026E+03  0.12499006496E+03 0.  0.
         25    2    1    2    0    0  0.20728550745E+02 -0.11867398434E+03 -0.61660120204E+02  0.18422340590E+03  0.12499242169E+03 0.  0.
          5    1    4    4  502    0 -0.11773806218E+02  0.17692052415E+02  0.12973783864E+02  0.25338514149E+02  0.47000000000E+01 0. -1.
         -5    1    4    4    0  502  0.32502356964E+02 -0.13636603676E+03 -0.74633904069E+02  0.15888489175E+03  0.47000000000E+01 0. -1.
          5    1    3    3  503    0  0.12436394484E+02  0.63393780179E+02  0.86054844444E+01  0.65342020443E+02  0.47000000000E+01 0.  1.
         -5    1    3    3    0  503 -0.33164945229E+02  0.55280204162E+02 -0.13410026334E+03  0.14886498981E+03  0.47000000000E+01 0.  1.
<mgrwt>
<rscale>  0 0.17359765E+03</rscale>
<asrwt>0</asrwt>
<pdfrwt beam="1">  1        5 0.16251963E-01 0.17359808E+03</pdfrwt>
<pdfrwt beam="2">  1       -5 0.45045024E-01 0.17359808E+03</pdfrwt>
<totfact> 0.12470210E+02</totfact>
</mgrwt>
</event>
<event>
 8    1  0.3674342E-007  0.1609278E+03  0.7546771E-02  0.1187654E+00
         -5   -1    0    0    0  501 -0.00000000000E+00  0.00000000000E+00  0.42539314867E+03  0.42541911210E+03  0.47000000000E+01 0. -1.
          5   -1    0    0  501    0  0.00000000000E+00 -0.00000000000E+00 -0.79923691022E+02  0.80061766072E+02  0.47000000000E+01 0. -1.
         25    2    1    2    0    0  0.10094038941E+03  0.91184684658E+01  0.29634944752E+03  0.33722509531E+03  0.12500264469E+03 0.  0.
         25    2    1    2    0    0 -0.10094038941E+03 -0.91184684658E+01  0.49120010134E+02  0.16825578286E+03  0.12500049756E+03 0.  0.
          5    1    4    4  502    0 -0.88772565451E+02 -0.29363728053E+02 -0.19414534470E+02  0.95612818443E+02  0.47000000000E+01 0. -1.
         -5    1    4    4    0  502 -0.12167823958E+02  0.20245259587E+02  0.68534544603E+02  0.72642964419E+02  0.47000000000E+01 0. -1.
          5    1    3    3  503    0  0.95711894735E+02 -0.43040343588E+02  0.16359742739E+03  0.19442079678E+03  0.47000000000E+01 0. -1.
         -5    1    3    3    0  503  0.52284946739E+01  0.52158812054E+02  0.13275202012E+03  0.14280429853E+03  0.47000000000E+01 0. -1.
<mgrwt>
<rscale>  0 0.16092742E+03</rscale>
<asrwt>0</asrwt>
<pdfrwt beam="2">  1        5 0.12308570E-01 0.16092784E+03</pdfrwt>
<pdfrwt beam="1">  1       -5 0.65457721E-01 0.16092784E+03</pdfrwt>
<totfact> 0.89898691E+01</totfact>
</mgrwt>
</event>
<event>
 8    1  0.3674342E-007  0.1315460E+03  0.7546771E-02  0.1225180E+00
          5   -1    0    0  501    0  0.00000000000E+00  0.00000000000E+00  0.27364518708E+03  0.27368554659E+03  0.47000000000E+01 0.  1.
         -5   -1    0    0    0  501 -0.00000000000E+00 -0.00000000000E+00 -0.66030062403E+02  0.66197123359E+02  0.47000000000E+01 0.  1.
         25    2    1    2    0    0  0.38834899321E+02  0.13086876113E+02  0.68089318798E+02  0.14812326568E+03  0.12499972308E+03 0.  0.
         25    2    1    2    0    0 -0.38834899321E+02 -0.13086876113E+02  0.13952580588E+03  0.19175940427E+03  0.12499921155E+03 0.  0.
          5    1    3    3  502    0 -0.16852489709E+02  0.82463884021E+01 -0.29667583399E+02  0.35415601588E+02  0.47000000000E+01 0.  1.
         -5    1    3    3    0  502  0.55687389031E+02  0.48404877104E+01  0.97756902197E+02  0.11270766409E+03  0.47000000000E+01 0.  1.
          5    1    4    4  503    0 -0.76988016088E+02 -0.70087678281E+01  0.13058756671E+03  0.15182713863E+03  0.47000000000E+01 0.  1.
         -5    1    4    4    0  503  0.38153116766E+02 -0.60781082844E+01  0.89382391769E+01  0.39932265637E+02  0.47000000000E+01 0.  1.
<mgrwt>
<rscale>  0 0.13154586E+03</rscale>
<asrwt>0</asrwt>
<pdfrwt beam="1">  1        5 0.42115214E-01 0.13154599E+03</pdfrwt>
<pdfrwt beam="2">  1       -5 0.10174427E-01 0.13154599E+03</pdfrwt>
<totfact> 0.30272978E+02</totfact>
</mgrwt>
</event>
<event>
 8    1  0.3674342E-007  0.1528978E+03  0.7546771E-02  0.1196960E+00
         -5   -1    0    0    0  501 -0.00000000000E+00  0.00000000000E+00  0.39504202053E+03  0.39506997859E+03  0.47000000000E+01 0. -1.
          5   -1    0    0  501    0  0.00000000000E+00 -0.00000000000E+00 -0.61973124595E+02  0.62151091479E+02  0.47000000000E+01 0. -1.
         25    2    1    2    0    0  0.68880998072E+01  0.87759980598E+02  0.21610404503E+03  0.26472380978E+03  0.12501390752E+03 0.  0.
         25    2    1    2    0    0 -0.68880998072E+01 -0.87759980598E+02  0.11696485090E+03  0.19249726028E+03  0.12500063503E+03 0.  0.
          5    1    3    3  502    0 -0.29515885290E+02  0.40189106064E+02  0.19454280374E+03  0.20088639629E+03  0.47000000000E+01 0.  1.
         -5    1    3    3    0  502  0.36403985097E+02  0.47570874533E+02  0.21561241295E+02  0.63837413489E+02  0.47000000000E+01 0.  1.
          5    1    4    4  503    0 -0.41139654648E+02 -0.10533525290E+03  0.77549331112E+02  0.13720049360E+03  0.47000000000E+01 0.  1.
         -5    1    4    4    0  503  0.34251554840E+02  0.17575272302E+02  0.39415519790E+02  0.55296766685E+02  0.47000000000E+01 0.  1.
<mgrwt>
<rscale>  0 0.15289509E+03</rscale>
<asrwt>0</asrwt>
<pdfrwt beam="2">  1        5 0.95501670E-02 0.15289780E+03</pdfrwt>
<pdfrwt beam="1">  1       -5 0.60791537E-01 0.15289780E+03</pdfrwt>
<totfact> 0.16291529E+02</totfact>
</mgrwt>
</event>
<event>
 8    1  0.3674342E-007  0.1629698E+03  0.7546771E-02  0.1185385E+00
          5   -1    0    0  501    0  0.00000000000E+00  0.00000000000E+00  0.56843324410E+02  0.57037299462E+02  0.47000000000E+01 0.  1.
         -5   -1    0    0    0  501 -0.00000000000E+00 -0.00000000000E+00 -0.48760654862E+03  0.48762919955E+03  0.47000000000E+01 0.  1.
         25    2    1    2    0    0 -0.76107035372E+02  0.71695973697E+02 -0.27239288353E+03  0.31742140374E+03  0.12500348426E+03 0.  0.
         25    2    1    2    0    0  0.76107035372E+02 -0.71695973697E+02 -0.15837034068E+03  0.22724509528E+03  0.12500630001E+03 0.  0.
          5    1    4    4  502    0  0.15148377479E+02  0.77283596264E+01  0.17479543817E+02  0.24835968570E+02  0.47000000000E+01 0. -1.
         -5    1    4    4    0  502  0.60958657893E+02 -0.79424333323E+02 -0.17584988450E+03  0.20240912671E+03  0.47000000000E+01 0. -1.
          5    1    3    3  503    0  0.22776841371E+02  0.20401812201E+02 -0.10313017699E+02  0.32610838351E+02  0.47000000000E+01 0.  1.
         -5    1    3    3    0  503 -0.98883876742E+02  0.51294161496E+02 -0.26207986583E+03  0.28481056539E+03  0.47000000000E+01 0.  1.
<mgrwt>
<rscale>  0 0.16296930E+03</rscale>
<asrwt>0</asrwt>
<pdfrwt beam="1">  1        5 0.87617907E-02 0.16296984E+03</pdfrwt>
<pdfrwt beam="2">  1       -5 0.75033053E-01 0.16296984E+03</pdfrwt>
<totfact> 0.12037096E+02</totfact>
</mgrwt>
</event>
<event>
 8    1  0.3674342E-007  0.1534282E+03  0.7546771E-02  0.1196324E+00
          5   -1    0    0  501    0  0.00000000000E+00  0.00000000000E+00  0.40825274060E+04  0.40825301114E+04  0.47000000000E+01 0.  1.
         -5   -1    0    0    0  501 -0.00000000000E+00 -0.00000000000E+00 -0.48888421185E+01  0.67816500396E+01  0.47000000000E+01 0.  1.
         25    2    1    2    0    0 -0.55033863859E+02  0.69886996593E+02  0.18115532042E+04  0.18180383158E+04  0.12500154947E+03 0.  0.
         25    2    1    2    0    0  0.55033863859E+02 -0.69886996593E+02  0.22660853596E+04  0.22712734457E+04  0.12500915758E+03 0.  0.
          5    1    3    3  502    0 -0.64599606788E+02  0.49067902846E+02  0.52316919242E+03  0.52944202911E+03  0.47000000000E+01 0. -1.
         -5    1    3    3    0  502  0.95657429293E+01  0.20819093747E+02  0.12883840118E+04  0.12885962867E+04  0.47000000000E+01 0. -1.
          5    1    4    4  503    0 -0.18259489079E+02  0.11513331474E+02  0.10561490255E+04  0.10563800546E+04  0.47000000000E+01 0. -1.
         -5    1    4    4    0  503  0.73293352938E+02 -0.81400328067E+02  0.12099363342E+04  0.12148933911E+04  0.47000000000E+01 0. -1.
<mgrwt>
<rscale>  0 0.15342664E+03</rscale>
<asrwt>0</asrwt>
<pdfrwt beam="1">  1        5 0.62822651E+00 0.15342818E+03</pdfrwt>
<pdfrwt beam="2">  1       -5 0.89793891E-03 0.15342818E+03</pdfrwt>
<totfact> 0.25163325E-01</totfact>
</mgrwt>
</event>
<event>
 8    1  0.3674342E-007  0.1463598E+03  0.7546771E-02  0.1205020E+00
          5   -1    0    0  501    0  0.00000000000E+00  0.00000000000E+00  0.55211464319E+02  0.55411152238E+02  0.47000000000E+01 0.  1.
         -5   -1    0    0    0  501 -0.00000000000E+00 -0.00000000000E+00 -0.38757263438E+03  0.38760113122E+03  0.47000000000E+01 0.  1.
         25    2    1    2    0    0  0.32957326122E+02  0.68630709472E+02 -0.17426581182E+03  0.22757364465E+03  0.12499932376E+03 0.  0.
         25    2    1    2    0    0 -0.32957326122E+02 -0.68630709472E+02 -0.15809535824E+03  0.21543863881E+03  0.12499322048E+03 0.  0.
          5    1    4    4  502    0 -0.32319012771E+02  0.26014815520E+02 -0.16152469423E+02  0.44769202377E+02  0.47000000000E+01 0. -1.
         -5    1    4    4    0  502 -0.63831335099E+00 -0.94645524992E+02 -0.14194288882E+03  0.17066943643E+03  0.47000000000E+01 0. -1.
          5    1    3    3  503    0  0.38444312247E+02 -0.11454450304E+02 -0.12926437660E+03  0.13542724480E+03  0.47000000000E+01 0. -1.
         -5    1    3    3    0  503 -0.54869861251E+01  0.80085159776E+02 -0.45001435216E+02  0.92146399846E+02  0.47000000000E+01 0. -1.
<mgrwt>
<rscale>  0 0.14635850E+03</rscale>
<asrwt>0</asrwt>
<pdfrwt beam="1">  1        5 0.85116243E-02 0.14635980E+03</pdfrwt>
<pdfrwt beam="2">  1       -5 0.59644110E-01 0.14635980E+03</pdfrwt>
<totfact> 0.20444224E+02</totfact>
</mgrwt>
</event>
<event>
 8    1  0.3674342E-007  0.1315546E+03  0.7546771E-02  0.1225170E+00
         -5   -1    0    0    0  501 -0.00000000000E+00  0.00000000000E+00  0.34723154937E+02  0.35039798640E+02  0.47000000000E+01 0. -1.
          5   -1    0    0  501    0  0.00000000000E+00 -0.00000000000E+00 -0.53889114861E+03  0.53891164401E+03  0.47000000000E+01 0. -1.
         25    2    1    2    0    0 -0.27401443353E+02 -0.30505535466E+02 -0.17095293750E+03  0.21570727427E+03  0.12499317798E+03 0.  0.
         25    2    1    2    0    0  0.27401443353E+02  0.30505535466E+02 -0.33321505616E+03  0.35824416837E+03  0.12500073490E+03 0.  0.
          5    1    4    4  502    0 -0.70845321320E+01  0.74659246447E+02 -0.18099144668E+03  0.19596986362E+03  0.47000000000E+01 0. -1.
         -5    1    4    4    0  502  0.34485975485E+02 -0.44153710981E+02 -0.15222360949E+03  0.16227430475E+03  0.47000000000E+01 0. -1.
          5    1    3    3  503    0  0.73907404987E+01  0.44265474180E+02 -0.86565356968E+02  0.97620214487E+02  0.47000000000E+01 0.  1.
         -5    1    3    3    0  503 -0.34792183852E+02 -0.74771009645E+02 -0.84387580537E+02  0.11808705979E+03  0.47000000000E+01 0.  1.
<mgrwt>
<rscale>  0 0.13155280E+03</rscale>
<asrwt>0</asrwt>
<pdfrwt beam="2">  1        5 0.82932258E-01 0.13155459E+03</pdfrwt>
<pdfrwt beam="1">  1       -5 0.53679580E-02 0.13155459E+03</pdfrwt>
<totfact> 0.20483749E+02</totfact>
</mgrwt>
</event>
<event>
 8    1  0.3674342E-007  0.1285111E+03  0.7546771E-02  0.1229699E+00
         -5   -1    0    0    0  501 -0.00000000000E+00  0.00000000000E+00  0.26956868104E+03  0.26960965079E+03  0.47000000000E+01 0.  1.
          5   -1    0    0  501    0  0.00000000000E+00 -0.00000000000E+00 -0.61214868316E+02  0.61395033211E+02  0.47000000000E+01 0.  1.
         25    2    1    2    0    0 -0.24232869250E+02  0.17398217071E+02  0.11106788967E+03  0.16982262536E+03  0.12495486408E+03 0.  0.
         25    2    1    2    0    0  0.24232869250E+02 -0.17398217071E+02  0.97285923051E+02  0.16118205864E+03  0.12500070118E+03 0.  0.
          5    1    4    4  502    0  0.16333533073E+02 -0.71572303800E+02  0.55772953115E+02  0.92315173580E+02  0.47000000000E+01 0.  1.
         -5    1    4    4    0  502  0.78993361770E+01  0.54174086729E+02  0.41512969937E+02  0.68866885061E+02  0.47000000000E+01 0.  1.
          5    1    3    3  503    0 -0.48385311011E+02  0.28785138124E+02  0.12655903725E+03  0.13859654544E+03  0.47000000000E+01 0.  1.
         -5    1    3    3    0  503  0.24152441762E+02 -0.11386921054E+02 -0.15491147573E+02  0.31226079921E+02  0.47000000000E+01 0.  1.
<mgrwt>
<rscale>  0 0.12849996E+03</rscale>
<asrwt>0</asrwt>
<pdfrwt beam="2">  1        5 0.94346824E-02 0.12851111E+03</pdfrwt>
<pdfrwt beam="1">  1       -5 0.41489115E-01 0.12851111E+03</pdfrwt>
<totfact> 0.35301365E+02</totfact>
</mgrwt>
</event>
<event>
 8    1  0.3674342E-007  0.1466396E+03  0.7546771E-02  0.1204666E+00
          5   -1    0    0  501    0  0.00000000000E+00  0.00000000000E+00  0.34114302532E+03  0.34117540023E+03  0.47000000000E+01 0. -1.
         -5   -1    0    0    0  501 -0.00000000000E+00 -0.00000000000E+00 -0.83725968712E+02  0.83857783400E+02  0.47000000000E+01 0. -1.
         25    2    1    2    0    0 -0.53838012499E+02 -0.54615585963E+02  0.22856492902E+02  0.14841025859E+03  0.12498716641E+03 0.  0.
         25    2    1    2    0    0  0.53838012499E+02  0.54615585963E+02  0.23456056370E+03  0.27662292504E+03  0.12498076170E+03 0.  0.
          5    1    3    3  502    0 -0.13144836285E+02 -0.51755970928E+02 -0.44402389428E+02  0.69606963980E+02  0.47000000000E+01 0.  1.
         -5    1    3    3    0  502 -0.40693176214E+02 -0.28596150353E+01  0.67258882330E+02  0.78803294607E+02  0.47000000000E+01 0.  1.
          5    1    4    4  503    0  0.73455139930E+01 -0.17334637853E+02 -0.67263557753E+01  0.20537285783E+02  0.47000000000E+01 0.  1.
         -5    1    4    4    0  503  0.46492498506E+02  0.71950223816E+02  0.24128691948E+03  0.25608563926E+03  0.47000000000E+01 0.  1.
<mgrwt>
<rscale>  0 0.14663828E+03</rscale>
<asrwt>0</asrwt>
<pdfrwt beam="1">  1        5 0.52496174E-01 0.14663965E+03</pdfrwt>
<pdfrwt beam="2">  1       -5 0.12893548E-01 0.14663965E+03</pdfrwt>
<totfact> 0.13013607E+02</totfact>
</mgrwt>
</event>
<event>
 8    1  0.3674342E-007  0.1366083E+03  0.7546771E-02  0.1217968E+00
         -5   -1    0    0    0  501 -0.00000000000E+00  0.00000000000E+00  0.68673143328E+02  0.68833789773E+02  0.47000000000E+01 0. -1.
          5   -1    0    0  501    0  0.00000000000E+00 -0.00000000000E+00 -0.33628546860E+03  0.33631831112E+03  0.47000000000E+01 0. -1.
         25    2    1    2    0    0 -0.50784585737E+01  0.54873986063E+02 -0.44740618176E+02  0.14374507218E+03  0.12499591102E+03 0.  0.
         25    2    1    2    0    0  0.50784585737E+01 -0.54873986063E+02 -0.22287170710E+03  0.26140702872E+03  0.12499956699E+03 0.  0.
          5    1    4    4  502    0 -0.40744366513E+02 -0.84220091033E+01 -0.16652721199E+02  0.45060367988E+02  0.47000000000E+01 0. -1.
         -5    1    4    4    0  502  0.45822825086E+02 -0.46451976959E+02 -0.20621898590E+03  0.21634666073E+03  0.47000000000E+01 0. -1.
          5    1    3    3  503    0 -0.64334668393E+02  0.20037218265E+02 -0.25627612704E+02  0.72244752100E+02  0.47000000000E+01 0.  1.
         -5    1    3    3    0  503  0.59256209820E+02  0.34836767797E+02 -0.19113005472E+02  0.71500320076E+02  0.47000000000E+01 0.  1.
<mgrwt>
<rscale>  0 0.13660750E+03</rscale>
<asrwt>0</asrwt>
<pdfrwt beam="2">  1        5 0.51751109E-01 0.13660833E+03</pdfrwt>
<pdfrwt beam="1">  1       -5 0.10579983E-01 0.13660833E+03</pdfrwt>
<totfact> 0.18600301E+02</totfact>
</mgrwt>
</event>
<event>
 8    1  0.3674342E-007  0.1330786E+03  0.7546771E-02  0.1222964E+00
          5   -1    0    0  501    0  0.00000000000E+00  0.00000000000E+00  0.24854599712E+03  0.24859043160E+03  0.47000000000E+01 0.  1.
         -5   -1    0    0    0  501 -0.00000000000E+00 -0.00000000000E+00 -0.77746528742E+02  0.77888463404E+02  0.47000000000E+01 0.  1.
         25    2    1    2    0    0 -0.44684636588E+02 -0.98049794462E+01  0.37793238971E+02  0.13834104294E+03  0.12496823949E+03 0.  0.
         25    2    1    2    0    0  0.44684636588E+02  0.98049794462E+01  0.13300622940E+03  0.18813785206E+03  0.12494934954E+03 0.  0.
          5    1    4    4  502    0  0.33794240892E+02  0.19757569144E+02  0.15572822492E+03  0.16064178252E+03  0.47000000000E+01 0.  1.
         -5    1    4    4    0  502  0.10890395696E+02 -0.99525896983E+01 -0.22721995514E+02  0.27496069542E+02  0.47000000000E+01 0.  1.
          5    1    3    3  503    0 -0.37141147375E+02 -0.15616880895E+02  0.82744429296E+02  0.92152495228E+02  0.47000000000E+01 0. -1.
         -5    1    3    3    0  503 -0.75434892133E+01  0.58119014486E+01 -0.44951190325E+02  0.46188547711E+02  0.47000000000E+01 0. -1.
<mgrwt>
<rscale>  0 0.13307417E+03</rscale>
<asrwt>0</asrwt>
<pdfrwt beam="1">  1        5 0.38252181E-01 0.13307861E+03</pdfrwt>
<pdfrwt beam="2">  1       -5 0.11975341E-01 0.13307861E+03</pdfrwt>
<totfact> 0.27785834E+02</totfact>
</mgrwt>
</event>
<event>
 8    1  0.3674342E-007  0.1531298E+03  0.7546771E-02  0.1196680E+00
          5   -1    0    0  501    0  0.00000000000E+00  0.00000000000E+00  0.85561533702E+02  0.85690524852E+02  0.47000000000E+01 0. -1.
         -5   -1    0    0    0  501 -0.00000000000E+00 -0.00000000000E+00 -0.29886708572E+03  0.29890403966E+03  0.47000000000E+01 0. -1.
         25    2    1    2    0    0  0.29676256140E+02  0.83325869321E+02 -0.16244461249E+03  0.22323912056E+03  0.12499428844E+03 0.  0.
         25    2    1    2    0    0 -0.29676256140E+02 -0.83325869321E+02 -0.50860939528E+02  0.16135544396E+03  0.12499945380E+03 0.  0.
          5    1    3    3  502    0  0.23691034124E+02  0.11870691635E+02 -0.14738096448E+03  0.14981794655E+03  0.47000000000E+01 0. -1.
         -5    1    3    3    0  502  0.59852220169E+01  0.71455177686E+02 -0.15063648010E+02  0.73421174004E+02  0.47000000000E+01 0. -1.
          5    1    4    4  503    0 -0.84873289715E+01 -0.99960496295E+02 -0.74630243747E+02  0.12512353437E+03  0.47000000000E+01 0.  1.
         -5    1    4    4    0  503 -0.21188927169E+02  0.16634626974E+02  0.23769304219E+02  0.36231909585E+02  0.47000000000E+01 0.  1.
<mgrwt>
<rscale>  0 0.15312877E+03</rscale>
<asrwt>0</asrwt>
<pdfrwt beam="1">  1        5 0.13176078E-01 0.15312983E+03</pdfrwt>
<pdfrwt beam="2">  1       -5 0.45992316E-01 0.15312983E+03</pdfrwt>
<totfact> 0.16797576E+02</totfact>
</mgrwt>
</event>
<event>
 8    1  0.3674342E-007  0.1596432E+03  0.7546771E-02  0.1189103E+00
          5   -1    0    0  501    0  0.00000000000E+00  0.00000000000E+00  0.11501103083E+03  0.11510702504E+03  0.47000000000E+01 0. -1.
         -5   -1    0    0    0  501 -0.00000000000E+00 -0.00000000000E+00 -0.24779307160E+03  0.24783764108E+03  0.47000000000E+01 0. -1.
         25    2    1    2    0    0  0.94446577689E+02 -0.30643719211E+02 -0.12563543676E+03  0.20315069521E+03  0.12500699352E+03 0.  0.
         25    2    1    2    0    0 -0.94446577689E+02  0.30643719211E+02 -0.71466040062E+01  0.15979397091E+03  0.12499538242E+03 0.  0.
          5    1    4    4  502    0 -0.97107724865E+02  0.67376107527E+02  0.10374626781E+02  0.11873993841E+03  0.47000000000E+01 0.  1.
         -5    1    4    4    0  502  0.26611471759E+01 -0.36732388316E+02 -0.17521230787E+02  0.41054032493E+02  0.47000000000E+01 0.  1.
          5    1    3    3  503    0  0.57013179259E+02  0.14229140370E+02 -0.13162253214E+03  0.14422049789E+03  0.47000000000E+01 0.  1.
         -5    1    3    3    0  503  0.37433398430E+02 -0.44872859582E+02  0.59870953741E+01  0.58930197319E+02  0.47000000000E+01 0.  1.
<mgrwt>
<rscale>  0 0.15964090E+03</rscale>
<asrwt>0</asrwt>
<pdfrwt beam="1">  1        5 0.17704818E-01 0.15964317E+03</pdfrwt>
<pdfrwt beam="2">  1       -5 0.38132823E-01 0.15964317E+03</pdfrwt>
<totfact> 0.14651278E+02</totfact>
</mgrwt>
</event>
<event>
 8    1  0.3674342E-007  0.1286510E+03  0.7546771E-02  0.1229475E+00
          5   -1    0    0  501    0  0.00000000000E+00  0.00000000000E+00  0.18071775319E+03  0.18077886026E+03  0.47000000000E+01 0.  1.
         -5   -1    0    0    0  501 -0.00000000000E+00 -0.00000000000E+00 -0.94606065606E+02  0.94722740931E+02  0.47000000000E+01 0.  1.
         25    2    1    2    0    0 -0.21452492670E+02 -0.21493084480E+02  0.17889642909E+02  0.12988886707E+03  0.12501566439E+03 0.  0.
         25    2    1    2    0    0  0.21452492670E+02  0.21493084480E+02  0.68222044674E+02  0.14561273412E+03  0.12500663517E+03 0.  0.
          5    1    3    3  502    0  0.46455813952E+02  0.16937873225E+02  0.14074416300E+02  0.51625704775E+02  0.47000000000E+01 0. -1.
         -5    1    3    3    0  502 -0.67908306622E+02 -0.38430957705E+02  0.38152266087E+01  0.78263162295E+02  0.47000000000E+01 0. -1.
          5    1    4    4  503    0  0.47071341097E+02  0.55875317199E+02  0.11120782425E+02  0.74050820566E+02  0.47000000000E+01 0. -1.
         -5    1    4    4    0  503 -0.25618848427E+02 -0.34382232719E+02  0.57101262248E+02  0.71561913556E+02  0.47000000000E+01 0. -1.
<mgrwt>
<rscale>  0 0.12864880E+03</rscale>
<asrwt>0</asrwt>
<pdfrwt beam="1">  1        5 0.27816407E-01 0.12865099E+03</pdfrwt>
<pdfrwt beam="2">  1       -5 0.14568455E-01 0.12865099E+03</pdfrwt>
<totfact> 0.36378894E+02</totfact>
</mgrwt>
</event>
<event>
 8    1  0.3674342E-007  0.1854824E+03  0.7546771E-02  0.1162602E+00
          5   -1    0    0  501    0  0.00000000000E+00  0.00000000000E+00  0.81044523303E+02  0.81180692023E+02  0.47000000000E+01 0.  1.
         -5   -1    0    0    0  501 -0.00000000000E+00 -0.00000000000E+00 -0.43900396477E+03  0.43902912327E+03  0.47000000000E+01 0.  1.
         25    2    1    2    0    0 -0.11236661538E+03 -0.78418397632E+02 -0.22709213657E+03  0.29321419082E+03  0.12501208688E+03 0.  0.
         25    2    1    2    0    0  0.11236661538E+03  0.78418397632E+02 -0.13086730489E+03  0.22699562448E+03  0.12500024281E+03 0.  0.
          5    1    4    4  502    0  0.45564188681E+01  0.15251670623E+02 -0.95665270048E+02  0.97094326833E+02  0.47000000000E+01 0. -1.
         -5    1    4    4    0  502  0.10781019651E+03  0.63166727010E+02 -0.35202034842E+02  0.12990129764E+03  0.47000000000E+01 0. -1.
          5    1    3    3  503    0  0.22658651334E+02 -0.32977824036E+02 -0.31234757462E+02  0.50976969624E+02  0.47000000000E+01 0.  1.
         -5    1    3    3    0  503 -0.13502526671E+03 -0.45440573596E+02 -0.19585737911E+03  0.24223722119E+03  0.47000000000E+01 0.  1.
<mgrwt>
<rscale>  0 0.18548041E+03</rscale>
<asrwt>0</asrwt>
<pdfrwt beam="1">  1        5 0.12480798E-01 0.18548241E+03</pdfrwt>
<pdfrwt beam="2">  1       -5 0.67551480E-01 0.18548241E+03</pdfrwt>
<totfact> 0.85146192E+01</totfact>
</mgrwt>
</event>
<event>
 8    1  0.3674342E-007  0.1320007E+03  0.7546771E-02  0.1224523E+00
         -5   -1    0    0    0  501 -0.00000000000E+00  0.00000000000E+00  0.76697067628E+02  0.76840940798E+02  0.47000000000E+01 0. -1.
          5   -1    0    0  501    0  0.00000000000E+00 -0.00000000000E+00 -0.22870629525E+03  0.22875458353E+03  0.47000000000E+01 0. -1.
         25    2    1    2    0    0  0.29542511405E+02 -0.30376754870E+02 -0.61955975792E+02  0.14580259326E+03  0.12499738416E+03 0.  0.
         25    2    1    2    0    0 -0.29542511405E+02  0.30376754870E+02 -0.90053251827E+02  0.15979293107E+03  0.12501474089E+03 0.  0.
          5    1    4    4  502    0 -0.10300682180E+01  0.75148504709E+02 -0.70134489459E+02  0.10290430220E+03  0.47000000000E+01 0.  1.
         -5    1    4    4    0  502 -0.28512443187E+02 -0.44771749838E+02 -0.19918762368E+02  0.56888628867E+02  0.47000000000E+01 0.  1.
          5    1    3    3  503    0  0.13413651063E+02 -0.51634386735E+02 -0.91309202245E+02  0.10585601704E+03  0.47000000000E+01 0.  1.
         -5    1    3    3    0  503  0.16128860342E+02  0.21257631865E+02  0.29353226453E+02  0.39946576219E+02  0.47000000000E+01 0.  1.
<mgrwt>
<rscale>  0 0.13199662E+03</rscale>
<asrwt>0</asrwt>
<pdfrwt beam="2">  1        5 0.35200365E-01 0.13200073E+03</pdfrwt>
<pdfrwt beam="1">  1       -5 0.11814331E-01 0.13200073E+03</pdfrwt>
<totfact> 0.33559106E+02</totfact>
</mgrwt>
</event>
<event>
 8    1  0.3674342E-007  0.1377082E+03  0.7546771E-02  0.1216447E+00
          5   -1    0    0  501    0  0.00000000000E+00  0.00000000000E+00  0.36749440678E+03  0.36752446043E+03  0.47000000000E+01 0. -1.
         -5   -1    0    0    0  501 -0.00000000000E+00 -0.00000000000E+00 -0.56842511663E+02  0.57036489479E+02  0.47000000000E+01 0. -1.
         25    2    1    2    0    0 -0.62098417697E+01  0.57445811098E+02  0.90151112028E+02  0.16459275961E+03  0.12499988067E+03 0.  0.
         25    2    1    2    0    0  0.62098417697E+01 -0.57445811098E+02  0.22050078309E+03  0.25996819030E+03  0.12499712508E+03 0.  0.
          5    1    3    3  502    0 -0.62229207576E+02  0.25984045540E+02  0.22673031044E+02  0.71300780044E+02  0.47000000000E+01 0. -1.
         -5    1    3    3    0  502  0.56019365807E+02  0.31461765559E+02  0.67478080984E+02  0.93291979562E+02  0.47000000000E+01 0. -1.
          5    1    4    4  503    0  0.15521964020E+02 -0.76347157494E+02  0.61125703774E+02  0.99137588665E+02  0.47000000000E+01 0. -1.
         -5    1    4    4    0  503 -0.93121222498E+01  0.18901346396E+02  0.15937507931E+03  0.16083060163E+03  0.47000000000E+01 0. -1.
<mgrwt>
<rscale>  0 0.13770759E+03</rscale>
<asrwt>0</asrwt>
<pdfrwt beam="1">  1        5 0.56554835E-01 0.13770822E+03</pdfrwt>
<pdfrwt beam="2">  1       -5 0.87622349E-02 0.13770822E+03</pdfrwt>
<totfact> 0.21394911E+02</totfact>
</mgrwt>
</event>
<event>
 8    1  0.3674342E-007  0.1252042E+03  0.7546771E-02  0.1234761E+00
         -5   -1    0    0    0  501 -0.00000000000E+00  0.00000000000E+00  0.97674999400E+01  0.10839467472E+02  0.47000000000E+01 0. -1.
          5   -1    0    0  501    0  0.00000000000E+00 -0.00000000000E+00 -0.18056013578E+04  0.18056074749E+04  0.47000000000E+01 0. -1.
         25    2    1    2    0    0 -0.17257246109E+01 -0.65751142175E+01 -0.53691420534E+03  0.55131928253E+03  0.12501950705E+03 0.  0.
         25    2    1    2    0    0  0.17257246109E+01  0.65751142175E+01 -0.12589196526E+04  0.12651276598E+04  0.12499237517E+03 0.  0.
          5    1    4    4  502    0 -0.59800791171E+01  0.30960150022E+02 -0.12033848640E+04  0.12038070913E+04  0.47000000000E+01 0.  1.
         -5    1    4    4    0  502  0.77058037280E+01 -0.24385035804E+02 -0.55534788547E+02  0.61320568501E+02  0.47000000000E+01 0.  1.
          5    1    3    3  503    0 -0.26351414628E+02  0.52826567780E+02 -0.29994038518E+03  0.30573087508E+03  0.47000000000E+01 0. -1.
         -5    1    3    3    0  503  0.24625690017E+02 -0.59401681997E+02 -0.23697382016E+03  0.24558840745E+03  0.47000000000E+01 0. -1.
<mgrwt>
<rscale>  0 0.12519741E+03</rscale>
<asrwt>0</asrwt>
<pdfrwt beam="2">  1        5 0.27786750E+00 0.12520418E+03</pdfrwt>
<pdfrwt beam="1">  1       -5 0.15856233E-02 0.12520418E+03</pdfrwt>
<totfact> 0.45078794E+01</totfact>
</mgrwt>
</event>
<event>
 8    1  0.3674342E-007  0.2460075E+03  0.7546771E-02  0.1115855E+00
         -5   -1    0    0    0  501 -0.00000000000E+00  0.00000000000E+00  0.27003652848E+03  0.27007742726E+03  0.47000000000E+01 0. -1.
          5   -1    0    0  501    0  0.00000000000E+00 -0.00000000000E+00 -0.33498787394E+03  0.33502084366E+03  0.47000000000E+01 0. -1.
         25    2    1    2    0    0  0.67109070424E+02  0.20097586114E+03  0.14162700160E+03  0.28386246536E+03  0.12499907024E+03 0.  0.
         25    2    1    2    0    0 -0.67109070424E+02 -0.20097586114E+03 -0.20657834705E+03  0.32123580556E+03  0.12499162054E+03 0.  0.
          5    1    3    3  502    0  0.64317575366E+02  0.21663669727E+03  0.14258615754E+03  0.26724728516E+03  0.47000000000E+01 0. -1.
         -5    1    3    3    0  502  0.27914950580E+01 -0.15660836124E+02 -0.95915594317E+00  0.16615180194E+02  0.47000000000E+01 0. -1.
          5    1    4    4  503    0  0.15034848811E+02 -0.93601496662E+02 -0.14332211090E+03  0.17190289215E+03  0.47000000000E+01 0. -1.
         -5    1    4    4    0  503 -0.82143919234E+02 -0.10737436448E+03 -0.63256236151E+02  0.14933291341E+03  0.47000000000E+01 0. -1.
<mgrwt>
<rscale>  0 0.24600656E+03</rscale>
<asrwt>0</asrwt>
<pdfrwt beam="2">  1        5 0.51542279E-01 0.24600750E+03</pdfrwt>
<pdfrwt beam="1">  1       -5 0.41549763E-01 0.24600750E+03</pdfrwt>
<totfact> 0.16517023E+01</totfact>
</mgrwt>
</event>
<event>
 8    1  0.3674342E-007  0.1251975E+03  0.7546771E-02  0.1234761E+00
         -5   -1    0    0    0  501 -0.00000000000E+00  0.00000000000E+00  0.68030611423E+02  0.68192771542E+02  0.47000000000E+01 0. -1.
          5   -1    0    0  501    0  0.00000000000E+00 -0.00000000000E+00 -0.23497091872E+03  0.23501791984E+03  0.47000000000E+01 0. -1.
         25    2    1    2    0    0  0.59212396693E+01  0.39401291259E+01 -0.61296912796E+02  0.13939769090E+03  0.12499527596E+03 0.  0.
         25    2    1    2    0    0 -0.59212396693E+01 -0.39401291259E+01 -0.10564339450E+03  0.16381300048E+03  0.12499434639E+03 0.  0.
          5    1    4    4  502    0  0.47118334307E+02 -0.28633923415E+02 -0.85330745371E+02  0.10170282741E+03  0.47000000000E+01 0. -1.
         -5    1    4    4    0  502 -0.53039573977E+02  0.24693794289E+02 -0.20312649129E+02  0.62110173069E+02  0.47000000000E+01 0. -1.
          5    1    3    3  503    0 -0.38797474904E+02 -0.25060499505E+02 -0.71184441336E+02  0.84985806949E+02  0.47000000000E+01 0. -1.
         -5    1    3    3    0  503  0.44718714574E+02  0.29000628631E+02  0.98875285401E+01  0.54411883947E+02  0.47000000000E+01 0. -1.
<mgrwt>
<rscale>  0 0.12519723E+03</rscale>
<asrwt>0</asrwt>
<pdfrwt beam="2">  1        5 0.36165461E-01 0.12519746E+03</pdfrwt>
<pdfrwt beam="1">  1       -5 0.10482337E-01 0.12519746E+03</pdfrwt>
<totfact> 0.38470933E+02</totfact>
</mgrwt>
</event>
<event>
 8    1  0.3674342E-007  0.1739749E+03  0.7546771E-02  0.1173769E+00
          5   -1    0    0  501    0  0.00000000000E+00  0.00000000000E+00  0.64392084043E+03  0.64393799294E+03  0.47000000000E+01 0. -1.
         -5   -1    0    0    0  501 -0.00000000000E+00 -0.00000000000E+00 -0.48736834931E+02  0.48962935769E+02  0.47000000000E+01 0. -1.
         25    2    1    2    0    0  0.75725385313E+02  0.94345300426E+02  0.22987712358E+03  0.28828934725E+03  0.12502754137E+03 0.  0.
         25    2    1    2    0    0 -0.75725385313E+02 -0.94345300426E+02  0.36530688192E+03  0.40461158145E+03  0.12500417662E+03 0.  0.
          5    1    4    4  502    0 -0.10364613180E+03 -0.47555415841E+02  0.28908496398E+03  0.31079936392E+03  0.47000000000E+01 0.  1.
         -5    1    4    4    0  502  0.27920746485E+02 -0.46789884585E+02  0.76221917940E+02  0.93812217532E+02  0.47000000000E+01 0.  1.
          5    1    3    3  503    0  0.55444787310E+02  0.14538771462E+02  0.16966745149E+02  0.59962161039E+02  0.47000000000E+01 0.  1.
         -5    1    3    3    0  503  0.20280598003E+02  0.79806528964E+02  0.21291037843E+03  0.22832718621E+03  0.47000000000E+01 0.  1.
<mgrwt>
<rscale>  0 0.17397067E+03</rscale>
<asrwt>0</asrwt>
<pdfrwt beam="1">  1        5 0.99083455E-01 0.17397487E+03</pdfrwt>
<pdfrwt beam="2">  1       -5 0.75166865E-02 0.17397487E+03</pdfrwt>
<totfact> 0.82842535E+01</totfact>
</mgrwt>
</event>
<event>
 8    1  0.3674342E-007  0.1266818E+03  0.7546771E-02  0.1232468E+00
         -5   -1    0    0    0  501 -0.00000000000E+00  0.00000000000E+00  0.18590385870E+03  0.18596326164E+03  0.47000000000E+01 0. -1.
          5   -1    0    0  501    0  0.00000000000E+00 -0.00000000000E+00 -0.88319649967E+02  0.88444618662E+02  0.47000000000E+01 0. -1.
         25    2    1    2    0    0 -0.16924932961E+02 -0.11549706200E+02  0.70116864819E+02  0.14478253321E+03  0.12500303245E+03 0.  0.
         25    2    1    2    0    0  0.16924932961E+02  0.11549706200E+02  0.27467343912E+02  0.12962534709E+03  0.12501370548E+03 0.  0.
          5    1    3    3  502    0 -0.44834104023E+00  0.13207998096E+02  0.10081368544E+03  0.10178477978E+03  0.47000000000E+01 0. -1.
         -5    1    3    3    0  502 -0.16476591921E+02 -0.24757704296E+02 -0.30696820623E+02  0.42997753426E+02  0.47000000000E+01 0. -1.
          5    1    4    4  503    0  0.61483067401E+02 -0.23311109252E+02 -0.14024593897E+01  0.65936577739E+02  0.47000000000E+01 0. -1.
         -5    1    4    4    0  503 -0.44558134440E+02  0.34860815452E+02  0.28869803302E+02  0.63688769351E+02  0.47000000000E+01 0. -1.
<mgrwt>
<rscale>  0 0.12667916E+03</rscale>
<asrwt>0</asrwt>
<pdfrwt beam="2">  1        5 0.13601821E-01 0.12668179E+03</pdfrwt>
<pdfrwt beam="1">  1       -5 0.28614776E-01 0.12668179E+03</pdfrwt>
<totfact> 0.38731098E+02</totfact>
</mgrwt>
</event>
<event>
 8    1  0.3674342E-007  0.1606886E+03  0.7546771E-02  0.1187925E+00
         -5   -1    0    0    0  501 -0.00000000000E+00  0.00000000000E+00  0.14364934096E+03  0.14372620902E+03  0.47000000000E+01 0. -1.
          5   -1    0    0  501    0  0.00000000000E+00 -0.00000000000E+00 -0.19347042171E+03  0.19352750212E+03  0.47000000000E+01 0. -1.
         25    2    1    2    0    0 -0.49017139062E+02  0.88280927124E+02  0.20257608467E+02  0.16196049483E+03  0.12499851667E+03 0.  0.
         25    2    1    2    0    0  0.49017139062E+02 -0.88280927124E+02 -0.70078689210E+02  0.17529321630E+03  0.12498194663E+03 0.  0.
          5    1    3    3  502    0 -0.49242169761E+02  0.81300314493E+02 -0.38458872816E+02  0.10264359365E+03  0.47000000000E+01 0.  1.
         -5    1    3    3    0  502  0.22503069889E+00  0.69806126304E+01  0.58716481284E+02  0.59316901182E+02  0.47000000000E+01 0.  1.
          5    1    4    4  503    0 -0.57057147381E+01 -0.94524262133E+02 -0.73416663020E+02  0.11991450172E+03  0.47000000000E+01 0. -1.
         -5    1    4    4    0  503  0.54722853800E+02  0.62433350097E+01  0.33379738103E+01  0.55378714586E+02  0.47000000000E+01 0. -1.
<mgrwt>
<rscale>  0 0.16068539E+03</rscale>
<asrwt>0</asrwt>
<pdfrwt beam="2">  1        5 0.29774984E-01 0.16068862E+03</pdfrwt>
<pdfrwt beam="1">  1       -5 0.22110202E-01 0.16068862E+03</pdfrwt>
<totfact> 0.15894697E+02</totfact>
</mgrwt>
</event>
<event>
 8    1  0.3674342E-007  0.1356960E+03  0.7546771E-02  0.1219243E+00
          5   -1    0    0  501    0  0.00000000000E+00  0.00000000000E+00  0.17336816813E+03  0.17343186478E+03  0.47000000000E+01 0. -1.
         -5   -1    0    0    0  501 -0.00000000000E+00 -0.00000000000E+00 -0.12701570503E+03  0.12710263303E+03  0.47000000000E+01 0. -1.
         25    2    1    2    0    0 -0.45815724011E+02 -0.26228393812E+02 -0.37808031323E+02  0.14086463744E+03  0.12500555844E+03 0.  0.
         25    2    1    2    0    0  0.45815724011E+02  0.26228393812E+02  0.84160494426E+02  0.15966986036E+03  0.12499786509E+03 0.  0.
          5    1    3    3  502    0 -0.77408366988E+02 -0.52357757072E+02 -0.33444263994E+02  0.99367996858E+02  0.47000000000E+01 0.  1.
         -5    1    3    3    0  502  0.31592642977E+02  0.26129363260E+02 -0.43637673292E+01  0.41496640586E+02  0.47000000000E+01 0.  1.
          5    1    4    4  503    0  0.34643566547E+01 -0.91372643823E+01 -0.30482332668E+02  0.32353577427E+02  0.47000000000E+01 0. -1.
         -5    1    4    4    0  503  0.42351367356E+02  0.35365658194E+02  0.11464282709E+03  0.12731628294E+03  0.47000000000E+01 0. -1.
<mgrwt>
<rscale>  0 0.13569421E+03</rscale>
<asrwt>0</asrwt>
<pdfrwt beam="1">  1        5 0.26683612E-01 0.13569598E+03</pdfrwt>
<pdfrwt beam="2">  1       -5 0.19552464E-01 0.13569598E+03</pdfrwt>
<totfact> 0.23444385E+02</totfact>
</mgrwt>
</event>
<event>
 8    1  0.3674342E-007  0.1268924E+03  0.7546771E-02  0.1232157E+00
         -5   -1    0    0    0  501 -0.00000000000E+00  0.00000000000E+00  0.80730632016E+03  0.80732000135E+03  0.47000000000E+01 0.  1.
          5   -1    0    0  501    0  0.00000000000E+00 -0.00000000000E+00 -0.20214400522E+02  0.20753601819E+02  0.47000000000E+01 0.  1.
         25    2    1    2    0    0 -0.76947694930E+01 -0.20144522241E+02  0.46200279726E+03  0.47911194908E+03  0.12504664658E+03 0.  0.
         25    2    1    2    0    0  0.76947694930E+01  0.20144522241E+02  0.32508912239E+03  0.34896165409E+03  0.12500514901E+03 0.  0.
          5    1    4    4  502    0  0.98781894080E+01 -0.15840711560E+02  0.30832654167E+03  0.30892693808E+03  0.47000000000E+01 0. -1.
         -5    1    4    4    0  502 -0.21834199151E+01  0.35985233801E+02  0.16762580712E+02  0.40034716014E+02  0.47000000000E+01 0. -1.
          5    1    3    3  503    0  0.49138565469E+02 -0.64519865358E+01  0.34133997802E+03  0.34495115210E+03  0.47000000000E+01 0.  1.
         -5    1    3    3    0  503 -0.56833334962E+02 -0.13692535705E+02  0.12066281924E+03  0.13416079697E+03  0.47000000000E+01 0.  1.
<mgrwt>
<rscale>  0 0.12688215E+03</rscale>
<asrwt>0</asrwt>
<pdfrwt beam="2">  1        5 0.31524374E-02 0.12689238E+03</pdfrwt>
<pdfrwt beam="1">  1       -5 0.12424349E+00 0.12689238E+03</pdfrwt>
<totfact> 0.18068653E+02</totfact>
</mgrwt>
</event>
<event>
 8    1  0.3674342E-007  0.2273137E+03  0.7546771E-02  0.1128545E+00
         -5   -1    0    0    0  501 -0.00000000000E+00  0.00000000000E+00  0.15211559424E+03  0.15218818617E+03  0.47000000000E+01 0.  1.
          5   -1    0    0  501    0  0.00000000000E+00 -0.00000000000E+00 -0.36493485622E+03  0.36496512064E+03  0.47000000000E+01 0.  1.
         25    2    1    2    0    0  0.15653416766E+03  0.10744284673E+03 -0.38175559627E+02  0.23049702910E+03  0.12499838445E+03 0.  0.
         25    2    1    2    0    0 -0.15653416766E+03 -0.10744284673E+03 -0.17464370236E+03  0.28665627771E+03  0.12499795128E+03 0.  0.
          5    1    4    4  502    0 -0.26071573378E+02 -0.68464321031E+02 -0.11828819200E+02  0.74357925982E+02  0.47000000000E+01 0. -1.
         -5    1    4    4    0  502 -0.13046259428E+03 -0.38978525698E+02 -0.16281488315E+03  0.21229835173E+03  0.47000000000E+01 0. -1.
          5    1    3    3  503    0  0.68600397155E+02  0.59903367612E+02 -0.80690568667E+02  0.12176816420E+03  0.47000000000E+01 0. -1.
         -5    1    3    3    0  503  0.87933770502E+02  0.47539479117E+02  0.42515009040E+02  0.10872886490E+03  0.47000000000E+01 0. -1.
<mgrwt>
<rscale>  0 0.22731362E+03</rscale>
<asrwt>0</asrwt>
<pdfrwt beam="2">  1        5 0.56151736E-01 0.22731368E+03</pdfrwt>
<pdfrwt beam="1">  1       -5 0.23410311E-01 0.22731368E+03</pdfrwt>
<totfact> 0.42279051E+01</totfact>
</mgrwt>
</event>
<event>
 8    1  0.3674342E-007  0.1342960E+03  0.7546771E-02  0.1221218E+00
          5   -1    0    0  501    0  0.00000000000E+00  0.00000000000E+00  0.88098061099E+02  0.88223343676E+02  0.47000000000E+01 0. -1.
         -5   -1    0    0    0  501 -0.00000000000E+00 -0.00000000000E+00 -0.21152634221E+03  0.21157855148E+03  0.47000000000E+01 0. -1.
         25    2    1    2    0    0  0.20867401099E+02  0.44440369613E+02 -0.89182654759E+02  0.16120830664E+03  0.12499670931E+03 0.  0.
         25    2    1    2    0    0 -0.20867401099E+02 -0.44440369613E+02 -0.34245626349E+02  0.13859358852E+03  0.12500009990E+03 0.  0.
          5    1    3    3  502    0  0.48811067512E+02  0.10884802728E+02 -0.10347452824E+03  0.11502202936E+03  0.47000000000E+01 0.  1.
         -5    1    3    3    0  502 -0.27943666413E+02  0.33555566885E+02  0.14291873483E+02  0.46186277283E+02  0.47000000000E+01 0.  1.
          5    1    4    4  503    0  0.31796643869E+02  0.24313461250E+02 -0.32613286288E+02  0.51844839683E+02  0.47000000000E+01 0. -1.
         -5    1    4    4    0  503 -0.52664044967E+02 -0.68753830864E+02 -0.16323400612E+01  0.86748748837E+02  0.47000000000E+01 0. -1.
<mgrwt>
<rscale>  0 0.13429523E+03</rscale>
<asrwt>0</asrwt>
<pdfrwt beam="1">  1        5 0.13567201E-01 0.13429602E+03</pdfrwt>
<pdfrwt beam="2">  1       -5 0.32556167E-01 0.13429602E+03</pdfrwt>
<totfact> 0.30839506E+02</totfact>
</mgrwt>
</event>
<event>
 8    1  0.3674342E-007  0.1329763E+03  0.7546771E-02  0.1223109E+00
         -5   -1    0    0    0  501 -0.00000000000E+00  0.00000000000E+00  0.23870732823E+03  0.23875359380E+03  0.47000000000E+01 0. -1.
          5   -1    0    0  501    0  0.00000000000E+00 -0.00000000000E+00 -0.86428475015E+02  0.86556174208E+02  0.47000000000E+01 0. -1.
         25    2    1    2    0    0 -0.19213284936E+02 -0.41084554387E+02  0.13789654422E+03  0.19156761319E+03  0.12500241032E+03 0.  0.
         25    2    1    2    0    0  0.19213284936E+02  0.41084554387E+02  0.14382308991E+02  0.13374215481E+03  0.12499208869E+03 0.  0.
          5    1    3    3  502    0  0.31230545342E+02 -0.47905206716E+02  0.16279331614E+02  0.59643628584E+02  0.47000000000E+01 0.  1.
         -5    1    3    3    0  502 -0.50443830278E+02  0.68206523290E+01  0.12161721261E+03  0.13192398461E+03  0.47000000000E+01 0.  1.
          5    1    4    4  503    0 -0.94644155298E+01  0.26708097311E+02  0.66457491033E+02  0.72398796521E+02  0.47000000000E+01 0. -1.
         -5    1    4    4    0  503  0.28677700465E+02  0.14376457076E+02 -0.52075182042E+02  0.61343358294E+02  0.47000000000E+01 0. -1.
<mgrwt>
<rscale>  0 0.13297386E+03</rscale>
<asrwt>0</asrwt>
<pdfrwt beam="2">  1        5 0.13310071E-01 0.13297629E+03</pdfrwt>
<pdfrwt beam="1">  1       -5 0.36737586E-01 0.13297629E+03</pdfrwt>
<totfact> 0.24977315E+02</totfact>
</mgrwt>
</event>
<event>
 8    1  0.3674342E-007  0.1456874E+03  0.7546771E-02  0.1205876E+00
         -5   -1    0    0    0  501 -0.00000000000E+00  0.00000000000E+00  0.80341715389E+03  0.80343090130E+03  0.47000000000E+01 0. -1.
          5   -1    0    0  501    0  0.00000000000E+00 -0.00000000000E+00 -0.26621562838E+02  0.27033268540E+02  0.47000000000E+01 0. -1.
         25    2    1    2    0    0  0.74341399806E+02  0.85116736948E+01  0.44057141800E+03  0.46403340025E+03  0.12499891950E+03 0.  0.
         25    2    1    2    0    0 -0.74341399806E+02 -0.85116736948E+01  0.33622417305E+03  0.36643076959E+03  0.12500288814E+03 0.  0.
          5    1    3    3  502    0  0.10247113710E+03  0.32021387384E+02  0.29928764162E+03  0.31799510313E+03  0.47000000000E+01 0. -1.
         -5    1    3    3    0  502 -0.28129737293E+02 -0.23509713690E+02  0.14128377638E+03  0.14603829712E+03  0.47000000000E+01 0. -1.
          5    1    4    4  503    0 -0.58114267196E+02 -0.26223683200E+02  0.33592268304E+03  0.34195188053E+03  0.47000000000E+01 0.  1.
         -5    1    4    4    0  503 -0.16227132610E+02  0.17712009506E+02  0.30149000800E+00  0.24478889062E+02  0.47000000000E+01 0.  1.
<mgrwt>
<rscale>  0 0.14568653E+03</rscale>
<asrwt>0</asrwt>
<pdfrwt beam="2">  1        5 0.41283527E-02 0.14568739E+03</pdfrwt>
<pdfrwt beam="1">  1       -5 0.12363535E+00 0.14568739E+03</pdfrwt>
<totfact> 0.12332266E+02</totfact>
</mgrwt>
</event>
<event>
 8    1  0.3674342E-007  0.1333487E+03  0.7546771E-02  0.1222572E+00
          5   -1    0    0  501    0  0.00000000000E+00  0.00000000000E+00  0.15995690632E+03  0.16002594127E+03  0.47000000000E+01 0.  1.
         -5   -1    0    0    0  501 -0.00000000000E+00 -0.00000000000E+00 -0.14035386028E+03  0.14043253218E+03  0.47000000000E+01 0.  1.
         25    2    1    2    0    0 -0.43340834627E+02  0.16700699756E+02 -0.58839652002E+02  0.14574868036E+03  0.12499292724E+03 0.  0.
         25    2    1    2    0    0  0.43340834627E+02 -0.16700699756E+02  0.78442698048E+02  0.15470979309E+03  0.12499808752E+03 0.  0.
          5    1    4    4  502    0 -0.20155828929E+02 -0.44023034846E+02 -0.18194643241E+01  0.48679415437E+02  0.47000000000E+01 0.  1.
         -5    1    4    4    0  502  0.63496663556E+02  0.27322335090E+02  0.80262162372E+02  0.10603037766E+03  0.47000000000E+01 0.  1.
          5    1    3    3  503    0 -0.24329135158E+02  0.98894643471E+01 -0.97930216851E+02  0.10149938766E+03  0.47000000000E+01 0.  1.
         -5    1    3    3    0  503 -0.19011699469E+02  0.68112354092E+01  0.39090564850E+02  0.44249292703E+02  0.47000000000E+01 0.  1.
<mgrwt>
<rscale>  0 0.13334744E+03</rscale>
<asrwt>0</asrwt>
<pdfrwt beam="1">  1        5 0.24620117E-01 0.13334865E+03</pdfrwt>
<pdfrwt beam="2">  1       -5 0.21604264E-01 0.13334865E+03</pdfrwt>
<totfact> 0.22569335E+02</totfact>
</mgrwt>
</event>
<event>
 8    1  0.3674342E-007  0.1366832E+03  0.7546771E-02  0.1217869E+00
          5   -1    0    0  501    0  0.00000000000E+00  0.00000000000E+00  0.33896868591E+03  0.33900126847E+03  0.47000000000E+01 0.  1.
         -5   -1    0    0    0  501 -0.00000000000E+00 -0.00000000000E+00 -0.55071128389E+02  0.55271323325E+02  0.47000000000E+01 0.  1.
         25    2    1    2    0    0 -0.42390068822E+02  0.35505893566E+02  0.13363334516E+03  0.19114301522E+03  0.12498077818E+03 0.  0.
         25    2    1    2    0    0  0.42390068822E+02 -0.35505893566E+02  0.15026421236E+03  0.20312957658E+03  0.12499881981E+03 0.  0.
          5    1    4    4  502    0  0.67498263952E+00  0.34189411159E+01 -0.21392474483E+02  0.22178203814E+02  0.47000000000E+01 0.  1.
         -5    1    4    4    0  502  0.41715086183E+02 -0.38924834682E+02  0.17165668684E+03  0.18095137277E+03  0.47000000000E+01 0.  1.
          5    1    3    3  503    0 -0.13394645154E+02  0.52658064202E+01  0.14633273080E+03  0.14711391280E+03  0.47000000000E+01 0. -1.
         -5    1    3    3    0  503 -0.28995423669E+02  0.30240087146E+02 -0.12699385633E+02  0.44029102419E+02  0.47000000000E+01 0. -1.
<mgrwt>
<rscale>  0 0.13667905E+03</rscale>
<asrwt>0</asrwt>
<pdfrwt beam="1">  1        5 0.52166932E-01 0.13668318E+03</pdfrwt>
<pdfrwt beam="2">  1       -5 0.84903876E-02 0.13668318E+03</pdfrwt>
<totfact> 0.26804547E+02</totfact>
</mgrwt>
</event>
<event>
 8    1  0.3674342E-007  0.1329288E+03  0.7546771E-02  0.1223177E+00
          5   -1    0    0  501    0  0.00000000000E+00  0.00000000000E+00  0.14209754765E+03  0.14217525469E+03  0.47000000000E+01 0. -1.
         -5   -1    0    0    0  501 -0.00000000000E+00 -0.00000000000E+00 -0.12853886309E+03  0.12862476171E+03  0.47000000000E+01 0. -1.
         25    2    1    2    0    0 -0.26730679761E+02  0.36458468299E+02 -0.18121729428E+02  0.13415839445E+03  0.12500531418E+03 0.  0.
         25    2    1    2    0    0  0.26730679761E+02 -0.36458468299E+02  0.31680413987E+02  0.13664162195E+03  0.12499414013E+03 0.  0.
          5    1    3    3  502    0 -0.64147386172E+02  0.31981484313E+02 -0.47525072138E+02  0.86130279074E+02  0.47000000000E+01 0.  1.
         -5    1    3    3    0  502  0.37416706411E+02  0.44769839864E+01  0.29403342710E+02  0.48028115378E+02  0.47000000000E+01 0.  1.
          5    1    4    4  503    0  0.48702757608E+02 -0.25642686418E+01 -0.33826621783E+02  0.59538763957E+02  0.47000000000E+01 0.  1.
         -5    1    4    4    0  503 -0.21972077846E+02 -0.33894199657E+02  0.65507035770E+02  0.77102857993E+02  0.47000000000E+01 0.  1.
<mgrwt>
<rscale>  0 0.13292622E+03</rscale>
<asrwt>0</asrwt>
<pdfrwt beam="1">  1        5 0.21873746E-01 0.13292884E+03</pdfrwt>
<pdfrwt beam="2">  1       -5 0.19787795E-01 0.13292884E+03</pdfrwt>
<totfact> 0.33261271E+02</totfact>
</mgrwt>
</event>
<event>
 8    1  0.3674342E-007  0.1686831E+03  0.7546771E-02  0.1179229E+00
          5   -1    0    0  501    0  0.00000000000E+00  0.00000000000E+00  0.10387444143E+04  0.10387550473E+04  0.47000000000E+01 0. -1.
         -5   -1    0    0    0  501 -0.00000000000E+00 -0.00000000000E+00 -0.38009902082E+02  0.38299381931E+02  0.47000000000E+01 0. -1.
         25    2    1    2    0    0 -0.77929900857E+02  0.82188859282E+02  0.21424822423E+03  0.27268220919E+03  0.12500083034E+03 0.  0.
         25    2    1    2    0    0  0.77929900857E+02 -0.82188859282E+02  0.78648628798E+03  0.80437222000E+03  0.12500363634E+03 0.  0.
          5    1    4    4  502    0 -0.16352087347E+02 -0.68370466548E+02  0.40851035940E+03  0.41454157234E+03  0.47000000000E+01 0.  1.
         -5    1    4    4    0  502  0.94281988204E+02 -0.13818392735E+02  0.37797592857E+03  0.38983064766E+03  0.47000000000E+01 0.  1.
          5    1    3    3  503    0 -0.10745883010E+03  0.87016896391E+02  0.17803139861E+03  0.22546975255E+03  0.47000000000E+01 0.  1.
         -5    1    3    3    0  503  0.29528929240E+02 -0.48280371088E+01  0.36216825621E+02  0.47212456645E+02  0.47000000000E+01 0.  1.
<mgrwt>
<rscale>  0 0.16868258E+03</rscale>
<asrwt>0</asrwt>
<pdfrwt beam="1">  1        5 0.15982993E+00 0.16868310E+03</pdfrwt>
<pdfrwt beam="2">  1       -5 0.58707623E-02 0.16868310E+03</pdfrwt>
<totfact> 0.35960520E+01</totfact>
</mgrwt>
</event>
<event>
 8    1  0.3674342E-007  0.1424803E+03  0.7546771E-02  0.1210033E+00
          5   -1    0    0  501    0  0.00000000000E+00  0.00000000000E+00  0.27351371639E+03  0.27355409530E+03  0.47000000000E+01 0.  1.
         -5   -1    0    0    0  501 -0.00000000000E+00 -0.00000000000E+00 -0.81222022461E+02  0.81357894101E+02  0.47000000000E+01 0.  1.
         25    2    1    2    0    0  0.58110075445E+02 -0.35993143763E+02  0.43645802030E+02  0.14901543643E+03  0.12501342725E+03 0.  0.
         25    2    1    2    0    0 -0.58110075445E+02  0.35993143763E+02  0.14864589190E+03  0.20589655297E+03  0.12500200830E+03 0.  0.
          5    1    3    3  502    0  0.64498310669E+02 -0.66801459012E+02  0.62504576671E+02  0.11203293761E+03  0.47000000000E+01 0. -1.
         -5    1    3    3    0  502 -0.63882352236E+01  0.30808315249E+02 -0.18858774641E+02  0.36982498816E+02  0.47000000000E+01 0. -1.
          5    1    4    4  503    0 -0.14710998631E+01  0.46719175664E+02  0.63021212935E+00  0.46982259172E+02  0.47000000000E+01 0. -1.
         -5    1    4    4    0  503 -0.56638975582E+02 -0.10726031901E+02  0.14801567977E+03  0.15891429380E+03  0.47000000000E+01 0. -1.
<mgrwt>
<rscale>  0 0.14247782E+03</rscale>
<asrwt>0</asrwt>
<pdfrwt beam="1">  1        5 0.42092591E-01 0.14248033E+03</pdfrwt>
<pdfrwt beam="2">  1       -5 0.12509254E-01 0.14248033E+03</pdfrwt>
<totfact> 0.21637330E+02</totfact>
</mgrwt>
</event>
<event>
 8    1  0.3674342E-007  0.1510250E+03  0.7546771E-02  0.1199222E+00
         -5   -1    0    0    0  501 -0.00000000000E+00  0.00000000000E+00  0.27514630161E+02  0.27913166658E+02  0.47000000000E+01 0.  1.
          5   -1    0    0  501    0  0.00000000000E+00 -0.00000000000E+00 -0.84258453007E+03  0.84259763844E+03  0.47000000000E+01 0.  1.
         25    2    1    2    0    0 -0.55361511841E+02 -0.64163904491E+02 -0.34044442938E+03  0.37243918398E+03  0.12500653037E+03 0.  0.
         25    2    1    2    0    0  0.55361511841E+02  0.64163904491E+02 -0.47462547053E+03  0.49807162112E+03  0.12499639539E+03 0.  0.
          5    1    4    4  502    0  0.94545218179E+02  0.55093222169E+02 -0.37047577113E+03  0.38632686731E+03  0.47000000000E+01 0. -1.
         -5    1    4    4    0  502 -0.39183706338E+02  0.90706823219E+01 -0.10414969940E+03  0.11174475381E+03  0.47000000000E+01 0. -1.
          5    1    3    3  503    0 -0.81581902190E+01  0.18851499019E+02 -0.20813144600E+03  0.20919542035E+03  0.47000000000E+01 0. -1.
         -5    1    3    3    0  503 -0.47203321622E+02 -0.83015403510E+02 -0.13231298338E+03  0.16324376363E+03  0.47000000000E+01 0. -1.
<mgrwt>
<rscale>  0 0.15102286E+03</rscale>
<asrwt>0</asrwt>
<pdfrwt beam="2">  1        5 0.12966003E+00 0.15102495E+03</pdfrwt>
<pdfrwt beam="1">  1       -5 0.42646857E-02 0.15102495E+03</pdfrwt>
<totfact> 0.10449951E+02</totfact>
</mgrwt>
</event>
<event>
 8    1  0.3674342E-007  0.1316297E+03  0.7546771E-02  0.1225058E+00
          5   -1    0    0  501    0  0.00000000000E+00  0.00000000000E+00  0.76471841906E+03  0.76473286215E+03  0.47000000000E+01 0.  1.
         -5   -1    0    0    0  501 -0.00000000000E+00 -0.00000000000E+00 -0.22616831923E+02  0.23100023512E+02  0.47000000000E+01 0.  1.
         25    2    1    2    0    0 -0.10707615587E+02  0.39842570348E+02  0.33277255914E+03  0.35786025328E+03  0.12499720523E+03 0.  0.
         25    2    1    2    0    0  0.10707615587E+02 -0.39842570348E+02  0.40932902800E+03  0.42997263239E+03  0.12499651194E+03 0.  0.
          5    1    3    3  502    0  0.42643261601E+02  0.53996712796E+02  0.12426768900E+03  0.14212192400E+03  0.47000000000E+01 0. -1.
         -5    1    3    3    0  502 -0.53350877188E+02 -0.14154142448E+02  0.20850487015E+03  0.21573832928E+03  0.47000000000E+01 0. -1.
          5    1    4    4  503    0  0.18959375363E+02 -0.53380471835E+02  0.40950896368E+03  0.41343513884E+03  0.47000000000E+01 0.  1.
         -5    1    4    4    0  503 -0.82517597764E+01  0.13537901487E+02 -0.17993568556E+00  0.16537493550E+02  0.47000000000E+01 0.  1.
<mgrwt>
<rscale>  0 0.13162956E+03</rscale>
<asrwt>0</asrwt>
<pdfrwt beam="1">  1        5 0.11768724E+00 0.13162973E+03</pdfrwt>
<pdfrwt beam="2">  1       -5 0.35177931E-02 0.13162973E+03</pdfrwt>
<totfact> 0.17589748E+02</totfact>
</mgrwt>
</event>
<event>
 8    1  0.3674342E-007  0.1580522E+03  0.7546771E-02  0.1190915E+00
          5   -1    0    0  501    0  0.00000000000E+00  0.00000000000E+00  0.14988719272E+03  0.14996086336E+03  0.47000000000E+01 0.  1.
         -5   -1    0    0    0  501 -0.00000000000E+00 -0.00000000000E+00 -0.17241003166E+03  0.17247408216E+03  0.47000000000E+01 0.  1.
         25    2    1    2    0    0 -0.58110765065E+02  0.77302726302E+02 -0.41072736755E+02  0.16329790961E+03  0.12500666009E+03 0.  0.
         25    2    1    2    0    0  0.58110765065E+02 -0.77302726302E+02  0.18549897813E+02  0.15913703591E+03  0.12501169937E+03 0.  0.
          5    1    4    4  502    0  0.96213413161E+01 -0.82457514299E+02  0.53575344167E+02  0.98915213065E+02  0.47000000000E+01 0.  1.
         -5    1    4    4    0  502  0.48489423749E+02  0.51547879970E+01 -0.35025446354E+02  0.60221822848E+02  0.47000000000E+01 0.  1.
          5    1    3    3  503    0 -0.53848084313E+02 -0.11338913185E+02  0.16220332006E+02  0.57561934529E+02  0.47000000000E+01 0.  1.
         -5    1    3    3    0  503 -0.42626807526E+01  0.88641639486E+02 -0.57293068761E+02  0.10573597508E+03  0.47000000000E+01 0.  1.
<mgrwt>
<rscale>  0 0.15805120E+03</rscale>
<asrwt>0</asrwt>
<pdfrwt beam="1">  1        5 0.23070162E-01 0.15805220E+03</pdfrwt>
<pdfrwt beam="2">  1       -5 0.26535214E-01 0.15805220E+03</pdfrwt>
<totfact> 0.18260881E+02</totfact>
</mgrwt>
</event>
<event>
 8    1  0.3674342E-007  0.1326204E+03  0.7546771E-02  0.1223619E+00
          5   -1    0    0  501    0  0.00000000000E+00  0.00000000000E+00  0.82277833120E+02  0.82411964077E+02  0.47000000000E+01 0.  1.
         -5   -1    0    0    0  501 -0.00000000000E+00 -0.00000000000E+00 -0.21347968664E+03  0.21353141832E+03  0.47000000000E+01 0.  1.
         25    2    1    2    0    0  0.25434476846E+02  0.36257678013E+02 -0.67889624255E+02  0.14898552178E+03  0.12500461108E+03 0.  0.
         25    2    1    2    0    0 -0.25434476846E+02 -0.36257678013E+02 -0.63312229269E+02  0.14695786062E+03  0.12500657021E+03 0.  0.
          5    1    3    3  502    0 -0.21762373871E+02  0.37390429905E+02  0.20930019835E+02  0.48288724308E+02  0.47000000000E+01 0.  1.
         -5    1    3    3    0  502  0.47196850717E+02 -0.11327518920E+01 -0.88819644091E+02  0.10069679747E+03  0.47000000000E+01 0.  1.
          5    1    4    4  503    0  0.42402401184E+02 -0.77952279758E+01  0.83327979698E+01  0.44161688457E+02  0.47000000000E+01 0. -1.
         -5    1    4    4    0  503 -0.67836878030E+02 -0.28462450037E+02 -0.71645027239E+02  0.10279617216E+03  0.47000000000E+01 0. -1.
<mgrwt>
<rscale>  0 0.13261995E+03</rscale>
<asrwt>0</asrwt>
<pdfrwt beam="1">  1        5 0.12672425E-01 0.13262041E+03</pdfrwt>
<pdfrwt beam="2">  1       -5 0.32857326E-01 0.13262041E+03</pdfrwt>
<totfact> 0.34057159E+02</totfact>
</mgrwt>
</event>
<event>
 8    1  0.3674342E-007  0.1332855E+03  0.7546771E-02  0.1222661E+00
         -5   -1    0    0    0  501 -0.00000000000E+00  0.00000000000E+00  0.78495712804E+03  0.78497119874E+03  0.47000000000E+01 0.  1.
          5   -1    0    0  501    0  0.00000000000E+00 -0.00000000000E+00 -0.24303276729E+02  0.24753570646E+02  0.47000000000E+01 0.  1.
         25    2    1    2    0    0 -0.16150025501E+02  0.43341882128E+02  0.49331432236E+03  0.51100297837E+03  0.12500272476E+03 0.  0.
         25    2    1    2    0    0  0.16150025501E+02 -0.43341882128E+02  0.26733952895E+03  0.29872179102E+03  0.12499977047E+03 0.  0.
          5    1    3    3  502    0  0.19163905082E+02  0.10325747695E+02  0.43295470874E+03  0.43352709966E+03  0.47000000000E+01 0. -1.
         -5    1    3    3    0  502 -0.35313930582E+02  0.33016134433E+02  0.60359613616E+02  0.77475878711E+02  0.47000000000E+01 0. -1.
          5    1    4    4  503    0  0.50896622758E+02  0.21908878781E+01  0.42066676069E+02  0.66234140995E+02  0.47000000000E+01 0. -1.
         -5    1    4    4    0  503 -0.34746597257E+02 -0.45532770006E+02  0.22527285288E+03  0.23248765002E+03  0.47000000000E+01 0. -1.
<mgrwt>
<rscale>  0 0.13328480E+03</rscale>
<asrwt>0</asrwt>
<pdfrwt beam="2">  1        5 0.37746858E-02 0.13328550E+03</pdfrwt>
<pdfrwt beam="1">  1       -5 0.12079836E+00 0.13328550E+03</pdfrwt>
<totfact> 0.14735741E+02</totfact>
</mgrwt>
</event>
<event>
 8    1  0.3674342E-007  0.1312310E+03  0.7546771E-02  0.1225641E+00
         -5   -1    0    0    0  501 -0.00000000000E+00  0.00000000000E+00  0.43046761915E+02  0.43302583195E+02  0.47000000000E+01 0. -1.
          5   -1    0    0  501    0  0.00000000000E+00 -0.00000000000E+00 -0.40286127530E+03  0.40288869075E+03  0.47000000000E+01 0. -1.
         25    2    1    2    0    0 -0.25908859784E+02  0.30402032951E+02 -0.15699598443E+03  0.20461993668E+03  0.12500410688E+03 0.  0.
         25    2    1    2    0    0  0.25908859784E+02 -0.30402032951E+02 -0.20281852896E+03  0.24157133727E+03  0.12500321067E+03 0.  0.
          5    1    3    3  502    0 -0.52943073939E+02  0.48487873284E+02 -0.38394005749E+02  0.81548958370E+02  0.47000000000E+01 0. -1.
         -5    1    3    3    0  502  0.27034214154E+02 -0.18085840333E+02 -0.11860197868E+03  0.12307097831E+03  0.47000000000E+01 0. -1.
          5    1    4    4  503    0  0.34649228323E+02 -0.71371700658E+02 -0.84668256169E+02  0.11612619119E+03  0.47000000000E+01 0.  1.
         -5    1    4    4    0  503 -0.87403685389E+01  0.40969667707E+02 -0.11815027279E+03  0.12544514608E+03  0.47000000000E+01 0.  1.
<mgrwt>
<rscale>  0 0.13123080E+03</rscale>
<asrwt>0</asrwt>
<pdfrwt beam="2">  1        5 0.62000443E-01 0.13123102E+03</pdfrwt>
<pdfrwt beam="1">  1       -5 0.66443665E-02 0.13123102E+03</pdfrwt>
<totfact> 0.27623358E+02</totfact>
</mgrwt>
</event>
<event>
 8    1  0.3674342E-007  0.1598558E+03  0.7546771E-02  0.1188880E+00
         -5   -1    0    0    0  501 -0.00000000000E+00  0.00000000000E+00  0.27828159601E+02  0.28222268987E+02  0.47000000000E+01 0. -1.
          5   -1    0    0  501    0  0.00000000000E+00 -0.00000000000E+00 -0.12707809053E+04  0.12707895967E+04  0.47000000000E+01 0. -1.
         25    2    1    2    0    0 -0.32731703559E+02 -0.93987205403E+02 -0.27604171423E+03  0.31898732122E+03  0.12509565904E+03 0.  0.
         25    2    1    2    0    0  0.32731703559E+02  0.93987205403E+02 -0.96691103144E+03  0.98002454450E+03  0.12500482358E+03 0.  0.
          5    1    3    3  502    0 -0.33782095251E+02 -0.97348400427E+02 -0.28786379468E+03  0.30578684620E+03  0.47000000000E+01 0. -1.
         -5    1    3    3    0  502  0.10503916914E+01  0.33611950238E+01  0.11822080449E+02  0.13200475023E+02  0.47000000000E+01 0. -1.
          5    1    4    4  503    0  0.76396956705E+01  0.48989901318E+02 -0.10142170892E+03  0.11299039083E+03  0.47000000000E+01 0.  1.
         -5    1    4    4    0  503  0.25092007889E+02  0.44997304085E+02 -0.86548932252E+03  0.86703415367E+03  0.47000000000E+01 0.  1.
<mgrwt>
<rscale>  0 0.15983805E+03</rscale>
<asrwt>0</asrwt>
<pdfrwt beam="2">  1        5 0.19553569E+00 0.15985582E+03</pdfrwt>
<pdfrwt beam="1">  1       -5 0.43122410E-02 0.15985582E+03</pdfrwt>
<totfact> 0.32779052E+01</totfact>
</mgrwt>
</event>
<event>
 8    1  0.3674342E-007  0.1261323E+03  0.7546771E-02  0.1233324E+00
         -5   -1    0    0    0  501 -0.00000000000E+00  0.00000000000E+00  0.20081494925E+03  0.20086994260E+03  0.47000000000E+01 0.  1.
          5   -1    0    0  501    0  0.00000000000E+00 -0.00000000000E+00 -0.79360478663E+02  0.79499531908E+02  0.47000000000E+01 0.  1.
         25    2    1    2    0    0  0.10134949460E+00 -0.16891203087E+02  0.69262626836E+02  0.14389815941E+03  0.12499618310E+03 0.  0.
         25    2    1    2    0    0 -0.10134949460E+00  0.16891203087E+02  0.52191843750E+02  0.13647131511E+03  0.12496042685E+03 0.  0.
          5    1    3    3  502    0  0.21435182410E+02  0.49955023443E+02  0.40349764914E+02  0.67861365597E+02  0.47000000000E+01 0. -1.
         -5    1    3    3    0  502 -0.21333832915E+02 -0.66846226530E+02  0.28912861922E+02  0.76036793808E+02  0.47000000000E+01 0. -1.
          5    1    4    4  503    0  0.35908419166E+02  0.20968433297E+02 -0.26622091363E+02  0.49597535327E+02  0.47000000000E+01 0. -1.
         -5    1    4    4    0  503 -0.36009768661E+02 -0.40772302095E+01  0.78813935112E+02  0.86873779779E+02  0.47000000000E+01 0. -1.
<mgrwt>
<rscale>  0 0.12612349E+03</rscale>
<asrwt>0</asrwt>
<pdfrwt beam="2">  1        5 0.12224231E-01 0.12613235E+03</pdfrwt>
<pdfrwt beam="1">  1       -5 0.30909534E-01 0.12613235E+03</pdfrwt>
<totfact> 0.40217266E+02</totfact>
</mgrwt>
</event>
<event>
 8    1  0.3674342E-007  0.1483462E+03  0.7546771E-02  0.1202531E+00
          5   -1    0    0  501    0  0.00000000000E+00  0.00000000000E+00  0.23660093787E+03  0.23664761525E+03  0.47000000000E+01 0.  1.
         -5   -1    0    0    0  501 -0.00000000000E+00 -0.00000000000E+00 -0.96165582504E+02  0.96280367979E+02  0.47000000000E+01 0.  1.
         25    2    1    2    0    0  0.18013423790E+02  0.77819035417E+02  0.39440400674E+02  0.15346605024E+03  0.12496398545E+03 0.  0.
         25    2    1    2    0    0 -0.18013423790E+02 -0.77819035417E+02  0.10099495469E+03  0.17946193299E+03  0.12500527512E+03 0.  0.
          5    1    3    3  502    0  0.70526873759E+02  0.31653614844E+02  0.12816902568E+02  0.78500663987E+02  0.47000000000E+01 0.  1.
         -5    1    3    3    0  502 -0.52513449969E+02  0.46165420573E+02  0.26623498106E+02  0.74965386251E+02  0.47000000000E+01 0.  1.
          5    1    4    4  503    0 -0.62401635002E+02 -0.22350908327E+02  0.82439067481E+02  0.10588586781E+03  0.47000000000E+01 0. -1.
         -5    1    4    4    0  503  0.44388211212E+02 -0.55468127090E+02  0.18555887213E+02  0.73576065182E+02  0.47000000000E+01 0. -1.
<mgrwt>
<rscale>  0 0.14833753E+03</rscale>
<asrwt>0</asrwt>
<pdfrwt beam="1">  1        5 0.36412564E-01 0.14834623E+03</pdfrwt>
<pdfrwt beam="2">  1       -5 0.14807126E-01 0.14834623E+03</pdfrwt>
<totfact> 0.21777800E+02</totfact>
</mgrwt>
</event>
<event>
 8    1  0.3674342E-007  0.1718392E+03  0.7546771E-02  0.1175952E+00
         -5   -1    0    0    0  501 -0.00000000000E+00  0.00000000000E+00  0.34477000484E+03  0.34480203920E+03  0.47000000000E+01 0.  1.
          5   -1    0    0  501    0  0.00000000000E+00 -0.00000000000E+00 -0.87127889761E+02  0.87254565349E+02  0.47000000000E+01 0.  1.
         25    2    1    2    0    0 -0.11376360232E+03 -0.30827420745E+02  0.15803072881E+03  0.23343349006E+03  0.12499998380E+03 0.  0.
         25    2    1    2    0    0  0.11376360232E+03  0.30827420745E+02  0.99611386268E+02  0.19862311449E+03  0.12504489695E+03 0.  0.
          5    1    3    3  502    0 -0.71717791284E+02 -0.16050352994E+02  0.48159511721E+01  0.73799314384E+02  0.47000000000E+01 0.  1.
         -5    1    3    3    0  502 -0.42045811036E+02 -0.14777067750E+02  0.15321477763E+03  0.15963417567E+03  0.47000000000E+01 0.  1.
          5    1    4    4  503    0  0.74874541836E+02  0.24484384917E+02 -0.12314171846E+02  0.79871214766E+02  0.47000000000E+01 0. -1.
         -5    1    4    4    0  503  0.38889060484E+02  0.63430358277E+01  0.11192555811E+03  0.11875189972E+03  0.47000000000E+01 0. -1.
<mgrwt>
<rscale>  0 0.17183104E+03</rscale>
<asrwt>0</asrwt>
<pdfrwt beam="2">  1        5 0.13416499E-01 0.17183921E+03</pdfrwt>
<pdfrwt beam="1">  1       -5 0.53053748E-01 0.17183921E+03</pdfrwt>
<totfact> 0.12443956E+02</totfact>
</mgrwt>
</event>
<event>
 8    1  0.3674342E-007  0.1400438E+03  0.7546771E-02  0.1213274E+00
          5   -1    0    0  501    0  0.00000000000E+00  0.00000000000E+00  0.43774006421E+02  0.44025602075E+02  0.47000000000E+01 0.  1.
         -5   -1    0    0    0  501 -0.00000000000E+00 -0.00000000000E+00 -0.57891846597E+03  0.57893754433E+03  0.47000000000E+01 0.  1.
         25    2    1    2    0    0 -0.31836058336E+02  0.54511538322E+02 -0.41652606461E+03  0.43943497667E+03  0.12499637512E+03 0.  0.
         25    2    1    2    0    0  0.31836058336E+02 -0.54511538322E+02 -0.11861839493E+03  0.18352816974E+03  0.12500889189E+03 0.  0.
          5    1    3    3  502    0 -0.25072126336E+02  0.88500979019E+02 -0.20109912072E+03  0.22118766051E+03  0.47000000000E+01 0.  1.
         -5    1    3    3    0  502 -0.67639320005E+01 -0.33989440697E+02 -0.21542694390E+03  0.21824731616E+03  0.47000000000E+01 0.  1.
          5    1    4    4  503    0 -0.24607585224E+02 -0.27383007386E+01 -0.10192867944E+03  0.10499798681E+03  0.47000000000E+01 0.  1.
         -5    1    4    4    0  503  0.56443643560E+02 -0.51773237583E+02 -0.16689715491E+02  0.78530182932E+02  0.47000000000E+01 0.  1.
<mgrwt>
<rscale>  0 0.14004101E+03</rscale>
<asrwt>0</asrwt>
<pdfrwt beam="1">  1        5 0.67552840E-02 0.14004380E+03</pdfrwt>
<pdfrwt beam="2">  1       -5 0.89085195E-01 0.14004380E+03</pdfrwt>
<totfact> 0.12012300E+02</totfact>
</mgrwt>
</event>
<event>
 8    1  0.3674342E-007  0.1699997E+03  0.7546771E-02  0.1177849E+00
          5   -1    0    0  501    0  0.00000000000E+00  0.00000000000E+00  0.60959508884E+02  0.61140426261E+02  0.47000000000E+01 0. -1.
         -5   -1    0    0    0  501 -0.00000000000E+00 -0.00000000000E+00 -0.47319314510E+03  0.47321648594E+03  0.47000000000E+01 0. -1.
         25    2    1    2    0    0 -0.50092334349E+02  0.10375037203E+03 -0.20758254307E+03  0.26830812530E+03  0.12500142501E+03 0.  0.
         25    2    1    2    0    0  0.50092334349E+02 -0.10375037203E+03 -0.20465109314E+03  0.26604878690E+03  0.12500602159E+03 0.  0.
          5    1    3    3  502    0 -0.58663323681E+02  0.12931171423E+03 -0.18159610611E+03  0.23056916692E+03  0.47000000000E+01 0.  1.
         -5    1    3    3    0  502  0.85709893319E+01 -0.25561342198E+02 -0.25986436966E+02  0.37738958376E+02  0.47000000000E+01 0.  1.
          5    1    4    4  503    0  0.26903800945E+02 -0.92881387627E+02 -0.49511296279E+02  0.10873925295E+03  0.47000000000E+01 0. -1.
         -5    1    4    4    0  503  0.23188533404E+02 -0.10868984402E+02 -0.15513979686E+03  0.15730953395E+03  0.47000000000E+01 0. -1.
<mgrwt>
<rscale>  0 0.16999882E+03</rscale>
<asrwt>0</asrwt>
<pdfrwt beam="1">  1        5 0.93940985E-02 0.16999967E+03</pdfrwt>
<pdfrwt beam="2">  1       -5 0.72814655E-01 0.16999967E+03</pdfrwt>
<totfact> 0.11565314E+02</totfact>
</mgrwt>
</event>
<event>
 8    1  0.3674342E-007  0.1316457E+03  0.7546771E-02  0.1225035E+00
         -5   -1    0    0    0  501 -0.00000000000E+00  0.00000000000E+00  0.56049442592E+03  0.56051413139E+03  0.47000000000E+01 0. -1.
          5   -1    0    0  501    0  0.00000000000E+00 -0.00000000000E+00 -0.36143396885E+02  0.36447704158E+02  0.47000000000E+01 0. -1.
         25    2    1    2    0    0 -0.41174037428E+02 -0.30997456448E+01  0.37723333338E+03  0.39954296346E+03  0.12499872821E+03 0.  0.
         25    2    1    2    0    0  0.41174037428E+02  0.30997456448E+01  0.14711769566E+03  0.19741887209E+03  0.12500273958E+03 0.  0.
          5    1    3    3  502    0 -0.30225310695E+02  0.53739229378E+02  0.27593303946E+03  0.28277660166E+03  0.47000000000E+01 0. -1.
         -5    1    3    3    0  502 -0.10948726733E+02 -0.56838975023E+02  0.10130029392E+03  0.11676636180E+03  0.47000000000E+01 0. -1.
          5    1    4    4  503    0  0.38469298326E+02  0.25268015063E+02 -0.22481558496E+01  0.46319582291E+02  0.47000000000E+01 0. -1.
         -5    1    4    4    0  503  0.27047391023E+01 -0.22168269418E+02  0.14936585151E+03  0.15109928980E+03  0.47000000000E+01 0. -1.
<mgrwt>
<rscale>  0 0.13164476E+03</rscale>
<asrwt>0</asrwt>
<pdfrwt beam="2">  1        5 0.55854473E-02 0.13164572E+03</pdfrwt>
<pdfrwt beam="1">  1       -5 0.86254826E-01 0.13164572E+03</pdfrwt>
<totfact> 0.17492172E+02</totfact>
</mgrwt>
</event>
<event>
 8    1  0.3674342E-007  0.1580580E+03  0.7546771E-02  0.1190908E+00
         -5   -1    0    0    0  501 -0.00000000000E+00  0.00000000000E+00  0.64619878192E+02  0.64790575376E+02  0.47000000000E+01 0. -1.
          5   -1    0    0  501    0  0.00000000000E+00 -0.00000000000E+00 -0.38594807892E+03  0.38597669570E+03  0.47000000000E+01 0. -1.
         25    2    1    2    0    0  0.86867872153E+02  0.42551217443E+02 -0.15822229118E+03  0.22364396723E+03  0.12500278931E+03 0.  0.
         25    2    1    2    0    0 -0.86867872153E+02 -0.42551217443E+02 -0.16310590955E+03  0.22712330385E+03  0.12499929640E+03 0.  0.
          5    1    4    4  502    0 -0.11905734151E+03 -0.37145156121E+02 -0.12342826594E+03  0.17553073811E+03  0.47000000000E+01 0. -1.
         -5    1    4    4    0  502  0.32189469354E+02 -0.54060613213E+01 -0.39677643613E+02  0.51592565733E+02  0.47000000000E+01 0. -1.
          5    1    3    3  503    0  0.52019600795E+02  0.59386027146E+02 -0.22198882894E+02  0.82143895018E+02  0.47000000000E+01 0. -1.
         -5    1    3    3    0  503  0.34848271358E+02 -0.16834809703E+02 -0.13602340829E+03  0.14150007221E+03  0.47000000000E+01 0. -1.
<mgrwt>
<rscale>  0 0.15805731E+03</rscale>
<asrwt>0</asrwt>
<pdfrwt beam="2">  1        5 0.59391958E-01 0.15805800E+03</pdfrwt>
<pdfrwt beam="1">  1       -5 0.99568518E-02 0.15805800E+03</pdfrwt>
<totfact> 0.16113614E+02</totfact>
</mgrwt>
</event>
<event>
 8    1  0.3674342E-007  0.1264840E+03  0.7546771E-02  0.1232773E+00
         -5   -1    0    0    0  501 -0.00000000000E+00  0.00000000000E+00  0.14214822576E+02  0.14971679293E+02  0.47000000000E+01 0. -1.
          5   -1    0    0  501    0  0.00000000000E+00 -0.00000000000E+00 -0.13927546527E+04  0.13927625830E+04  0.47000000000E+01 0. -1.
         25    2    1    2    0    0  0.69126726117E+01  0.18042054261E+02 -0.36416057860E+03  0.38550112934E+03  0.12499957180E+03 0.  0.
         25    2    1    2    0    0 -0.69126726117E+01 -0.18042054261E+02 -0.10143792516E+04  0.10222331330E+04  0.12498804516E+03 0.  0.
          5    1    4    4  502    0 -0.33391534192E+02  0.43356997961E+02 -0.59512245905E+03  0.59765178414E+03  0.47000000000E+01 0.  1.
         -5    1    4    4    0  502  0.26478861581E+02 -0.61399052222E+02 -0.41925679252E+03  0.42458134886E+03  0.47000000000E+01 0.  1.
          5    1    3    3  503    0  0.51235359134E+02  0.19245945230E+02 -0.31236198948E+03  0.31715543651E+03  0.47000000000E+01 0. -1.
         -5    1    3    3    0  503 -0.44322686523E+02 -0.12038909692E+01 -0.51798589124E+02  0.68345692836E+02  0.47000000000E+01 0. -1.
<mgrwt>
<rscale>  0 0.12648112E+03</rscale>
<asrwt>0</asrwt>
<pdfrwt beam="2">  1        5 0.21432867E+00 0.12648397E+03</pdfrwt>
<pdfrwt beam="1">  1       -5 0.22457267E-02 0.12648397E+03</pdfrwt>
<totfact> 0.66072925E+01</totfact>
</mgrwt>
</event>
<event>
 8    1  0.3674342E-007  0.1420638E+03  0.7546771E-02  0.1210582E+00
          5   -1    0    0  501    0  0.00000000000E+00  0.00000000000E+00  0.45242411542E+02  0.45485885746E+02  0.47000000000E+01 0. -1.
         -5   -1    0    0    0  501 -0.00000000000E+00 -0.00000000000E+00 -0.45877410684E+03  0.45879818124E+03  0.47000000000E+01 0. -1.
         25    2    1    2    0    0 -0.19646655810E+02 -0.64568742713E+02 -0.25106733115E+03  0.28847346549E+03  0.12500808735E+03 0.  0.
         25    2    1    2    0    0  0.19646655810E+02  0.64568742713E+02 -0.16246436415E+03  0.21581060149E+03  0.12499772989E+03 0.  0.
          5    1    4    4  502    0 -0.49691016507E+02  0.14660053576E+02 -0.88760753171E+02  0.10288185261E+03  0.47000000000E+01 0. -1.
         -5    1    4    4    0  502  0.69337672317E+02  0.49908689137E+02 -0.73703610977E+02  0.11292874889E+03  0.47000000000E+01 0. -1.
          5    1    3    3  503    0 -0.15214350938E+02 -0.74384058920E+02 -0.26175811357E+03  0.27258735245E+03  0.47000000000E+01 0. -1.
         -5    1    3    3    0  503 -0.44323048723E+01  0.98153162065E+01  0.10690782422E+02  0.15886113040E+02  0.47000000000E+01 0. -1.
<mgrwt>
<rscale>  0 0.14206156E+03</rscale>
<asrwt>0</asrwt>
<pdfrwt beam="1">  1        5 0.69809520E-02 0.14206384E+03</pdfrwt>
<pdfrwt beam="2">  1       -5 0.70601209E-01 0.14206384E+03</pdfrwt>
<totfact> 0.19536669E+02</totfact>
</mgrwt>
</event>
<event>
 8    1  0.3674342E-007  0.1288138E+03  0.7546771E-02  0.1229232E+00
          5   -1    0    0  501    0  0.00000000000E+00  0.00000000000E+00  0.48306843427E+03  0.48309129799E+03  0.47000000000E+01 0.  1.
         -5   -1    0    0    0  501 -0.00000000000E+00 -0.00000000000E+00 -0.51126907888E+02  0.51342484456E+02  0.47000000000E+01 0.  1.
         25    2    1    2    0    0  0.14397790965E+01  0.31041248273E+02  0.62482399304E+02  0.14316793480E+03  0.12500950073E+03 0.  0.
         25    2    1    2    0    0 -0.14397790965E+01 -0.31041248273E+02  0.36945912708E+03  0.39126584765E+03  0.12499313937E+03 0.  0.
          5    1    4    4  502    0 -0.51066155602E+02  0.19237008004E+02  0.20548523642E+03  0.21265955683E+03  0.47000000000E+01 0.  1.
         -5    1    4    4    0  502  0.49626376505E+02 -0.50278256277E+02  0.16397389066E+03  0.17860629081E+03  0.47000000000E+01 0.  1.
          5    1    3    3  503    0 -0.29114904632E+02  0.48494620095E+02 -0.14338044706E+02  0.58541228001E+02  0.47000000000E+01 0. -1.
         -5    1    3    3    0  503  0.30554683728E+02 -0.17453371822E+02  0.76820444010E+02  0.84626706799E+02  0.47000000000E+01 0. -1.
<mgrwt>
<rscale>  0 0.12880988E+03</rscale>
<asrwt>0</asrwt>
<pdfrwt beam="1">  1        5 0.74336563E-01 0.12881385E+03</pdfrwt>
<pdfrwt beam="2">  1       -5 0.78840196E-02 0.12881385E+03</pdfrwt>
<totfact> 0.13670193E+02</totfact>
</mgrwt>
</event>
<event>
 8    1  0.3674342E-007  0.1410806E+03  0.7546771E-02  0.1211889E+00
         -5   -1    0    0    0  501 -0.00000000000E+00  0.00000000000E+00  0.21842395656E+03  0.21847451750E+03  0.47000000000E+01 0. -1.
          5   -1    0    0  501    0  0.00000000000E+00 -0.00000000000E+00 -0.91008632009E+02  0.91129913311E+02  0.47000000000E+01 0. -1.
         25    2    1    2    0    0  0.13438630402E+02  0.63969020035E+02  0.61457559862E+02  0.15386695191E+03  0.12500149965E+03 0.  0.
         25    2    1    2    0    0 -0.13438630402E+02 -0.63969020035E+02  0.65957764687E+02  0.15573747890E+03  0.12502441082E+03 0.  0.
          5    1    3    3  502    0 -0.47651586060E+02  0.63772228733E+02  0.32896974270E+02  0.86266283841E+02  0.47000000000E+01 0.  1.
         -5    1    3    3    0  502  0.61090216462E+02  0.19679130256E+00  0.28560585592E+02  0.67600668070E+02  0.47000000000E+01 0.  1.
          5    1    4    4  503    0 -0.63486109271E+02 -0.47541522852E+02  0.12300372577E+02  0.80399450439E+02  0.47000000000E+01 0.  1.
         -5    1    4    4    0  503  0.50047478869E+02 -0.16427497183E+02  0.53657392109E+02  0.75338028463E+02  0.47000000000E+01 0.  1.
<mgrwt>
<rscale>  0 0.14107552E+03</rscale>
<asrwt>0</asrwt>
<pdfrwt beam="2">  1        5 0.14014547E-01 0.14108060E+03</pdfrwt>
<pdfrwt beam="1">  1       -5 0.33616904E-01 0.14108060E+03</pdfrwt>
<totfact> 0.27760839E+02</totfact>
</mgrwt>
</event>
<event>
 8    1  0.3674342E-007  0.1353387E+03  0.7546771E-02  0.1219744E+00
         -5   -1    0    0    0  501 -0.00000000000E+00  0.00000000000E+00  0.29508440625E+03  0.29512183384E+03  0.47000000000E+01 0. -1.
          5   -1    0    0  501    0  0.00000000000E+00 -0.00000000000E+00 -0.76253455417E+02  0.76398164003E+02  0.47000000000E+01 0. -1.
         25    2    1    2    0    0 -0.15779462882E+02  0.49420039355E+02  0.18979222352E+03  0.23310100958E+03  0.12499464316E+03 0.  0.
         25    2    1    2    0    0  0.15779462882E+02 -0.49420039355E+02  0.29038727311E+02  0.13841898827E+03  0.12500094756E+03 0.  0.
          5    1    3    3  502    0 -0.51653730437E+02 -0.13571545966E+02  0.40899601906E+02  0.67432649096E+02  0.47000000000E+01 0. -1.
         -5    1    3    3    0  502  0.35874267555E+02  0.62991585321E+02  0.14889262161E+03  0.16566836048E+03  0.47000000000E+01 0. -1.
          5    1    4    4  503    0  0.55112419174E+02 -0.49359790284E+01 -0.22241655694E+02  0.59820764657E+02  0.47000000000E+01 0.  1.
         -5    1    4    4    0  503 -0.39332956292E+02 -0.44484060326E+02  0.51280383005E+02  0.78598223611E+02  0.47000000000E+01 0.  1.
<mgrwt>
<rscale>  0 0.13533726E+03</rscale>
<asrwt>0</asrwt>
<pdfrwt beam="2">  1        5 0.11745311E-01 0.13533872E+03</pdfrwt>
<pdfrwt beam="1">  1       -5 0.45411611E-01 0.13533872E+03</pdfrwt>
<totfact> 0.20319619E+02</totfact>
</mgrwt>
</event>
<event>
 8    1  0.3674342E-007  0.1354492E+03  0.7546771E-02  0.1219593E+00
          5   -1    0    0  501    0  0.00000000000E+00  0.00000000000E+00  0.52331563206E+03  0.52333673744E+03  0.47000000000E+01 0.  1.
         -5   -1    0    0    0  501 -0.00000000000E+00 -0.00000000000E+00 -0.36354102645E+02  0.36656660774E+02  0.47000000000E+01 0.  1.
         25    2    1    2    0    0  0.26737548431E+02  0.44794578505E+02  0.18725618934E+03  0.23110897400E+03  0.12500010662E+03 0.  0.
         25    2    1    2    0    0 -0.26737548431E+02 -0.44794578505E+02  0.29970534007E+03  0.32888442422E+03  0.12498089001E+03 0.  0.
          5    1    4    4  502    0 -0.65010621340E+02 -0.63037516953E+00  0.22304341819E+03  0.23237305063E+03  0.47000000000E+01 0. -1.
         -5    1    4    4    0  502  0.38273072909E+02 -0.44164203336E+02  0.76661921883E+02  0.96511373594E+02  0.47000000000E+01 0. -1.
          5    1    3    3  503    0  0.16027996842E+02  0.23310381407E+02 -0.11468056071E+02  0.30884897186E+02  0.47000000000E+01 0.  1.
         -5    1    3    3    0  503  0.10709551588E+02  0.21484197098E+02  0.19872424541E+03  0.20022407681E+03  0.47000000000E+01 0.  1.
<mgrwt>
<rscale>  0 0.13544474E+03</rscale>
<asrwt>0</asrwt>
<pdfrwt beam="1">  1        5 0.80534988E-01 0.13544917E+03</pdfrwt>
<pdfrwt beam="2">  1       -5 0.56178365E-02 0.13544917E+03</pdfrwt>
<totfact> 0.20525165E+02</totfact>
</mgrwt>
</event>
<event>
 8    1  0.3674342E-007  0.1424548E+03  0.7546771E-02  0.1210064E+00
         -5   -1    0    0    0  501 -0.00000000000E+00  0.00000000000E+00  0.22684378507E+03  0.22689246974E+03  0.47000000000E+01 0.  1.
          5   -1    0    0  501    0  0.00000000000E+00 -0.00000000000E+00 -0.94500946659E+02  0.94617751609E+02  0.47000000000E+01 0.  1.
         25    2    1    2    0    0 -0.61718257486E+02  0.29304514336E+02  0.10371034463E+03  0.17620785802E+03  0.12500190309E+03 0.  0.
         25    2    1    2    0    0  0.61718257486E+02 -0.29304514336E+02  0.28632493774E+02  0.14530236333E+03  0.12500023689E+03 0.  0.
          5    1    3    3  502    0  0.34554170700E+02 -0.11083427421E+02  0.16705166638E+02  0.40224192578E+02  0.47000000000E+01 0. -1.
         -5    1    3    3    0  502 -0.96272428187E+02  0.40387941757E+02  0.87005177997E+02  0.13598366544E+03  0.47000000000E+01 0. -1.
          5    1    4    4  503    0  0.17002160974E+02 -0.39259562527E+02  0.70803807483E+02  0.82859253446E+02  0.47000000000E+01 0. -1.
         -5    1    4    4    0  503  0.44716096513E+02  0.99550481910E+01 -0.42171313709E+02  0.62443109882E+02  0.47000000000E+01 0. -1.
<mgrwt>
<rscale>  0 0.14245445E+03</rscale>
<asrwt>0</asrwt>
<pdfrwt beam="2">  1        5 0.14551337E-01 0.14245481E+03</pdfrwt>
<pdfrwt beam="1">  1       -5 0.34911773E-01 0.14245481E+03</pdfrwt>
<totfact> 0.24132566E+02</totfact>
</mgrwt>
</event>
<event>
 8    1  0.3674342E-007  0.1275971E+03  0.7546771E-02  0.1231066E+00
          5   -1    0    0  501    0  0.00000000000E+00  0.00000000000E+00  0.28477652323E+02  0.28862894550E+02  0.47000000000E+01 0.  1.
         -5   -1    0    0    0  501 -0.00000000000E+00 -0.00000000000E+00 -0.59403346909E+03  0.59405206203E+03  0.47000000000E+01 0.  1.
         25    2    1    2    0    0 -0.25146735774E+02  0.48416167888E+01 -0.34862362077E+03  0.37124041802E+03  0.12500087776E+03 0.  0.
         25    2    1    2    0    0  0.25146735774E+02 -0.48416167888E+01 -0.21693219600E+03  0.25167453856E+03  0.12499878449E+03 0.  0.
          5    1    4    4  502    0  0.29543558988E+02 -0.60684917241E+02 -0.14797088382E+03  0.16270511214E+03  0.47000000000E+01 0. -1.
         -5    1    4    4    0  502 -0.43968232147E+01  0.55843300452E+02 -0.68961312181E+02  0.88969426420E+02  0.47000000000E+01 0. -1.
          5    1    3    3  503    0  0.30919156052E+02 -0.40970511546E+02 -0.18897742540E+03  0.19588040826E+03  0.47000000000E+01 0. -1.
         -5    1    3    3    0  503 -0.56065891826E+02  0.45812128334E+02 -0.15964619537E+03  0.17536000977E+03  0.47000000000E+01 0. -1.
<mgrwt>
<rscale>  0 0.12759658E+03</rscale>
<asrwt>0</asrwt>
<pdfrwt beam="1">  1        5 0.44122420E-02 0.12759710E+03</pdfrwt>
<pdfrwt beam="2">  1       -5 0.91420820E-01 0.12759710E+03</pdfrwt>
<totfact> 0.22297792E+02</totfact>
</mgrwt>
</event>
<event>
 8    1  0.3674342E-007  0.1657936E+03  0.7546771E-02  0.1182320E+00
          5   -1    0    0  501    0  0.00000000000E+00  0.00000000000E+00  0.20744112574E+03  0.20749436294E+03  0.47000000000E+01 0. -1.
         -5   -1    0    0    0  501 -0.00000000000E+00 -0.00000000000E+00 -0.17816469381E+03  0.17822667623E+03  0.47000000000E+01 0. -1.
         25    2    1    2    0    0  0.59427009732E+02  0.91177994828E+02 -0.83119478628E+02  0.18542038804E+03  0.12500750517E+03 0.  0.
         25    2    1    2    0    0 -0.59427009732E+02 -0.91177994828E+02  0.11239591056E+03  0.20030065113E+03  0.12507003600E+03 0.  0.
          5    1    3    3  502    0  0.15383710044E+02  0.11233501361E+03 -0.74046673426E+02  0.13550207992E+03  0.47000000000E+01 0. -1.
         -5    1    3    3    0  502  0.44043299688E+02 -0.21157018787E+02 -0.90728052018E+01  0.49918308120E+02  0.47000000000E+01 0. -1.
          5    1    4    4  503    0 -0.47243194503E+02  0.21401355338E+02  0.29166214046E+02  0.59688319452E+02  0.47000000000E+01 0. -1.
         -5    1    4    4    0  503 -0.12183815229E+02 -0.11257935017E+03  0.83229696513E+02  0.14061233167E+03  0.47000000000E+01 0. -1.
<mgrwt>
<rscale>  0 0.16578178E+03</rscale>
<asrwt>0</asrwt>
<pdfrwt beam="1">  1        5 0.31922882E-01 0.16579358E+03</pdfrwt>
<pdfrwt beam="2">  1       -5 0.27418816E-01 0.16579358E+03</pdfrwt>
<totfact> 0.92521133E+01</totfact>
</mgrwt>
</event>
<event>
 8    1  0.3674342E-007  0.1334174E+03  0.7546771E-02  0.1222472E+00
         -5   -1    0    0    0  501 -0.00000000000E+00  0.00000000000E+00  0.20016044633E+03  0.20021561946E+03  0.47000000000E+01 0. -1.
          5   -1    0    0  501    0  0.00000000000E+00 -0.00000000000E+00 -0.95846815682E+02  0.95961982453E+02  0.47000000000E+01 0. -1.
         25    2    1    2    0    0  0.17469292055E+02  0.43246970799E+02  0.92277419590E+02  0.16221839646E+03  0.12499683730E+03 0.  0.
         25    2    1    2    0    0 -0.17469292055E+02 -0.43246970799E+02  0.12036211055E+02  0.13395920545E+03  0.12499888679E+03 0.  0.
          5    1    4    4  502    0 -0.48057601434E+02 -0.28577592437E+02  0.55299948128E+02  0.78780620129E+02  0.47000000000E+01 0. -1.
         -5    1    4    4    0  502  0.30588309379E+02 -0.14669378362E+02 -0.43263737073E+02  0.55178585318E+02  0.47000000000E+01 0. -1.
          5    1    3    3  503    0 -0.43801989723E+02  0.29773204939E+02  0.33349024886E+01  0.53275412816E+02  0.47000000000E+01 0.  1.
         -5    1    3    3    0  503  0.61271281778E+02  0.13473765860E+02  0.88942517102E+02  0.10894298365E+03  0.47000000000E+01 0.  1.
<mgrwt>
<rscale>  0 0.13341690E+03</rscale>
<asrwt>0</asrwt>
<pdfrwt beam="2">  1        5 0.14758767E-01 0.13341738E+03</pdfrwt>
<pdfrwt beam="1">  1       -5 0.30807018E-01 0.13341738E+03</pdfrwt>
<totfact> 0.29493987E+02</totfact>
</mgrwt>
</event>
<event>
 8    1  0.3674342E-007  0.1362711E+03  0.7546771E-02  0.1218438E+00
         -5   -1    0    0    0  501 -0.00000000000E+00  0.00000000000E+00  0.35247529543E+02  0.35559504199E+02  0.47000000000E+01 0. -1.
          5   -1    0    0  501    0  0.00000000000E+00 -0.00000000000E+00 -0.53954726091E+03  0.53956773139E+03  0.47000000000E+01 0. -1.
         25    2    1    2    0    0 -0.17726923591E+02 -0.51283277922E+02 -0.20363517171E+03  0.24502271405E+03  0.12499851530E+03 0.  0.
         25    2    1    2    0    0  0.17726923591E+02  0.51283277922E+02 -0.30066455965E+03  0.33010452154E+03  0.12500239716E+03 0.  0.
          5    1    3    3  502    0 -0.70530896944E+02 -0.16487788207E+02 -0.10095460491E+03  0.12433976370E+03  0.47000000000E+01 0. -1.
         -5    1    3    3    0  502  0.52803973353E+02 -0.34795489715E+02 -0.10268056680E+03  0.12068295035E+03  0.47000000000E+01 0. -1.
          5    1    4    4  503    0  0.70373662706E+02  0.40269800063E+02 -0.20029165737E+03  0.21613178205E+03  0.47000000000E+01 0.  1.
         -5    1    4    4    0  503 -0.52646739115E+02  0.11013477859E+02 -0.10037290228E+03  0.11397273948E+03  0.47000000000E+01 0.  1.
<mgrwt>
<rscale>  0 0.13627023E+03</rscale>
<asrwt>0</asrwt>
<pdfrwt beam="2">  1        5 0.83032838E-01 0.13627112E+03</pdfrwt>
<pdfrwt beam="1">  1       -5 0.54482699E-02 0.13627112E+03</pdfrwt>
<totfact> 0.20164292E+02</totfact>
</mgrwt>
</event>
<event>
 8    1  0.3674342E-007  0.1398934E+03  0.7546771E-02  0.1213484E+00
          5   -1    0    0  501    0  0.00000000000E+00  0.00000000000E+00  0.17241898085E+03  0.17248302803E+03  0.47000000000E+01 0. -1.
         -5   -1    0    0    0  501 -0.00000000000E+00 -0.00000000000E+00 -0.15145356249E+03  0.15152647159E+03  0.47000000000E+01 0. -1.
         25    2    1    2    0    0 -0.53568635891E+02 -0.32731936593E+02 -0.70742800145E+02  0.15676326173E+03  0.12501679100E+03 0.  0.
         25    2    1    2    0    0  0.53568635891E+02  0.32731936593E+02  0.91708218503E+02  0.16724623788E+03  0.12497971163E+03 0.  0.
          5    1    4    4  502    0 -0.15056592440E+02 -0.21941323343E+02 -0.13470872681E+02  0.30193990408E+02  0.47000000000E+01 0.  1.
         -5    1    4    4    0  502  0.68625228330E+02  0.54673259936E+02  0.10517909118E+03  0.13705224747E+03  0.47000000000E+01 0.  1.
          5    1    3    3  503    0 -0.72249160967E+00  0.44179320801E+02 -0.10718632976E+02  0.45709008668E+02  0.47000000000E+01 0. -1.
         -5    1    3    3    0  503 -0.52846144281E+02 -0.76911257394E+02 -0.60024167169E+02  0.11105425306E+03  0.47000000000E+01 0. -1.
<mgrwt>
<rscale>  0 0.13988516E+03</rscale>
<asrwt>0</asrwt>
<pdfrwt beam="1">  1        5 0.26536532E-01 0.13989345E+03</pdfrwt>
<pdfrwt beam="2">  1       -5 0.23311083E-01 0.13989345E+03</pdfrwt>
<totfact> 0.17199331E+02</totfact>
</mgrwt>
</event>
<event>
 8    1  0.3674342E-007  0.1285742E+03  0.7546771E-02  0.1229589E+00
         -5   -1    0    0    0  501 -0.00000000000E+00  0.00000000000E+00  0.82573525777E+03  0.82574863362E+03  0.47000000000E+01 0. -1.
          5   -1    0    0  501    0  0.00000000000E+00 -0.00000000000E+00 -0.19732001186E+02  0.20284029945E+02  0.47000000000E+01 0. -1.
         25    2    1    2    0    0 -0.23019428072E+02  0.19382710691E+02  0.40752896832E+03  0.42732860210E+03  0.12499716241E+03 0.  0.
         25    2    1    2    0    0  0.23019428072E+02 -0.19382710691E+02  0.39847428826E+03  0.41870406146E+03  0.12500299651E+03 0.  0.
          5    1    3    3  502    0  0.55704477461E+01  0.25590528136E+02  0.95833991596E+01  0.28281381823E+02  0.47000000000E+01 0.  1.
         -5    1    3    3    0  502 -0.28589875818E+02 -0.62078174449E+01  0.39794556916E+03  0.39904722028E+03  0.47000000000E+01 0.  1.
          5    1    4    4  503    0  0.30012086546E+02 -0.52131084861E+02  0.89825914933E+02  0.10820887367E+03  0.47000000000E+01 0. -1.
         -5    1    4    4    0  503 -0.69926584736E+01  0.32748374170E+02  0.30864837333E+03  0.31049518779E+03  0.47000000000E+01 0. -1.
<mgrwt>
<rscale>  0 0.12857281E+03</rscale>
<asrwt>0</asrwt>
<pdfrwt beam="2">  1        5 0.30791851E-02 0.12857423E+03</pdfrwt>
<pdfrwt beam="1">  1       -5 0.12707969E+00 0.12857423E+03</pdfrwt>
<totfact> 0.17788722E+02</totfact>
</mgrwt>
</event>
<event>
 8    1  0.3674342E-007  0.1439390E+03  0.7546771E-02  0.1208125E+00
          5   -1    0    0  501    0  0.00000000000E+00  0.00000000000E+00  0.28159430793E+03  0.28163352829E+03  0.47000000000E+01 0.  1.
         -5   -1    0    0    0  501 -0.00000000000E+00 -0.00000000000E+00 -0.88842749638E+02  0.88966983557E+02  0.47000000000E+01 0.  1.
         25    2    1    2    0    0  0.42728347505E+02 -0.57168105398E+02  0.19335114590E+02  0.14523036353E+03  0.12499643147E+03 0.  0.
         25    2    1    2    0    0 -0.42728347505E+02  0.57168105398E+02  0.17341644370E+03  0.22537014832E+03  0.12499814739E+03 0.  0.
          5    1    3    3  502    0 -0.37427056838E+02 -0.21893799692E+02 -0.21342190885E+02  0.48556175306E+02  0.47000000000E+01 0.  1.
         -5    1    3    3    0  502  0.80155404343E+02 -0.35274305706E+02  0.40677305475E+02  0.96674188226E+02  0.47000000000E+01 0.  1.
          5    1    4    4  503    0 -0.98978286722E+01  0.36408539913E+02  0.18148094891E+03  0.18542107111E+03  0.47000000000E+01 0. -1.
         -5    1    4    4    0  503 -0.32830518833E+02  0.20759565485E+02 -0.80645052116E+01  0.39949077214E+02  0.47000000000E+01 0. -1.
<mgrwt>
<rscale>  0 0.14393865E+03</rscale>
<asrwt>0</asrwt>
<pdfrwt beam="1">  1        5 0.43334774E-01 0.14393902E+03</pdfrwt>
<pdfrwt beam="2">  1       -5 0.13680689E-01 0.14393902E+03</pdfrwt>
<totfact> 0.17419799E+02</totfact>
</mgrwt>
</event>
<event>
 8    1  0.3674342E-007  0.1253281E+03  0.7546771E-02  0.1234572E+00
          5   -1    0    0  501    0  0.00000000000E+00  0.00000000000E+00  0.60732530201E+02  0.60914121718E+02  0.47000000000E+01 0.  1.
         -5   -1    0    0    0  501 -0.00000000000E+00 -0.00000000000E+00 -0.25801763096E+03  0.25806043457E+03  0.47000000000E+01 0.  1.
         25    2    1    2    0    0 -0.55051299720E+01  0.65268139942E+01 -0.10095967172E+03  0.16090583725E+03  0.12499970957E+03 0.  0.
         25    2    1    2    0    0  0.55051299720E+01 -0.65268139942E+01 -0.96325429045E+02  0.15806871903E+03  0.12503689815E+03 0.  0.
          5    1    4    4  502    0  0.39367992986E+01  0.46533451195E+00 -0.12652625978E+03  0.12667556725E+03  0.47000000000E+01 0.  1.
         -5    1    4    4    0  502  0.15683306734E+01 -0.69921485061E+01  0.30200830733E+02  0.31393151781E+02  0.47000000000E+01 0.  1.
          5    1    3    3  503    0 -0.65134506174E+02  0.37170665776E+01 -0.52361621374E+02  0.83786334634E+02  0.47000000000E+01 0. -1.
         -5    1    3    3    0  503  0.59629376202E+02  0.28097474166E+01 -0.48598050345E+02  0.77119502618E+02  0.47000000000E+01 0. -1.
<mgrwt>
<rscale>  0 0.12531882E+03</rscale>
<asrwt>0</asrwt>
<pdfrwt beam="1">  1        5 0.93607275E-02 0.12532810E+03</pdfrwt>
<pdfrwt beam="2">  1       -5 0.39712281E-01 0.12532810E+03</pdfrwt>
<totfact> 0.38779492E+02</totfact>
</mgrwt>
</event>
<event>
 8    1  0.3674342E-007  0.1322159E+03  0.7546771E-02  0.1224206E+00
          5   -1    0    0  501    0  0.00000000000E+00  0.00000000000E+00  0.13817406075E+02  0.14594886456E+02  0.47000000000E+01 0. -1.
         -5   -1    0    0    0  501 -0.00000000000E+00 -0.00000000000E+00 -0.15374843362E+04  0.15374915200E+04  0.47000000000E+01 0. -1.
         25    2    1    2    0    0  0.19606011865E+02 -0.38347667142E+02 -0.11089640669E+04  0.11168179560E+04  0.12500442285E+03 0.  0.
         25    2    1    2    0    0 -0.19606011865E+02  0.38347667142E+02 -0.41470286315E+03  0.43526845045E+03  0.12500087990E+03 0.  0.
          5    1    3    3  502    0  0.19578128785E+02  0.26565307142E+02 -0.81735292210E+03  0.81803233918E+03  0.47000000000E+01 0. -1.
         -5    1    3    3    0  502  0.27883080128E-01 -0.64912974285E+02 -0.29161114484E+03  0.29878561680E+03  0.47000000000E+01 0. -1.
          5    1    4    4  503    0 -0.60367695979E+02 -0.14164046028E+02 -0.15162957493E+03  0.16388562143E+03  0.47000000000E+01 0.  1.
         -5    1    4    4    0  503  0.40761684114E+02  0.52511713171E+02 -0.26307328822E+03  0.27138282902E+03  0.47000000000E+01 0.  1.
<mgrwt>
<rscale>  0 0.13221507E+03</rscale>
<asrwt>0</asrwt>
<pdfrwt beam="1">  1        5 0.21861148E-02 0.13221590E+03</pdfrwt>
<pdfrwt beam="2">  1       -5 0.23659628E+00 0.13221590E+03</pdfrwt>
<totfact> 0.50178080E+01</totfact>
</mgrwt>
</event>
<event>
 8    1  0.3674342E-007  0.1835525E+03  0.7546771E-02  0.1164409E+00
          5   -1    0    0  501    0  0.00000000000E+00  0.00000000000E+00  0.33655511760E+02  0.33982105171E+02  0.47000000000E+01 0. -1.
         -5   -1    0    0    0  501 -0.00000000000E+00 -0.00000000000E+00 -0.11068087414E+04  0.11068187205E+04  0.47000000000E+01 0. -1.
         25    2    1    2    0    0 -0.86511790333E+02  0.10286942280E+03 -0.71710874568E+03  0.74022725653E+03  0.12500012065E+03 0.  0.
         25    2    1    2    0    0  0.86511790333E+02 -0.10286942280E+03 -0.35604448396E+03  0.40057356913E+03  0.12500040688E+03 0.  0.
          5    1    4    4  502    0  0.32392528441E+02  0.26947598134E+02 -0.71306331954E+02  0.82958615711E+02  0.47000000000E+01 0. -1.
         -5    1    4    4    0  502  0.54119261892E+02 -0.12981702093E+03 -0.28473815200E+03  0.31761495342E+03  0.47000000000E+01 0. -1.
          5    1    3    3  503    0 -0.10255114370E+03  0.95403899170E+02 -0.42427897666E+03  0.44682589572E+03  0.47000000000E+01 0. -1.
         -5    1    3    3    0  503  0.16039353368E+02  0.74655236307E+01 -0.29282976902E+03  0.29340136081E+03  0.47000000000E+01 0. -1.
<mgrwt>
<rscale>  0 0.18355242E+03</rscale>
<asrwt>0</asrwt>
<pdfrwt beam="1">  1        5 0.52036621E-02 0.18355247E+03</pdfrwt>
<pdfrwt beam="2">  1       -5 0.17030413E+00 0.18355247E+03</pdfrwt>
<totfact> 0.37538363E+01</totfact>
</mgrwt>
</event>
<event>
 8    1  0.3674342E-007  0.1280207E+03  0.7546771E-02  0.1230437E+00
          5   -1    0    0  501    0  0.00000000000E+00  0.00000000000E+00  0.88247015111E+02  0.88372086521E+02  0.47000000000E+01 0.  1.
         -5   -1    0    0    0  501 -0.00000000000E+00 -0.00000000000E+00 -0.21181883272E+03  0.21187096992E+03  0.47000000000E+01 0.  1.
         25    2    1    2    0    0  0.27255556336E+02  0.35263554924E+01 -0.11479476297E+03  0.17192184435E+03  0.12499592964E+03 0.  0.
         25    2    1    2    0    0 -0.27255556336E+02 -0.35263554924E+01 -0.87770546372E+01  0.12832121209E+03  0.12503597982E+03 0.  0.
          5    1    3    3  502    0  0.44588505897E+01 -0.22005453870E+02  0.21425271114E+02  0.31388749432E+02  0.47000000000E+01 0.  1.
         -5    1    3    3    0  502  0.22796705746E+02  0.25531809363E+02 -0.13622003409E+03  0.14053309492E+03  0.47000000000E+01 0.  1.
          5    1    4    4  503    0 -0.75988083821E+01  0.51207836684E+02 -0.36705839152E+02  0.63634841514E+02  0.47000000000E+01 0.  1.
         -5    1    4    4    0  503 -0.19656747954E+02 -0.54734192176E+02  0.27928784515E+02  0.64686370572E+02  0.47000000000E+01 0.  1.
<mgrwt>
<rscale>  0 0.12801091E+03</rscale>
<asrwt>0</asrwt>
<pdfrwt beam="1">  1        5 0.13590095E-01 0.12802069E+03</pdfrwt>
<pdfrwt beam="2">  1       -5 0.32601144E-01 0.12802069E+03</pdfrwt>
<totfact> 0.30140243E+02</totfact>
</mgrwt>
</event>
<event>
 8    1  0.3674342E-007  0.1865664E+03  0.7546771E-02  0.1161596E+00
         -5   -1    0    0    0  501 -0.00000000000E+00  0.00000000000E+00  0.35090547198E+03  0.35093694628E+03  0.47000000000E+01 0.  1.
          5   -1    0    0  501    0  0.00000000000E+00 -0.00000000000E+00 -0.10106999795E+03  0.10117921964E+03  0.47000000000E+01 0.  1.
         25    2    1    2    0    0  0.13722126840E+03  0.18788559828E+02  0.15647557808E+03  0.24349874366E+03  0.12499738055E+03 0.  0.
         25    2    1    2    0    0 -0.13722126840E+03 -0.18788559828E+02  0.93359895943E+02  0.20861742226E+03  0.12498988846E+03 0.  0.
          5    1    3    3  502    0  0.58244931348E+02 -0.39593197527E+02  0.11883168962E+03  0.13821415911E+03  0.47000000000E+01 0. -1.
         -5    1    3    3    0  502  0.78976337054E+02  0.58381757355E+02  0.37643888456E+02  0.10528458455E+03  0.47000000000E+01 0. -1.
          5    1    4    4  503    0 -0.26910818974E+02  0.92210923503E+01  0.90167050598E+02  0.94664712198E+02  0.47000000000E+01 0.  1.
         -5    1    4    4    0  503 -0.11031044943E+03 -0.28009652178E+02  0.31928453454E+01  0.11395271006E+03  0.47000000000E+01 0.  1.
<mgrwt>
<rscale>  0 0.18656517E+03</rscale>
<asrwt>0</asrwt>
<pdfrwt beam="2">  1        5 0.15560053E-01 0.18656643E+03</pdfrwt>
<pdfrwt beam="1">  1       -5 0.53996280E-01 0.18656643E+03</pdfrwt>
<totfact> 0.93808077E+01</totfact>
</mgrwt>
</event>
<event>
 8    1  0.3674342E-007  0.1276867E+03  0.7546771E-02  0.1230931E+00
         -5   -1    0    0    0  501 -0.00000000000E+00  0.00000000000E+00  0.17598288001E+02  0.18215096501E+02  0.47000000000E+01 0. -1.
          5   -1    0    0  501    0  0.00000000000E+00 -0.00000000000E+00 -0.92057257213E+03  0.92058457002E+03  0.47000000000E+01 0. -1.
         25    2    1    2    0    0 -0.20167026882E+02 -0.16465395424E+02 -0.40082175795E+03  0.42066848923E+03  0.12500431178E+03 0.  0.
         25    2    1    2    0    0  0.20167026882E+02  0.16465395424E+02 -0.50215252618E+03  0.51813117729E+03  0.12499975646E+03 0.  0.
          5    1    3    3  502    0  0.26663062540E+01 -0.11217845421E+02  0.55232411663E+01  0.13621506448E+02  0.47000000000E+01 0.  1.
         -5    1    3    3    0  502 -0.22833333135E+02 -0.52475500024E+01 -0.40634499912E+03  0.40704698278E+03  0.47000000000E+01 0.  1.
          5    1    4    4  503    0  0.47282031087E+02  0.11180967932E+02 -0.47982536030E+03  0.48230184625E+03  0.47000000000E+01 0. -1.
         -5    1    4    4    0  503 -0.27115004205E+02  0.52844274916E+01 -0.22327165881E+02  0.35829331046E+02  0.47000000000E+01 0. -1.
<mgrwt>
<rscale>  0 0.12768560E+03</rscale>
<asrwt>0</asrwt>
<pdfrwt beam="2">  1        5 0.14167488E+00 0.12768671E+03</pdfrwt>
<pdfrwt beam="1">  1       -5 0.27557994E-02 0.12768671E+03</pdfrwt>
<totfact> 0.15953377E+02</totfact>
</mgrwt>
</event>
<event>
 8    1  0.3674342E-007  0.1407472E+03  0.7546771E-02  0.1212328E+00
         -5   -1    0    0    0  501 -0.00000000000E+00  0.00000000000E+00  0.35145279132E+03  0.35148421661E+03  0.47000000000E+01 0. -1.
          5   -1    0    0  501    0  0.00000000000E+00 -0.00000000000E+00 -0.60138144949E+02  0.60321525825E+02  0.47000000000E+01 0. -1.
         25    2    1    2    0    0  0.57550169102E+02  0.29534015847E+02  0.19803264418E+03  0.24295280624E+03  0.12499943138E+03 0.  0.
         25    2    1    2    0    0 -0.57550169102E+02 -0.29534015847E+02  0.93282002196E+02  0.16885293620E+03  0.12500200827E+03 0.  0.
          5    1    4    4  502    0 -0.71467106609E+02  0.31278135429E+02  0.53615781267E+02  0.94776637859E+02  0.47000000000E+01 0. -1.
         -5    1    4    4    0  502  0.13916937508E+02 -0.60812151276E+02  0.39666220930E+02  0.74076298337E+02  0.47000000000E+01 0. -1.
          5    1    3    3  503    0 -0.31477402748E+01  0.19259843567E+01 -0.16868144211E+02  0.17895305912E+02  0.47000000000E+01 0.  1.
         -5    1    3    3    0  503  0.60697909377E+02  0.27608031491E+02  0.21490078839E+03  0.22505750033E+03  0.47000000000E+01 0.  1.
<mgrwt>
<rscale>  0 0.14074666E+03</rscale>
<asrwt>0</asrwt>
<pdfrwt beam="2">  1        5 0.92685459E-02 0.14074723E+03</pdfrwt>
<pdfrwt beam="1">  1       -5 0.54086184E-01 0.14074723E+03</pdfrwt>
<totfact> 0.21530741E+02</totfact>
</mgrwt>
</event>
<event>
 8    1  0.3674342E-007  0.1615848E+03  0.7546771E-02  0.1186919E+00
          5   -1    0    0  501    0  0.00000000000E+00  0.00000000000E+00  0.38496552132E+02  0.38782399695E+02  0.47000000000E+01 0. -1.
         -5   -1    0    0    0  501 -0.00000000000E+00 -0.00000000000E+00 -0.67581757004E+03  0.67583391301E+03  0.47000000000E+01 0. -1.
         25    2    1    2    0    0  0.10191224843E+03 -0.98947017049E+01 -0.32725244481E+03  0.36497054596E+03  0.12500130111E+03 0.  0.
         25    2    1    2    0    0 -0.10191224843E+03  0.98947017049E+01 -0.31006857309E+03  0.34964576674E+03  0.12500252270E+03 0.  0.
          5    1    4    4  502    0 -0.27165861971E+02 -0.22635801390E+02 -0.77624625698E+01  0.36506292421E+02  0.47000000000E+01 0. -1.
         -5    1    4    4    0  502 -0.74746386457E+02  0.32530503095E+02 -0.30230611052E+03  0.31313947432E+03  0.47000000000E+01 0. -1.
          5    1    3    3  503    0  0.64464839169E+02  0.31584893527E+02 -0.28715726680E+03  0.29603159775E+03  0.47000000000E+01 0. -1.
         -5    1    3    3    0  503  0.37447409260E+02 -0.41479595232E+02 -0.40095178015E+02  0.68938948214E+02  0.47000000000E+01 0. -1.
<mgrwt>
<rscale>  0 0.16158455E+03</rscale>
<asrwt>0</asrwt>
<pdfrwt beam="1">  1        5 0.59457924E-02 0.16158478E+03</pdfrwt>
<pdfrwt beam="2">  1       -5 0.10399517E+00 0.16158478E+03</pdfrwt>
<totfact> 0.10723126E+02</totfact>
</mgrwt>
</event>
<event>
 8    1  0.3674342E-007  0.2260266E+03  0.7546771E-02  0.1129468E+00
          5   -1    0    0  501    0  0.00000000000E+00  0.00000000000E+00  0.12236043677E+03  0.12245066961E+03  0.47000000000E+01 0.  1.
         -5   -1    0    0    0  501 -0.00000000000E+00 -0.00000000000E+00 -0.45666864597E+03  0.45669283136E+03  0.47000000000E+01 0.  1.
         25    2    1    2    0    0  0.15375280084E+03  0.10873262123E+03 -0.25220741174E+03  0.33866885276E+03  0.12500122644E+03 0.  0.
         25    2    1    2    0    0 -0.15375280084E+03 -0.10873262123E+03 -0.82100797464E+02  0.24047464821E+03  0.12499923520E+03 0.  0.
          5    1    3    3  502    0  0.17172470057E+03  0.10939374476E+03 -0.24532854036E+03  0.31884878374E+03  0.47000000000E+01 0. -1.
         -5    1    3    3    0  502 -0.17971899738E+02 -0.66112352771E+00 -0.68788713772E+01  0.19820069019E+02  0.47000000000E+01 0. -1.
          5    1    4    4  503    0  0.51444010445E+01 -0.46562487512E+02  0.75333662291E+01  0.47679887921E+02  0.47000000000E+01 0.  1.
         -5    1    4    4    0  503 -0.15889720188E+03 -0.62170133722E+02 -0.89634163693E+02  0.19279476029E+03  0.47000000000E+01 0.  1.
<mgrwt>
<rscale>  0 0.22602630E+03</rscale>
<asrwt>0</asrwt>
<pdfrwt beam="1">  1        5 0.18833484E-01 0.22602658E+03</pdfrwt>
<pdfrwt beam="2">  1       -5 0.70265516E-01 0.22602658E+03</pdfrwt>
<totfact> 0.38668748E+01</totfact>
</mgrwt>
</event>
<event>
 8    1  0.3674342E-007  0.1661731E+03  0.7546771E-02  0.1181903E+00
          5   -1    0    0  501    0  0.00000000000E+00  0.00000000000E+00  0.53005494906E+02  0.53213461551E+02  0.47000000000E+01 0.  1.
         -5   -1    0    0    0  501 -0.00000000000E+00 -0.00000000000E+00 -0.54605004298E+03  0.54607026969E+03  0.47000000000E+01 0.  1.
         25    2    1    2    0    0  0.88180868095E+02  0.64853967440E+02 -0.31238922363E+03  0.35383685503E+03  0.12502635863E+03 0.  0.
         25    2    1    2    0    0 -0.88180868095E+02 -0.64853967440E+02 -0.18065532445E+03  0.24544687621E+03  0.12500368074E+03 0.  0.
          5    1    3    3  502    0 -0.25001461304E+02 -0.68361008651E+01 -0.93660897216E+02  0.97294701858E+02  0.47000000000E+01 0.  1.
         -5    1    3    3    0  502  0.11318232940E+03  0.71690068305E+02 -0.21872832641E+03  0.25654215317E+03  0.47000000000E+01 0.  1.
          5    1    4    4  503    0 -0.75326201154E+01 -0.55315510883E+01  0.19201799517E+02  0.21866356074E+02  0.47000000000E+01 0. -1.
         -5    1    4    4    0  503 -0.80648247979E+02 -0.59322416352E+02 -0.19985712397E+03  0.22358052014E+03  0.47000000000E+01 0. -1.
<mgrwt>
<rscale>  0 0.16616882E+03</rscale>
<asrwt>0</asrwt>
<pdfrwt beam="1">  1        5 0.81722452E-02 0.16617308E+03</pdfrwt>
<pdfrwt beam="2">  1       -5 0.84025248E-01 0.16617308E+03</pdfrwt>
<totfact> 0.10502094E+02</totfact>
</mgrwt>
</event>
<event>
 8    1  0.3674342E-007  0.1468628E+03  0.7546771E-02  0.1204384E+00
         -5   -1    0    0    0  501 -0.00000000000E+00  0.00000000000E+00  0.80015112438E+02  0.80153030002E+02  0.47000000000E+01 0.  1.
          5   -1    0    0  501    0  0.00000000000E+00 -0.00000000000E+00 -0.38219660182E+03  0.38222549946E+03  0.47000000000E+01 0.  1.
         25    2    1    2    0    0  0.76978913569E+02  0.41053260649E+01 -0.25386591105E+02  0.14903509569E+03  0.12499749559E+03 0.  0.
         25    2    1    2    0    0 -0.76978913569E+02 -0.41053260649E+01 -0.27679489827E+03  0.31334343377E+03  0.12500433969E+03 0.  0.
          5    1    3    3  502    0  0.48548076166E+02 -0.32239602232E+02 -0.65438379772E+02  0.87752944103E+02  0.47000000000E+01 0. -1.
         -5    1    3    3    0  502  0.28430837402E+02  0.36344928297E+02  0.40051788667E+02  0.61282151592E+02  0.47000000000E+01 0. -1.
          5    1    4    4  503    0 -0.71081014729E+02  0.17091643602E+02 -0.28105455085E+03  0.29044515056E+03  0.47000000000E+01 0.  1.
         -5    1    4    4    0  503 -0.58978988399E+01 -0.21196969667E+02  0.42596525707E+01  0.22898283207E+02  0.47000000000E+01 0.  1.
<mgrwt>
<rscale>  0 0.14686138E+03</rscale>
<asrwt>0</asrwt>
<pdfrwt beam="2">  1        5 0.58812308E-01 0.14686283E+03</pdfrwt>
<pdfrwt beam="1">  1       -5 0.12322849E-01 0.14686283E+03</pdfrwt>
<totfact> 0.11041314E+02</totfact>
</mgrwt>
</event>
<event>
 8    1  0.3674342E-007  0.1417409E+03  0.7546771E-02  0.1211009E+00
          5   -1    0    0  501    0  0.00000000000E+00  0.00000000000E+00  0.16621727861E+03  0.16628371450E+03  0.47000000000E+01 0.  1.
         -5   -1    0    0    0  501 -0.00000000000E+00 -0.00000000000E+00 -0.13360534321E+03  0.13368798650E+03  0.47000000000E+01 0.  1.
         25    2    1    2    0    0  0.50131432705E+02 -0.44157844251E+02 -0.30237442166E+02  0.14493026668E+03  0.12500961378E+03 0.  0.
         25    2    1    2    0    0 -0.50131432705E+02  0.44157844251E+02  0.62849377562E+02  0.15504143432E+03  0.12499890537E+03 0.  0.
          5    1    3    3  502    0  0.81862681327E+02 -0.19673974387E+01 -0.39648260738E+02  0.91101283340E+02  0.47000000000E+01 0.  1.
         -5    1    3    3    0  502 -0.31731248622E+02 -0.42190446812E+02  0.94108185727E+01  0.53828983341E+02  0.47000000000E+01 0.  1.
          5    1    4    4  503    0 -0.20783425355E+02 -0.19831201003E+02 -0.27745548255E+02  0.40213589129E+02  0.47000000000E+01 0. -1.
         -5    1    4    4    0  503 -0.29348007351E+02  0.63989045254E+02  0.90594925817E+02  0.11482784519E+03  0.47000000000E+01 0. -1.
<mgrwt>
<rscale>  0 0.14173853E+03</rscale>
<asrwt>0</asrwt>
<pdfrwt beam="1">  1        5 0.25583357E-01 0.14174089E+03</pdfrwt>
<pdfrwt beam="2">  1       -5 0.20566136E-01 0.14174089E+03</pdfrwt>
<totfact> 0.23478772E+02</totfact>
</mgrwt>
</event>
<event>
 8    1  0.3674342E-007  0.1724877E+03  0.7546771E-02  0.1175280E+00
          5   -1    0    0  501    0  0.00000000000E+00  0.00000000000E+00  0.11018459091E+03  0.11028478623E+03  0.47000000000E+01 0.  1.
         -5   -1    0    0    0  501 -0.00000000000E+00 -0.00000000000E+00 -0.28050754852E+03  0.28054692081E+03  0.47000000000E+01 0.  1.
         25    2    1    2    0    0 -0.30932383146E+02  0.11476190899E+03 -0.12339366453E+03  0.21207385438E+03  0.12498886024E+03 0.  0.
         25    2    1    2    0    0  0.30932383146E+02 -0.11476190899E+03 -0.46929293074E+02  0.17875785266E+03  0.12499961303E+03 0.  0.
          5    1    4    4  502    0 -0.29527438997E+02 -0.97964872351E+02 -0.53382615836E+02  0.11550229237E+03  0.47000000000E+01 0. -1.
         -5    1    4    4    0  502  0.60459822143E+02 -0.16797036635E+02  0.64533227626E+01  0.63255560293E+02  0.47000000000E+01 0. -1.
          5    1    3    3  503    0 -0.44462933672E+02  0.13617037296E+02 -0.95273300319E+02  0.10612006374E+03  0.47000000000E+01 0. -1.
         -5    1    3    3    0  503  0.13530550526E+02  0.10114487169E+03 -0.28120364213E+02  0.10595379064E+03  0.47000000000E+01 0. -1.
<mgrwt>
<rscale>  0 0.17248577E+03</rscale>
<asrwt>0</asrwt>
<pdfrwt beam="1">  1        5 0.16962212E-01 0.17248771E+03</pdfrwt>
<pdfrwt beam="2">  1       -5 0.43165743E-01 0.17248771E+03</pdfrwt>
<totfact> 0.12575758E+02</totfact>
</mgrwt>
</event>
<event>
 8    1  0.3674342E-007  0.1405551E+03  0.7546771E-02  0.1212585E+00
         -5   -1    0    0    0  501 -0.00000000000E+00  0.00000000000E+00  0.26316890789E+03  0.26321087378E+03  0.47000000000E+01 0.  1.
          5   -1    0    0  501    0  0.00000000000E+00 -0.00000000000E+00 -0.77624989909E+02  0.77767146395E+02  0.47000000000E+01 0.  1.
         25    2    1    2    0    0  0.16495553952E+02 -0.62110492377E+02  0.61136912148E+02  0.15327391813E+03  0.12500142155E+03 0.  0.
         25    2    1    2    0    0 -0.16495553952E+02  0.62110492377E+02  0.12440700583E+03  0.18770410204E+03  0.12500364099E+03 0.  0.
          5    1    4    4  502    0 -0.58048034158E+02  0.28968530399E+02  0.16162524750E+02  0.67022885863E+02  0.47000000000E+01 0.  1.
         -5    1    4    4    0  502  0.41552480206E+02  0.33141961977E+02  0.10824448108E+03  0.12068121618E+03  0.47000000000E+01 0.  1.
          5    1    3    3  503    0  0.15617991980E+02 -0.76639300891E+02 -0.11365626759E+02  0.79175574429E+02  0.47000000000E+01 0. -1.
         -5    1    3    3    0  503  0.87756197271E+00  0.14528808514E+02  0.72502538907E+02  0.74098343705E+02  0.47000000000E+01 0. -1.
<mgrwt>
<rscale>  0 0.14055457E+03</rscale>
<asrwt>0</asrwt>
<pdfrwt beam="2">  1        5 0.11956469E-01 0.14055507E+03</pdfrwt>
<pdfrwt beam="1">  1       -5 0.40501687E-01 0.14055507E+03</pdfrwt>
<totfact> 0.25263524E+02</totfact>
</mgrwt>
</event>
<event>
 8    1  0.3674342E-007  0.1306007E+03  0.7546771E-02  0.1226567E+00
          5   -1    0    0  501    0  0.00000000000E+00  0.00000000000E+00  0.33951180233E+03  0.33954433278E+03  0.47000000000E+01 0.  1.
         -5   -1    0    0    0  501 -0.00000000000E+00 -0.00000000000E+00 -0.93632229169E+02  0.93750116475E+02  0.47000000000E+01 0.  1.
         25    2    1    2    0    0  0.31617037269E+02 -0.20707335794E+02 -0.24634858023E+02  0.13290368894E+03  0.12501233340E+03 0.  0.
         25    2    1    2    0    0 -0.31617037269E+02  0.20707335794E+02  0.27051443119E+03  0.30039076032E+03  0.12501248179E+03 0.  0.
          5    1    4    4  502    0 -0.31775413982E+02 -0.13308927501E+02  0.80493085379E+01  0.35688735659E+02  0.47000000000E+01 0. -1.
         -5    1    4    4    0  502  0.15837671339E+00  0.34016263295E+02  0.26246512265E+03  0.26470202466E+03  0.47000000000E+01 0. -1.
          5    1    3    3  503    0  0.62935476495E+02 -0.53203773762E+02 -0.28590948826E+02  0.87355870432E+02  0.47000000000E+01 0. -1.
         -5    1    3    3    0  503 -0.31318439226E+02  0.32496437968E+02  0.39560908034E+01  0.45547818506E+02  0.47000000000E+01 0. -1.
<mgrwt>
<rscale>  0 0.13060070E+03</rscale>
<asrwt>0</asrwt>
<pdfrwt beam="1">  1        5 0.52244155E-01 0.13060073E+03</pdfrwt>
<pdfrwt beam="2">  1       -5 0.14416529E-01 0.13060073E+03</pdfrwt>
<totfact> 0.10362615E+02</totfact>
</mgrwt>
</event>
<event>
 8    1  0.3674342E-007  0.1285076E+03  0.7546771E-02  0.1229690E+00
          5   -1    0    0  501    0  0.00000000000E+00  0.00000000000E+00  0.65956586495E+02  0.66123833087E+02  0.47000000000E+01 0.  1.
         -5   -1    0    0    0  501 -0.00000000000E+00 -0.00000000000E+00 -0.25814856173E+03  0.25819134363E+03  0.47000000000E+01 0.  1.
         25    2    1    2    0    0 -0.18628944035E+02 -0.23273909184E+02 -0.12513668492E+03  0.17936478322E+03  0.12499529249E+03 0.  0.
         25    2    1    2    0    0  0.18628944035E+02  0.23273909184E+02 -0.67055290318E+02  0.14495039349E+03  0.12500196882E+03 0.  0.
          5    1    3    3  502    0 -0.18710836905E+02 -0.49816093631E+02 -0.21560370801E+01  0.53464727608E+02  0.47000000000E+01 0.  1.
         -5    1    3    3    0  502  0.81892870079E-01  0.26542184447E+02 -0.12298064784E+03  0.12590005561E+03  0.47000000000E+01 0.  1.
          5    1    4    4  503    0  0.10717055429E+02 -0.16535483378E+02 -0.93900864161E+02  0.96061125216E+02  0.47000000000E+01 0. -1.
         -5    1    4    4    0  503  0.79118886066E+01  0.39809392561E+02  0.26845573842E+02  0.48889268274E+02  0.47000000000E+01 0. -1.
<mgrwt>
<rscale>  0 0.12850598E+03</rscale>
<asrwt>0</asrwt>
<pdfrwt beam="1">  1        5 0.10163323E-01 0.12850761E+03</pdfrwt>
<pdfrwt beam="2">  1       -5 0.39731319E-01 0.12850761E+03</pdfrwt>
<totfact> 0.33889142E+02</totfact>
</mgrwt>
</event>
<event>
 8    1  0.3674342E-007  0.1327333E+03  0.7546771E-02  0.1223456E+00
          5   -1    0    0  501    0  0.00000000000E+00  0.00000000000E+00  0.77956038815E+02  0.78097592714E+02  0.47000000000E+01 0.  1.
         -5   -1    0    0    0  501 -0.00000000000E+00 -0.00000000000E+00 -0.25729122211E+03  0.25733414654E+03  0.47000000000E+01 0.  1.
         25    2    1    2    0    0 -0.34326494622E+02 -0.28538766722E+02 -0.14848340820E+03  0.19916011120E+03  0.12499863176E+03 0.  0.
         25    2    1    2    0    0  0.34326494622E+02  0.28538766722E+02 -0.30851775093E+02  0.13627162805E+03  0.12500142058E+03 0.  0.
          5    1    3    3  502    0 -0.20012916562E+02 -0.71823487466E+02 -0.48219210178E+02  0.88917447171E+02  0.47000000000E+01 0. -1.
         -5    1    3    3    0  502 -0.14313578060E+02  0.43284720745E+02 -0.10026419803E+03  0.11024266403E+03  0.47000000000E+01 0. -1.
          5    1    4    4  503    0  0.25538971649E+02  0.56198810742E+01  0.47283464020E+02  0.54236870355E+02  0.47000000000E+01 0. -1.
         -5    1    4    4    0  503  0.87875229736E+01  0.22918885647E+02 -0.78135239113E+02  0.82034757698E+02  0.47000000000E+01 0. -1.
<mgrwt>
<rscale>  0 0.13273263E+03</rscale>
<asrwt>0</asrwt>
<pdfrwt beam="1">  1        5 0.12007428E-01 0.13273328E+03</pdfrwt>
<pdfrwt beam="2">  1       -5 0.39597455E-01 0.13273328E+03</pdfrwt>
<totfact> 0.25753316E+02</totfact>
</mgrwt>
</event>
<event>
 8    1  0.3674342E-007  0.1438866E+03  0.7546771E-02  0.1208195E+00
          5   -1    0    0  501    0  0.00000000000E+00  0.00000000000E+00  0.22761745442E+02  0.23241924524E+02  0.47000000000E+01 0.  1.
         -5   -1    0    0    0  501 -0.00000000000E+00 -0.00000000000E+00 -0.91797924862E+03  0.91799128041E+03  0.47000000000E+01 0.  1.
         25    2    1    2    0    0 -0.44490991612E+02  0.55658533089E+02 -0.51427394066E+03  0.53402151534E+03  0.12499588858E+03 0.  0.
         25    2    1    2    0    0  0.44490991612E+02 -0.55658533089E+02 -0.38094356252E+03  0.40721168959E+03  0.12500416662E+03 0.  0.
          5    1    3    3  502    0 -0.85041175425E+02  0.15442713184E+02 -0.31332284025E+03  0.32505964242E+03  0.47000000000E+01 0. -1.
         -5    1    3    3    0  502  0.40550183812E+02  0.40215819905E+02 -0.20095110041E+03  0.20896187292E+03  0.47000000000E+01 0. -1.
          5    1    4    4  503    0  0.74829990596E+02 -0.75657657014E+02 -0.30040950434E+03  0.31873432331E+03  0.47000000000E+01 0. -1.
         -5    1    4    4    0  503 -0.30338998984E+02  0.19999123925E+02 -0.80534058183E+02  0.88477366284E+02  0.47000000000E+01 0. -1.
<mgrwt>
<rscale>  0 0.14388483E+03</rscale>
<asrwt>0</asrwt>
<pdfrwt beam="1">  1        5 0.35396701E-02 0.14388663E+03</pdfrwt>
<pdfrwt beam="2">  1       -5 0.14126541E+00 0.14388663E+03</pdfrwt>
<totfact> 0.11142151E+02</totfact>
</mgrwt>
</event>
<event>
 8    1  0.3674342E-007  0.1313689E+03  0.7546771E-02  0.1225439E+00
          5   -1    0    0  501    0  0.00000000000E+00  0.00000000000E+00  0.11786140766E+03  0.11795508219E+03  0.47000000000E+01 0.  1.
         -5   -1    0    0    0  501 -0.00000000000E+00 -0.00000000000E+00 -0.17784147160E+03  0.17790356663E+03  0.47000000000E+01 0.  1.
         25    2    1    2    0    0  0.91017781065E+01 -0.39368934351E+02 -0.92324954350E+02  0.16056679717E+03  0.12500017521E+03 0.  0.
         25    2    1    2    0    0 -0.91017781065E+01  0.39368934351E+02  0.32344890411E+02  0.13529185165E+03  0.12499975133E+03 0.  0.
          5    1    4    4  502    0  0.77205197174E+01  0.80783578701E+02  0.38466428800E+02  0.89929690076E+02  0.47000000000E+01 0. -1.
         -5    1    4    4    0  502 -0.16822297824E+02 -0.41414644350E+02 -0.61215383886E+01  0.45362161577E+02  0.47000000000E+01 0. -1.
          5    1    3    3  503    0  0.48163552392E+02  0.20113961110E+02 -0.13195606533E+02  0.54041773123E+02  0.47000000000E+01 0. -1.
         -5    1    3    3    0  503 -0.39061774286E+02 -0.59482895461E+02 -0.79129347817E+02  0.10652502405E+03  0.47000000000E+01 0. -1.
<mgrwt>
<rscale>  0 0.13136884E+03</rscale>
<asrwt>0</asrwt>
<pdfrwt beam="1">  1        5 0.18144507E-01 0.13136894E+03</pdfrwt>
<pdfrwt beam="2">  1       -5 0.27372209E-01 0.13136894E+03</pdfrwt>
<totfact> 0.25345806E+02</totfact>
</mgrwt>
</event>
<event>
 8    1  0.3674342E-007  0.1331950E+03  0.7546771E-02  0.1222792E+00
          5   -1    0    0  501    0  0.00000000000E+00  0.00000000000E+00  0.10667689564E+03  0.10678038239E+03  0.47000000000E+01 0. -1.
         -5   -1    0    0    0  501 -0.00000000000E+00 -0.00000000000E+00 -0.17257329582E+03  0.17263728575E+03  0.47000000000E+01 0. -1.
         25    2    1    2    0    0  0.39722405935E+02  0.23213646243E+02 -0.60034190423E+02  0.14609936556E+03  0.12499671073E+03 0.  0.
         25    2    1    2    0    0 -0.39722405935E+02 -0.23213646243E+02 -0.58622097612E+01  0.13331830257E+03  0.12499064522E+03 0.  0.
          5    1    3    3  502    0  0.94884341509E+01 -0.10351379574E+02  0.36513770344E+02  0.39402117538E+02  0.47000000000E+01 0.  1.
         -5    1    3    3    0  502  0.30233971785E+02  0.33565025817E+02 -0.96547960767E+02  0.10669724803E+03  0.47000000000E+01 0.  1.
          5    1    4    4  503    0  0.10855425050E+02  0.45895809059E+02 -0.33137544188E+01  0.47511435577E+02  0.47000000000E+01 0.  1.
         -5    1    4    4    0  503 -0.50577830985E+02 -0.69109455302E+02 -0.25484553424E+01  0.85806866997E+02  0.47000000000E+01 0.  1.
<mgrwt>
<rscale>  0 0.13319362E+03</rscale>
<asrwt>0</asrwt>
<pdfrwt beam="1">  1        5 0.16424713E-01 0.13319505E+03</pdfrwt>
<pdfrwt beam="2">  1       -5 0.26562621E-01 0.13319505E+03</pdfrwt>
<totfact> 0.32404011E+02</totfact>
</mgrwt>
</event>
<event>
 8    1  0.3674342E-007  0.1334983E+03  0.7546771E-02  0.1222355E+00
          5   -1    0    0  501    0  0.00000000000E+00  0.00000000000E+00  0.10229048737E+03  0.10239840724E+03  0.47000000000E+01 0. -1.
         -5   -1    0    0    0  501 -0.00000000000E+00 -0.00000000000E+00 -0.24837232105E+03  0.24841678660E+03  0.47000000000E+01 0. -1.
         25    2    1    2    0    0  0.32315684332E+01 -0.46747329416E+02 -0.16899735125E+03  0.21536438387E+03  0.12500382901E+03 0.  0.
         25    2    1    2    0    0 -0.32315684332E+01  0.46747329416E+02  0.22915517567E+02  0.13545080997E+03  0.12500418047E+03 0.  0.
          5    1    3    3  502    0 -0.42547323240E+02 -0.29721960744E+02 -0.15731608592E+02  0.54435679239E+02  0.47000000000E+01 0. -1.
         -5    1    3    3    0  502  0.45778891673E+02 -0.17025368673E+02 -0.15326574266E+03  0.16092870463E+03  0.47000000000E+01 0. -1.
          5    1    4    4  503    0 -0.53349139714E+02 -0.11523690631E+02  0.20243040148E+02  0.58402027606E+02  0.47000000000E+01 0. -1.
         -5    1    4    4    0  503  0.50117571281E+02  0.58271020048E+02  0.26724774181E+01  0.77048782366E+02  0.47000000000E+01 0. -1.
<mgrwt>
<rscale>  0 0.13349824E+03</rscale>
<asrwt>0</asrwt>
<pdfrwt beam="1">  1        5 0.15748720E-01 0.13349832E+03</pdfrwt>
<pdfrwt beam="2">  1       -5 0.38222848E-01 0.13349832E+03</pdfrwt>
<totfact> 0.17043047E+02</totfact>
</mgrwt>
</event>
<event>
 8    1  0.3674342E-007  0.1401860E+03  0.7546771E-02  0.1213079E+00
         -5   -1    0    0    0  501 -0.00000000000E+00  0.00000000000E+00  0.67832375175E+02  0.67995008066E+02  0.47000000000E+01 0. -1.
          5   -1    0    0  501    0  0.00000000000E+00 -0.00000000000E+00 -0.36030254905E+03  0.36033320254E+03  0.47000000000E+01 0. -1.
         25    2    1    2    0    0 -0.18145158887E+02  0.60797156406E+02 -0.51112956974E+02  0.14921277616E+03  0.12500550860E+03 0.  0.
         25    2    1    2    0    0  0.18145158887E+02 -0.60797156406E+02 -0.24135721690E+03  0.27911543445E+03  0.12500631416E+03 0.  0.
          5    1    4    4  502    0  0.17551892627E+01  0.34240806618E+02 -0.11497470499E+03  0.12006992261E+03  0.47000000000E+01 0.  1.
         -5    1    4    4    0  502  0.16389969624E+02 -0.95037963024E+02 -0.12638251191E+03  0.15904551184E+03  0.47000000000E+01 0.  1.
          5    1    3    3  503    0 -0.47429427402E+02  0.66228238963E+02  0.88715926445E+01  0.82076338709E+02  0.47000000000E+01 0. -1.
         -5    1    3    3    0  503  0.29284268516E+02 -0.54310825570E+01 -0.59984549618E+02  0.67136437447E+02  0.47000000000E+01 0. -1.
<mgrwt>
<rscale>  0 0.14018584E+03</rscale>
<asrwt>0</asrwt>
<pdfrwt beam="2">  1        5 0.55446029E-01 0.14018602E+03</pdfrwt>
<pdfrwt beam="1">  1       -5 0.10450618E-01 0.14018602E+03</pdfrwt>
<totfact> 0.16533571E+02</totfact>
</mgrwt>
</event>
<event>
 8    1  0.3674342E-007  0.1323767E+03  0.7546771E-02  0.1223993E+00
         -5   -1    0    0    0  501 -0.00000000000E+00  0.00000000000E+00  0.88986719022E+03  0.88987960209E+03  0.47000000000E+01 0. -1.
          5   -1    0    0  501    0  0.00000000000E+00 -0.00000000000E+00 -0.21062668719E+02  0.21580686124E+02  0.47000000000E+01 0. -1.
         25    2    1    2    0    0  0.29796306905E+02 -0.31801877445E+02  0.56107695607E+03  0.57646799305E+03  0.12493525151E+03 0.  0.
         25    2    1    2    0    0 -0.29796306905E+02  0.31801877445E+02  0.30772756543E+03  0.33499229516E+03  0.12499761590E+03 0.  0.
          5    1    4    4  502    0 -0.29311334904E+02 -0.42650528906E+02  0.17706100841E+03  0.18452889386E+03  0.47000000000E+01 0. -1.
         -5    1    4    4    0  502 -0.48497200165E+00  0.74452406351E+02  0.13066655702E+03  0.15046340130E+03  0.47000000000E+01 0. -1.
          5    1    3    3  503    0  0.31896758755E+02 -0.15311653367E+02  0.55773090989E+03  0.55887181696E+03  0.47000000000E+01 0. -1.
         -5    1    3    3    0  503 -0.21004518495E+01 -0.16490224078E+02  0.33460461828E+01  0.17596176095E+02  0.47000000000E+01 0. -1.
<mgrwt>
<rscale>  0 0.13236195E+03</rscale>
<asrwt>0</asrwt>
<pdfrwt beam="2">  1        5 0.32812129E-02 0.13237667E+03</pdfrwt>
<pdfrwt beam="1">  1       -5 0.13694344E+00 0.13237667E+03</pdfrwt>
<totfact> 0.13339173E+02</totfact>
</mgrwt>
</event>
<event>
 8    1  0.3674342E-007  0.1315613E+03  0.7546771E-02  0.1225159E+00
          5   -1    0    0  501    0  0.00000000000E+00  0.00000000000E+00  0.38364644542E+03  0.38367523387E+03  0.47000000000E+01 0.  1.
         -5   -1    0    0    0  501 -0.00000000000E+00 -0.00000000000E+00 -0.53047325408E+02  0.53255128701E+02  0.47000000000E+01 0.  1.
         25    2    1    2    0    0 -0.18328444281E+02 -0.36684473664E+02  0.80204437825E+02  0.15407726790E+03  0.12500148063E+03 0.  0.
         25    2    1    2    0    0  0.18328444281E+02  0.36684473664E+02  0.25039468219E+03  0.28285309466E+03  0.12500677508E+03 0.  0.
          5    1    3    3  502    0  0.44279297213E+01 -0.67374503062E+02  0.29312184248E+01  0.67746677158E+02  0.47000000000E+01 0. -1.
         -5    1    3    3    0  502 -0.22756374002E+02  0.30690029399E+02  0.77273219400E+02  0.86330590747E+02  0.47000000000E+01 0. -1.
          5    1    4    4  503    0  0.43512412597E+02  0.31993472249E+02  0.32085662179E+02  0.62995968395E+02  0.47000000000E+01 0. -1.
         -5    1    4    4    0  503 -0.25183968316E+02  0.46910014149E+01  0.21830902001E+03  0.21985712627E+03  0.47000000000E+01 0. -1.
<mgrwt>
<rscale>  0 0.13156004E+03</rscale>
<asrwt>0</asrwt>
<pdfrwt beam="1">  1        5 0.59040730E-01 0.13156130E+03</pdfrwt>
<pdfrwt beam="2">  1       -5 0.81793263E-02 0.13156130E+03</pdfrwt>
<totfact> 0.21599845E+02</totfact>
</mgrwt>
</event>
<event>
 8    1  0.3674342E-007  0.1295299E+03  0.7546771E-02  0.1228155E+00
          5   -1    0    0  501    0  0.00000000000E+00  0.00000000000E+00  0.33900364817E+02  0.34224621761E+02  0.47000000000E+01 0.  1.
         -5   -1    0    0    0  501 -0.00000000000E+00 -0.00000000000E+00 -0.53941062855E+03  0.53943110422E+03  0.47000000000E+01 0.  1.
         25    2    1    2    0    0 -0.31386582830E+02 -0.12952162861E+02 -0.33755996184E+03  0.36155872890E+03  0.12500044200E+03 0.  0.
         25    2    1    2    0    0  0.31386582830E+02  0.12952162861E+02 -0.16795030189E+03  0.21209699708E+03  0.12499982463E+03 0.  0.
          5    1    4    4  502    0  0.11832946310E+02  0.47516652049E+02 -0.11368487743E+02  0.50489438043E+02  0.47000000000E+01 0.  1.
         -5    1    4    4    0  502  0.19553636521E+02 -0.34564489189E+02 -0.15658181415E+03  0.16160755903E+03  0.47000000000E+01 0.  1.
          5    1    3    3  503    0 -0.59243425096E+02 -0.48719831494E+02 -0.14998918707E+03  0.16852967584E+03  0.47000000000E+01 0.  1.
         -5    1    3    3    0  503  0.27856842266E+02  0.35767668633E+02 -0.18757077477E+03  0.19302905307E+03  0.47000000000E+01 0.  1.
<mgrwt>
<rscale>  0 0.12952972E+03</rscale>
<asrwt>0</asrwt>
<pdfrwt beam="1">  1        5 0.52419590E-02 0.12952987E+03</pdfrwt>
<pdfrwt beam="2">  1       -5 0.83012762E-01 0.12952987E+03</pdfrwt>
<totfact> 0.21146117E+02</totfact>
</mgrwt>
</event>
<event>
 8    1  0.3674342E-007  0.1345676E+03  0.7546771E-02  0.1220832E+00
          5   -1    0    0  501    0  0.00000000000E+00  0.00000000000E+00  0.31594523413E+02  0.31942196382E+02  0.47000000000E+01 0. -1.
         -5   -1    0    0    0  501 -0.00000000000E+00 -0.00000000000E+00 -0.88535492386E+03  0.88536739900E+03  0.47000000000E+01 0. -1.
         25    2    1    2    0    0  0.35493770228E+02 -0.34993807490E+02 -0.70070669809E+03  0.71351099752E+03  0.12499477008E+03 0.  0.
         25    2    1    2    0    0 -0.35493770228E+02  0.34993807490E+02 -0.15305370236E+03  0.20379859786E+03  0.12499623353E+03 0.  0.
          5    1    4    4  502    0 -0.79620539802E+02  0.29233021705E+01 -0.90120408803E+02  0.12038170184E+03  0.47000000000E+01 0. -1.
         -5    1    4    4    0  502  0.44126769574E+02  0.32070505320E+02 -0.62933293561E+02  0.83416896027E+02  0.47000000000E+01 0. -1.
          5    1    3    3  503    0 -0.24751384009E+02  0.34338655823E+02 -0.22500528441E+03  0.22900052906E+03  0.47000000000E+01 0.  1.
         -5    1    3    3    0  503  0.60245154237E+02 -0.69332463313E+02 -0.47570141367E+03  0.48451046846E+03  0.47000000000E+01 0.  1.
<mgrwt>
<rscale>  0 0.13456724E+03</rscale>
<asrwt>0</asrwt>
<pdfrwt beam="1">  1        5 0.48884003E-02 0.13456758E+03</pdfrwt>
<pdfrwt beam="2">  1       -5 0.13623613E+00 0.13456758E+03</pdfrwt>
<totfact> 0.70715699E+01</totfact>
</mgrwt>
</event>
<event>
 8    1  0.3674342E-007  0.1561680E+03  0.7546771E-02  0.1193093E+00
         -5   -1    0    0    0  501 -0.00000000000E+00  0.00000000000E+00  0.96369012791E+02  0.96483556248E+02  0.47000000000E+01 0.  1.
          5   -1    0    0  501    0  0.00000000000E+00 -0.00000000000E+00 -0.25374327538E+03  0.25378679990E+03  0.47000000000E+01 0.  1.
         25    2    1    2    0    0 -0.32044587769E+02  0.87959089611E+02 -0.67928869775E+02  0.17030204056E+03  0.12499918648E+03 0.  0.
         25    2    1    2    0    0  0.32044587769E+02 -0.87959089611E+02 -0.89445392817E+02  0.17996831558E+03  0.12499783705E+03 0.  0.
          5    1    3    3  502    0  0.16020818116E+02  0.95115900479E+02 -0.73226094529E+02  0.12119344890E+03  0.47000000000E+01 0.  1.
         -5    1    3    3    0  502 -0.48065405885E+02 -0.71568108686E+01  0.52972247540E+01  0.49108591660E+02  0.47000000000E+01 0.  1.
          5    1    4    4  503    0  0.72825773250E+01  0.31004927650E+02 -0.67050010697E+01  0.32884472178E+02  0.47000000000E+01 0.  1.
         -5    1    4    4    0  503  0.24762010444E+02 -0.11896401726E+03 -0.82740391747E+02  0.14708384340E+03  0.47000000000E+01 0.  1.
<mgrwt>
<rscale>  0 0.15616776E+03</rscale>
<asrwt>0</asrwt>
<pdfrwt beam="2">  1        5 0.39049586E-01 0.15616803E+03</pdfrwt>
<pdfrwt beam="1">  1       -5 0.14838161E-01 0.15616803E+03</pdfrwt>
<totfact> 0.19144850E+02</totfact>
</mgrwt>
</event>
<event>
 8    1  0.3674342E-007  0.1603896E+03  0.7546771E-02  0.1188259E+00
         -5   -1    0    0    0  501 -0.00000000000E+00  0.00000000000E+00  0.12633682277E+04  0.12633769702E+04  0.47000000000E+01 0.  1.
          5   -1    0    0  501    0  0.00000000000E+00 -0.00000000000E+00 -0.22916985815E+02  0.23393978687E+02  0.47000000000E+01 0.  1.
         25    2    1    2    0    0 -0.89566344828E+02  0.45588953477E+02  0.84401254895E+03  0.85911633754E+03  0.12499286314E+03 0.  0.
         25    2    1    2    0    0  0.89566344828E+02 -0.45588953477E+02  0.39643869297E+03  0.42765461135E+03  0.12499738607E+03 0.  0.
          5    1    3    3  502    0  0.31222175233E+02  0.10057423095E+02  0.22332698991E+03  0.22577203195E+03  0.47000000000E+01 0. -1.
         -5    1    3    3    0  502 -0.12078852006E+03  0.35531530382E+02  0.62068555903E+03  0.63334430559E+03  0.47000000000E+01 0. -1.
          5    1    4    4  503    0  0.63334887514E+02 -0.58943227476E+02  0.11173391339E+03  0.14139366832E+03  0.47000000000E+01 0.  1.
         -5    1    4    4    0  503  0.26231457314E+02  0.13354273998E+02  0.28470477958E+03  0.28626094303E+03  0.47000000000E+01 0.  1.
<mgrwt>
<rscale>  0 0.16038874E+03</rscale>
<asrwt>0</asrwt>
<pdfrwt beam="2">  1        5 0.35630544E-02 0.16038962E+03</pdfrwt>
<pdfrwt beam="1">  1       -5 0.19440171E+00 0.16038962E+03</pdfrwt>
<totfact> 0.45693113E+01</totfact>
</mgrwt>
</event>
<event>
 8    1  0.3674342E-007  0.1894089E+03  0.7546771E-02  0.1158996E+00
          5   -1    0    0  501    0  0.00000000000E+00  0.00000000000E+00  0.70017339393E+02  0.70174908733E+02  0.47000000000E+01 0. -1.
         -5   -1    0    0    0  501 -0.00000000000E+00 -0.00000000000E+00 -0.52232245005E+03  0.52234359557E+03  0.47000000000E+01 0. -1.
         25    2    1    2    0    0 -0.69056830677E+02  0.12442603543E+03 -0.26851941068E+03  0.32860068750E+03  0.12500021504E+03 0.  0.
         25    2    1    2    0    0  0.69056830677E+02 -0.12442603543E+03 -0.18378569998E+03  0.26391781680E+03  0.12499898539E+03 0.  0.
          5    1    3    3  502    0 -0.19470693383E+02  0.12995706662E+03 -0.23171146947E+03  0.26642117437E+03  0.47000000000E+01 0.  1.
         -5    1    3    3    0  502 -0.49586137294E+02 -0.55310311932E+01 -0.36807941206E+02  0.62179513134E+02  0.47000000000E+01 0.  1.
          5    1    4    4  503    0 -0.59898006304E+01  0.15306923586E+02  0.45060661201E+01  0.17679769600E+02  0.47000000000E+01 0. -1.
         -5    1    4    4    0  503  0.75046631307E+02 -0.13973295902E+03 -0.18829176610E+03  0.24623804720E+03  0.47000000000E+01 0. -1.
<mgrwt>
<rscale>  0 0.18940871E+03</rscale>
<asrwt>0</asrwt>
<pdfrwt beam="1">  1        5 0.10785646E-01 0.18940892E+03</pdfrwt>
<pdfrwt beam="2">  1       -5 0.80371045E-01 0.18940892E+03</pdfrwt>
<totfact> 0.74568101E+01</totfact>
</mgrwt>
</event>
<event>
 8    1  0.3674342E-007  0.1476076E+03  0.7546771E-02  0.1203444E+00
          5   -1    0    0  501    0  0.00000000000E+00  0.00000000000E+00  0.14205294490E+03  0.14213067633E+03  0.47000000000E+01 0. -1.
         -5   -1    0    0    0  501 -0.00000000000E+00 -0.00000000000E+00 -0.15481779164E+03  0.15488911714E+03  0.47000000000E+01 0. -1.
         25    2    1    2    0    0 -0.38966960182E+02 -0.68155272875E+02  0.86823966008E+01  0.14786222311E+03  0.12499715119E+03 0.  0.
         25    2    1    2    0    0  0.38966960182E+02  0.68155272875E+02 -0.21447243347E+02  0.14915757037E+03  0.12499772536E+03 0.  0.
          5    1    3    3  502    0  0.37350494464E+02 -0.22929800612E+02 -0.27485698619E+02  0.51946018340E+02  0.47000000000E+01 0. -1.
         -5    1    3    3    0  502 -0.76317454646E+02 -0.45225472263E+02  0.36168095220E+02  0.95916204767E+02  0.47000000000E+01 0. -1.
          5    1    4    4  503    0  0.58246588779E+02 -0.16446828931E+02 -0.83515664265E+01  0.61278070694E+02  0.47000000000E+01 0.  1.
         -5    1    4    4    0  503 -0.19279628596E+02  0.84602101806E+02 -0.13095676921E+02  0.87879499673E+02  0.47000000000E+01 0.  1.
<mgrwt>
<rscale>  0 0.14760745E+03</rscale>
<asrwt>0</asrwt>
<pdfrwt beam="1">  1        5 0.21865765E-01 0.14760758E+03</pdfrwt>
<pdfrwt beam="2">  1       -5 0.23829588E-01 0.14760758E+03</pdfrwt>
<totfact> 0.24299031E+02</totfact>
</mgrwt>
</event>
<event>
 8    1  0.3674342E-007  0.1265233E+03  0.7546771E-02  0.1232711E+00
         -5   -1    0    0    0  501 -0.00000000000E+00  0.00000000000E+00  0.61811764502E+03  0.61813551353E+03  0.47000000000E+01 0. -1.
          5   -1    0    0  501    0  0.00000000000E+00 -0.00000000000E+00 -0.26540639911E+02  0.26953581708E+02  0.47000000000E+01 0. -1.
         25    2    1    2    0    0 -0.47757120211E+01  0.18962567358E+02  0.35390996035E+03  0.37584624825E+03  0.12500302357E+03 0.  0.
         25    2    1    2    0    0  0.47757120211E+01 -0.18962567358E+02  0.23766704476E+03  0.26924284698E+03  0.12499480030E+03 0.  0.
          5    1    3    3  502    0 -0.46916412107E+01  0.69740113357E+02  0.14841093824E+03  0.16411456821E+03  0.47000000000E+01 0.  1.
         -5    1    3    3    0  502 -0.84070810401E-01 -0.50777546000E+02  0.20549902211E+03  0.21173168004E+03  0.47000000000E+01 0.  1.
          5    1    4    4  503    0  0.14156448296E+02 -0.43064382178E+02  0.19622205766E+02  0.49619220065E+02  0.47000000000E+01 0.  1.
         -5    1    4    4    0  503 -0.93807362752E+01  0.24101814821E+02  0.21804483899E+03  0.21962362692E+03  0.47000000000E+01 0.  1.
<mgrwt>
<rscale>  0 0.12652126E+03</rscale>
<asrwt>0</asrwt>
<pdfrwt beam="2">  1        5 0.41163147E-02 0.12652329E+03</pdfrwt>
<pdfrwt beam="1">  1       -5 0.95128159E-01 0.12652329E+03</pdfrwt>
<totfact> 0.22662269E+02</totfact>
</mgrwt>
</event>
<event>
 8    1  0.3674342E-007  0.1770253E+03  0.7546771E-02  0.1170717E+00
          5   -1    0    0  501    0  0.00000000000E+00  0.00000000000E+00  0.29122458648E+03  0.29126251006E+03  0.47000000000E+01 0. -1.
         -5   -1    0    0    0  501 -0.00000000000E+00 -0.00000000000E+00 -0.13194577546E+03  0.13202945755E+03  0.47000000000E+01 0. -1.
         25    2    1    2    0    0  0.11549457227E+03  0.48678237659E+02 -0.11405853052E+02  0.17739236963E+03  0.12501756786E+03 0.  0.
         25    2    1    2    0    0 -0.11549457227E+03 -0.48678237659E+02  0.17068466407E+03  0.24589959799E+03  0.12499916278E+03 0.  0.
          5    1    4    4  502    0 -0.85539819572E+02 -0.15945114624E+02  0.20901266155E+02  0.89611719879E+02  0.47000000000E+01 0. -1.
         -5    1    4    4    0  502 -0.29954752699E+02 -0.32733123035E+02  0.14978339792E+03  0.15628787811E+03  0.47000000000E+01 0. -1.
          5    1    3    3  503    0  0.97783842591E+01 -0.29869532389E+01  0.45310148693E+02  0.46686596181E+02  0.47000000000E+01 0. -1.
         -5    1    3    3    0  503  0.10571618801E+03  0.51665190898E+02 -0.56716001745E+02  0.13070577345E+03  0.47000000000E+01 0. -1.
<mgrwt>
<rscale>  0 0.17702206E+03</rscale>
<asrwt>0</asrwt>
<pdfrwt beam="1">  1        5 0.44813137E-01 0.17702531E+03</pdfrwt>
<pdfrwt beam="2">  1       -5 0.20308704E-01 0.17702531E+03</pdfrwt>
<totfact> 0.83861283E+01</totfact>
</mgrwt>
</event>
<event>
 8    1  0.3674342E-007  0.1287842E+03  0.7546771E-02  0.1229275E+00
          5   -1    0    0  501    0  0.00000000000E+00  0.00000000000E+00  0.14463636617E+02  0.15208115735E+02  0.47000000000E+01 0. -1.
         -5   -1    0    0    0  501 -0.00000000000E+00 -0.00000000000E+00 -0.11580118370E+04  0.11580213749E+04  0.47000000000E+01 0. -1.
         25    2    1    2    0    0  0.28715962309E+01  0.30851344799E+02 -0.68203591672E+03  0.69408815328E+03  0.12500128516E+03 0.  0.
         25    2    1    2    0    0 -0.28715962309E+01 -0.30851344799E+02 -0.46151228368E+03  0.47914133733E+03  0.12499112612E+03 0.  0.
          5    1    3    3  502    0 -0.21095845174E+02 -0.12163342587E+02 -0.25075947093E+02  0.35268607984E+02  0.47000000000E+01 0.  1.
         -5    1    3    3    0  502  0.23967441405E+02  0.43014687386E+02 -0.65695996962E+03  0.65881954530E+03  0.47000000000E+01 0.  1.
          5    1    4    4  503    0 -0.13367177530E+02 -0.76612541756E+02 -0.33945519609E+03  0.34828161471E+03  0.47000000000E+01 0. -1.
         -5    1    4    4    0  503  0.10495581299E+02  0.45761196957E+02 -0.12205708759E+03  0.13085972262E+03  0.47000000000E+01 0. -1.
<mgrwt>
<rscale>  0 0.12878175E+03</rscale>
<asrwt>0</asrwt>
<pdfrwt beam="1">  1        5 0.22831771E-02 0.12878421E+03</pdfrwt>
<pdfrwt beam="2">  1       -5 0.17821360E+00 0.12878421E+03</pdfrwt>
<totfact> 0.11400081E+02</totfact>
</mgrwt>
</event>
<event>
 8    1  0.3674342E-007  0.1384482E+03  0.7546771E-02  0.1215433E+00
          5   -1    0    0  501    0  0.00000000000E+00  0.00000000000E+00  0.12690273180E+03  0.12698973714E+03  0.47000000000E+01 0.  1.
         -5   -1    0    0    0  501 -0.00000000000E+00 -0.00000000000E+00 -0.16556204882E+03  0.16562874753E+03  0.47000000000E+01 0.  1.
         25    2    1    2    0    0  0.58968823849E+02  0.80290207769E+01 -0.62898440683E+02  0.15206617661E+03  0.12500448339E+03 0.  0.
         25    2    1    2    0    0 -0.58968823849E+02 -0.80290207769E+01  0.24239123662E+02  0.14055230806E+03  0.12500251527E+03 0.  0.
          5    1    3    3  502    0 -0.20850514331E+02 -0.39825370053E+02 -0.18355281461E+02  0.48783300475E+02  0.47000000000E+01 0. -1.
         -5    1    3    3    0  502  0.79819338181E+02  0.47854390830E+02 -0.44543159222E+02  0.10328287614E+03  0.47000000000E+01 0. -1.
          5    1    4    4  503    0 -0.56704306940E+01  0.17727447260E+02  0.65491976950E+02  0.68247382480E+02  0.47000000000E+01 0.  1.
         -5    1    4    4    0  503 -0.53298393155E+02 -0.25756468037E+02 -0.41252853287E+02  0.72304925579E+02  0.47000000000E+01 0.  1.
<mgrwt>
<rscale>  0 0.13844777E+03</rscale>
<asrwt>0</asrwt>
<pdfrwt beam="1">  1        5 0.19535321E-01 0.13844821E+03</pdfrwt>
<pdfrwt beam="2">  1       -5 0.25482908E-01 0.13844821E+03</pdfrwt>
<totfact> 0.25835429E+02</totfact>
</mgrwt>
</event>
<event>
 8    1  0.3674342E-007  0.1411691E+03  0.7546771E-02  0.1211765E+00
         -5   -1    0    0    0  501 -0.00000000000E+00  0.00000000000E+00  0.84315027692E+03  0.84316337650E+03  0.47000000000E+01 0. -1.
          5   -1    0    0  501    0  0.00000000000E+00 -0.00000000000E+00 -0.24669905749E+02  0.25113626772E+02  0.47000000000E+01 0. -1.
         25    2    1    2    0    0  0.62223630749E+02 -0.20782297447E+02  0.50724859715E+03  0.52652572820E+03  0.12499807612E+03 0.  0.
         25    2    1    2    0    0 -0.62223630749E+02  0.20782297447E+02  0.31123177402E+03  0.34175127507E+03  0.12500013097E+03 0.  0.
          5    1    3    3  502    0 -0.20355254797E+02 -0.73864345011E+01  0.13999063458E+02  0.26209913968E+02  0.47000000000E+01 0. -1.
         -5    1    3    3    0  502  0.82578885546E+02 -0.13395862946E+02  0.49324953369E+03  0.50031581423E+03  0.47000000000E+01 0. -1.
          5    1    4    4  503    0 -0.98885010286E+02  0.13296266288E+02  0.18812795571E+03  0.21300059548E+03  0.47000000000E+01 0. -1.
         -5    1    4    4    0  503  0.36661379538E+02  0.74860311590E+01  0.12310381831E+03  0.12875067959E+03  0.47000000000E+01 0. -1.
<mgrwt>
<rscale>  0 0.14116865E+03</rscale>
<asrwt>0</asrwt>
<pdfrwt beam="2">  1        5 0.38305102E-02 0.14116911E+03</pdfrwt>
<pdfrwt beam="1">  1       -5 0.12975057E+00 0.14116911E+03</pdfrwt>
<totfact> 0.12184469E+02</totfact>
</mgrwt>
</event>
<event>
 8    1  0.3674342E-007  0.1468245E+03  0.7546771E-02  0.1204434E+00
         -5   -1    0    0    0  501 -0.00000000000E+00  0.00000000000E+00  0.61179311937E+03  0.61181117259E+03  0.47000000000E+01 0.  1.
          5   -1    0    0  501    0  0.00000000000E+00 -0.00000000000E+00 -0.35242854917E+02  0.35554870590E+02  0.47000000000E+01 0.  1.
         25    2    1    2    0    0 -0.63150384502E+02 -0.44103755686E+02  0.26496148546E+03  0.30291719455E+03  0.12498450165E+03 0.  0.
         25    2    1    2    0    0  0.63150384502E+02  0.44103755686E+02  0.31158877900E+03  0.34444884863E+03  0.12499731915E+03 0.  0.
          5    1    3    3  502    0 -0.15216553131E+02  0.41838920753E+02  0.54431788397E+02  0.70476580274E+02  0.47000000000E+01 0.  1.
         -5    1    3    3    0  502 -0.47933831370E+02 -0.85942676439E+02  0.21052969706E+03  0.23244061428E+03  0.47000000000E+01 0.  1.
          5    1    4    4  503    0  0.50093670510E+02  0.87680613517E+02  0.21405351070E+03  0.23672401918E+03  0.47000000000E+01 0. -1.
         -5    1    4    4    0  503  0.13056713992E+02 -0.43576857831E+02  0.97535268293E+02  0.10772482945E+03  0.47000000000E+01 0. -1.
<mgrwt>
<rscale>  0 0.14682180E+03</rscale>
<asrwt>0</asrwt>
<pdfrwt beam="2">  1        5 0.54473678E-02 0.14682453E+03</pdfrwt>
<pdfrwt beam="1">  1       -5 0.94147404E-01 0.14682453E+03</pdfrwt>
<totfact> 0.15356400E+02</totfact>
</mgrwt>
</event>
<event>
 8    1  0.3674342E-007  0.1384364E+03  0.7546771E-02  0.1215449E+00
         -5   -1    0    0    0  501 -0.00000000000E+00  0.00000000000E+00  0.64857397255E+03  0.64859100200E+03  0.47000000000E+01 0. -1.
          5   -1    0    0  501    0  0.00000000000E+00 -0.00000000000E+00 -0.30529476134E+02  0.30889139079E+02  0.47000000000E+01 0. -1.
         25    2    1    2    0    0  0.56705280333E+02 -0.17998860823E+02  0.37554115025E+03  0.40024465478E+03  0.12500072137E+03 0.  0.
         25    2    1    2    0    0 -0.56705280333E+02  0.17998860823E+02  0.24250334617E+03  0.27923548629E+03  0.12500054437E+03 0.  0.
          5    1    3    3  502    0 -0.30124678602E+02 -0.38279491885E+02  0.14360563034E+03  0.15171513710E+03  0.47000000000E+01 0. -1.
         -5    1    3    3    0  502  0.86829958935E+02  0.20280631061E+02  0.23193551991E+03  0.24852951769E+03  0.47000000000E+01 0. -1.
          5    1    4    4  503    0 -0.80849015188E+02 -0.28345839302E+02  0.14378451833E+03  0.16743992228E+03  0.47000000000E+01 0.  1.
         -5    1    4    4    0  503  0.24143734855E+02  0.46344700125E+02  0.98718827839E+02  0.11179556401E+03  0.47000000000E+01 0.  1.
<mgrwt>
<rscale>  0 0.13843633E+03</rscale>
<asrwt>0</asrwt>
<pdfrwt beam="2">  1        5 0.47258189E-02 0.13843637E+03</pdfrwt>
<pdfrwt beam="1">  1       -5 0.99809585E-01 0.13843637E+03</pdfrwt>
<totfact> 0.16575291E+02</totfact>
</mgrwt>
</event>
<event>
 8    1  0.3674342E-007  0.2790599E+03  0.7546771E-02  0.1096204E+00
          5   -1    0    0  501    0  0.00000000000E+00  0.00000000000E+00  0.27833481758E+03  0.27837449718E+03  0.47000000000E+01 0. -1.
         -5   -1    0    0    0  501 -0.00000000000E+00 -0.00000000000E+00 -0.29114544695E+03  0.29118338084E+03  0.47000000000E+01 0. -1.
         25    2    1    2    0    0  0.10866731544E+03 -0.22458825800E+03 -0.62842883592E+02  0.28604835883E+03  0.12500385792E+03 0.  0.
         25    2    1    2    0    0 -0.10866731544E+03  0.22458825800E+03  0.50032254226E+02  0.28350951919E+03  0.12500379968E+03 0.  0.
          5    1    4    4  502    0  0.17487404218E+02  0.14548967303E+02 -0.17767850215E+02  0.29244969775E+02  0.47000000000E+01 0.  1.
         -5    1    4    4    0  502 -0.12615471966E+03  0.21003929070E+03  0.67800104441E+02  0.25426454942E+03  0.47000000000E+01 0.  1.
          5    1    3    3  503    0 -0.20285544001E+02 -0.29211208585E+02 -0.35234731792E+02  0.50282942703E+02  0.47000000000E+01 0.  1.
         -5    1    3    3    0  503  0.12895285944E+03 -0.19537704942E+03 -0.27608151800E+02  0.23576541613E+03  0.47000000000E+01 0.  1.
<mgrwt>
<rscale>  0 0.27905991E+03</rscale>
<asrwt>0</asrwt>
<pdfrwt beam="1">  1        5 0.42826711E-01 0.27905991E+03</pdfrwt>
<pdfrwt beam="2">  1       -5 0.44797577E-01 0.27905991E+03</pdfrwt>
<totfact> 0.21488888E+01</totfact>
</mgrwt>
</event>
<event>
 8    1  0.3674342E-007  0.1280396E+03  0.7546771E-02  0.1230395E+00
          5   -1    0    0  501    0  0.00000000000E+00  0.00000000000E+00  0.15128666436E+03  0.15135965385E+03  0.47000000000E+01 0.  1.
         -5   -1    0    0    0  501 -0.00000000000E+00 -0.00000000000E+00 -0.10851050349E+03  0.10861224318E+03  0.47000000000E+01 0.  1.
         25    2    1    2    0    0 -0.25763304031E+02  0.10289740817E+02  0.14581643835E+02  0.12886483183E+03  0.12499557570E+03 0.  0.
         25    2    1    2    0    0  0.25763304031E+02 -0.10289740817E+02  0.28194517030E+02  0.13110706520E+03  0.12499802060E+03 0.  0.
          5    1    3    3  502    0 -0.74295421421E+01  0.25139649648E+02 -0.51807124121E+02  0.58251765557E+02  0.47000000000E+01 0.  1.
         -5    1    3    3    0  502 -0.18333761889E+02 -0.14849908831E+02  0.66388767955E+02  0.70613066269E+02  0.47000000000E+01 0.  1.
          5    1    4    4  503    0 -0.31357528178E+02 -0.47232174824E+02  0.26848781857E+02  0.62905643620E+02  0.47000000000E+01 0.  1.
         -5    1    4    4    0  503  0.57120832209E+02  0.36942434007E+02  0.13457351730E+01  0.68201421582E+02  0.47000000000E+01 0.  1.
<mgrwt>
<rscale>  0 0.12803897E+03</rscale>
<asrwt>0</asrwt>
<pdfrwt beam="1">  1        5 0.23288312E-01 0.12803957E+03</pdfrwt>
<pdfrwt beam="2">  1       -5 0.16707364E-01 0.12803957E+03</pdfrwt>
<totfact> 0.39819699E+02</totfact>
</mgrwt>
</event>
<event>
 8    1  0.3674342E-007  0.1308400E+03  0.7546771E-02  0.1226218E+00
         -5   -1    0    0    0  501 -0.00000000000E+00  0.00000000000E+00  0.45147863702E+02  0.45391845048E+02  0.47000000000E+01 0.  1.
          5   -1    0    0  501    0  0.00000000000E+00 -0.00000000000E+00 -0.43167842420E+03  0.43170400962E+03  0.47000000000E+01 0.  1.
         25    2    1    2    0    0  0.65684135829E+01  0.38096388267E+02 -0.10907991814E+03  0.17034534637E+03  0.12499851853E+03 0.  0.
         25    2    1    2    0    0 -0.65684135829E+01 -0.38096388267E+02 -0.27745064236E+03  0.30675050829E+03  0.12499014576E+03 0.  0.
          5    1    3    3  502    0 -0.38571014378E+02  0.66645949393E+02 -0.61458658703E+02  0.98633982228E+02  0.47000000000E+01 0. -1.
         -5    1    3    3    0  502  0.45139427961E+02 -0.28549561126E+02 -0.47621259438E+02  0.71711364146E+02  0.47000000000E+01 0. -1.
          5    1    4    4  503    0  0.18580682870E+02  0.37999196520E+02 -0.15171169971E+03  0.15756811397E+03  0.47000000000E+01 0. -1.
         -5    1    4    4    0  503 -0.25149096453E+02 -0.76095584787E+02 -0.12573894265E+03  0.14918239432E+03  0.47000000000E+01 0. -1.
<mgrwt>
<rscale>  0 0.13083801E+03</rscale>
<asrwt>0</asrwt>
<pdfrwt beam="2">  1        5 0.66432798E-01 0.13084001E+03</pdfrwt>
<pdfrwt beam="1">  1       -5 0.69665614E-02 0.13084001E+03</pdfrwt>
<totfact> 0.21857875E+02</totfact>
</mgrwt>
</event>
<event>
 8    1  0.3674342E-007  0.1355901E+03  0.7546771E-02  0.1219389E+00
         -5   -1    0    0    0  501 -0.00000000000E+00  0.00000000000E+00  0.71666051918E+02  0.71820004160E+02  0.47000000000E+01 0.  1.
          5   -1    0    0  501    0  0.00000000000E+00 -0.00000000000E+00 -0.27898856690E+03  0.27902815353E+03  0.47000000000E+01 0.  1.
         25    2    1    2    0    0  0.45085058660E+02 -0.26946016855E+02 -0.53410783842E+02  0.14573056774E+03  0.12500374476E+03 0.  0.
         25    2    1    2    0    0 -0.45085058660E+02  0.26946016855E+02 -0.15391173114E+03  0.20511758995E+03  0.12500261751E+03 0.  0.
          5    1    3    3  502    0  0.86773734943E+02 -0.33415901411E+02 -0.38262702192E+02  0.10065996186E+03  0.47000000000E+01 0. -1.
         -5    1    3    3    0  502 -0.41688676284E+02  0.64698845564E+01 -0.15148081650E+02  0.45070605877E+02  0.47000000000E+01 0. -1.
          5    1    4    4  503    0  0.37451254105E+02 -0.87868655243E+01 -0.19661484853E+02  0.43456523405E+02  0.47000000000E+01 0.  1.
         -5    1    4    4    0  503 -0.82536312765E+02  0.35732882379E+02 -0.13425024629E+03  0.16166106654E+03  0.47000000000E+01 0.  1.
<mgrwt>
<rscale>  0 0.13558988E+03</rscale>
<asrwt>0</asrwt>
<pdfrwt beam="2">  1        5 0.42936205E-01 0.13559014E+03</pdfrwt>
<pdfrwt beam="1">  1       -5 0.11040434E-01 0.13559014E+03</pdfrwt>
<totfact> 0.25476597E+02</totfact>
</mgrwt>
</event>
<event>
 8    1  0.3674342E-007  0.1889606E+03  0.7546771E-02  0.1159402E+00
         -5   -1    0    0    0  501 -0.00000000000E+00  0.00000000000E+00  0.30591236994E+03  0.30594847292E+03  0.47000000000E+01 0.  1.
          5   -1    0    0  501    0  0.00000000000E+00 -0.00000000000E+00 -0.11759664301E+03  0.11769052828E+03  0.47000000000E+01 0.  1.
         25    2    1    2    0    0 -0.13261015982E+03  0.49956193726E+02  0.11335724053E+03  0.22035418841E+03  0.12500011436E+03 0.  0.
         25    2    1    2    0    0  0.13261015982E+03 -0.49956193726E+02  0.74958486396E+02  0.20328481279E+03  0.12499945859E+03 0.  0.
          5    1    4    4  502    0  0.14655907704E+03 -0.60986099011E+02  0.87213483174E+02  0.18118263985E+03  0.47000000000E+01 0. -1.
         -5    1    4    4    0  502 -0.13948917227E+02  0.11029905286E+02 -0.12254996778E+02  0.22102172935E+02  0.47000000000E+01 0. -1.
          5    1    3    3  503    0 -0.15190046641E+03  0.20398762032E+02  0.93166592707E+02  0.17942119491E+03  0.47000000000E+01 0. -1.
         -5    1    3    3    0  503  0.19290306592E+02  0.29557431694E+02  0.20190647826E+02  0.40932993494E+02  0.47000000000E+01 0. -1.
<mgrwt>
<rscale>  0 0.18896048E+03</rscale>
<asrwt>0</asrwt>
<pdfrwt beam="2">  1        5 0.18101790E-01 0.18896059E+03</pdfrwt>
<pdfrwt beam="1">  1       -5 0.47073441E-01 0.18896059E+03</pdfrwt>
<totfact> 0.95518282E+01</totfact>
</mgrwt>
</event>
<event>
 8    1  0.3674342E-007  0.1351448E+03  0.7546771E-02  0.1220019E+00
         -5   -1    0    0    0  501 -0.00000000000E+00  0.00000000000E+00  0.21190960116E+03  0.21196171603E+03  0.47000000000E+01 0.  1.
          5   -1    0    0  501    0  0.00000000000E+00 -0.00000000000E+00 -0.86666728874E+02  0.86794077527E+02  0.47000000000E+01 0.  1.
         25    2    1    2    0    0  0.50127967446E+02  0.11112397828E+02  0.75147846223E+02  0.15462520576E+03  0.12500182782E+03 0.  0.
         25    2    1    2    0    0 -0.50127967446E+02 -0.11112397828E+02  0.50095026063E+02  0.14413058780E+03  0.12501126428E+03 0.  0.
          5    1    3    3  502    0  0.57789497035E+02 -0.32911351030E+02 -0.46284804418E+00  0.66671487327E+02  0.47000000000E+01 0. -1.
         -5    1    3    3    0  502 -0.76615295890E+01  0.44023748857E+02  0.75610694267E+02  0.87953718436E+02  0.47000000000E+01 0. -1.
          5    1    4    4  503    0  0.14674752163E+02 -0.42035494801E+02  0.56272217140E+02  0.71909551494E+02  0.47000000000E+01 0.  1.
         -5    1    4    4    0  503 -0.64802719609E+02  0.30923096973E+02 -0.61771910770E+01  0.72221036303E+02  0.47000000000E+01 0.  1.
<mgrwt>
<rscale>  0 0.13514261E+03</rscale>
<asrwt>0</asrwt>
<pdfrwt beam="2">  1        5 0.13347148E-01 0.13514479E+03</pdfrwt>
<pdfrwt beam="1">  1       -5 0.32615282E-01 0.13514479E+03</pdfrwt>
<totfact> 0.31710680E+02</totfact>
</mgrwt>
</event>
<event>
 8    1  0.3674342E-007  0.1256815E+03  0.7546771E-02  0.1234011E+00
          5   -1    0    0  501    0  0.00000000000E+00  0.00000000000E+00  0.61698494910E+02  0.61877251670E+02  0.47000000000E+01 0. -1.
         -5   -1    0    0    0  501 -0.00000000000E+00 -0.00000000000E+00 -0.25659274278E+03  0.25663578404E+03  0.47000000000E+01 0. -1.
         25    2    1    2    0    0 -0.10468017880E+02 -0.77400947500E+01 -0.10816566657E+03  0.16581809289E+03  0.12500536004E+03 0.  0.
         25    2    1    2    0    0  0.10468017880E+02  0.77400947500E+01 -0.86728581306E+02  0.15269494282E+03  0.12499764111E+03 0.  0.
          5    1    3    3  502    0 -0.24694717267E+02 -0.19111958955E+02 -0.13184679296E+03  0.13557567204E+03  0.47000000000E+01 0.  1.
         -5    1    3    3    0  502  0.14226699387E+02  0.11371864205E+02  0.23681126395E+02  0.30242420840E+02  0.47000000000E+01 0.  1.
          5    1    4    4  503    0 -0.51360740070E+02  0.27267764051E+02 -0.26509907324E+02  0.64080588037E+02  0.47000000000E+01 0. -1.
         -5    1    4    4    0  503  0.61828757950E+02 -0.19527669301E+02 -0.60218673982E+02  0.88614354786E+02  0.47000000000E+01 0. -1.
<mgrwt>
<rscale>  0 0.12567954E+03</rscale>
<asrwt>0</asrwt>
<pdfrwt beam="1">  1        5 0.95091377E-02 0.12568146E+03</pdfrwt>
<pdfrwt beam="2">  1       -5 0.39492867E-01 0.12568146E+03</pdfrwt>
<totfact> 0.38204475E+02</totfact>
</mgrwt>
</event>
<event>
 8    1  0.3674342E-007  0.1394651E+03  0.7546771E-02  0.1214052E+00
          5   -1    0    0  501    0  0.00000000000E+00  0.00000000000E+00  0.27556761564E+03  0.27560769363E+03  0.47000000000E+01 0. -1.
         -5   -1    0    0    0  501 -0.00000000000E+00 -0.00000000000E+00 -0.88943767836E+02  0.89067860852E+02  0.47000000000E+01 0. -1.
         25    2    1    2    0    0  0.34005302425E+02 -0.51660218521E+02  0.10268919042E+02  0.13983875493E+03  0.12499715161E+03 0.  0.
         25    2    1    2    0    0 -0.34005302425E+02  0.51660218521E+02  0.17635492876E+03  0.22483679955E+03  0.12500154705E+03 0.  0.
          5    1    3    3  502    0  0.42811453573E+02  0.29070753468E+02  0.24179805759E+02  0.57312147672E+02  0.47000000000E+01 0. -1.
         -5    1    3    3    0  502 -0.88061511488E+01 -0.80730971989E+02 -0.13910886717E+02  0.82526607258E+02  0.47000000000E+01 0. -1.
          5    1    4    4  503    0 -0.22912888445E+02  0.17588686852E+02 -0.13029868703E+02  0.32034822311E+02  0.47000000000E+01 0. -1.
         -5    1    4    4    0  503 -0.11092413980E+02  0.34071531670E+02  0.18938479746E+03  0.19280197724E+03  0.47000000000E+01 0. -1.
<mgrwt>
<rscale>  0 0.13946416E+03</rscale>
<asrwt>0</asrwt>
<pdfrwt beam="1">  1        5 0.42407645E-01 0.13946514E+03</pdfrwt>
<pdfrwt beam="2">  1       -5 0.13696285E-01 0.13946514E+03</pdfrwt>
<totfact> 0.17990814E+02</totfact>
</mgrwt>
</event>
<event>
 8    1  0.3674342E-007  0.1430858E+03  0.7546771E-02  0.1209238E+00
         -5   -1    0    0    0  501 -0.00000000000E+00  0.00000000000E+00  0.39476112423E+03  0.39478910218E+03  0.47000000000E+01 0. -1.
          5   -1    0    0  501    0  0.00000000000E+00 -0.00000000000E+00 -0.55131617846E+02  0.55331593925E+02  0.47000000000E+01 0. -1.
         25    2    1    2    0    0  0.16958095461E+02 -0.67526881433E+02  0.22564579746E+03  0.26718824444E+03  0.12500430129E+03 0.  0.
         25    2    1    2    0    0 -0.16958095461E+02  0.67526881433E+02  0.11398370892E+03  0.18293245166E+03  0.12499815700E+03 0.  0.
          5    1    4    4  502    0 -0.55083792552E+01 -0.23561473684E+02 -0.11646676850E+02  0.27262068260E+02  0.47000000000E+01 0. -1.
         -5    1    4    4    0  502 -0.11449716206E+02  0.91088355117E+02  0.12563038577E+03  0.15567038340E+03  0.47000000000E+01 0. -1.
          5    1    3    3  503    0 -0.40100323468E+02  0.12895776656E+02  0.48649349498E+02  0.64522757259E+02  0.47000000000E+01 0. -1.
         -5    1    3    3    0  503  0.57058418929E+02 -0.80422658090E+02  0.17699644796E+03  0.20266548718E+03  0.47000000000E+01 0. -1.
<mgrwt>
<rscale>  0 0.14308441E+03</rscale>
<asrwt>0</asrwt>
<pdfrwt beam="2">  1        5 0.84993222E-02 0.14308575E+03</pdfrwt>
<pdfrwt beam="1">  1       -5 0.60750016E-01 0.14308575E+03</pdfrwt>
<totfact> 0.19539773E+02</totfact>
</mgrwt>
</event>
<event>
 8    1  0.3674342E-007  0.2585167E+03  0.7546771E-02  0.1108039E+00
         -5   -1    0    0    0  501 -0.00000000000E+00  0.00000000000E+00  0.19576757962E+03  0.19582399044E+03  0.47000000000E+01 0. -1.
          5   -1    0    0  501    0  0.00000000000E+00 -0.00000000000E+00 -0.35146581641E+03  0.35149724054E+03  0.47000000000E+01 0. -1.
         25    2    1    2    0    0 -0.64141828507E+02  0.21699909706E+03 -0.31190374196E+02  0.26039144882E+03  0.12501233894E+03 0.  0.
         25    2    1    2    0    0  0.64141828507E+02 -0.21699909706E+03 -0.12450786259E+03  0.28692978215E+03  0.12499483889E+03 0.  0.
          5    1    3    3  502    0 -0.75761685012E+01  0.19430351783E+03 -0.69535359475E+01  0.19463220965E+03  0.47000000000E+01 0. -1.
         -5    1    3    3    0  502 -0.56565660005E+02  0.22695579233E+02 -0.24236838248E+02  0.65759239175E+02  0.47000000000E+01 0. -1.
          5    1    4    4  503    0  0.20977718162E+02  0.68994572809E+01 -0.35573967967E+02  0.42133886208E+02  0.47000000000E+01 0. -1.
         -5    1    4    4    0  503  0.43164110344E+02 -0.22389855434E+03 -0.88933894624E+02  0.24479589595E+03  0.47000000000E+01 0. -1.
<mgrwt>
<rscale>  0 0.25851455E+03</rscale>
<asrwt>0</asrwt>
<pdfrwt beam="2">  1        5 0.54078421E-01 0.25851667E+03</pdfrwt>
<pdfrwt beam="1">  1       -5 0.30124846E-01 0.25851667E+03</pdfrwt>
<totfact> 0.28914643E+01</totfact>
</mgrwt>
</event>
<event>
 8    1  0.3674342E-007  0.1774954E+03  0.7546771E-02  0.1170251E+00
          5   -1    0    0  501    0  0.00000000000E+00  0.00000000000E+00  0.10493693934E+04  0.10493799187E+04  0.47000000000E+01 0.  1.
         -5   -1    0    0    0  501 -0.00000000000E+00 -0.00000000000E+00 -0.59591177516E+02  0.59776236397E+02  0.47000000000E+01 0.  1.
         25    2    1    2    0    0  0.63322304517E+01  0.12585582043E+03  0.10389230516E+03  0.20566529121E+03  0.12499926504E+03 0.  0.
         25    2    1    2    0    0 -0.63322304517E+01 -0.12585582043E+03  0.88588591068E+03  0.90349086385E+03  0.12498843806E+03 0.  0.
          5    1    3    3  502    0  0.65232398279E+02  0.73869152769E+02  0.61734114354E+02  0.11638345411E+03  0.47000000000E+01 0.  1.
         -5    1    3    3    0  502 -0.58900167828E+02  0.51986667659E+02  0.42158190806E+02  0.89281837103E+02  0.47000000000E+01 0.  1.
          5    1    4    4  503    0 -0.30112328873E+02  0.15413231620E+02  0.16907679015E+03  0.17249165495E+03  0.47000000000E+01 0. -1.
         -5    1    4    4    0  503  0.23780098421E+02 -0.14126905205E+03  0.71680912052E+03  0.73099920890E+03  0.47000000000E+01 0. -1.
<mgrwt>
<rscale>  0 0.17749345E+03</rscale>
<asrwt>0</asrwt>
<pdfrwt beam="1">  1        5 0.16145649E+00 0.17749535E+03</pdfrwt>
<pdfrwt beam="2">  1       -5 0.91829183E-02 0.17749535E+03</pdfrwt>
<totfact> 0.16462546E+01</totfact>
</mgrwt>
</event>
<event>
 8    1  0.3674342E-007  0.1426099E+03  0.7546771E-02  0.1209860E+00
         -5   -1    0    0    0  501 -0.00000000000E+00  0.00000000000E+00  0.21087511824E+02  0.21604933578E+02  0.47000000000E+01 0.  1.
          5   -1    0    0  501    0  0.00000000000E+00 -0.00000000000E+00 -0.13058320841E+04  0.13058405423E+04  0.47000000000E+01 0.  1.
         25    2    1    2    0    0 -0.18733760193E+02  0.66091948754E+02 -0.29705688375E+03  0.32951535047E+03  0.12497389549E+03 0.  0.
         25    2    1    2    0    0  0.18733760193E+02 -0.66091948754E+02 -0.98768768857E+03  0.99793012543E+03  0.12497385977E+03 0.  0.
          5    1    3    3  502    0 -0.22707697693E+02  0.51244188601E+02 -0.30599690121E+03  0.31112344809E+03  0.47000000000E+01 0. -1.
         -5    1    3    3    0  502  0.39739374996E+01  0.14847760152E+02  0.89400174670E+01  0.18391902379E+02  0.47000000000E+01 0. -1.
          5    1    4    4  503    0  0.21950002795E+02 -0.66597085236E+02 -0.23651082293E+03  0.24673150133E+03  0.47000000000E+01 0. -1.
         -5    1    4    4    0  503 -0.32162426013E+01  0.50513648258E+00 -0.75117686563E+03  0.75119862410E+03  0.47000000000E+01 0. -1.
<mgrwt>
<rscale>  0 0.14260986E+03</rscale>
<asrwt>0</asrwt>
<pdfrwt beam="2">  1        5 0.20093763E+00 0.14260987E+03</pdfrwt>
<pdfrwt beam="1">  1       -5 0.32846859E-02 0.14260987E+03</pdfrwt>
<totfact> 0.45581491E+01</totfact>
</mgrwt>
</event>
<event>
 8    1  0.3674342E-007  0.1362756E+03  0.7546771E-02  0.1218431E+00
         -5   -1    0    0    0  501 -0.00000000000E+00  0.00000000000E+00  0.16512768450E+02  0.17168620267E+02  0.47000000000E+01 0. -1.
          5   -1    0    0  501    0  0.00000000000E+00 -0.00000000000E+00 -0.11042165954E+04  0.11042265979E+04  0.47000000000E+01 0. -1.
         25    2    1    2    0    0 -0.54165466111E+02  0.30047483294E+01 -0.51915780497E+03  0.53674563559E+03  0.12501249789E+03 0.  0.
         25    2    1    2    0    0  0.54165466111E+02 -0.30047483294E+01 -0.56854602193E+03  0.58464958255E+03  0.12501051594E+03 0.  0.
          5    1    4    4  502    0  0.20452519011E+01  0.20845445242E+01 -0.49058025478E+03  0.49061146008E+03  0.47000000000E+01 0.  1.
         -5    1    4    4    0  502  0.52120214210E+02 -0.50892928536E+01 -0.77965767155E+02  0.94038122478E+02  0.47000000000E+01 0.  1.
          5    1    3    3  503    0  0.21252459421E+02  0.42070067438E+02 -0.25061561369E+03  0.25505260915E+03  0.47000000000E+01 0.  1.
         -5    1    3    3    0  503 -0.75417925533E+02 -0.39065319108E+02 -0.26854219128E+03  0.28169302644E+03  0.47000000000E+01 0.  1.
<mgrwt>
<rscale>  0 0.13627519E+03</rscale>
<asrwt>0</asrwt>
<pdfrwt beam="2">  1        5 0.16993064E+00 0.13627564E+03</pdfrwt>
<pdfrwt beam="1">  1       -5 0.25916463E-02 0.13627564E+03</pdfrwt>
<totfact> 0.10877776E+02</totfact>
</mgrwt>
</event>
<event>
 8    1  0.3674342E-007  0.1320782E+03  0.7546771E-02  0.1224410E+00
         -5   -1    0    0    0  501 -0.00000000000E+00  0.00000000000E+00  0.49219114978E+02  0.49443010418E+02  0.47000000000E+01 0. -1.
          5   -1    0    0  501    0  0.00000000000E+00 -0.00000000000E+00 -0.36003744230E+03  0.36006811836E+03  0.47000000000E+01 0. -1.
         25    2    1    2    0    0  0.42588410045E+02 -0.11287456237E+01 -0.12749926904E+03  0.18357754407E+03  0.12501841602E+03 0.  0.
         25    2    1    2    0    0 -0.42588410045E+02  0.11287456237E+01 -0.18331905828E+03  0.22593358471E+03  0.12500024333E+03 0.  0.
          5    1    3    3  502    0  0.42171613307E+02  0.76294459129E+01 -0.15154329001E+03  0.15755669507E+03  0.47000000000E+01 0.  1.
         -5    1    3    3    0  502  0.41679673832E+00 -0.87581915367E+01  0.24044020969E+02  0.26020849003E+02  0.47000000000E+01 0.  1.
          5    1    4    4  503    0  0.31831667472E+02  0.36770059056E+02 -0.58333439729E+02  0.76093182925E+02  0.47000000000E+01 0.  1.
         -5    1    4    4    0  503 -0.74420077517E+02 -0.35641313432E+02 -0.12498561855E+03  0.14984040178E+03  0.47000000000E+01 0.  1.
<mgrwt>
<rscale>  0 0.13207390E+03</rscale>
<asrwt>0</asrwt>
<pdfrwt beam="2">  1        5 0.55409956E-01 0.13207820E+03</pdfrwt>
<pdfrwt beam="1">  1       -5 0.75917542E-02 0.13207820E+03</pdfrwt>
<totfact> 0.28197694E+02</totfact>
</mgrwt>
</event>
<event>
 8    1  0.3674342E-007  0.1276498E+03  0.7546771E-02  0.1230986E+00
         -5   -1    0    0    0  501 -0.00000000000E+00  0.00000000000E+00  0.12862040083E+03  0.12870624503E+03  0.47000000000E+01 0.  1.
          5   -1    0    0  501    0  0.00000000000E+00 -0.00000000000E+00 -0.14120150277E+03  0.14127970266E+03  0.47000000000E+01 0.  1.
         25    2    1    2    0    0 -0.16129182155E+02 -0.20220129082E+02  0.37223058328E+02  0.13296629875E+03  0.12500190557E+03 0.  0.
         25    2    1    2    0    0  0.16129182155E+02  0.20220129082E+02 -0.49804160266E+02  0.13701964894E+03  0.12499970271E+03 0.  0.
          5    1    3    3  502    0  0.18482824710E+02  0.47244215344E+02  0.80166562570E+01  0.51575066363E+02  0.47000000000E+01 0.  1.
         -5    1    3    3    0  502 -0.34612006865E+02 -0.67464344426E+02  0.29206402071E+02  0.81391232390E+02  0.47000000000E+01 0.  1.
          5    1    4    4  503    0  0.30065139292E+02  0.45911247865E+02  0.22031770237E+02  0.59323217891E+02  0.47000000000E+01 0.  1.
         -5    1    4    4    0  503 -0.13935957137E+02 -0.25691118784E+02 -0.71835930503E+02  0.77696431044E+02  0.47000000000E+01 0.  1.
<mgrwt>
<rscale>  0 0.12764930E+03</rscale>
<asrwt>0</asrwt>
<pdfrwt beam="2">  1        5 0.21735927E-01 0.12764984E+03</pdfrwt>
<pdfrwt beam="1">  1       -5 0.19800373E-01 0.12764984E+03</pdfrwt>
<totfact> 0.33126240E+02</totfact>
</mgrwt>
</event>
<event>
 8    1  0.3674342E-007  0.1849022E+03  0.7546771E-02  0.1163142E+00
         -5   -1    0    0    0  501 -0.00000000000E+00  0.00000000000E+00  0.70772403620E+03  0.70773964239E+03  0.47000000000E+01 0. -1.
          5   -1    0    0  501    0  0.00000000000E+00 -0.00000000000E+00 -0.50523700093E+02  0.50741839453E+02  0.47000000000E+01 0. -1.
         25    2    1    2    0    0  0.13463670326E+03  0.20886508579E+02  0.41014682068E+03  0.44989912820E+03  0.12500209172E+03 0.  0.
         25    2    1    2    0    0 -0.13463670326E+03 -0.20886508579E+02  0.24705351542E+03  0.30858235364E+03  0.12499736553E+03 0.  0.
          5    1    3    3  502    0  0.16129400644E+02  0.54805254643E+02  0.17816670899E+03  0.18716099940E+03  0.47000000000E+01 0. -1.
         -5    1    3    3    0  502  0.11850730262E+03 -0.33918746064E+02  0.23198011169E+03  0.26273812880E+03  0.47000000000E+01 0. -1.
          5    1    4    4  503    0 -0.70173714421E+02  0.34802048606E+02  0.47927841710E+02  0.91949446947E+02  0.47000000000E+01 0. -1.
         -5    1    4    4    0  503 -0.64462988844E+02 -0.55688557185E+02  0.19912567371E+03  0.21663290670E+03  0.47000000000E+01 0. -1.
<mgrwt>
<rscale>  0 0.18490137E+03</rscale>
<asrwt>0</asrwt>
<pdfrwt beam="2">  1        5 0.77908572E-02 0.18490217E+03</pdfrwt>
<pdfrwt beam="1">  1       -5 0.10889860E+00 0.18490217E+03</pdfrwt>
<totfact> 0.62720825E+01</totfact>
</mgrwt>
</event>
<event>
 8    1  0.3674342E-007  0.1672039E+03  0.7546771E-02  0.1180797E+00
         -5   -1    0    0    0  501 -0.00000000000E+00  0.00000000000E+00  0.26967998432E+03  0.26972093716E+03  0.47000000000E+01 0.  1.
          5   -1    0    0  501    0  0.00000000000E+00 -0.00000000000E+00 -0.11491142825E+03  0.11500750559E+03  0.47000000000E+01 0.  1.
         25    2    1    2    0    0  0.21829026450E+02  0.10887856618E+03  0.13780036267E+03  0.21666576205E+03  0.12499625564E+03 0.  0.
         25    2    1    2    0    0 -0.21829026450E+02 -0.10887856618E+03  0.16968193402E+02  0.16806268070E+03  0.12500438587E+03 0.  0.
          5    1    3    3  502    0 -0.20403245913E+02  0.76026791624E+01 -0.16178889731E+02  0.27530703717E+02  0.47000000000E+01 0. -1.
         -5    1    3    3    0  502  0.42232272364E+02  0.10127588702E+03  0.15397925240E+03  0.18913505833E+03  0.47000000000E+01 0. -1.
          5    1    4    4  503    0 -0.30945218515E+02 -0.10320117781E+03  0.60035847915E+02  0.12342804659E+03  0.47000000000E+01 0.  1.
         -5    1    4    4    0  503  0.91161920643E+01 -0.56773883672E+01 -0.43067654512E+02  0.44634634104E+02  0.47000000000E+01 0.  1.
<mgrwt>
<rscale>  0 0.16720238E+03</rscale>
<asrwt>0</asrwt>
<pdfrwt beam="2">  1        5 0.17689222E-01 0.16720390E+03</pdfrwt>
<pdfrwt beam="1">  1       -5 0.41499768E-01 0.16720390E+03</pdfrwt>
<totfact> 0.12511716E+02</totfact>
</mgrwt>
</event>
<event>
 8    1  0.3674342E-007  0.1645682E+03  0.7546771E-02  0.1183643E+00
          5   -1    0    0  501    0  0.00000000000E+00  0.00000000000E+00  0.52342977319E+02  0.52553565765E+02  0.47000000000E+01 0.  1.
         -5   -1    0    0    0  501 -0.00000000000E+00 -0.00000000000E+00 -0.51650118902E+03  0.51652257285E+03  0.47000000000E+01 0.  1.
         25    2    1    2    0    0  0.61066636532E+01 -0.10681303900E+03 -0.22357540303E+03  0.27761240211E+03  0.12504546503E+03 0.  0.
         25    2    1    2    0    0 -0.61066636532E+01  0.10681303900E+03 -0.24058280868E+03  0.29146373651E+03  0.12499882089E+03 0.  0.
          5    1    3    3  502    0 -0.40559505962E+02  0.55367733405E+01 -0.40689147158E+02  0.57908773769E+02  0.47000000000E+01 0.  1.
         -5    1    3    3    0  502  0.46666169615E+02 -0.11234981234E+03 -0.18288625587E+03  0.21970362834E+03  0.47000000000E+01 0.  1.
          5    1    4    4  503    0  0.27830279314E+02  0.92057710706E+02 -0.23472084093E+03  0.25370279800E+03  0.47000000000E+01 0.  1.
         -5    1    4    4    0  503 -0.33936942967E+02  0.14755328297E+02 -0.58619677523E+01  0.37760938509E+02  0.47000000000E+01 0.  1.
<mgrwt>
<rscale>  0 0.16455932E+03</rscale>
<asrwt>0</asrwt>
<pdfrwt beam="1">  1        5 0.80706101E-02 0.16456818E+03</pdfrwt>
<pdfrwt beam="2">  1       -5 0.79479562E-01 0.16456818E+03</pdfrwt>
<totfact> 0.12182657E+02</totfact>
</mgrwt>
</event>
<event>
 8    1  0.3674342E-007  0.1778159E+03  0.7546771E-02  0.1169942E+00
         -5   -1    0    0    0  501 -0.00000000000E+00  0.00000000000E+00  0.52111970453E+02  0.52323488650E+02  0.47000000000E+01 0.  1.
          5   -1    0    0  501    0  0.00000000000E+00 -0.00000000000E+00 -0.70276690620E+03  0.70278262248E+03  0.47000000000E+01 0.  1.
         25    2    1    2    0    0 -0.11360073870E+03  0.55469343104E+02 -0.18463140307E+03  0.25631114853E+03  0.12499869600E+03 0.  0.
         25    2    1    2    0    0  0.11360073870E+03 -0.55469343104E+02 -0.46602353268E+03  0.49879496260E+03  0.12504601490E+03 0.  0.
          5    1    3    3  502    0 -0.28425064541E+02 -0.23540121992E+01  0.14314865127E+02  0.32257263232E+02  0.47000000000E+01 0. -1.
         -5    1    3    3    0  502 -0.85175674160E+02  0.57823355303E+02 -0.19894626819E+03  0.22405388530E+03  0.47000000000E+01 0. -1.
          5    1    4    4  503    0  0.82673183006E+02 -0.27348151037E+02 -0.44165437789E+03  0.45018158121E+03  0.47000000000E+01 0. -1.
         -5    1    4    4    0  503  0.30927555696E+02 -0.28121192068E+02 -0.24369154793E+02  0.48613381388E+02  0.47000000000E+01 0. -1.
<mgrwt>
<rscale>  0 0.17780755E+03</rscale>
<asrwt>0</asrwt>
<pdfrwt beam="2">  1        5 0.10813546E+00 0.17781586E+03</pdfrwt>
<pdfrwt beam="1">  1       -5 0.80347063E-02 0.17781586E+03</pdfrwt>
<totfact> 0.59885597E+01</totfact>
</mgrwt>
</event>
<event>
 8    1  0.3674342E-007  0.1366542E+03  0.7546771E-02  0.1217905E+00
          5   -1    0    0  501    0  0.00000000000E+00  0.00000000000E+00  0.10290513358E+03  0.10301240953E+03  0.47000000000E+01 0. -1.
         -5   -1    0    0    0  501 -0.00000000000E+00 -0.00000000000E+00 -0.18191107614E+03  0.18197178248E+03  0.47000000000E+01 0. -1.
         25    2    1    2    0    0  0.64925221312E+01 -0.54850007966E+02 -0.48208315085E+02  0.14490833205E+03  0.12499482724E+03 0.  0.
         25    2    1    2    0    0 -0.64925221312E+01  0.54850007966E+02 -0.30797627467E+02  0.14007585997E+03  0.12498830533E+03 0.  0.
          5    1    4    4  502    0  0.17104884261E+02  0.39704209089E+02 -0.75482439847E+02  0.87113087479E+02  0.47000000000E+01 0. -1.
         -5    1    4    4    0  502 -0.23597406392E+02  0.15145798877E+02  0.44684812380E+02  0.52962772487E+02  0.47000000000E+01 0. -1.
          5    1    3    3  503    0 -0.98918545509E+01  0.75364685641E+01 -0.74071836440E+02  0.75255392488E+02  0.47000000000E+01 0. -1.
         -5    1    3    3    0  503  0.16384376682E+02 -0.62386476530E+02  0.25863521355E+02  0.69652939564E+02  0.47000000000E+01 0. -1.
<mgrwt>
<rscale>  0 0.13665276E+03</rscale>
<asrwt>0</asrwt>
<pdfrwt beam="1">  1        5 0.15844481E-01 0.13665425E+03</pdfrwt>
<pdfrwt beam="2">  1       -5 0.27999241E-01 0.13665425E+03</pdfrwt>
<totfact> 0.31521468E+02</totfact>
</mgrwt>
</event>
<event>
 8    1  0.3674342E-007  0.1418269E+03  0.7546771E-02  0.1210892E+00
         -5   -1    0    0    0  501 -0.00000000000E+00  0.00000000000E+00  0.88024470009E+02  0.88149857177E+02  0.47000000000E+01 0.  1.
          5   -1    0    0  501    0  0.00000000000E+00 -0.00000000000E+00 -0.33991136221E+03  0.33994385442E+03  0.47000000000E+01 0.  1.
         25    2    1    2    0    0 -0.65564915363E+01 -0.66684646571E+02 -0.32658343892E+01  0.14186445079E+03  0.12500010821E+03 0.  0.
         25    2    1    2    0    0  0.65564915363E+01  0.66684646571E+02 -0.24862105781E+03  0.28622926081E+03  0.12499971875E+03 0.  0.
          5    1    3    3  502    0  0.32737321956E+01 -0.82517372596E+01  0.56610295196E+02  0.57494556372E+02  0.47000000000E+01 0. -1.
         -5    1    3    3    0  502 -0.98302237319E+01 -0.58432909311E+02 -0.59876129585E+02  0.84369894413E+02  0.47000000000E+01 0. -1.
          5    1    4    4  503    0  0.18678446196E+02 -0.20640725571E+02 -0.15498010572E+03  0.15753046395E+03  0.47000000000E+01 0.  1.
         -5    1    4    4    0  503 -0.12121954660E+02  0.87325372142E+02 -0.93640952092E+02  0.12869879686E+03  0.47000000000E+01 0.  1.
<mgrwt>
<rscale>  0 0.14182677E+03</rscale>
<asrwt>0</asrwt>
<pdfrwt beam="2">  1        5 0.52306200E-01 0.14182685E+03</pdfrwt>
<pdfrwt beam="1">  1       -5 0.13554371E-01 0.14182685E+03</pdfrwt>
<totfact> 0.11864028E+02</totfact>
</mgrwt>
</event>
<event>
 8    1  0.3674342E-007  0.1286253E+03  0.7546771E-02  0.1229515E+00
         -5   -1    0    0    0  501 -0.00000000000E+00  0.00000000000E+00  0.74961643551E+02  0.75108841050E+02  0.47000000000E+01 0. -1.
          5   -1    0    0  501    0  0.00000000000E+00 -0.00000000000E+00 -0.22068523626E+03  0.22073527924E+03  0.47000000000E+01 0. -1.
         25    2    1    2    0    0 -0.20219938819E+02  0.22600511381E+02 -0.66640699507E+02  0.14485212129E+03  0.12498609991E+03 0.  0.
         25    2    1    2    0    0  0.20219938819E+02 -0.22600511381E+02 -0.79082893200E+02  0.15099199900E+03  0.12499940290E+03 0.  0.
          5    1    4    4  502    0  0.45561415202E+02 -0.64541509993E+02 -0.53345448515E+02  0.95442526919E+02  0.47000000000E+01 0.  1.
         -5    1    4    4    0  502 -0.25341476383E+02  0.41940998613E+02 -0.25737444684E+02  0.55549472084E+02  0.47000000000E+01 0.  1.
          5    1    3    3  503    0  0.49121198797E+02  0.21743079532E+02 -0.49650427137E+02  0.73300126833E+02  0.47000000000E+01 0.  1.
         -5    1    3    3    0  503 -0.69341137616E+02  0.85743184893E+00 -0.16990272370E+02  0.71551994455E+02  0.47000000000E+01 0.  1.
<mgrwt>
<rscale>  0 0.12862211E+03</rscale>
<asrwt>0</asrwt>
<pdfrwt beam="2">  1        5 0.33966747E-01 0.12862535E+03</pdfrwt>
<pdfrwt beam="1">  1       -5 0.11547733E-01 0.12862535E+03</pdfrwt>
<totfact> 0.37167855E+02</totfact>
</mgrwt>
</event>
<event>
 8    1  0.3674342E-007  0.1329332E+03  0.7546771E-02  0.1223168E+00
         -5   -1    0    0    0  501 -0.00000000000E+00  0.00000000000E+00  0.68110785258E+02  0.68272754950E+02  0.47000000000E+01 0. -1.
          5   -1    0    0  501    0  0.00000000000E+00 -0.00000000000E+00 -0.27000549608E+03  0.27004639956E+03  0.47000000000E+01 0. -1.
         25    2    1    2    0    0 -0.44703246606E+02 -0.70140342981E+01 -0.66735126916E+02  0.14874410930E+03  0.12499462369E+03 0.  0.
         25    2    1    2    0    0  0.44703246606E+02  0.70140342981E+01 -0.13515958391E+03  0.18957504521E+03  0.12499203058E+03 0.  0.
          5    1    3    3  502    0  0.17109580610E+02  0.16118049645E+02 -0.78022375447E+02  0.81621751656E+02  0.47000000000E+01 0. -1.
         -5    1    3    3    0  502 -0.61812827216E+02 -0.23132083943E+02  0.11287248531E+02  0.67122357642E+02  0.47000000000E+01 0. -1.
          5    1    4    4  503    0 -0.62482578032E+01 -0.37353442628E+02 -0.11147810253E+03  0.11782944346E+03  0.47000000000E+01 0.  1.
         -5    1    4    4    0  503  0.50951504410E+02  0.44367476927E+02 -0.23681481377E+02  0.71745601751E+02  0.47000000000E+01 0.  1.
<mgrwt>
<rscale>  0 0.13293258E+03</rscale>
<asrwt>0</asrwt>
<pdfrwt beam="2">  1        5 0.41554912E-01 0.13293319E+03</pdfrwt>
<pdfrwt beam="1">  1       -5 0.10494188E-01 0.13293319E+03</pdfrwt>
<totfact> 0.29590733E+02</totfact>
</mgrwt>
</event>
<event>
 8    1  0.3674342E-007  0.1271679E+03  0.7546771E-02  0.1231726E+00
          5   -1    0    0  501    0  0.00000000000E+00  0.00000000000E+00  0.53929720785E+02  0.54134136956E+02  0.47000000000E+01 0. -1.
         -5   -1    0    0    0  501 -0.00000000000E+00 -0.00000000000E+00 -0.29994616461E+03  0.29998298562E+03  0.47000000000E+01 0. -1.
         25    2    1    2    0    0 -0.14014350568E+02 -0.18667526306E+02 -0.13278231018E+03  0.18385543573E+03  0.12500720295E+03 0.  0.
         25    2    1    2    0    0  0.14014350568E+02  0.18667526306E+02 -0.11323413364E+03  0.17026168685E+03  0.12498877720E+03 0.  0.
          5    1    4    4  502    0  0.32725443484E+02  0.64767932463E+02 -0.44406920617E+02  0.85205072181E+02  0.47000000000E+01 0.  1.
         -5    1    4    4    0  502 -0.18711092916E+02 -0.46100406157E+02 -0.68827213026E+02  0.85056614668E+02  0.47000000000E+01 0.  1.
          5    1    3    3  503    0 -0.14242083228E+02  0.47969659064E+02 -0.94047649142E+02  0.10663477592E+03  0.47000000000E+01 0. -1.
         -5    1    3    3    0  503  0.22773265966E+00 -0.66637185371E+02 -0.38734661040E+02  0.77220659814E+02  0.47000000000E+01 0. -1.
<mgrwt>
<rscale>  0 0.12716339E+03</rscale>
<asrwt>0</asrwt>
<pdfrwt beam="1">  1        5 0.83154370E-02 0.12716792E+03</pdfrwt>
<pdfrwt beam="2">  1       -5 0.46164119E-01 0.12716792E+03</pdfrwt>
<totfact> 0.35052541E+02</totfact>
</mgrwt>
</event>
<event>
 8    1  0.3674342E-007  0.1494523E+03  0.7546771E-02  0.1201149E+00
         -5   -1    0    0    0  501 -0.00000000000E+00  0.00000000000E+00  0.52150206260E+03  0.52152324138E+03  0.47000000000E+01 0. -1.
          5   -1    0    0  501    0  0.00000000000E+00 -0.00000000000E+00 -0.51240898954E+02  0.51455997956E+02  0.47000000000E+01 0. -1.
         25    2    1    2    0    0 -0.80164887793E+02 -0.16869014370E+02  0.35194837295E+03  0.38236467220E+03  0.12499644974E+03 0.  0.
         25    2    1    2    0    0  0.80164887793E+02  0.16869014370E+02  0.11831279070E+03  0.19061456713E+03  0.12500009552E+03 0.  0.
          5    1    4    4  502    0  0.65842160594E+02  0.68752344049E+02  0.71928675916E+02  0.11940644599E+03  0.47000000000E+01 0.  1.
         -5    1    4    4    0  502  0.14322727200E+02 -0.51883329679E+02  0.46384114783E+02  0.71208121146E+02  0.47000000000E+01 0.  1.
          5    1    3    3  503    0 -0.29983070377E+02 -0.61487253944E+02  0.25690694109E+03  0.26590023183E+03  0.47000000000E+01 0.  1.
         -5    1    3    3    0  503 -0.50181817416E+02  0.44618239574E+02  0.95041431864E+02  0.11646444038E+03  0.47000000000E+01 0.  1.
<mgrwt>
<rscale>  0 0.14945156E+03</rscale>
<asrwt>0</asrwt>
<pdfrwt beam="2">  1        5 0.79013901E-02 0.14945232E+03</pdfrwt>
<pdfrwt beam="1">  1       -5 0.80249265E-01 0.14945232E+03</pdfrwt>
<totfact> 0.11991529E+02</totfact>
</mgrwt>
</event>
<event>
 8    1  0.3674342E-007  0.1304594E+03  0.7546771E-02  0.1226778E+00
         -5   -1    0    0    0  501 -0.00000000000E+00  0.00000000000E+00  0.35632477915E+02  0.35941111313E+02  0.47000000000E+01 0.  1.
          5   -1    0    0  501    0  0.00000000000E+00 -0.00000000000E+00 -0.50995144009E+03  0.50997309856E+03  0.47000000000E+01 0.  1.
         25    2    1    2    0    0 -0.35176963684E+02  0.12560741784E+02 -0.16595934919E+03  0.21109289196E+03  0.12499004938E+03 0.  0.
         25    2    1    2    0    0  0.35176963684E+02 -0.12560741784E+02 -0.30835961298E+03  0.33482131791E+03  0.12499789197E+03 0.  0.
          5    1    4    4  502    0  0.50776484485E+02  0.34734052096E+02 -0.79900113762E+02  0.10094961085E+03  0.47000000000E+01 0. -1.
         -5    1    4    4    0  502 -0.15599520801E+02 -0.47294793880E+02 -0.22845949922E+03  0.23387170706E+03  0.47000000000E+01 0. -1.
          5    1    3    3  503    0 -0.51508876736E+02  0.51652103746E+02 -0.52802266620E+02  0.90173574644E+02  0.47000000000E+01 0.  1.
         -5    1    3    3    0  503  0.16331913053E+02 -0.39091361961E+02 -0.11315708257E+03  0.12091931732E+03  0.47000000000E+01 0.  1.
<mgrwt>
<rscale>  0 0.13045756E+03</rscale>
<asrwt>0</asrwt>
<pdfrwt beam="2">  1        5 0.78479470E-01 0.13045943E+03</pdfrwt>
<pdfrwt beam="1">  1       -5 0.55073271E-02 0.13045943E+03</pdfrwt>
<totfact> 0.22235296E+02</totfact>
</mgrwt>
</event>
<event>
 8    1  0.3674342E-007  0.1328245E+03  0.7546771E-02  0.1223327E+00
          5   -1    0    0  501    0  0.00000000000E+00  0.00000000000E+00  0.79205831154E+02  0.79345155421E+02  0.47000000000E+01 0.  1.
         -5   -1    0    0    0  501 -0.00000000000E+00 -0.00000000000E+00 -0.22408074388E+03  0.22413002873E+03  0.47000000000E+01 0.  1.
         25    2    1    2    0    0  0.33722769476E+02 -0.29661326714E+02 -0.59160254606E+02  0.14539494624E+03  0.12499094041E+03 0.  0.
         25    2    1    2    0    0 -0.33722769476E+02  0.29661326714E+02 -0.85714658119E+02  0.15808023791E+03  0.12500135806E+03 0.  0.
          5    1    4    4  502    0 -0.47593193678E+02  0.52520777249E+02 -0.30790403202E+01  0.71099329227E+02  0.47000000000E+01 0.  1.
         -5    1    4    4    0  502  0.13870424202E+02 -0.22859450534E+02 -0.82635617799E+02  0.86980908683E+02  0.47000000000E+01 0.  1.
          5    1    3    3  503    0  0.58530516515E+02  0.22150185242E+02 -0.61287406231E+02  0.87719372047E+02  0.47000000000E+01 0.  1.
         -5    1    3    3    0  503 -0.24807747039E+02 -0.51811511957E+02  0.21271516249E+01  0.57675574192E+02  0.47000000000E+01 0.  1.
<mgrwt>
<rscale>  0 0.13282209E+03</rscale>
<asrwt>0</asrwt>
<pdfrwt beam="1">  1        5 0.12200021E-01 0.13282454E+03</pdfrwt>
<pdfrwt beam="2">  1       -5 0.34488469E-01 0.13282454E+03</pdfrwt>
<totfact> 0.33100466E+02</totfact>
</mgrwt>
</event>
<event>
 8    1  0.3674342E-007  0.1545750E+03  0.7546771E-02  0.1194962E+00
         -5   -1    0    0    0  501 -0.00000000000E+00  0.00000000000E+00  0.65628634018E+02  0.65796714227E+02  0.47000000000E+01 0.  1.
          5   -1    0    0  501    0  0.00000000000E+00 -0.00000000000E+00 -0.37155733435E+03  0.37158705939E+03  0.47000000000E+01 0.  1.
         25    2    1    2    0    0 -0.87914238756E+02 -0.23206299707E+02 -0.12059667706E+03  0.19605357020E+03  0.12500399252E+03 0.  0.
         25    2    1    2    0    0  0.87914238756E+02  0.23206299707E+02 -0.18533202326E+03  0.24133020342E+03  0.12499945006E+03 0.  0.
          5    1    4    4  502    0  0.38358125234E+02  0.12236652562E+02 -0.18598695754E+03  0.19035314501E+03  0.47000000000E+01 0. -1.
         -5    1    4    4    0  502  0.49556113521E+02  0.10969647146E+02  0.65493427903E+00  0.50977058416E+02  0.47000000000E+01 0. -1.
          5    1    3    3  503    0  0.29681931522E+01  0.39343326168E+02 -0.54192217913E+02  0.67198169371E+02  0.47000000000E+01 0. -1.
         -5    1    3    3    0  503 -0.90882431908E+02 -0.62549625875E+02 -0.66404459151E+02  0.12885540082E+03  0.47000000000E+01 0. -1.
<mgrwt>
<rscale>  0 0.15457412E+03</rscale>
<asrwt>0</asrwt>
<pdfrwt beam="2">  1        5 0.57177881E-01 0.15457504E+03</pdfrwt>
<pdfrwt beam="1">  1       -5 0.10111929E-01 0.15457504E+03</pdfrwt>
<totfact> 0.16917615E+02</totfact>
</mgrwt>
</event>
<event>
 8    1  0.3674342E-007  0.2498795E+03  0.7546771E-02  0.1113381E+00
         -5   -1    0    0    0  501 -0.00000000000E+00  0.00000000000E+00  0.28735379525E+03  0.28739222962E+03  0.47000000000E+01 0. -1.
          5   -1    0    0  501    0  0.00000000000E+00 -0.00000000000E+00 -0.22185681155E+03  0.22190659033E+03  0.47000000000E+01 0. -1.
         25    2    1    2    0    0  0.20827782045E+03 -0.58615865718E+02  0.69583428379E+02  0.25938702986E+03  0.12499723015E+03 0.  0.
         25    2    1    2    0    0 -0.20827782045E+03  0.58615865718E+02 -0.40864446772E+01  0.24991179009E+03  0.12499493425E+03 0.  0.
          5    1    3    3  502    0  0.15858477937E+03  0.13445578280E+02  0.63820779882E+02  0.17153745296E+03  0.47000000000E+01 0.  1.
         -5    1    3    3    0  502  0.49693041087E+02 -0.72061443998E+02  0.57626484970E+01  0.87849576898E+02  0.47000000000E+01 0.  1.
          5    1    4    4  503    0 -0.11414638763E+03  0.20807191658E+02 -0.63406497433E+02  0.13230574798E+03  0.47000000000E+01 0. -1.
         -5    1    4    4    0  503 -0.94131432828E+02  0.37808674060E+02  0.59320052756E+02  0.11760604210E+03  0.47000000000E+01 0. -1.
<mgrwt>
<rscale>  0 0.24987924E+03</rscale>
<asrwt>0</asrwt>
<pdfrwt beam="2">  1        5 0.34138603E-01 0.24987953E+03</pdfrwt>
<pdfrwt beam="1">  1       -5 0.44215062E-01 0.24987953E+03</pdfrwt>
<totfact> 0.34340787E+01</totfact>
</mgrwt>
</event>
<event>
 8    1  0.3674342E-007  0.1367756E+03  0.7546771E-02  0.1217742E+00
          5   -1    0    0  501    0  0.00000000000E+00  0.00000000000E+00  0.24753664980E+02  0.25195910976E+02  0.47000000000E+01 0.  1.
         -5   -1    0    0    0  501 -0.00000000000E+00 -0.00000000000E+00 -0.78477924677E+03  0.78479332067E+03  0.47000000000E+01 0.  1.
         25    2    1    2    0    0  0.52039352551E+02  0.19312902129E+02 -0.46710275286E+03  0.48671608779E+03  0.12500594381E+03 0.  0.
         25    2    1    2    0    0 -0.52039352551E+02 -0.19312902129E+02 -0.29292282893E+03  0.32327314385E+03  0.12498263648E+03 0.  0.
          5    1    4    4  502    0 -0.50211042220E+02  0.33895870090E+01 -0.29557594814E+03  0.29986641889E+03  0.47000000000E+01 0.  1.
         -5    1    4    4    0  502 -0.18283103313E+01 -0.22702489138E+02  0.26531192042E+01  0.23406724957E+02  0.47000000000E+01 0.  1.
          5    1    3    3  503    0  0.28275710917E+02  0.22068152639E+02 -0.25072686691E+02  0.44014188697E+02  0.47000000000E+01 0. -1.
         -5    1    3    3    0  503  0.23763641634E+02 -0.27552505106E+01 -0.44203006617E+03  0.44270189910E+03  0.47000000000E+01 0. -1.
<mgrwt>
<rscale>  0 0.13677029E+03</rscale>
<asrwt>0</asrwt>
<pdfrwt beam="1">  1        5 0.38433583E-02 0.13677561E+03</pdfrwt>
<pdfrwt beam="2">  1       -5 0.12077035E+00 0.13677561E+03</pdfrwt>
<totfact> 0.14435727E+02</totfact>
</mgrwt>
</event>
<event>
 8    1  0.3674342E-007  0.1863758E+03  0.7546771E-02  0.1161772E+00
         -5   -1    0    0    0  501 -0.00000000000E+00  0.00000000000E+00  0.16420377284E+03  0.16427102305E+03  0.47000000000E+01 0.  1.
          5   -1    0    0  501    0  0.00000000000E+00 -0.00000000000E+00 -0.22069766443E+03  0.22074770460E+03  0.47000000000E+01 0.  1.
         25    2    1    2    0    0 -0.13818329528E+03 -0.45509049807E+01  0.11255550622E+02  0.18671537542E+03  0.12498243944E+03 0.  0.
         25    2    1    2    0    0  0.13818329528E+03  0.45509049807E+01 -0.67749442217E+02  0.19830335223E+03  0.12497559264E+03 0.  0.
          5    1    4    4  502    0  0.15145551296E+03  0.20902311736E+02 -0.80894548495E+02  0.17303669269E+03  0.47000000000E+01 0.  1.
         -5    1    4    4    0  502 -0.13272217682E+02 -0.16351406755E+02  0.13145106278E+02  0.25266659537E+02  0.47000000000E+01 0.  1.
          5    1    3    3  503    0 -0.10640022761E+03  0.39828046114E+02 -0.30618391556E+02  0.11775762223E+03  0.47000000000E+01 0.  1.
         -5    1    3    3    0  503 -0.31783067669E+02 -0.44378951094E+02  0.41873942179E+02  0.68957753184E+02  0.47000000000E+01 0.  1.
<mgrwt>
<rscale>  0 0.18637467E+03</rscale>
<asrwt>0</asrwt>
<pdfrwt beam="2">  1        5 0.33962509E-01 0.18637581E+03</pdfrwt>
<pdfrwt beam="1">  1       -5 0.25271141E-01 0.18637581E+03</pdfrwt>
<totfact> 0.99075153E+01</totfact>
</mgrwt>
</event>
<event>
 8    1  0.3674342E-007  0.1388195E+03  0.7546771E-02  0.1214928E+00
          5   -1    0    0  501    0  0.00000000000E+00  0.00000000000E+00  0.24250342695E+03  0.24254896843E+03  0.47000000000E+01 0.  1.
         -5   -1    0    0    0  501 -0.00000000000E+00 -0.00000000000E+00 -0.79442737233E+02  0.79581646748E+02  0.47000000000E+01 0.  1.
         25    2    1    2    0    0  0.35967469598E+02  0.48487560342E+02  0.87313691726E+02  0.16399554029E+03  0.12500461630E+03 0.  0.
         25    2    1    2    0    0 -0.35967469598E+02 -0.48487560342E+02  0.75746997995E+02  0.15813507488E+03  0.12499756728E+03 0.  0.
          5    1    4    4  502    0  0.42860722687E+02 -0.39162551324E+02  0.41698452403E+02  0.71635172285E+02  0.47000000000E+01 0.  1.
         -5    1    4    4    0  502 -0.78828192285E+02 -0.93250090177E+01  0.34048545592E+02  0.86499902596E+02  0.47000000000E+01 0.  1.
          5    1    3    3  503    0 -0.43208264465E+02 -0.75508227255E+00  0.15276998929E+02  0.46076034590E+02  0.47000000000E+01 0. -1.
         -5    1    3    3    0  503  0.79175734063E+02  0.49242642614E+02  0.72036692797E+02  0.11791950570E+03  0.47000000000E+01 0. -1.
<mgrwt>
<rscale>  0 0.13881792E+03</rscale>
<asrwt>0</asrwt>
<pdfrwt beam="1">  1        5 0.37322408E-01 0.13881951E+03</pdfrwt>
<pdfrwt beam="2">  1       -5 0.12236148E-01 0.13881951E+03</pdfrwt>
<totfact> 0.28520635E+02</totfact>
</mgrwt>
</event>
<event>
 8    1  0.3674342E-007  0.1585859E+03  0.7546771E-02  0.1190303E+00
          5   -1    0    0  501    0  0.00000000000E+00  0.00000000000E+00  0.49844509994E+02  0.50065608721E+02  0.47000000000E+01 0. -1.
         -5   -1    0    0    0  501 -0.00000000000E+00 -0.00000000000E+00 -0.70259953402E+03  0.70261525404E+03  0.47000000000E+01 0. -1.
         25    2    1    2    0    0  0.55832822516E+02 -0.80045962017E+02 -0.52682730698E+03  0.55017829177E+03  0.12499792497E+03 0.  0.
         25    2    1    2    0    0 -0.55832822516E+02  0.80045962017E+02 -0.12592771705E+03  0.20250257099E+03  0.12499936493E+03 0.  0.
          5    1    4    4  502    0  0.82604036830E+01 -0.29823639046E+02 -0.24798653621E+02  0.39934282720E+02  0.47000000000E+01 0. -1.
         -5    1    4    4    0  502 -0.64093226199E+02  0.10986960106E+03 -0.10112906343E+03  0.16256828827E+03  0.47000000000E+01 0. -1.
          5    1    3    3  503    0  0.52569591860E+02 -0.66482509162E+02 -0.52858072178E+03  0.53535329965E+03  0.47000000000E+01 0.  1.
         -5    1    3    3    0  503  0.32632306563E+01 -0.13563452855E+02  0.17534148011E+01  0.14824992112E+02  0.47000000000E+01 0.  1.
<mgrwt>
<rscale>  0 0.15858566E+03</rscale>
<asrwt>0</asrwt>
<pdfrwt beam="1">  1        5 0.76866035E-02 0.15858594E+03</pdfrwt>
<pdfrwt beam="2">  1       -5 0.10811045E+00 0.15858594E+03</pdfrwt>
<totfact> 0.62614649E+01</totfact>
</mgrwt>
</event>
<event>
 8    1  0.3674342E-007  0.1592404E+03  0.7546771E-02  0.1189558E+00
          5   -1    0    0  501    0  0.00000000000E+00  0.00000000000E+00  0.24493677840E+03  0.24498186752E+03  0.47000000000E+01 0.  1.
         -5   -1    0    0    0  501 -0.00000000000E+00 -0.00000000000E+00 -0.12699785962E+03  0.12708479983E+03  0.47000000000E+01 0.  1.
         25    2    1    2    0    0 -0.89301940440E+02  0.41912108732E+02 -0.21149437995E+02  0.16063872915E+03  0.12500416454E+03 0.  0.
         25    2    1    2    0    0  0.89301940440E+02 -0.41912108732E+02  0.13908835678E+03  0.21142793819E+03  0.12499896253E+03 0.  0.
          5    1    4    4  502    0  0.18717957411E+01  0.35192010706E+02  0.89749690789E+01  0.36669078346E+02  0.47000000000E+01 0.  1.
         -5    1    4    4    0  502  0.87430144698E+02 -0.77104119437E+02  0.13011338770E+03  0.17475885985E+03  0.47000000000E+01 0.  1.
          5    1    3    3  503    0 -0.77905186026E+02  0.80218492388E+02 -0.36268818932E+02  0.11765093182E+03  0.47000000000E+01 0.  1.
         -5    1    3    3    0  503 -0.11396754414E+02 -0.38306383656E+02  0.15119380937E+02  0.42987797337E+02  0.47000000000E+01 0.  1.
<mgrwt>
<rscale>  0 0.15923937E+03</rscale>
<asrwt>0</asrwt>
<pdfrwt beam="1">  1        5 0.37692737E-01 0.15924039E+03</pdfrwt>
<pdfrwt beam="2">  1       -5 0.19548288E-01 0.15924039E+03</pdfrwt>
<totfact> 0.12471950E+02</totfact>
</mgrwt>
</event>
<event>
 8    1  0.3674342E-007  0.1399634E+03  0.7546771E-02  0.1213379E+00
         -5   -1    0    0    0  501 -0.00000000000E+00  0.00000000000E+00  0.34572368111E+03  0.34575562711E+03  0.47000000000E+01 0. -1.
          5   -1    0    0  501    0  0.00000000000E+00 -0.00000000000E+00 -0.67461724789E+02  0.67625249068E+02  0.47000000000E+01 0. -1.
         25    2    1    2    0    0 -0.59610609941E+02 -0.20290132408E+02  0.22220291772E+03  0.26260977534E+03  0.12499857267E+03 0.  0.
         25    2    1    2    0    0  0.59610609941E+02  0.20290132408E+02  0.56059038598E+02  0.15077110084E+03  0.12499677896E+03 0.  0.
          5    1    3    3  502    0 -0.15700889626E+02 -0.85349260872E+01 -0.13266076568E+02  0.22747344590E+02  0.47000000000E+01 0. -1.
         -5    1    3    3    0  502 -0.43909720315E+02 -0.11755206321E+02  0.23546899429E+03  0.23986243075E+03  0.47000000000E+01 0. -1.
          5    1    4    4  503    0  0.50652899897E+02  0.37828954988E+02  0.90693153765E+02  0.11065299021E+03  0.47000000000E+01 0. -1.
         -5    1    4    4    0  503  0.89577100444E+01 -0.17538822580E+02 -0.34634115167E+02  0.40118110626E+02  0.47000000000E+01 0. -1.
<mgrwt>
<rscale>  0 0.13996301E+03</rscale>
<asrwt>0</asrwt>
<pdfrwt beam="2">  1        5 0.10393763E-01 0.13996341E+03</pdfrwt>
<pdfrwt beam="1">  1       -5 0.53203296E-01 0.13996341E+03</pdfrwt>
<totfact> 0.18232582E+02</totfact>
</mgrwt>
</event>
<event>
 8    1  0.3674342E-007  0.1309038E+03  0.7546771E-02  0.1226124E+00
         -5   -1    0    0    0  501 -0.00000000000E+00  0.00000000000E+00  0.39164884926E+03  0.39167704953E+03  0.47000000000E+01 0.  1.
          5   -1    0    0  501    0  0.00000000000E+00 -0.00000000000E+00 -0.46524044524E+02  0.46760846003E+02  0.47000000000E+01 0.  1.
         25    2    1    2    0    0 -0.15637341206E+02 -0.35537449399E+02  0.22740870009E+03  0.26238994440E+03  0.12500531706E+03 0.  0.
         25    2    1    2    0    0  0.15637341206E+02  0.35537449399E+02  0.11771610465E+03  0.17604795114E+03  0.12501345150E+03 0.  0.
          5    1    4    4  502    0  0.11889355694E+02 -0.31160181850E+02 -0.70817743063E+01  0.34417368277E+02  0.47000000000E+01 0. -1.
         -5    1    4    4    0  502  0.37479855126E+01  0.66697631250E+02  0.12479787896E+03  0.14163058286E+03  0.47000000000E+01 0. -1.
          5    1    3    3  503    0  0.32500658113E+02  0.30978956078E+02  0.11127857241E+03  0.12008746469E+03  0.47000000000E+01 0. -1.
         -5    1    3    3    0  503 -0.48137999320E+02 -0.66516405477E+02  0.11613012768E+03  0.14230247971E+03  0.47000000000E+01 0. -1.
<mgrwt>
<rscale>  0 0.13090184E+03</rscale>
<asrwt>0</asrwt>
<pdfrwt beam="2">  1        5 0.71779298E-02 0.13090378E+03</pdfrwt>
<pdfrwt beam="1">  1       -5 0.60274056E-01 0.13090378E+03</pdfrwt>
<totfact> 0.25758758E+02</totfact>
</mgrwt>
</event>
<event>
 8    1  0.3674342E-007  0.1584264E+03  0.7546771E-02  0.1190485E+00
         -5   -1    0    0    0  501 -0.00000000000E+00  0.00000000000E+00  0.38295008010E+02  0.38582348794E+02  0.47000000000E+01 0.  1.
          5   -1    0    0  501    0  0.00000000000E+00 -0.00000000000E+00 -0.66227310952E+03  0.66228978672E+03  0.47000000000E+01 0.  1.
         25    2    1    2    0    0 -0.81594775229E+02  0.53066879430E+02 -0.26978422660E+03  0.31286173680E+03  0.12500054558E+03 0.  0.
         25    2    1    2    0    0  0.81594775229E+02 -0.53066879430E+02 -0.35419387491E+03  0.38801039871E+03  0.12499986979E+03 0.  0.
          5    1    4    4  502    0  0.10958551471E+02 -0.80634820382E+02 -0.16212571766E+03  0.18146322613E+03  0.47000000000E+01 0. -1.
         -5    1    4    4    0  502  0.70636223758E+02  0.27567940952E+02 -0.19206815725E+03  0.20654717259E+03  0.47000000000E+01 0. -1.
          5    1    3    3  503    0 -0.83134688123E+02  0.23772193941E+02 -0.26958554717E+03  0.28315181585E+03  0.47000000000E+01 0.  1.
         -5    1    3    3    0  503  0.15399128936E+01  0.29294685489E+02 -0.19867942956E+00  0.29709920955E+02  0.47000000000E+01 0.  1.
<mgrwt>
<rscale>  0 0.15842631E+03</rscale>
<asrwt>0</asrwt>
<pdfrwt beam="2">  1        5 0.10191155E+00 0.15842644E+03</pdfrwt>
<pdfrwt beam="1">  1       -5 0.59149262E-02 0.15842644E+03</pdfrwt>
<totfact> 0.11303643E+02</totfact>
</mgrwt>
</event>
<event>
 8    1  0.3674342E-007  0.1344853E+03  0.7546771E-02  0.1220951E+00
         -5   -1    0    0    0  501 -0.00000000000E+00  0.00000000000E+00  0.88239290689E+02  0.88364373031E+02  0.47000000000E+01 0.  1.
          5   -1    0    0  501    0  0.00000000000E+00 -0.00000000000E+00 -0.20494259457E+03  0.20499648062E+03  0.47000000000E+01 0.  1.
         25    2    1    2    0    0 -0.34611676241E+02 -0.35519555921E+02 -0.52909997116E+02  0.14451236509E+03  0.12499899553E+03 0.  0.
         25    2    1    2    0    0  0.34611676241E+02  0.35519555921E+02 -0.63793306763E+02  0.14884848857E+03  0.12500671812E+03 0.  0.
          5    1    3    3  502    0  0.33100998410E+02  0.15034616653E+02 -0.47093650404E+02  0.59679290395E+02  0.47000000000E+01 0.  1.
         -5    1    3    3    0  502 -0.67712674651E+02 -0.50554172575E+02 -0.58163467121E+01  0.84833074695E+02  0.47000000000E+01 0.  1.
          5    1    4    4  503    0  0.76056861786E+02  0.49035035252E+02 -0.41672685262E+02  0.99738576307E+02  0.47000000000E+01 0. -1.
         -5    1    4    4    0  503 -0.41445185545E+02 -0.13515479330E+02 -0.22120621501E+02  0.49109912258E+02  0.47000000000E+01 0. -1.
<mgrwt>
<rscale>  0 0.13448347E+03</rscale>
<asrwt>0</asrwt>
<pdfrwt beam="2">  1        5 0.31543396E-01 0.13448527E+03</pdfrwt>
<pdfrwt beam="1">  1       -5 0.13589042E-01 0.13448527E+03</pdfrwt>
<totfact> 0.32751397E+02</totfact>
</mgrwt>
</event>
<event>
 8    1  0.3674342E-007  0.1346874E+03  0.7546771E-02  0.1220677E+00
          5   -1    0    0  501    0  0.00000000000E+00  0.00000000000E+00  0.50216081385E+02  0.50435551248E+02  0.47000000000E+01 0.  1.
         -5   -1    0    0    0  501 -0.00000000000E+00 -0.00000000000E+00 -0.40061552751E+03  0.40064309664E+03  0.47000000000E+01 0.  1.
         25    2    1    2    0    0  0.32831830606E+02  0.37748741063E+02 -0.24691327769E+03  0.28125943991E+03  0.12505122665E+03 0.  0.
         25    2    1    2    0    0 -0.32831830606E+02 -0.37748741063E+02 -0.10348616844E+03  0.16981920797E+03  0.12500511904E+03 0.  0.
          5    1    3    3  502    0  0.76248514665E+02  0.30350932739E+02 -0.10974311491E+03  0.13711548555E+03  0.47000000000E+01 0.  1.
         -5    1    3    3    0  502 -0.43416684059E+02  0.73978083234E+01 -0.13717016278E+03  0.14414395436E+03  0.47000000000E+01 0.  1.
          5    1    4    4  503    0 -0.61849157215E+02 -0.33570599793E+02 -0.93922537060E+01  0.71152005231E+02  0.47000000000E+01 0.  1.
         -5    1    4    4    0  503  0.29017326609E+02 -0.41781412701E+01 -0.94093914730E+02  0.98667202744E+02  0.47000000000E+01 0.  1.
<mgrwt>
<rscale>  0 0.13467673E+03</rscale>
<asrwt>0</asrwt>
<pdfrwt beam="1">  1        5 0.77445543E-02 0.13468744E+03</pdfrwt>
<pdfrwt beam="2">  1       -5 0.61652159E-01 0.13468744E+03</pdfrwt>
<totfact> 0.21748550E+02</totfact>
</mgrwt>
</event>
<event>
 8    1  0.3674342E-007  0.1285070E+03  0.7546771E-02  0.1229697E+00
         -5   -1    0    0    0  501 -0.00000000000E+00  0.00000000000E+00  0.17623253039E+03  0.17629519213E+03  0.47000000000E+01 0.  1.
          5   -1    0    0  501    0  0.00000000000E+00 -0.00000000000E+00 -0.93608759954E+02  0.93726676779E+02  0.47000000000E+01 0.  1.
         25    2    1    2    0    0 -0.28238497373E+02  0.91863522727E+01  0.44694827514E+02  0.13603438169E+03  0.12500369431E+03 0.  0.
         25    2    1    2    0    0  0.28238497373E+02 -0.91863522727E+01  0.37928942921E+02  0.13398748722E+03  0.12502895752E+03 0.  0.
          5    1    3    3  502    0 -0.69128292175E+02 -0.20168772765E+02  0.60802455776E+01  0.72419331398E+02  0.47000000000E+01 0.  1.
         -5    1    3    3    0  502  0.40889794802E+02  0.29355125038E+02  0.38614581937E+02  0.63615050288E+02  0.47000000000E+01 0.  1.
          5    1    4    4  503    0 -0.16820260035E+02  0.28631705590E+02  0.61812076180E+02  0.70324380370E+02  0.47000000000E+01 0. -1.
         -5    1    4    4    0  503  0.45058757409E+02 -0.37818057863E+02 -0.23883133259E+02  0.63663106852E+02  0.47000000000E+01 0. -1.
<mgrwt>
<rscale>  0 0.12850083E+03</rscale>
<asrwt>0</asrwt>
<pdfrwt beam="2">  1        5 0.14415238E-01 0.12850697E+03</pdfrwt>
<pdfrwt beam="1">  1       -5 0.27126587E-01 0.12850697E+03</pdfrwt>
<totfact> 0.38910798E+02</totfact>
</mgrwt>
</event>
<event>
 8    1  0.3674342E-007  0.1299430E+03  0.7546771E-02  0.1227543E+00
         -5   -1    0    0    0  501 -0.00000000000E+00  0.00000000000E+00  0.22416310622E+03  0.22421237297E+03  0.47000000000E+01 0. -1.
          5   -1    0    0  501    0  0.00000000000E+00 -0.00000000000E+00 -0.92217778987E+02  0.92337472140E+02  0.47000000000E+01 0. -1.
         25    2    1    2    0    0 -0.19397774223E+02  0.29727529983E+02  0.13391589994E+03  0.18659190085E+03  0.12499227785E+03 0.  0.
         25    2    1    2    0    0  0.19397774223E+02 -0.29727529983E+02 -0.19705726997E+01  0.12995794426E+03  0.12500073774E+03 0.  0.
          5    1    4    4  502    0  0.30171317479E+02 -0.14909761502E+02 -0.59983354996E+02  0.68939845249E+02  0.47000000000E+01 0.  1.
         -5    1    4    4    0  502 -0.10773543255E+02 -0.14817768482E+02  0.58012782296E+02  0.61018099010E+02  0.47000000000E+01 0.  1.
          5    1    3    3  503    0 -0.58531664665E+02  0.56787403788E+02  0.91741172353E+02  0.12283850252E+03  0.47000000000E+01 0. -1.
         -5    1    3    3    0  503  0.39133890441E+02 -0.27059873805E+02  0.42174727583E+02  0.63753398326E+02  0.47000000000E+01 0. -1.
<mgrwt>
<rscale>  0 0.12994097E+03</rscale>
<asrwt>0</asrwt>
<pdfrwt beam="2">  1        5 0.14200348E-01 0.12994300E+03</pdfrwt>
<pdfrwt beam="1">  1       -5 0.34499629E-01 0.12994300E+03</pdfrwt>
<totfact> 0.25022762E+02</totfact>
</mgrwt>
</event>
<event>
 8    1  0.3674342E-007  0.1324674E+03  0.7546771E-02  0.1223841E+00
         -5   -1    0    0    0  501 -0.00000000000E+00  0.00000000000E+00  0.81861243312E+02  0.81996055738E+02  0.47000000000E+01 0. -1.
          5   -1    0    0  501    0  0.00000000000E+00 -0.00000000000E+00 -0.21592342388E+03  0.21597457022E+03  0.47000000000E+01 0. -1.
         25    2    1    2    0    0  0.48148189054E+01  0.43582581919E+02 -0.81030418143E+02  0.15528534551E+03  0.12499994376E+03 0.  0.
         25    2    1    2    0    0 -0.48148189054E+01 -0.43582581919E+02 -0.53031762425E+02  0.14268528044E+03  0.12499638995E+03 0.  0.
          5    1    3    3  502    0 -0.38076855728E+02  0.46279882505E+02 -0.92718090042E+02  0.11050071804E+03  0.47000000000E+01 0.  1.
         -5    1    3    3    0  502  0.42891674634E+02 -0.26973005861E+01  0.11687671899E+02  0.44784627471E+02  0.47000000000E+01 0.  1.
          5    1    4    4  503    0 -0.23059543275E+02  0.26639076870E+02  0.19029736312E+02  0.40318777470E+02  0.47000000000E+01 0. -1.
         -5    1    4    4    0  503  0.18244724370E+02 -0.70221658789E+02 -0.72061498737E+02  0.10236650297E+03  0.47000000000E+01 0. -1.
<mgrwt>
<rscale>  0 0.13246655E+03</rscale>
<asrwt>0</asrwt>
<pdfrwt beam="2">  1        5 0.33233293E-01 0.13246739E+03</pdfrwt>
<pdfrwt beam="1">  1       -5 0.12608342E-01 0.13246739E+03</pdfrwt>
<totfact> 0.33583637E+02</totfact>
</mgrwt>
</event>
<event>
 8    1  0.3674342E-007  0.1572355E+03  0.7546771E-02  0.1191865E+00
         -5   -1    0    0    0  501 -0.00000000000E+00  0.00000000000E+00  0.50702427090E+03  0.50704605440E+03  0.47000000000E+01 0. -1.
          5   -1    0    0  501    0  0.00000000000E+00 -0.00000000000E+00 -0.58634187217E+02  0.58822256932E+02  0.47000000000E+01 0. -1.
         25    2    1    2    0    0 -0.28410741664E+02  0.90989424104E+02  0.34095810395E+03  0.37546694757E+03  0.12504700927E+03 0.  0.
         25    2    1    2    0    0  0.28410741664E+02 -0.90989424104E+02  0.10743197974E+03  0.19040136377E+03  0.12499921405E+03 0.  0.
          5    1    4    4  502    0  0.76711118955E+01 -0.80562395690E+02  0.13286907777E+03  0.15564519711E+03  0.47000000000E+01 0.  1.
         -5    1    4    4    0  502  0.20739629768E+02 -0.10427028413E+02 -0.25437098028E+02  0.34756166655E+02  0.47000000000E+01 0.  1.
          5    1    3    3  503    0 -0.65355242573E+02  0.28338882408E+02  0.24362949103E+03  0.25387362779E+03  0.47000000000E+01 0.  1.
         -5    1    3    3    0  503  0.36944500909E+02  0.62650541696E+02  0.97328612917E+02  0.12159331978E+03  0.47000000000E+01 0.  1.
<mgrwt>
<rscale>  0 0.15722599E+03</rscale>
<asrwt>0</asrwt>
<pdfrwt beam="2">  1        5 0.90367867E-02 0.15723549E+03</pdfrwt>
<pdfrwt beam="1">  1       -5 0.78019877E-01 0.15723549E+03</pdfrwt>
<totfact> 0.10316648E+02</totfact>
</mgrwt>
</event>
<event>
 8    1  0.3674342E-007  0.1457573E+03  0.7546771E-02  0.1205790E+00
         -5   -1    0    0    0  501 -0.00000000000E+00  0.00000000000E+00  0.69367012759E+02  0.69526055973E+02  0.47000000000E+01 0. -1.
          5   -1    0    0  501    0  0.00000000000E+00 -0.00000000000E+00 -0.33592347692E+03  0.33595635482E+03  0.47000000000E+01 0. -1.
         25    2    1    2    0    0  0.68068813489E+02  0.31405483148E+02 -0.72506147675E+02  0.16279533161E+03  0.12500204319E+03 0.  0.
         25    2    1    2    0    0 -0.68068813489E+02 -0.31405483148E+02 -0.19405031648E+03  0.24268707918E+03  0.12498730069E+03 0.  0.
          5    1    3    3  502    0  0.51920004904E+02  0.74570659743E+02 -0.72707785930E+02  0.11646880414E+03  0.47000000000E+01 0. -1.
         -5    1    3    3    0  502  0.16148808585E+02 -0.43165176596E+02  0.20163825486E+00  0.46326527468E+02  0.47000000000E+01 0. -1.
          5    1    4    4  503    0 -0.10172638121E+02 -0.22234468551E+02  0.12548438441E+02  0.27882027642E+02  0.47000000000E+01 0.  1.
         -5    1    4    4    0  503 -0.57896175368E+02 -0.91710145963E+01 -0.20659875492E+03  0.21480505154E+03  0.47000000000E+01 0.  1.
<mgrwt>
<rscale>  0 0.14575410E+03</rscale>
<asrwt>0</asrwt>
<pdfrwt beam="2">  1        5 0.51695297E-01 0.14575726E+03</pdfrwt>
<pdfrwt beam="1">  1       -5 0.10686611E-01 0.14575726E+03</pdfrwt>
<totfact> 0.18715497E+02</totfact>
</mgrwt>
</event>
<event>
 8    1  0.3674342E-007  0.1627057E+03  0.7546771E-02  0.1185677E+00
          5   -1    0    0  501    0  0.00000000000E+00  0.00000000000E+00  0.25126428272E+02  0.25562225993E+02  0.47000000000E+01 0. -1.
         -5   -1    0    0    0  501 -0.00000000000E+00 -0.00000000000E+00 -0.10796728896E+04  0.10796831195E+04  0.47000000000E+01 0. -1.
         25    2    1    2    0    0 -0.91755188131E+02  0.49278512529E+02 -0.62763954811E+03  0.64838611175E+03  0.12500304483E+03 0.  0.
         25    2    1    2    0    0  0.91755188131E+02 -0.49278512529E+02 -0.42690691323E+03  0.45685923375E+03  0.12499384207E+03 0.  0.
          5    1    4    4  502    0  0.67141831113E+02  0.30432945051E+02 -0.14356103036E+03  0.16144983452E+03  0.47000000000E+01 0. -1.
         -5    1    4    4    0  502  0.24613357017E+02 -0.79711457580E+02 -0.28334588287E+03  0.29540939923E+03  0.47000000000E+01 0. -1.
          5    1    3    3  503    0 -0.30725073686E+02  0.89396962553E+01 -0.23906929342E+02  0.40219144605E+02  0.47000000000E+01 0. -1.
         -5    1    3    3    0  503 -0.61030114445E+02  0.40338816273E+02 -0.60373261877E+03  0.60816696715E+03  0.47000000000E+01 0. -1.
<mgrwt>
<rscale>  0 0.16270394E+03</rscale>
<asrwt>0</asrwt>
<pdfrwt beam="1">  1        5 0.38999150E-02 0.16270571E+03</pdfrwt>
<pdfrwt beam="2">  1       -5 0.16613780E+00 0.16270571E+03</pdfrwt>
<totfact> 0.62990196E+01</totfact>
</mgrwt>
</event>
<event>
 8    1  0.3674342E-007  0.1253300E+03  0.7546771E-02  0.1234558E+00
         -5   -1    0    0    0  501 -0.00000000000E+00  0.00000000000E+00  0.14791934165E+03  0.14799399189E+03  0.47000000000E+01 0.  1.
          5   -1    0    0  501    0  0.00000000000E+00 -0.00000000000E+00 -0.11073285786E+03  0.11083255753E+03  0.47000000000E+01 0.  1.
         25    2    1    2    0    0 -0.18667854043E+01 -0.88774433859E+01  0.45245976806E+02  0.13324717716E+03  0.12500127166E+03 0.  0.
         25    2    1    2    0    0  0.18667854043E+01  0.88774433859E+01 -0.80594930112E+01  0.12557937226E+03  0.12499171741E+03 0.  0.
          5    1    4    4  502    0  0.39999058723E+02  0.38836119600E+02 -0.38696202956E+02  0.68026869747E+02  0.47000000000E+01 0. -1.
         -5    1    4    4    0  502 -0.38132273319E+02 -0.29958676214E+02  0.30636709945E+02  0.57552502511E+02  0.47000000000E+01 0. -1.
          5    1    3    3  503    0 -0.34146632168E+02 -0.88487688927E+01  0.78792270301E+02  0.86455798293E+02  0.47000000000E+01 0.  1.
         -5    1    3    3    0  503  0.32279846763E+02 -0.28674493116E-01 -0.33546293495E+02  0.46791378870E+02  0.47000000000E+01 0.  1.
<mgrwt>
<rscale>  0 0.12532763E+03</rscale>
<asrwt>0</asrwt>
<pdfrwt beam="2">  1        5 0.17049236E-01 0.12533001E+03</pdfrwt>
<pdfrwt beam="1">  1       -5 0.22770233E-01 0.12533001E+03</pdfrwt>
<totfact> 0.39724963E+02</totfact>
</mgrwt>
</event>
<event>
 8    1  0.3674342E-007  0.1314441E+03  0.7546771E-02  0.1225331E+00
          5   -1    0    0  501    0  0.00000000000E+00  0.00000000000E+00  0.64343944137E+03  0.64345660671E+03  0.47000000000E+01 0. -1.
         -5   -1    0    0    0  501 -0.00000000000E+00 -0.00000000000E+00 -0.27428999886E+02  0.27828762724E+02  0.47000000000E+01 0. -1.
         25    2    1    2    0    0  0.16876111696E+02 -0.36974151399E+02  0.25106197070E+03  0.28338958849E+03  0.12500261884E+03 0.  0.
         25    2    1    2    0    0 -0.16876111696E+02  0.36974151399E+02  0.36494847078E+03  0.38789578094E+03  0.12499543801E+03 0.  0.
          5    1    3    3  502    0  0.65196562181E+02 -0.28822648672E+02  0.20038655468E+03  0.21273974263E+03  0.47000000000E+01 0. -1.
         -5    1    3    3    0  502 -0.48320450485E+02 -0.81515027276E+01  0.50675416018E+02  0.70649845862E+02  0.47000000000E+01 0. -1.
          5    1    4    4  503    0  0.53802690693E+02  0.23017868027E+02  0.18117174774E+03  0.19044643329E+03  0.47000000000E+01 0. -1.
         -5    1    4    4    0  503 -0.70678802389E+02  0.13956283372E+02  0.18377672305E+03  0.19744934765E+03  0.47000000000E+01 0. -1.
<mgrwt>
<rscale>  0 0.13144237E+03</rscale>
<asrwt>0</asrwt>
<pdfrwt beam="1">  1        5 0.99022744E-01 0.13144408E+03</pdfrwt>
<pdfrwt beam="2">  1       -5 0.42519180E-02 0.13144408E+03</pdfrwt>
<totfact> 0.19771976E+02</totfact>
</mgrwt>
</event>
<event>
 8    1  0.3674342E-007  0.1495894E+03  0.7546771E-02  0.1200982E+00
          5   -1    0    0  501    0  0.00000000000E+00  0.00000000000E+00  0.40004770188E+02  0.40279916060E+02  0.47000000000E+01 0.  1.
         -5   -1    0    0    0  501 -0.00000000000E+00 -0.00000000000E+00 -0.56637138453E+03  0.56639088553E+03  0.47000000000E+01 0.  1.
         25    2    1    2    0    0  0.20343171331E+02 -0.79609262812E+02 -0.22442818944E+03  0.26971278473E+03  0.12500197873E+03 0.  0.
         25    2    1    2    0    0 -0.20343171331E+02  0.79609262812E+02 -0.30193842490E+03  0.33695801686E+03  0.12498965297E+03 0.  0.
          5    1    4    4  502    0 -0.24814937215E+02  0.91186110630E+02 -0.11226247893E+03  0.14681839822E+03  0.47000000000E+01 0. -1.
         -5    1    4    4    0  502  0.44717658838E+01 -0.11576847818E+02 -0.18967594597E+03  0.19013961864E+03  0.47000000000E+01 0. -1.
          5    1    3    3  503    0 -0.32358989824E+02 -0.32760276582E+01 -0.74562002937E+01  0.33697499944E+02  0.47000000000E+01 0.  1.
         -5    1    3    3    0  503  0.52702161156E+02 -0.76333235154E+02 -0.21697198915E+03  0.23601528479E+03  0.47000000000E+01 0.  1.
<mgrwt>
<rscale>  0 0.14958678E+03</rscale>
<asrwt>0</asrwt>
<pdfrwt beam="1">  1        5 0.61772456E-02 0.14958935E+03</pdfrwt>
<pdfrwt beam="2">  1       -5 0.87156719E-01 0.14958935E+03</pdfrwt>
<totfact> 0.15029331E+02</totfact>
</mgrwt>
</event>
<event>
 8    1  0.3674342E-007  0.1634527E+03  0.7546771E-02  0.1184854E+00
         -5   -1    0    0    0  501 -0.00000000000E+00  0.00000000000E+00  0.32792789491E+03  0.32796157437E+03  0.47000000000E+01 0. -1.
          5   -1    0    0  501    0  0.00000000000E+00 -0.00000000000E+00 -0.93739668801E+02  0.93857421161E+02  0.47000000000E+01 0. -1.
         25    2    1    2    0    0 -0.10235657959E+03  0.24782220413E+02  0.19366273151E+03  0.25342070274E+03  0.12500308462E+03 0.  0.
         25    2    1    2    0    0  0.10235657959E+03 -0.24782220413E+02  0.40525494602E+02  0.16839829279E+03  0.12499856587E+03 0.  0.
          5    1    3    3  502    0 -0.33178800600E+02  0.36320455507E+02  0.17334642369E+03  0.18025282496E+03  0.47000000000E+01 0. -1.
         -5    1    3    3    0  502 -0.69177778992E+02 -0.11538235093E+02  0.20316307814E+02  0.73167877778E+02  0.47000000000E+01 0. -1.
          5    1    4    4  503    0 -0.26805040575E+02  0.10401642400E+02  0.11611638212E+02  0.31362788569E+02  0.47000000000E+01 0. -1.
         -5    1    4    4    0  503  0.12916162017E+03 -0.35183862813E+02  0.28913856390E+02  0.13703550422E+03  0.47000000000E+01 0. -1.
<mgrwt>
<rscale>  0 0.16345188E+03</rscale>
<asrwt>0</asrwt>
<pdfrwt beam="2">  1        5 0.14433136E-01 0.16345274E+03</pdfrwt>
<pdfrwt beam="1">  1       -5 0.50462095E-01 0.16345274E+03</pdfrwt>
<totfact> 0.11962717E+02</totfact>
</mgrwt>
</event>
<event>
 8    1  0.3674342E-007  0.1646198E+03  0.7546771E-02  0.1183584E+00
          5   -1    0    0  501    0  0.00000000000E+00  0.00000000000E+00  0.12661508063E+03  0.12670228349E+03  0.47000000000E+01 0. -1.
         -5   -1    0    0    0  501 -0.00000000000E+00 -0.00000000000E+00 -0.22589161955E+03  0.22594050939E+03  0.47000000000E+01 0. -1.
         25    2    1    2    0    0 -0.58522075266E+02  0.89716995656E+02 -0.90391414104E+02  0.18778339924E+03  0.12497209561E+03 0.  0.
         25    2    1    2    0    0  0.58522075266E+02 -0.89716995656E+02 -0.88851248176E+01  0.16485939365E+03  0.12500280648E+03 0.  0.
          5    1    4    4  502    0 -0.36246370741E+02 -0.14825616788E+02  0.13960396340E+02  0.41839944682E+02  0.47000000000E+01 0.  1.
         -5    1    4    4    0  502  0.94768446006E+02 -0.74891378868E+02 -0.22845521158E+02  0.12301944897E+03  0.47000000000E+01 0.  1.
          5    1    3    3  503    0 -0.76093964939E+02  0.63704257385E+02 -0.82152901207E+01  0.99690044141E+02  0.47000000000E+01 0.  1.
         -5    1    3    3    0  503  0.17571889673E+02  0.26012738271E+02 -0.82176123983E+02  0.88093355095E+02  0.47000000000E+01 0.  1.
<mgrwt>
<rscale>  0 0.16461396E+03</rscale>
<asrwt>0</asrwt>
<pdfrwt beam="1">  1        5 0.19489712E-01 0.16461979E+03</pdfrwt>
<pdfrwt beam="2">  1       -5 0.34763025E-01 0.16461979E+03</pdfrwt>
<totfact> 0.14919624E+02</totfact>
</mgrwt>
</event>
<event>
 8    1  0.3674342E-007  0.1706515E+03  0.7546771E-02  0.1177171E+00
         -5   -1    0    0    0  501 -0.00000000000E+00  0.00000000000E+00  0.22942049554E+03  0.22946863353E+03  0.47000000000E+01 0. -1.
          5   -1    0    0  501    0  0.00000000000E+00 -0.00000000000E+00 -0.12682964114E+03  0.12691669659E+03  0.47000000000E+01 0. -1.
         25    2    1    2    0    0  0.91603702833E+02 -0.71451746909E+02  0.51365885080E+02  0.17821444739E+03  0.12500137839E+03 0.  0.
         25    2    1    2    0    0 -0.91603702833E+02  0.71451746909E+02  0.51224969320E+02  0.17817088273E+03  0.12499710182E+03 0.  0.
          5    1    4    4  502    0 -0.91347993980E+02  0.10055931462E+03  0.24000595284E+02  0.13803894499E+03  0.47000000000E+01 0. -1.
         -5    1    4    4    0  502 -0.25570885240E+00 -0.29107567709E+02  0.27224374036E+02  0.40131937738E+02  0.47000000000E+01 0. -1.
          5    1    3    3  503    0  0.85398563547E+02 -0.10470834741E+03  0.49610056146E+02  0.14401388942E+03  0.47000000000E+01 0. -1.
         -5    1    3    3    0  503  0.62051392857E+01  0.33256600503E+02  0.17558289337E+01  0.34200557976E+02  0.47000000000E+01 0. -1.
<mgrwt>
<rscale>  0 0.17065072E+03</rscale>
<asrwt>0</asrwt>
<pdfrwt beam="2">  1        5 0.19522652E-01 0.17065150E+03</pdfrwt>
<pdfrwt beam="1">  1       -5 0.35305860E-01 0.17065150E+03</pdfrwt>
<totfact> 0.14573224E+02</totfact>
</mgrwt>
</event>
<event>
 8    1  0.3674342E-007  0.1446539E+03  0.7546771E-02  0.1207205E+00
         -5   -1    0    0    0  501 -0.00000000000E+00  0.00000000000E+00  0.25859078307E+03  0.25863349182E+03  0.47000000000E+01 0. -1.
          5   -1    0    0  501    0  0.00000000000E+00 -0.00000000000E+00 -0.10672065535E+03  0.10682409971E+03  0.47000000000E+01 0. -1.
         25    2    1    2    0    0  0.76268319527E+01  0.72376048774E+02  0.16592963213E+03  0.22012200313E+03  0.12499836976E+03 0.  0.
         25    2    1    2    0    0 -0.76268319527E+01 -0.72376048774E+02 -0.14059504415E+02  0.14533558839E+03  0.12501320965E+03 0.  0.
          5    1    3    3  502    0  0.60851185376E+02  0.90336998078E+01  0.74341194859E+02  0.96608373069E+02  0.47000000000E+01 0.  1.
         -5    1    3    3    0  502 -0.53224353423E+02  0.63342348966E+02  0.91588437274E+02  0.12351363007E+03  0.47000000000E+01 0.  1.
          5    1    4    4  503    0 -0.64636232910E+02 -0.54347534284E+02 -0.10866606666E+02  0.85274088843E+02  0.47000000000E+01 0.  1.
         -5    1    4    4    0  503  0.57009400957E+02 -0.18028514490E+02 -0.31928977491E+01  0.60061499551E+02  0.47000000000E+01 0.  1.
<mgrwt>
<rscale>  0 0.14465074E+03</rscale>
<asrwt>0</asrwt>
<pdfrwt beam="2">  1        5 0.16429805E-01 0.14465394E+03</pdfrwt>
<pdfrwt beam="1">  1       -5 0.39794440E-01 0.14465394E+03</pdfrwt>
<totfact> 0.14923523E+02</totfact>
</mgrwt>
</event>
<event>
 8    1  0.3674342E-007  0.1544770E+03  0.7546771E-02  0.1195080E+00
         -5   -1    0    0    0  501 -0.00000000000E+00  0.00000000000E+00  0.46879068796E+03  0.46881424799E+03  0.47000000000E+01 0.  1.
          5   -1    0    0  501    0  0.00000000000E+00 -0.00000000000E+00 -0.92156990601E+02  0.92276762604E+02  0.47000000000E+01 0.  1.
         25    2    1    2    0    0  0.52077078427E+01 -0.90614666276E+02  0.37613003917E+03  0.40661323229E+03  0.12498950494E+03 0.  0.
         25    2    1    2    0    0 -0.52077078427E+01  0.90614666276E+02  0.50365819791E+00  0.15447777831E+03  0.12499996942E+03 0.  0.
          5    1    3    3  502    0  0.28127159792E+02  0.22640692120E+02  0.12380885594E+03  0.12905216336E+03  0.47000000000E+01 0.  1.
         -5    1    3    3    0  502 -0.22919451949E+02 -0.11325535840E+03  0.25232118322E+03  0.27756106893E+03  0.47000000000E+01 0.  1.
          5    1    4    4  503    0  0.70040132268E+01  0.98973652420E+02  0.43741246475E+02  0.10853675284E+03  0.47000000000E+01 0. -1.
         -5    1    4    4    0  503 -0.12211721069E+02 -0.83589861431E+01 -0.43237588277E+02  0.45941025466E+02  0.47000000000E+01 0. -1.
<mgrwt>
<rscale>  0 0.15447484E+03</rscale>
<asrwt>0</asrwt>
<pdfrwt beam="2">  1        5 0.14189024E-01 0.15447696E+03</pdfrwt>
<pdfrwt beam="1">  1       -5 0.72132671E-01 0.15447696E+03</pdfrwt>
<totfact> 0.55301580E+01</totfact>
</mgrwt>
</event>
<event>
 8    1  0.3674342E-007  0.1258728E+03  0.7546771E-02  0.1233712E+00
          5   -1    0    0  501    0  0.00000000000E+00  0.00000000000E+00  0.49214714492E+03  0.49216958688E+03  0.47000000000E+01 0. -1.
         -5   -1    0    0    0  501 -0.00000000000E+00 -0.00000000000E+00 -0.32379443675E+02  0.32718777066E+02  0.47000000000E+01 0. -1.
         25    2    1    2    0    0 -0.79822560397E+01  0.12468710616E+02  0.25818508059E+03  0.28723420565E+03  0.12499907159E+03 0.  0.
         25    2    1    2    0    0  0.79822560397E+01 -0.12468710616E+02  0.20158262065E+03  0.23765415830E+03  0.12499904340E+03 0.  0.
          5    1    3    3  502    0 -0.57088327580E+02 -0.26256402671E+02  0.12249034266E+03  0.13774777628E+03  0.47000000000E+01 0.  1.
         -5    1    3    3    0  502  0.49106071541E+02  0.38725113287E+02  0.13569473793E+03  0.14948642937E+03  0.47000000000E+01 0.  1.
          5    1    4    4  503    0  0.46250657138E+02  0.39554995802E+02  0.10204604057E+03  0.11890839068E+03  0.47000000000E+01 0.  1.
         -5    1    4    4    0  503 -0.38268401099E+02 -0.52023706418E+02  0.99536580086E+02  0.11874576762E+03  0.47000000000E+01 0.  1.
<mgrwt>
<rscale>  0 0.12587276E+03</rscale>
<asrwt>0</asrwt>
<pdfrwt beam="1">  1        5 0.75742770E-01 0.12587277E+03</pdfrwt>
<pdfrwt beam="2">  1       -5 0.50092820E-02 0.12587277E+03</pdfrwt>
<totfact> 0.27881354E+02</totfact>
</mgrwt>
</event>
<event>
 8    1  0.3674342E-007  0.1256117E+03  0.7546771E-02  0.1234121E+00
         -5   -1    0    0    0  501 -0.00000000000E+00  0.00000000000E+00  0.78419135589E+03  0.78420544034E+03  0.47000000000E+01 0.  1.
          5   -1    0    0  501    0  0.00000000000E+00 -0.00000000000E+00 -0.20130646625E+02  0.20672032641E+02  0.47000000000E+01 0.  1.
         25    2    1    2    0    0 -0.26399787950E+01 -0.12082404526E+02  0.43054289593E+03  0.44848944091E+03  0.12499055715E+03 0.  0.
         25    2    1    2    0    0  0.26399787950E+01  0.12082404526E+02  0.33351781333E+03  0.35638803207E+03  0.12500137442E+03 0.  0.
          5    1    4    4  502    0  0.27974792308E+02  0.61344014346E+02  0.21711182561E+03  0.22738802062E+03  0.47000000000E+01 0. -1.
         -5    1    4    4    0  502 -0.25334813513E+02 -0.49261609820E+02  0.11640598772E+03  0.12900001145E+03  0.47000000000E+01 0. -1.
          5    1    3    3  503    0  0.38456619697E+01  0.33887124326E+02  0.37216705951E+03  0.37375598523E+03  0.47000000000E+01 0. -1.
         -5    1    3    3    0  503 -0.64856407647E+01 -0.45969528852E+02  0.58375836425E+02  0.74733455677E+02  0.47000000000E+01 0. -1.
<mgrwt>
<rscale>  0 0.12560900E+03</rscale>
<asrwt>0</asrwt>
<pdfrwt beam="2">  1        5 0.31397515E-02 0.12561169E+03</pdfrwt>
<pdfrwt beam="1">  1       -5 0.12068754E+00 0.12561169E+03</pdfrwt>
<totfact> 0.19521553E+02</totfact>
</mgrwt>
</event>
<event>
 8    1  0.3674342E-007  0.1348230E+03  0.7546771E-02  0.1220473E+00
         -5   -1    0    0    0  501 -0.00000000000E+00  0.00000000000E+00  0.65134180455E+03  0.65135876163E+03  0.47000000000E+01 0.  1.
          5   -1    0    0  501    0  0.00000000000E+00 -0.00000000000E+00 -0.27706393279E+02  0.28102210385E+02  0.47000000000E+01 0.  1.
         25    2    1    2    0    0 -0.80253201728E+01  0.49863488239E+02  0.31997376920E+03  0.34721460921E+03  0.12499599453E+03 0.  0.
         25    2    1    2    0    0  0.80253201728E+01 -0.49863488239E+02  0.30366164206E+03  0.33224636280E+03  0.12500591791E+03 0.  0.
          5    1    4    4  502    0  0.75783647188E+01 -0.86119393263E+02  0.14046707608E+03  0.16500627555E+03  0.47000000000E+01 0.  1.
         -5    1    4    4    0  502  0.44695545398E+00  0.36255905024E+02  0.16319456599E+03  0.16724008726E+03  0.47000000000E+01 0.  1.
          5    1    3    3  503    0  0.45829865598E+02  0.56145615059E+02  0.23787356156E+03  0.24871394806E+03  0.47000000000E+01 0.  1.
         -5    1    3    3    0  503 -0.53855185770E+02 -0.62821268196E+01  0.82100207647E+02  0.98500661153E+02  0.47000000000E+01 0.  1.
<mgrwt>
<rscale>  0 0.13482074E+03</rscale>
<asrwt>0</asrwt>
<pdfrwt beam="2">  1        5 0.42942745E-02 0.13482304E+03</pdfrwt>
<pdfrwt beam="1">  1       -5 0.10023817E+00 0.13482304E+03</pdfrwt>
<totfact> 0.19046505E+02</totfact>
</mgrwt>
</event>
<event>
 8    1  0.3674342E-007  0.1902695E+03  0.7546771E-02  0.1158221E+00
         -5   -1    0    0    0  501 -0.00000000000E+00  0.00000000000E+00  0.14689053872E+03  0.14696571153E+03  0.47000000000E+01 0. -1.
          5   -1    0    0  501    0  0.00000000000E+00 -0.00000000000E+00 -0.24632189402E+03  0.24636672964E+03  0.47000000000E+01 0. -1.
         25    2    1    2    0    0 -0.44726953276E+00 -0.14343968472E+03 -0.47261562396E+02  0.19605133043E+03  0.12500930238E+03 0.  0.
         25    2    1    2    0    0  0.44726953276E+00  0.14343968472E+03 -0.52169792906E+02  0.19728111074E+03  0.12499202439E+03 0.  0.
          5    1    4    4  502    0  0.57398997618E+02  0.10737759847E+03 -0.24627047574E+02  0.12431080022E+03  0.47000000000E+01 0. -1.
         -5    1    4    4    0  502 -0.56951728086E+02  0.36062086252E+02 -0.27542745332E+02  0.72970310519E+02  0.47000000000E+01 0. -1.
          5    1    3    3  503    0 -0.55453106167E+02 -0.11558717824E+03 -0.28253647901E+02  0.13136133897E+03  0.47000000000E+01 0. -1.
         -5    1    3    3    0  503  0.55005836635E+02 -0.27852506479E+02 -0.19007914495E+02  0.64689991455E+02  0.47000000000E+01 0. -1.
<mgrwt>
<rscale>  0 0.19026663E+03</rscale>
<asrwt>0</asrwt>
<pdfrwt beam="2">  1        5 0.37904907E-01 0.19026946E+03</pdfrwt>
<pdfrwt beam="1">  1       -5 0.22607776E-01 0.19026946E+03</pdfrwt>
<totfact> 0.98793322E+01</totfact>
</mgrwt>
</event>
<event>
 8    1  0.3674342E-007  0.1447289E+03  0.7546771E-02  0.1207110E+00
         -5   -1    0    0    0  501 -0.00000000000E+00  0.00000000000E+00  0.18907409731E+02  0.19482816602E+02  0.47000000000E+01 0. -1.
          5   -1    0    0  501    0  0.00000000000E+00 -0.00000000000E+00 -0.11911087994E+04  0.11911180722E+04  0.47000000000E+01 0. -1.
         25    2    1    2    0    0  0.52437986009E+02 -0.50658024520E+02 -0.41020022950E+03  0.43497712104E+03  0.12499955887E+03 0.  0.
         25    2    1    2    0    0 -0.52437986009E+02  0.50658024520E+02 -0.76200116013E+03  0.77562376776E+03  0.12502193110E+03 0.  0.
          5    1    3    3  502    0 -0.16656017031E+02  0.70598182865E+01 -0.25354825902E+03  0.25423625546E+03  0.47000000000E+01 0. -1.
         -5    1    3    3    0  502  0.69094003040E+02 -0.57717842806E+02 -0.15665197049E+03  0.18074086558E+03  0.47000000000E+01 0. -1.
          5    1    4    4  503    0 -0.35052672845E+02 -0.38192241717E+02 -0.34301382759E+03  0.34694079195E+03  0.47000000000E+01 0. -1.
         -5    1    4    4    0  503 -0.17385313163E+02  0.88850266237E+02 -0.41898733254E+03  0.42868297581E+03  0.47000000000E+01 0. -1.
<mgrwt>
<rscale>  0 0.14472409E+03</rscale>
<asrwt>0</asrwt>
<pdfrwt beam="2">  1        5 0.18329243E+00 0.14472892E+03</pdfrwt>
<pdfrwt beam="1">  1       -5 0.29538086E-02 0.14472892E+03</pdfrwt>
<totfact> 0.71926489E+01</totfact>
</mgrwt>
</event>
<event>
 8    1  0.3674342E-007  0.1523846E+03  0.7546771E-02  0.1197574E+00
         -5   -1    0    0    0  501 -0.00000000000E+00  0.00000000000E+00  0.25195597822E+02  0.25630219461E+02  0.47000000000E+01 0.  1.
          5   -1    0    0  501    0  0.00000000000E+00 -0.00000000000E+00 -0.91956341009E+03  0.91957542115E+03  0.47000000000E+01 0.  1.
         25    2    1    2    0    0 -0.59748080583E+02  0.63448789659E+02 -0.40817277000E+03  0.43568951483E+03  0.12499904446E+03 0.  0.
         25    2    1    2    0    0  0.59748080583E+02 -0.63448789659E+02 -0.48619504226E+03  0.50951612578E+03  0.12500192505E+03 0.  0.
          5    1    3    3  502    0 -0.70861316048E+02 -0.13691109188E+02 -0.23145653325E+03  0.24249327696E+03  0.47000000000E+01 0.  1.
         -5    1    3    3    0  502  0.11113235465E+02  0.77139898847E+02 -0.17671623675E+03  0.19319623787E+03  0.47000000000E+01 0.  1.
          5    1    4    4  503    0  0.35805760287E+02  0.28143208135E+02 -0.77855701168E+02  0.90319947067E+02  0.47000000000E+01 0. -1.
         -5    1    4    4    0  503  0.23942320295E+02 -0.91591997793E+02 -0.40833934110E+03  0.41919617871E+03  0.47000000000E+01 0. -1.
<mgrwt>
<rscale>  0 0.15238400E+03</rscale>
<asrwt>0</asrwt>
<pdfrwt beam="2">  1        5 0.14150562E+00 0.15238459E+03</pdfrwt>
<pdfrwt beam="1">  1       -5 0.39106029E-02 0.15238459E+03</pdfrwt>
<totfact> 0.95902203E+01</totfact>
</mgrwt>
</event>
<event>
 8    1  0.3674342E-007  0.1489659E+03  0.7546771E-02  0.1201752E+00
         -5   -1    0    0    0  501 -0.00000000000E+00  0.00000000000E+00  0.22554976978E+02  0.23039465847E+02  0.47000000000E+01 0. -1.
          5   -1    0    0  501    0  0.00000000000E+00 -0.00000000000E+00 -0.97517119907E+03  0.97518252522E+03  0.47000000000E+01 0. -1.
         25    2    1    2    0    0 -0.38083156888E+02  0.71511686714E+02 -0.45201315563E+03  0.47592488786E+03  0.12499743136E+03 0.  0.
         25    2    1    2    0    0  0.38083156888E+02 -0.71511686714E+02 -0.50060306647E+03  0.52229710321E+03  0.12500634261E+03 0.  0.
          5    1    3    3  502    0  0.97742627265E+01  0.57447206635E+02 -0.72574146397E+02  0.93192352085E+02  0.47000000000E+01 0.  1.
         -5    1    3    3    0  502 -0.47857419615E+02  0.14064480079E+02 -0.37943900923E+03  0.38273253577E+03  0.47000000000E+01 0.  1.
          5    1    4    4  503    0 -0.26284730885E+02 -0.58120521255E+02 -0.37533695496E+03  0.38074768788E+03  0.47000000000E+01 0. -1.
         -5    1    4    4    0  503  0.64367887773E+02 -0.13391165459E+02 -0.12526611151E+03  0.14154941533E+03  0.47000000000E+01 0. -1.
<mgrwt>
<rscale>  0 0.14896401E+03</rscale>
<asrwt>0</asrwt>
<pdfrwt beam="2">  1        5 0.15006445E+00 0.14896588E+03</pdfrwt>
<pdfrwt beam="1">  1       -5 0.35081368E-02 0.14896588E+03</pdfrwt>
<totfact> 0.97019451E+01</totfact>
</mgrwt>
</event>
<event>
 8    1  0.3674342E-007  0.1507461E+03  0.7546771E-02  0.1199560E+00
          5   -1    0    0  501    0  0.00000000000E+00  0.00000000000E+00  0.39402038871E+03  0.39404841925E+03  0.47000000000E+01 0.  1.
         -5   -1    0    0    0  501 -0.00000000000E+00 -0.00000000000E+00 -0.60465194255E+02  0.60647586237E+02  0.47000000000E+01 0.  1.
         25    2    1    2    0    0  0.25446579582E+02  0.80318418344E+02  0.11691343877E+03  0.19076984384E+03  0.12500321763E+03 0.  0.
         25    2    1    2    0    0 -0.25446579582E+02 -0.80318418344E+02  0.21664175568E+03  0.26392616165E+03  0.12499916704E+03 0.  0.
          5    1    4    4  502    0 -0.20210270340E+02  0.20336007465E+01  0.16533501917E+03  0.16664437921E+03  0.47000000000E+01 0. -1.
         -5    1    4    4    0  502 -0.52363092419E+01 -0.82352019091E+02  0.51306736517E+02  0.97281782440E+02  0.47000000000E+01 0. -1.
          5    1    3    3  503    0 -0.27888670975E+02  0.66548650930E+02  0.13574359393E+02  0.73572101658E+02  0.47000000000E+01 0.  1.
         -5    1    3    3    0  503  0.53335250558E+02  0.13769767414E+02  0.10333907937E+03  0.11719774218E+03  0.47000000000E+01 0.  1.
<mgrwt>
<rscale>  0 0.15074524E+03</rscale>
<asrwt>0</asrwt>
<pdfrwt beam="1">  1        5 0.60634707E-01 0.15074608E+03</pdfrwt>
<pdfrwt beam="2">  1       -5 0.93185240E-02 0.15074608E+03</pdfrwt>
<totfact> 0.17021095E+02</totfact>
</mgrwt>
</event>
<event>
 8    1  0.3674342E-007  0.1281864E+03  0.7546771E-02  0.1230173E+00
         -5   -1    0    0    0  501 -0.00000000000E+00  0.00000000000E+00  0.51889036957E+02  0.52101460213E+02  0.47000000000E+01 0.  1.
          5   -1    0    0  501    0  0.00000000000E+00 -0.00000000000E+00 -0.32246429574E+03  0.32249854578E+03  0.47000000000E+01 0.  1.
         25    2    1    2    0    0  0.12722504319E+02 -0.25377022179E+02 -0.10834965708E+03  0.16784195633E+03  0.12500167497E+03 0.  0.
         25    2    1    2    0    0 -0.12722504319E+02  0.25377022179E+02 -0.16222560171E+03  0.20675804966E+03  0.12500355946E+03 0.  0.
          5    1    3    3  502    0  0.53435430751E+02  0.23078906678E+02 -0.26122637516E+02  0.63972364219E+02  0.47000000000E+01 0. -1.
         -5    1    3    3    0  502 -0.40712926432E+02 -0.48455928857E+02 -0.82227019559E+02  0.10386959211E+03  0.47000000000E+01 0. -1.
          5    1    4    4  503    0 -0.46211368171E+02  0.17515234106E+02 -0.10020804339E+02  0.50643661929E+02  0.47000000000E+01 0. -1.
         -5    1    4    4    0  503  0.33488863852E+02  0.78617880736E+01 -0.15220479737E+03  0.15611438773E+03  0.47000000000E+01 0. -1.
<mgrwt>
<rscale>  0 0.12818591E+03</rscale>
<asrwt>0</asrwt>
<pdfrwt beam="2">  1        5 0.49628865E-01 0.12818637E+03</pdfrwt>
<pdfrwt beam="1">  1       -5 0.80019038E-02 0.12818637E+03</pdfrwt>
<totfact> 0.32253079E+02</totfact>
</mgrwt>
</event>
<event>
 8    1  0.3674342E-007  0.1657291E+03  0.7546771E-02  0.1182376E+00
         -5   -1    0    0    0  501 -0.00000000000E+00  0.00000000000E+00  0.18750327930E+02  0.19330411208E+02  0.47000000000E+01 0. -1.
          5   -1    0    0  501    0  0.00000000000E+00 -0.00000000000E+00 -0.15408255494E+04  0.15408327176E+04  0.47000000000E+01 0. -1.
         25    2    1    2    0    0 -0.10005410806E+03 -0.42781685928E+02 -0.56345189378E+03  0.58731944835E+03  0.12500000247E+03 0.  0.
         25    2    1    2    0    0  0.10005410806E+03  0.42781685928E+02 -0.95862332768E+03  0.97284368047E+03  0.12500018022E+03 0.  0.
          5    1    3    3  502    0  0.70572848986E+01 -0.56234256124E+02 -0.22261473439E+03  0.22976402416E+03  0.47000000000E+01 0. -1.
         -5    1    3    3    0  502 -0.10711139296E+03  0.13452570196E+02 -0.34083715939E+03  0.35755542419E+03  0.47000000000E+01 0. -1.
          5    1    4    4  503    0  0.12911471450E+03  0.35901923918E+02 -0.72796050786E+03  0.74020817926E+03  0.47000000000E+01 0.  1.
         -5    1    4    4    0  503 -0.29060606444E+02  0.68797620102E+01 -0.23066281982E+03  0.23263550120E+03  0.47000000000E+01 0.  1.
<mgrwt>
<rscale>  0 0.16572909E+03</rscale>
<asrwt>0</asrwt>
<pdfrwt beam="2">  1        5 0.23709516E+00 0.16572912E+03</pdfrwt>
<pdfrwt beam="1">  1       -5 0.29298402E-02 0.16572912E+03</pdfrwt>
<totfact> 0.33031848E+01</totfact>
</mgrwt>
</event>
<event>
 8    1  0.3674342E-007  0.1417440E+03  0.7546771E-02  0.1211008E+00
          5   -1    0    0  501    0  0.00000000000E+00  0.00000000000E+00  0.52664245045E+02  0.52873553939E+02  0.47000000000E+01 0. -1.
         -5   -1    0    0    0  501 -0.00000000000E+00 -0.00000000000E+00 -0.39344596554E+03  0.39347403700E+03  0.47000000000E+01 0. -1.
         25    2    1    2    0    0  0.65907671053E+02  0.10825089345E+02 -0.21092421910E+03  0.25412671659E+03  0.12502143104E+03 0.  0.
         25    2    1    2    0    0 -0.65907671053E+02 -0.10825089345E+02 -0.12985750139E+03  0.19222087435E+03  0.12499956082E+03 0.  0.
          5    1    4    4  502    0  0.29962439832E+01  0.35895643567E+02  0.18108028787E+01  0.36370918495E+02  0.47000000000E+01 0.  1.
         -5    1    4    4    0  502 -0.68903915036E+02 -0.46720732912E+02 -0.13166830427E+03  0.15584995586E+03  0.47000000000E+01 0.  1.
          5    1    3    3  503    0  0.57920293027E+02 -0.56115099954E+01 -0.22379582537E+03  0.23128534506E+03  0.47000000000E+01 0. -1.
         -5    1    3    3    0  503  0.79873780262E+01  0.16436599340E+02  0.12871606265E+02  0.22841371532E+02  0.47000000000E+01 0. -1.
<mgrwt>
<rscale>  0 0.14173918E+03</rscale>
<asrwt>0</asrwt>
<pdfrwt beam="1">  1        5 0.81204518E-02 0.14174400E+03</pdfrwt>
<pdfrwt beam="2">  1       -5 0.60548407E-01 0.14174400E+03</pdfrwt>
<totfact> 0.21222796E+02</totfact>
</mgrwt>
</event>
<event>
 8    1  0.3674342E-007  0.1491393E+03  0.7546771E-02  0.1201551E+00
         -5   -1    0    0    0  501 -0.00000000000E+00  0.00000000000E+00  0.31274279104E+03  0.31277810561E+03  0.47000000000E+01 0. -1.
          5   -1    0    0  501    0  0.00000000000E+00 -0.00000000000E+00 -0.10434229605E+03  0.10444809594E+03  0.47000000000E+01 0. -1.
         25    2    1    2    0    0  0.27036576451E+01  0.81208824713E+02  0.22205751192E+03  0.26746292011E+03  0.12499876823E+03 0.  0.
         25    2    1    2    0    0 -0.27036576451E+01 -0.81208824713E+02 -0.13657016933E+02  0.14976328144E+03  0.12506135846E+03 0.  0.
          5    1    4    4  502    0 -0.50271743947E+02 -0.87158881917E+02 -0.52301170827E+01  0.10086309068E+03  0.47000000000E+01 0. -1.
         -5    1    4    4    0  502  0.47568086302E+02  0.59500572037E+01 -0.84268998504E+01  0.48900190759E+02  0.47000000000E+01 0. -1.
          5    1    3    3  503    0  0.50147456611E+02  0.86556265008E+02  0.13537775937E+03  0.16839234587E+03  0.47000000000E+01 0.  1.
         -5    1    3    3    0  503 -0.47443798966E+02 -0.53474402951E+01  0.86679752552E+02  0.99070574241E+02  0.47000000000E+01 0.  1.
<mgrwt>
<rscale>  0 0.14912616E+03</rscale>
<asrwt>0</asrwt>
<pdfrwt beam="2">  1        5 0.16063516E-01 0.14913929E+03</pdfrwt>
<pdfrwt beam="1">  1       -5 0.48125130E-01 0.14913929E+03</pdfrwt>
<totfact> 0.10582345E+02</totfact>
</mgrwt>
</event>
<event>
 8    1  0.3674342E-007  0.1351632E+03  0.7546771E-02  0.1219991E+00
          5   -1    0    0  501    0  0.00000000000E+00  0.00000000000E+00  0.55785605547E+03  0.55787585414E+03  0.47000000000E+01 0. -1.
         -5   -1    0    0    0  501 -0.00000000000E+00 -0.00000000000E+00 -0.39264261666E+02  0.39544560235E+02  0.47000000000E+01 0. -1.
         25    2    1    2    0    0 -0.49620212377E+02  0.13506329353E+02  0.13637027604E+03  0.19200504357E+03  0.12499799263E+03 0.  0.
         25    2    1    2    0    0  0.49620212377E+02 -0.13506329353E+02  0.38222151777E+03  0.40541537080E+03  0.12499499121E+03 0.  0.
          5    1    4    4  502    0  0.57973451670E+02 -0.14873160143E+02  0.38899437467E+03  0.39359985457E+03  0.47000000000E+01 0. -1.
         -5    1    4    4    0  502 -0.83532392927E+01  0.13668307897E+01 -0.67728569064E+01  0.11815516229E+02  0.47000000000E+01 0. -1.
          5    1    3    3  503    0  0.25404657415E+02 -0.14191536954E+02 -0.46269513941E+01  0.29837811895E+02  0.47000000000E+01 0. -1.
         -5    1    3    3    0  503 -0.75024869792E+02  0.27697866307E+02  0.14099722744E+03  0.16216723168E+03  0.47000000000E+01 0. -1.
<mgrwt>
<rscale>  0 0.13516248E+03</rscale>
<asrwt>0</asrwt>
<pdfrwt beam="1">  1        5 0.85847086E-01 0.13516318E+03</pdfrwt>
<pdfrwt beam="2">  1       -5 0.60637405E-02 0.13516318E+03</pdfrwt>
<totfact> 0.15548881E+02</totfact>
</mgrwt>
</event>
<event>
 8    1  0.3674342E-007  0.1265137E+03  0.7546771E-02  0.1232727E+00
          5   -1    0    0  501    0  0.00000000000E+00  0.00000000000E+00  0.30839836835E+03  0.30843418034E+03  0.47000000000E+01 0.  1.
         -5   -1    0    0    0  501 -0.00000000000E+00 -0.00000000000E+00 -0.64969610426E+02  0.65139391146E+02  0.47000000000E+01 0.  1.
         25    2    1    2    0    0  0.19476704454E+02 -0.11135435162E+01  0.37599648592E+02  0.13197193571E+03  0.12498910451E+03 0.  0.
         25    2    1    2    0    0 -0.19476704454E+02  0.11135435162E+01  0.20582910933E+03  0.24160163577E+03  0.12500058465E+03 0.  0.
          5    1    4    4  502    0 -0.24610019733E+02 -0.47480491852E+02  0.35553287339E+02  0.64390810046E+02  0.47000000000E+01 0. -1.
         -5    1    4    4    0  502  0.51333152790E+01  0.48594035368E+02  0.17027582199E+03  0.17721082572E+03  0.47000000000E+01 0. -1.
          5    1    3    3  503    0  0.37836882032E+01 -0.61722892838E+02  0.79026024437E+01  0.62518580615E+02  0.47000000000E+01 0.  1.
         -5    1    3    3    0  503  0.15693016251E+02  0.60609349322E+02  0.29697046148E+02  0.69453355097E+02  0.47000000000E+01 0.  1.
<mgrwt>
<rscale>  0 0.12651091E+03</rscale>
<asrwt>0</asrwt>
<pdfrwt beam="1">  1        5 0.47461717E-01 0.12651375E+03</pdfrwt>
<pdfrwt beam="2">  1       -5 0.10011140E-01 0.12651375E+03</pdfrwt>
<totfact> 0.23949088E+02</totfact>
</mgrwt>
</event>
<event>
 8    1  0.3674342E-007  0.1396152E+03  0.7546771E-02  0.1213848E+00
          5   -1    0    0  501    0  0.00000000000E+00  0.00000000000E+00  0.22780852312E+02  0.23260636966E+02  0.47000000000E+01 0. -1.
         -5   -1    0    0    0  501 -0.00000000000E+00 -0.00000000000E+00 -0.85273131938E+03  0.85274427178E+03  0.47000000000E+01 0. -1.
         25    2    1    2    0    0 -0.13334309277E+02 -0.60737335295E+02 -0.45319145498E+03  0.47420976821E+03  0.12500232675E+03 0.  0.
         25    2    1    2    0    0  0.13334309277E+02  0.60737335295E+02 -0.37675901209E+03  0.40179514054E+03  0.12500061627E+03 0.  0.
          5    1    4    4  502    0  0.45920945313E+02  0.85319097825E+02 -0.23592377405E+03  0.25508860977E+03  0.47000000000E+01 0. -1.
         -5    1    4    4    0  502 -0.32586636036E+02 -0.24581762531E+02 -0.14083523804E+03  0.14670653077E+03  0.47000000000E+01 0. -1.
          5    1    3    3  503    0  0.55438891919E+02 -0.18451110374E+02 -0.20052229439E+03  0.20891432397E+03  0.47000000000E+01 0. -1.
         -5    1    3    3    0  503 -0.68773201196E+02 -0.42286224921E+02 -0.25266916059E+03  0.26529544424E+03  0.47000000000E+01 0. -1.
<mgrwt>
<rscale>  0 0.13961484E+03</rscale>
<asrwt>0</asrwt>
<pdfrwt beam="1">  1        5 0.35426500E-02 0.13961522E+03</pdfrwt>
<pdfrwt beam="2">  1       -5 0.13122731E+00 0.13961522E+03</pdfrwt>
<totfact> 0.13393195E+02</totfact>
</mgrwt>
</event>
<event>
 8    1  0.3674342E-007  0.1689557E+03  0.7546771E-02  0.1178941E+00
         -5   -1    0    0    0  501 -0.00000000000E+00  0.00000000000E+00  0.47299110289E+02  0.47532050599E+02  0.47000000000E+01 0.  1.
          5   -1    0    0  501    0  0.00000000000E+00 -0.00000000000E+00 -0.63528712073E+03  0.63530450634E+03  0.47000000000E+01 0.  1.
         25    2    1    2    0    0  0.58339059253E+02 -0.97557360494E+02 -0.21561858340E+03  0.27392955691E+03  0.12500057690E+03 0.  0.
         25    2    1    2    0    0 -0.58339059253E+02  0.97557360494E+02 -0.37236942705E+03  0.40890700002E+03  0.12500024017E+03 0.  0.
          5    1    3    3  502    0  0.46967116631E+02 -0.11139887305E+02 -0.16724042479E+03  0.17413057404E+03  0.47000000000E+01 0.  1.
         -5    1    3    3    0  502  0.11371942621E+02 -0.86417473190E+02 -0.48378158607E+02  0.99798982869E+02  0.47000000000E+01 0.  1.
          5    1    4    4  503    0 -0.83600527315E+02  0.69453753421E+02 -0.34571002882E+03  0.36242293809E+03  0.47000000000E+01 0. -1.
         -5    1    4    4    0  503  0.25261468062E+02  0.28103607074E+02 -0.26659398234E+02  0.46484061929E+02  0.47000000000E+01 0. -1.
<mgrwt>
<rscale>  0 0.16895564E+03</rscale>
<asrwt>0</asrwt>
<pdfrwt beam="2">  1        5 0.97755730E-01 0.16895570E+03</pdfrwt>
<pdfrwt beam="1">  1       -5 0.72960425E-02 0.16895570E+03</pdfrwt>
<totfact> 0.89335350E+01</totfact>
</mgrwt>
</event>
<event>
 8    1  0.3674342E-007  0.1282453E+03  0.7546771E-02  0.1230086E+00
         -5   -1    0    0    0  501 -0.00000000000E+00  0.00000000000E+00  0.19930094658E+03  0.19935635758E+03  0.47000000000E+01 0.  1.
          5   -1    0    0  501    0  0.00000000000E+00 -0.00000000000E+00 -0.89464092115E+02  0.89587464402E+02  0.47000000000E+01 0.  1.
         25    2    1    2    0    0 -0.12949952620E+02  0.25493976999E+02  0.95524261976E+02  0.15991168858E+03  0.12501687639E+03 0.  0.
         25    2    1    2    0    0  0.12949952620E+02 -0.25493976999E+02  0.14312592490E+02  0.12903213340E+03  0.12500718783E+03 0.  0.
          5    1    3    3  502    0 -0.63066792755E+02 -0.42157619680E+01  0.24558149229E+02  0.67973419003E+02  0.47000000000E+01 0.  1.
         -5    1    3    3    0  502  0.50116840135E+02  0.29709738967E+02  0.70966112747E+02  0.91938269578E+02  0.47000000000E+01 0.  1.
          5    1    4    4  503    0  0.11059090200E+02  0.31157090258E+01 -0.53677429007E+02  0.55094169416E+02  0.47000000000E+01 0.  1.
         -5    1    4    4    0  503  0.18908624202E+01 -0.28609686025E+02  0.67990021498E+02  0.73937963986E+02  0.47000000000E+01 0.  1.
<mgrwt>
<rscale>  0 0.12824296E+03</rscale>
<asrwt>0</asrwt>
<pdfrwt beam="2">  1        5 0.13777459E-01 0.12824533E+03</pdfrwt>
<pdfrwt beam="1">  1       -5 0.30675436E-01 0.12824533E+03</pdfrwt>
<totfact> 0.33186395E+02</totfact>
</mgrwt>
</event>
<event>
 8    1  0.3674342E-007  0.1527677E+03  0.7546771E-02  0.1197119E+00
         -5   -1    0    0    0  501 -0.00000000000E+00  0.00000000000E+00  0.83435218768E+02  0.83567492070E+02  0.47000000000E+01 0.  1.
          5   -1    0    0  501    0  0.00000000000E+00 -0.00000000000E+00 -0.27961430425E+03  0.27965380230E+03  0.47000000000E+01 0.  1.
         25    2    1    2    0    0 -0.84241009740E+02 -0.24709471512E+02 -0.92027958516E+02  0.17834549189E+03  0.12502345230E+03 0.  0.
         25    2    1    2    0    0  0.84241009740E+02  0.24709471512E+02 -0.10415112697E+03  0.18487580248E+03  0.12499799755E+03 0.  0.
          5    1    4    4  502    0  0.62172343135E+02  0.44591323686E+02 -0.12615126676E+03  0.14761442513E+03  0.47000000000E+01 0. -1.
         -5    1    4    4    0  502  0.22068666605E+02 -0.19881852173E+02  0.22000139795E+02  0.37261377357E+02  0.47000000000E+01 0. -1.
          5    1    3    3  503    0 -0.32091661243E+02 -0.54296448469E+02  0.57977165664E+01  0.63511278959E+02  0.47000000000E+01 0.  1.
         -5    1    3    3    0  503 -0.52149348497E+02  0.29586976956E+02 -0.97825675082E+02  0.11483421293E+03  0.47000000000E+01 0.  1.
<mgrwt>
<rscale>  0 0.15276249E+03</rscale>
<asrwt>0</asrwt>
<pdfrwt beam="2">  1        5 0.43030798E-01 0.15276770E+03</pdfrwt>
<pdfrwt beam="1">  1       -5 0.12849401E-01 0.15276770E+03</pdfrwt>
<totfact> 0.20167444E+02</totfact>
</mgrwt>
</event>
<event>
 8    1  0.3674342E-007  0.1438914E+03  0.7546771E-02  0.1208194E+00
         -5   -1    0    0    0  501 -0.00000000000E+00  0.00000000000E+00  0.40831597267E+03  0.40834302190E+03  0.47000000000E+01 0.  1.
          5   -1    0    0  501    0  0.00000000000E+00 -0.00000000000E+00 -0.56133387166E+02  0.56329806983E+02  0.47000000000E+01 0.  1.
         25    2    1    2    0    0  0.69236685136E+02  0.16955186014E+02  0.24914383106E+03  0.28771057418E+03  0.12499411601E+03 0.  0.
         25    2    1    2    0    0 -0.69236685136E+02 -0.16955186014E+02  0.10303875444E+03  0.17696225471E+03  0.12496982745E+03 0.  0.
          5    1    3    3  502    0 -0.25418166862E+02 -0.12493934546E+02  0.12912992567E+02  0.31480422235E+02  0.47000000000E+01 0. -1.
         -5    1    3    3    0  502  0.94654851998E+02  0.29449120560E+02  0.23623083850E+03  0.25623015195E+03  0.47000000000E+01 0. -1.
          5    1    4    4  503    0  0.15360612594E+02  0.35558266434E+02  0.51891765413E+02  0.64924448776E+02  0.47000000000E+01 0.  1.
         -5    1    4    4    0  503 -0.84597297730E+02 -0.52513452448E+02  0.51146989027E+02  0.11203780593E+03  0.47000000000E+01 0.  1.
<mgrwt>
<rscale>  0 0.14388609E+03</rscale>
<asrwt>0</asrwt>
<pdfrwt beam="2">  1        5 0.86530956E-02 0.14389137E+03</pdfrwt>
<pdfrwt beam="1">  1       -5 0.62835033E-01 0.14389137E+03</pdfrwt>
<totfact> 0.17620542E+02</totfact>
</mgrwt>
</event>
<event>
 8    1  0.3674342E-007  0.1379791E+03  0.7546771E-02  0.1216076E+00
          5   -1    0    0  501    0  0.00000000000E+00  0.00000000000E+00  0.41805526249E+03  0.41808168161E+03  0.47000000000E+01 0. -1.
         -5   -1    0    0    0  501 -0.00000000000E+00 -0.00000000000E+00 -0.63256387642E+02  0.63430754194E+02  0.47000000000E+01 0. -1.
         25    2    1    2    0    0  0.45568916204E+02  0.36557409290E+02  0.49685233743E+02  0.14665212136E+03  0.12500100779E+03 0.  0.
         25    2    1    2    0    0 -0.45568916204E+02 -0.36557409290E+02  0.30511364110E+03  0.33486031444E+03  0.12499650356E+03 0.  0.
          5    1    4    4  502    0 -0.81313454800E+02 -0.50381602006E+02  0.24865414252E+03  0.26646042172E+03  0.47000000000E+01 0. -1.
         -5    1    4    4    0  502  0.35744538596E+02  0.13824192715E+02  0.56459498582E+02  0.68399892717E+02  0.47000000000E+01 0. -1.
          5    1    3    3  503    0  0.42706120347E+02  0.79205161249E+02  0.14875052014E+02  0.91327035734E+02  0.47000000000E+01 0. -1.
         -5    1    3    3    0  503  0.28627958571E+01 -0.42647751959E+02  0.34810181729E+02  0.55325085624E+02  0.47000000000E+01 0. -1.
<mgrwt>
<rscale>  0 0.13797804E+03</rscale>
<asrwt>0</asrwt>
<pdfrwt beam="1">  1        5 0.64331641E-01 0.13797906E+03</pdfrwt>
<pdfrwt beam="2">  1       -5 0.97471968E-02 0.13797906E+03</pdfrwt>
<totfact> 0.13420890E+02</totfact>
</mgrwt>
</event>
<event>
 8    1  0.3674342E-007  0.1293123E+03  0.7546771E-02  0.1228481E+00
          5   -1    0    0  501    0  0.00000000000E+00  0.00000000000E+00  0.11988770253E+03  0.11997979504E+03  0.47000000000E+01 0.  1.
         -5   -1    0    0    0  501 -0.00000000000E+00 -0.00000000000E+00 -0.14765129681E+03  0.14772608249E+03  0.47000000000E+01 0.  1.
         25    2    1    2    0    0  0.69584095738E+00  0.33081646781E+02 -0.45718702693E+02  0.13715635946E+03  0.12500715026E+03 0.  0.
         25    2    1    2    0    0 -0.69584095738E+00 -0.33081646781E+02  0.17955108421E+02  0.13054951808E+03  0.12500364476E+03 0.  0.
          5    1    3    3  502    0 -0.86757176895E+01  0.69978163095E+02 -0.63380475663E+02  0.94928320763E+02  0.47000000000E+01 0.  1.
         -5    1    3    3    0  502  0.93715586468E+01 -0.36896516313E+02  0.17661772970E+02  0.42228038694E+02  0.47000000000E+01 0.  1.
          5    1    4    4  503    0 -0.39508303192E+02 -0.13766657407E+02 -0.39964909721E+02  0.58049210902E+02  0.47000000000E+01 0. -1.
         -5    1    4    4    0  503  0.38812462235E+02 -0.19314989374E+02  0.57920018142E+02  0.72500307177E+02  0.47000000000E+01 0. -1.
<mgrwt>
<rscale>  0 0.12931144E+03</rscale>
<asrwt>0</asrwt>
<pdfrwt beam="1">  1        5 0.18457099E-01 0.12931229E+03</pdfrwt>
<pdfrwt beam="2">  1       -5 0.22728421E-01 0.12931229E+03</pdfrwt>
<totfact> 0.34852580E+02</totfact>
</mgrwt>
</event>
<event>
 8    1  0.3674342E-007  0.1757587E+03  0.7546771E-02  0.1171973E+00
         -5   -1    0    0    0  501 -0.00000000000E+00  0.00000000000E+00  0.46278173579E+03  0.46280560172E+03  0.47000000000E+01 0.  1.
          5   -1    0    0  501    0  0.00000000000E+00 -0.00000000000E+00 -0.74823712226E+02  0.74971180538E+02  0.47000000000E+01 0.  1.
         25    2    1    2    0    0  0.35730856684E+02  0.11827599865E+03  0.28278696445E+03  0.33295470309E+03  0.12499784426E+03 0.  0.
         25    2    1    2    0    0 -0.35730856684E+02 -0.11827599865E+03  0.10517105911E+03  0.20482207917E+03  0.12500090585E+03 0.  0.
          5    1    3    3  502    0 -0.15880157096E+02  0.69544187529E+02  0.44341739943E+02  0.84124035267E+02  0.47000000000E+01 0.  1.
         -5    1    3    3    0  502  0.51611013780E+02  0.48731811121E+02  0.23844522451E+03  0.24883066782E+03  0.47000000000E+01 0.  1.
          5    1    4    4  503    0 -0.37309017408E+02  0.11777152619E+02  0.49495644040E+02  0.63265890357E+02  0.47000000000E+01 0.  1.
         -5    1    4    4    0  503  0.15781607241E+01 -0.13005315127E+03  0.55675415073E+02  0.14155618881E+03  0.47000000000E+01 0.  1.
<mgrwt>
<rscale>  0 0.17575819E+03</rscale>
<asrwt>0</asrwt>
<pdfrwt beam="2">  1        5 0.11524520E-01 0.17575873E+03</pdfrwt>
<pdfrwt beam="1">  1       -5 0.71210369E-01 0.17575873E+03</pdfrwt>
<totfact> 0.85768153E+01</totfact>
</mgrwt>
</event>
<event>
 8    1  0.3674342E-007  0.1304572E+03  0.7546771E-02  0.1226783E+00
         -5   -1    0    0    0  501 -0.00000000000E+00  0.00000000000E+00  0.15608572219E+03  0.15615646856E+03  0.47000000000E+01 0. -1.
          5   -1    0    0  501    0  0.00000000000E+00 -0.00000000000E+00 -0.12492729602E+03  0.12501567618E+03  0.47000000000E+01 0. -1.
         25    2    1    2    0    0  0.11112615678E+01  0.37299772410E+02  0.65929458234E+02  0.14616066869E+03  0.12499495864E+03 0.  0.
         25    2    1    2    0    0 -0.11112615678E+01 -0.37299772410E+02 -0.34771032058E+02  0.13501147605E+03  0.12500626412E+03 0.  0.
          5    1    4    4  502    0 -0.11792356158E+02 -0.62775755931E+02  0.25193009646E+02  0.68823200532E+02  0.47000000000E+01 0. -1.
         -5    1    4    4    0  502  0.10681094590E+02  0.25475983520E+02 -0.59964041705E+02  0.66188275514E+02  0.47000000000E+01 0. -1.
          5    1    3    3  503    0 -0.26809428192E+02  0.61233683504E+02 -0.38743296925E+01  0.67122349974E+02  0.47000000000E+01 0.  1.
         -5    1    3    3    0  503  0.27920689760E+02 -0.23933911094E+02  0.69803787927E+02  0.79038318719E+02  0.47000000000E+01 0.  1.
<mgrwt>
<rscale>  0 0.13045446E+03</rscale>
<asrwt>0</asrwt>
<pdfrwt beam="2">  1        5 0.19231825E-01 0.13045717E+03</pdfrwt>
<pdfrwt beam="1">  1       -5 0.24025429E-01 0.13045717E+03</pdfrwt>
<totfact> 0.29161705E+02</totfact>
</mgrwt>
</event>
<event>
 8    1  0.3674342E-007  0.1271039E+03  0.7546771E-02  0.1231824E+00
         -5   -1    0    0    0  501 -0.00000000000E+00  0.00000000000E+00  0.74875813339E+02  0.75023179239E+02  0.47000000000E+01 0.  1.
          5   -1    0    0  501    0  0.00000000000E+00 -0.00000000000E+00 -0.21704995972E+03  0.21710084066E+03  0.47000000000E+01 0.  1.
         25    2    1    2    0    0  0.22982433264E+02 -0.51027581499E+00 -0.58156913548E+02  0.13977709785E+03  0.12500783123E+03 0.  0.
         25    2    1    2    0    0 -0.22982433264E+02  0.51027581499E+00 -0.84017232836E+02  0.15234692205E+03  0.12498894601E+03 0.  0.
          5    1    4    4  502    0  0.50187907129E+02  0.14193470014E+02 -0.31270518172E+02  0.60993572774E+02  0.47000000000E+01 0.  1.
         -5    1    4    4    0  502 -0.73170340393E+02 -0.13683194199E+02 -0.52746714664E+02  0.91353349279E+02  0.47000000000E+01 0.  1.
          5    1    3    3  503    0  0.70349583602E+02 -0.23374870785E+02 -0.32854025352E+02  0.81221459473E+02  0.47000000000E+01 0.  1.
         -5    1    3    3    0  503 -0.47367150338E+02  0.22864594970E+02 -0.25302888197E+02  0.58555638374E+02  0.47000000000E+01 0.  1.
<mgrwt>
<rscale>  0 0.12709929E+03</rscale>
<asrwt>0</asrwt>
<pdfrwt beam="2">  1        5 0.33407551E-01 0.12710394E+03</pdfrwt>
<pdfrwt beam="1">  1       -5 0.11534606E-01 0.12710394E+03</pdfrwt>
<totfact> 0.38325188E+02</totfact>
</mgrwt>
</event>
<event>
 8    1  0.3674342E-007  0.1259767E+03  0.7546771E-02  0.1233552E+00
          5   -1    0    0  501    0  0.00000000000E+00  0.00000000000E+00  0.78540685964E+02  0.78681188042E+02  0.47000000000E+01 0. -1.
         -5   -1    0    0    0  501 -0.00000000000E+00 -0.00000000000E+00 -0.20389769364E+03  0.20395185577E+03  0.47000000000E+01 0. -1.
         25    2    1    2    0    0  0.49771195885E+01  0.14834235522E+02 -0.77316363404E+02  0.14780709361E+03  0.12499716240E+03 0.  0.
         25    2    1    2    0    0 -0.49771195885E+01 -0.14834235522E+02 -0.48040644272E+02  0.13482595020E+03  0.12500122832E+03 0.  0.
          5    1    4    4  502    0 -0.59407418677E+02 -0.97247812126E+01  0.22100473703E+01  0.60421743378E+02  0.47000000000E+01 0. -1.
         -5    1    4    4    0  502  0.54430299088E+02 -0.51094543090E+01 -0.50250691642E+02  0.74404206821E+02  0.47000000000E+01 0. -1.
          5    1    3    3  503    0 -0.47043441214E+02 -0.29792299406E+02 -0.45661517401E+02  0.72164607922E+02  0.47000000000E+01 0.  1.
         -5    1    3    3    0  503  0.52020560803E+02  0.44626534928E+02 -0.31654846003E+02  0.75642485690E+02  0.47000000000E+01 0.  1.
<mgrwt>
<rscale>  0 0.12597571E+03</rscale>
<asrwt>0</asrwt>
<pdfrwt beam="1">  1        5 0.12098157E-01 0.12597672E+03</pdfrwt>
<pdfrwt beam="2">  1       -5 0.31383850E-01 0.12597672E+03</pdfrwt>
<totfact> 0.39734413E+02</totfact>
</mgrwt>
</event>
<event>
 8    1  0.3674342E-007  0.1567483E+03  0.7546771E-02  0.1192421E+00
         -5   -1    0    0    0  501 -0.00000000000E+00  0.00000000000E+00  0.50273527618E+03  0.50275724551E+03  0.47000000000E+01 0. -1.
          5   -1    0    0  501    0  0.00000000000E+00 -0.00000000000E+00 -0.72335958346E+02  0.72488487844E+02  0.47000000000E+01 0. -1.
         25    2    1    2    0    0 -0.62554088094E+02  0.70917129220E+02  0.37925229578E+03  0.41036377143E+03  0.12499547150E+03 0.  0.
         25    2    1    2    0    0  0.62554088094E+02 -0.70917129220E+02  0.51147022054E+02  0.16488196192E+03  0.12501116090E+03 0.  0.
          5    1    3    3  502    0 -0.12223536460E+01  0.88283050786E+02  0.17073525413E+03  0.19227066393E+03  0.47000000000E+01 0.  1.
         -5    1    3    3    0  502 -0.61331734448E+02 -0.17365921566E+02  0.20851704165E+03  0.21809310751E+03  0.47000000000E+01 0.  1.
          5    1    4    4  503    0  0.26070656907E+02  0.30855791291E+02  0.38373479733E+02  0.55913978168E+02  0.47000000000E+01 0. -1.
         -5    1    4    4    0  503  0.36483431187E+02 -0.10177292051E+03  0.12773542321E+02  0.10896798376E+03  0.47000000000E+01 0. -1.
<mgrwt>
<rscale>  0 0.15674522E+03</rscale>
<asrwt>0</asrwt>
<pdfrwt beam="2">  1        5 0.11142032E-01 0.15674834E+03</pdfrwt>
<pdfrwt beam="1">  1       -5 0.77357309E-01 0.15674834E+03</pdfrwt>
<totfact> 0.72864221E+01</totfact>
</mgrwt>
</event>
<event>
 8    1  0.3674342E-007  0.1638070E+03  0.7546771E-02  0.1184465E+00
         -5   -1    0    0    0  501 -0.00000000000E+00  0.00000000000E+00  0.46744644957E+03  0.46747007735E+03  0.47000000000E+01 0. -1.
          5   -1    0    0  501    0  0.00000000000E+00 -0.00000000000E+00 -0.58207642996E+02  0.58397086427E+02  0.47000000000E+01 0. -1.
         25    2    1    2    0    0  0.86724461307E+02  0.60716986547E+02  0.23774252916E+03  0.28870962440E+03  0.12499620956E+03 0.  0.
         25    2    1    2    0    0 -0.86724461307E+02 -0.60716986547E+02  0.17149627741E+03  0.23715753937E+03  0.12500016269E+03 0.  0.
          5    1    3    3  502    0 -0.20099716306E+02  0.52671963140E+02  0.81444328748E+02  0.99164524815E+02  0.47000000000E+01 0. -1.
         -5    1    3    3    0  502  0.10682417761E+03  0.80450234077E+01  0.15629820042E+03  0.18954509959E+03  0.47000000000E+01 0. -1.
          5    1    4    4  503    0 -0.90051346841E+02  0.11803971605E+02  0.99671854928E+02  0.13492645211E+03  0.47000000000E+01 0. -1.
         -5    1    4    4    0  503  0.33268855334E+01 -0.72520958153E+02  0.71824422483E+02  0.10223108727E+03  0.47000000000E+01 0. -1.
<mgrwt>
<rscale>  0 0.16380622E+03</rscale>
<asrwt>0</asrwt>
<pdfrwt beam="2">  1        5 0.89714120E-02 0.16380698E+03</pdfrwt>
<pdfrwt beam="1">  1       -5 0.71931229E-01 0.16380698E+03</pdfrwt>
<totfact> 0.12741734E+02</totfact>
</mgrwt>
</event>
<event>
 8    1  0.3674342E-007  0.1309895E+03  0.7546771E-02  0.1225996E+00
         -5   -1    0    0    0  501 -0.00000000000E+00  0.00000000000E+00  0.32706539177E+02  0.33042513599E+02  0.47000000000E+01 0.  1.
          5   -1    0    0  501    0  0.00000000000E+00 -0.00000000000E+00 -0.55349443061E+03  0.55351438528E+03  0.47000000000E+01 0.  1.
         25    2    1    2    0    0  0.27189079770E+02  0.28173349858E+02 -0.18999209072E+03  0.23077099114E+03  0.12500108847E+03 0.  0.
         25    2    1    2    0    0 -0.27189079770E+02 -0.28173349858E+02 -0.33079580072E+03  0.35578590774E+03  0.12499906669E+03 0.  0.
          5    1    3    3  502    0  0.56809305440E+02  0.61297146971E+02 -0.14456942358E+03  0.16705402014E+03  0.47000000000E+01 0. -1.
         -5    1    3    3    0  502 -0.29620225670E+02 -0.33123797112E+02 -0.45422667138E+02  0.63716971003E+02  0.47000000000E+01 0. -1.
          5    1    4    4  503    0  0.23943845337E+02  0.23247366859E+02 -0.26330022510E+02  0.42768070809E+02  0.47000000000E+01 0.  1.
         -5    1    4    4    0  503 -0.51132925107E+02 -0.51420716717E+02 -0.30446577821E+03  0.31301783693E+03  0.47000000000E+01 0.  1.
<mgrwt>
<rscale>  0 0.13098904E+03</rscale>
<asrwt>0</asrwt>
<pdfrwt beam="2">  1        5 0.85180362E-01 0.13098953E+03</pdfrwt>
<pdfrwt beam="1">  1       -5 0.50591548E-02 0.13098953E+03</pdfrwt>
<totfact> 0.21205402E+02</totfact>
</mgrwt>
</event>
<event>
 8    1  0.3674342E-007  0.1294926E+03  0.7546771E-02  0.1228221E+00
          5   -1    0    0  501    0  0.00000000000E+00  0.00000000000E+00  0.11526955348E+02  0.12448321156E+02  0.47000000000E+01 0. -1.
         -5   -1    0    0    0  501 -0.00000000000E+00 -0.00000000000E+00 -0.14354752524E+04  0.14354829467E+04  0.47000000000E+01 0. -1.
         25    2    1    2    0    0  0.21542865218E+02 -0.26044206700E+02 -0.82951026281E+03  0.83955234430E+03  0.12497386512E+03 0.  0.
         25    2    1    2    0    0 -0.21542865218E+02  0.26044206700E+02 -0.59443803423E+03  0.60837892354E+03  0.12500376925E+03 0.  0.
          5    1    3    3  502    0 -0.44776908462E+02  0.63921724852E+01 -0.17260555529E+03  0.17849537562E+03  0.47000000000E+01 0.  1.
         -5    1    3    3    0  502  0.66319773680E+02 -0.32436379185E+02 -0.65690470752E+03  0.66105696868E+03  0.47000000000E+01 0.  1.
          5    1    4    4  503    0  0.28550998657E+01  0.18751938281E+02 -0.75963181280E+01  0.20966183097E+02  0.47000000000E+01 0.  1.
         -5    1    4    4    0  503 -0.24397965083E+02  0.72922684186E+01 -0.58684171610E+03  0.58741274044E+03  0.47000000000E+01 0.  1.
<mgrwt>
<rscale>  0 0.12948540E+03</rscale>
<asrwt>0</asrwt>
<pdfrwt beam="1">  1        5 0.18448450E-02 0.12949262E+03</pdfrwt>
<pdfrwt beam="2">  1       -5 0.22091368E+00 0.12949262E+03</pdfrwt>
<totfact> 0.82312195E+01</totfact>
</mgrwt>
</event>
<event>
 8    1  0.3674342E-007  0.1292532E+03  0.7546771E-02  0.1228573E+00
          5   -1    0    0  501    0  0.00000000000E+00  0.00000000000E+00  0.35148299072E+03  0.35151441331E+03  0.47000000000E+01 0. -1.
         -5   -1    0    0    0  501 -0.00000000000E+00 -0.00000000000E+00 -0.62950968525E+02  0.63126178708E+02  0.47000000000E+01 0. -1.
         25    2    1    2    0    0 -0.18802706832E+02 -0.26969852299E+02  0.41343109233E+02  0.13570421923E+03  0.12500187086E+03 0.  0.
         25    2    1    2    0    0  0.18802706832E+02  0.26969852299E+02  0.24718891296E+03  0.27893637279E+03  0.12498890613E+03 0.  0.
          5    1    4    4  502    0 -0.48156849498E+02 -0.13305580339E+02  0.81964218935E+02  0.96105898920E+02  0.47000000000E+01 0.  1.
         -5    1    4    4    0  502  0.66959556330E+02  0.40275432638E+02  0.16522469403E+03  0.18283047387E+03  0.47000000000E+01 0.  1.
          5    1    3    3  503    0 -0.35099114974E+02 -0.12116584427E+02 -0.37930156814E+02  0.53287393313E+02  0.47000000000E+01 0. -1.
         -5    1    3    3    0  503  0.16296408142E+02 -0.14853267871E+02  0.79273266047E+02  0.82416825919E+02  0.47000000000E+01 0. -1.
<mgrwt>
<rscale>  0 0.12925004E+03</rscale>
<asrwt>0</asrwt>
<pdfrwt beam="1">  1        5 0.54090201E-01 0.12925317E+03</pdfrwt>
<pdfrwt beam="2">  1       -5 0.97006593E-02 0.12925317E+03</pdfrwt>
<totfact> 0.19319771E+02</totfact>
</mgrwt>
</event>
<event>
 8    1  0.3674342E-007  0.1423826E+03  0.7546771E-02  0.1210168E+00
          5   -1    0    0  501    0  0.00000000000E+00  0.00000000000E+00  0.60316669960E+03  0.60318501101E+03  0.47000000000E+01 0. -1.
         -5   -1    0    0    0  501 -0.00000000000E+00 -0.00000000000E+00 -0.51976510188E+02  0.52188577402E+02  0.47000000000E+01 0. -1.
         25    2    1    2    0    0  0.46972791677E+02  0.49414674952E+02  0.80323577576E+02  0.16345065534E+03  0.12496394023E+03 0.  0.
         25    2    1    2    0    0 -0.46972791677E+02 -0.49414674952E+02  0.47086661184E+03  0.49192293308E+03  0.12499821072E+03 0.  0.
          5    1    3    3  502    0  0.28004504871E+02 -0.25973042026E+02 -0.14161785759E+02  0.41006065174E+02  0.47000000000E+01 0.  1.
         -5    1    3    3    0  502  0.18968286807E+02  0.75387716979E+02  0.94485363335E+02  0.12244459016E+03  0.47000000000E+01 0.  1.
          5    1    4    4  503    0 -0.64320196568E+02 -0.35330188468E+02  0.12298251515E+03  0.14329026114E+03  0.47000000000E+01 0.  1.
         -5    1    4    4    0  503  0.17347404891E+02 -0.14084486485E+02  0.34788409669E+03  0.34863267194E+03  0.47000000000E+01 0.  1.
<mgrwt>
<rscale>  0 0.14237508E+03</rscale>
<asrwt>0</asrwt>
<pdfrwt beam="1">  1        5 0.92812598E-01 0.14238260E+03</pdfrwt>
<pdfrwt beam="2">  1       -5 0.80141076E-02 0.14238260E+03</pdfrwt>
<totfact> 0.81850242E+01</totfact>
</mgrwt>
</event>
<event>
 8    1  0.3674342E-007  0.1443089E+03  0.7546771E-02  0.1207650E+00
          5   -1    0    0  501    0  0.00000000000E+00  0.00000000000E+00  0.47618786355E+02  0.47850170469E+02  0.47000000000E+01 0. -1.
         -5   -1    0    0    0  501 -0.00000000000E+00 -0.00000000000E+00 -0.45506741517E+03  0.45509168565E+03  0.47000000000E+01 0. -1.
         25    2    1    2    0    0  0.71636734223E+02 -0.82480665473E+01 -0.15225292594E+03  0.20977610978E+03  0.12500084194E+03 0.  0.
         25    2    1    2    0    0 -0.71636734223E+02  0.82480665473E+01 -0.25519570288E+03  0.29316574634E+03  0.12498582227E+03 0.  0.
          5    1    3    3  502    0 -0.69335884002E+01  0.88010486414E+01  0.17837600804E+02  0.21582472234E+02  0.47000000000E+01 0. -1.
         -5    1    3    3    0  502  0.78570322623E+02 -0.17049115189E+02 -0.17009052674E+03  0.18819363755E+03  0.47000000000E+01 0. -1.
          5    1    4    4  503    0  0.19861560950E+02 -0.35272289904E+02 -0.97409612606E+02  0.10559042886E+03  0.47000000000E+01 0. -1.
         -5    1    4    4    0  503 -0.91498295172E+02  0.43520356451E+02 -0.15778609027E+03  0.18757531748E+03  0.47000000000E+01 0. -1.
<mgrwt>
<rscale>  0 0.14430566E+03</rscale>
<asrwt>0</asrwt>
<pdfrwt beam="1">  1        5 0.73456332E-02 0.14430891E+03</pdfrwt>
<pdfrwt beam="2">  1       -5 0.70030034E-01 0.14430891E+03</pdfrwt>
<totfact> 0.18340400E+02</totfact>
</mgrwt>
</event>
<event>
 8    1  0.3674342E-007  0.1406781E+03  0.7546771E-02  0.1212420E+00
         -5   -1    0    0    0  501 -0.00000000000E+00  0.00000000000E+00  0.89792564800E+02  0.89915486393E+02  0.47000000000E+01 0. -1.
          5   -1    0    0  501    0  0.00000000000E+00 -0.00000000000E+00 -0.43690503238E+03  0.43693031174E+03  0.47000000000E+01 0. -1.
         25    2    1    2    0    0  0.43412239789E+02  0.47750882069E+02  0.11973975472E+02  0.14118677719E+03  0.12500224264E+03 0.  0.
         25    2    1    2    0    0 -0.43412239789E+02 -0.47750882069E+02 -0.35908644305E+03  0.38565902094E+03  0.12500015019E+03 0.  0.
          5    1    4    4  502    0 -0.56167445106E+01 -0.86217462010E+02 -0.21802495340E+03  0.23456762112E+03  0.47000000000E+01 0.  1.
         -5    1    4    4    0  502 -0.37795495279E+02  0.38466579941E+02 -0.14106148965E+03  0.15109139982E+03  0.47000000000E+01 0.  1.
          5    1    3    3  503    0  0.19132879332E+02  0.85079299787E+02  0.30814180775E+02  0.92607548615E+02  0.47000000000E+01 0.  1.
         -5    1    3    3    0  503  0.24279360457E+02 -0.37328417718E+02 -0.18840205302E+02  0.48579228579E+02  0.47000000000E+01 0.  1.
<mgrwt>
<rscale>  0 0.14067764E+03</rscale>
<asrwt>0</asrwt>
<pdfrwt beam="2">  1        5 0.67227557E-01 0.14067811E+03</pdfrwt>
<pdfrwt beam="1">  1       -5 0.13825641E-01 0.14067811E+03</pdfrwt>
<totfact> 0.65988596E+01</totfact>
</mgrwt>
</event>
<event>
 8    1  0.3674342E-007  0.1502523E+03  0.7546771E-02  0.1200180E+00
          5   -1    0    0  501    0  0.00000000000E+00  0.00000000000E+00  0.64445215392E+03  0.64446929228E+03  0.47000000000E+01 0.  1.
         -5   -1    0    0    0  501 -0.00000000000E+00 -0.00000000000E+00 -0.36213696781E+02  0.36517418235E+02  0.47000000000E+01 0.  1.
         25    2    1    2    0    0 -0.46090301894E+02  0.69353475790E+02  0.23822242855E+03  0.28164812560E+03  0.12506606517E+03 0.  0.
         25    2    1    2    0    0  0.46090301894E+02 -0.69353475790E+02  0.37001602860E+03  0.39933858492E+03  0.12500089381E+03 0.  0.
          5    1    3    3  502    0  0.12110818433E+01  0.69898891832E+02  0.46435432109E+02  0.84057487196E+02  0.47000000000E+01 0.  1.
         -5    1    3    3    0  502 -0.47301383738E+02 -0.54541604192E+00  0.19178699644E+03  0.19759063840E+03  0.47000000000E+01 0.  1.
          5    1    4    4  503    0 -0.35935655625E+02 -0.53656217855E+01  0.16926191393E+03  0.17318154275E+03  0.47000000000E+01 0.  1.
         -5    1    4    4    0  503  0.82025957519E+02 -0.63987854004E+02  0.20075411466E+03  0.22615704217E+03  0.47000000000E+01 0.  1.
<mgrwt>
<rscale>  0 0.15023870E+03</rscale>
<asrwt>0</asrwt>
<pdfrwt beam="1">  1        5 0.99171168E-01 0.15025226E+03</pdfrwt>
<pdfrwt beam="2">  1       -5 0.55960194E-02 0.15025226E+03</pdfrwt>
<totfact> 0.13043639E+02</totfact>
</mgrwt>
</event>
<event>
 8    1  0.3674342E-007  0.1376840E+03  0.7546771E-02  0.1216481E+00
         -5   -1    0    0    0  501 -0.00000000000E+00  0.00000000000E+00  0.15958387197E+02  0.16636108978E+02  0.47000000000E+01 0. -1.
          5   -1    0    0  501    0  0.00000000000E+00 -0.00000000000E+00 -0.12132965044E+04  0.12133056077E+04  0.47000000000E+01 0. -1.
         25    2    1    2    0    0  0.13509145674E+02  0.56101509364E+02 -0.47283659646E+03  0.49247352551E+03  0.12500339999E+03 0.  0.
         25    2    1    2    0    0 -0.13509145674E+02 -0.56101509364E+02 -0.72450152076E+03  0.73746819115E+03  0.12500801174E+03 0.  0.
          5    1    4    4  502    0  0.43063646970E+02 -0.29593546598E+02 -0.13810092797E+03  0.14773020001E+03  0.47000000000E+01 0.  1.
         -5    1    4    4    0  502 -0.56572792644E+02 -0.26507962766E+02 -0.58640059280E+03  0.58973799114E+03  0.47000000000E+01 0.  1.
          5    1    3    3  503    0  0.18333251167E+02  0.69515622733E+01 -0.41815798584E+03  0.41864379063E+03  0.47000000000E+01 0.  1.
         -5    1    3    3    0  503 -0.48241054934E+01  0.49149947090E+02 -0.54678610623E+02  0.73829734880E+02  0.47000000000E+01 0.  1.
<mgrwt>
<rscale>  0 0.13768294E+03</rscale>
<asrwt>0</asrwt>
<pdfrwt beam="2">  1        5 0.18671376E+00 0.13768398E+03</pdfrwt>
<pdfrwt beam="1">  1       -5 0.25079701E-02 0.13768398E+03</pdfrwt>
<totfact> 0.87261263E+01</totfact>
</mgrwt>
</event>
<event>
 8    1  0.3674342E-007  0.1445352E+03  0.7546771E-02  0.1207354E+00
          5   -1    0    0  501    0  0.00000000000E+00  0.00000000000E+00  0.53378346923E+02  0.53584866523E+02  0.47000000000E+01 0.  1.
         -5   -1    0    0    0  501 -0.00000000000E+00 -0.00000000000E+00 -0.39118814107E+03  0.39121637455E+03  0.47000000000E+01 0.  1.
         25    2    1    2    0    0 -0.57935923691E+02  0.43688280224E+02 -0.15884948610E+03  0.21476405024E+03  0.12500080384E+03 0.  0.
         25    2    1    2    0    0  0.57935923691E+02 -0.43688280224E+02 -0.17896030805E+03  0.23003719083E+03  0.12500032089E+03 0.  0.
          5    1    3    3  502    0 -0.32119596866E+02 -0.34947135263E+02 -0.10657150511E+03  0.11675849634E+03  0.47000000000E+01 0.  1.
         -5    1    3    3    0  502 -0.25816326825E+02  0.78635415487E+02 -0.52277980984E+02  0.98005553901E+02  0.47000000000E+01 0.  1.
          5    1    4    4  503    0  0.12226558718E+02  0.31700414801E+02 -0.11765091086E+03  0.12254889580E+03  0.47000000000E+01 0.  1.
         -5    1    4    4    0  503  0.45709364973E+02 -0.75388695025E+02 -0.61309397197E+02  0.10748829503E+03  0.47000000000E+01 0.  1.
<mgrwt>
<rscale>  0 0.14453514E+03</rscale>
<asrwt>0</asrwt>
<pdfrwt beam="1">  1        5 0.82301115E-02 0.14453525E+03</pdfrwt>
<pdfrwt beam="2">  1       -5 0.60200847E-01 0.14453525E+03</pdfrwt>
<totfact> 0.21139007E+02</totfact>
</mgrwt>
</event>
<event>
 8    1  0.3674342E-007  0.1951864E+03  0.7546771E-02  0.1153866E+00
         -5   -1    0    0    0  501 -0.00000000000E+00  0.00000000000E+00  0.26095589105E+02  0.26515462861E+02  0.47000000000E+01 0. -1.
          5   -1    0    0  501    0  0.00000000000E+00 -0.00000000000E+00 -0.14805823558E+04  0.14805898157E+04  0.47000000000E+01 0. -1.
         25    2    1    2    0    0  0.14889026547E+03 -0.17457778297E+02 -0.61519025996E+03  0.64541210233E+03  0.12499856282E+03 0.  0.
         25    2    1    2    0    0 -0.14889026547E+03  0.17457778297E+02 -0.83929650673E+03  0.86169317621E+03  0.12499367403E+03 0.  0.
          5    1    3    3  502    0  0.63907540492E+01  0.38488110200E+02 -0.86991688283E+02  0.95455854689E+02  0.47000000000E+01 0.  1.
         -5    1    3    3    0  502  0.14249951142E+03 -0.55945888497E+02 -0.52819857168E+03  0.54995624764E+03  0.47000000000E+01 0.  1.
          5    1    4    4  503    0 -0.70108090826E+02 -0.51285842736E+02 -0.30111909990E+03  0.31343290253E+03  0.47000000000E+01 0. -1.
         -5    1    4    4    0  503 -0.78782174643E+02  0.68743621033E+02 -0.53817740684E+03  0.54826027369E+03  0.47000000000E+01 0. -1.
<mgrwt>
<rscale>  0 0.19518560E+03</rscale>
<asrwt>0</asrwt>
<pdfrwt beam="2">  1        5 0.22781471E+00 0.19518639E+03</pdfrwt>
<pdfrwt beam="1">  1       -5 0.40475790E-02 0.19518639E+03</pdfrwt>
<totfact> 0.23241468E+01</totfact>
</mgrwt>
</event>
<event>
 8    1  0.3674342E-007  0.1312148E+03  0.7546771E-02  0.1225665E+00
          5   -1    0    0  501    0  0.00000000000E+00  0.00000000000E+00  0.87097382271E+03  0.87098650382E+03  0.47000000000E+01 0. -1.
         -5   -1    0    0    0  501 -0.00000000000E+00 -0.00000000000E+00 -0.19935452721E+02  0.20481998808E+02  0.47000000000E+01 0. -1.
         25    2    1    2    0    0 -0.13122030773E+02  0.37683754174E+02  0.35874013465E+03  0.38198357806E+03  0.12499886672E+03 0.  0.
         25    2    1    2    0    0  0.13122030773E+02 -0.37683754174E+02  0.49229823534E+03  0.50948492457E+03  0.12500033131E+03 0.  0.
          5    1    3    3  502    0  0.42863875148E+02  0.13042078705E+02  0.50399000132E+02  0.67598497202E+02  0.47000000000E+01 0.  1.
         -5    1    3    3    0  502 -0.55985905921E+02  0.24641675469E+02  0.30834113452E+03  0.31438508086E+03  0.47000000000E+01 0.  1.
          5    1    4    4  503    0  0.58113234142E+02 -0.18968808220E+02  0.12815808005E+03  0.14206881132E+03  0.47000000000E+01 0. -1.
         -5    1    4    4    0  503 -0.44991203369E+02 -0.18714945954E+02  0.36414015529E+03  0.36741611325E+03  0.47000000000E+01 0. -1.
<mgrwt>
<rscale>  0 0.13121450E+03</rscale>
<asrwt>0</asrwt>
<pdfrwt beam="1">  1        5 0.13403901E+00 0.13121485E+03</pdfrwt>
<pdfrwt beam="2">  1       -5 0.31100098E-02 0.13121485E+03</pdfrwt>
<totfact> 0.15344941E+02</totfact>
</mgrwt>
</event>
<event>
 8    1  0.3674342E-007  0.1381148E+03  0.7546771E-02  0.1215890E+00
         -5   -1    0    0    0  501 -0.00000000000E+00  0.00000000000E+00  0.11241413455E+04  0.11241511707E+04  0.47000000000E+01 0. -1.
          5   -1    0    0  501    0  0.00000000000E+00 -0.00000000000E+00 -0.16733518829E+02  0.17381042903E+02  0.47000000000E+01 0. -1.
         25    2    1    2    0    0 -0.33714145339E+02  0.48090040082E+02  0.59712466257E+03  0.61288951654E+03  0.12500560499E+03 0.  0.
         25    2    1    2    0    0  0.33714145339E+02 -0.48090040082E+02  0.51028316405E+03  0.52864269705E+03  0.12499959232E+03 0.  0.
          5    1    4    4  502    0 -0.30228057274E+02 -0.61531551086E+02  0.19867119187E+03  0.21021940848E+03  0.47000000000E+01 0. -1.
         -5    1    4    4    0  502  0.63942202614E+02  0.13441511003E+02  0.31161197219E+03  0.31842328857E+03  0.47000000000E+01 0. -1.
          5    1    3    3  503    0 -0.35065804204E+02  0.60822808200E+02  0.15135797470E+03  0.16691420289E+03  0.47000000000E+01 0. -1.
         -5    1    3    3    0  503  0.13516588647E+01 -0.12732768118E+02  0.44576668787E+03  0.44597531364E+03  0.47000000000E+01 0. -1.
<mgrwt>
<rscale>  0 0.13811344E+03</rscale>
<asrwt>0</asrwt>
<pdfrwt beam="2">  1        5 0.26249525E-02 0.13811480E+03</pdfrwt>
<pdfrwt beam="1">  1       -5 0.17299541E+00 0.13811480E+03</pdfrwt>
<totfact> 0.10164679E+02</totfact>
</mgrwt>
</event>
<event>
 8    1  0.3674342E-007  0.1369751E+03  0.7546771E-02  0.1217482E+00
          5   -1    0    0  501    0  0.00000000000E+00  0.00000000000E+00  0.20278841625E+02  0.20816373787E+02  0.47000000000E+01 0. -1.
         -5   -1    0    0    0  501 -0.00000000000E+00 -0.00000000000E+00 -0.92445354113E+03  0.92446548866E+03  0.47000000000E+01 0. -1.
         25    2    1    2    0    0 -0.52612705718E+02 -0.19040646980E+02 -0.50682208575E+03  0.52500552593E+03  0.12502612770E+03 0.  0.
         25    2    1    2    0    0  0.52612705718E+02  0.19040646980E+02 -0.39735261376E+03  0.42027633651E+03  0.12494981526E+03 0.  0.
          5    1    4    4  502    0  0.30109427770E+02  0.46678550830E+02 -0.37232036213E+03  0.37647045941E+03  0.47000000000E+01 0. -1.
         -5    1    4    4    0  502  0.22503277948E+02 -0.27637903850E+02 -0.25032251621E+02  0.43805877104E+02  0.47000000000E+01 0. -1.
          5    1    3    3  503    0  0.52057825127E+01 -0.37111230706E+02 -0.43044139170E+02  0.57264574852E+02  0.47000000000E+01 0.  1.
         -5    1    3    3    0  503 -0.57818488231E+02  0.18070583726E+02 -0.46377794658E+03  0.46774095108E+03  0.47000000000E+01 0.  1.
<mgrwt>
<rscale>  0 0.13695768E+03</rscale>
<asrwt>0</asrwt>
<pdfrwt beam="1">  1        5 0.31620902E-02 0.13697509E+03</pdfrwt>
<pdfrwt beam="2">  1       -5 0.14226586E+00 0.13697509E+03</pdfrwt>
<totfact> 0.12932386E+02</totfact>
</mgrwt>
</event>
<event>
 8    1  0.3674342E-007  0.1256520E+03  0.7546771E-02  0.1234054E+00
          5   -1    0    0  501    0  0.00000000000E+00  0.00000000000E+00  0.16028643181E+03  0.16035532489E+03  0.47000000000E+01 0. -1.
         -5   -1    0    0    0  501 -0.00000000000E+00 -0.00000000000E+00 -0.99522364055E+02  0.99633282327E+02  0.47000000000E+01 0. -1.
         25    2    1    2    0    0 -0.66455263210E+01 -0.10923038181E+02  0.16311052436E+02  0.12670622009E+03  0.12499975998E+03 0.  0.
         25    2    1    2    0    0  0.66455263210E+01  0.10923038181E+02  0.44453015315E+02  0.13328238713E+03  0.12499859345E+03 0.  0.
          5    1    4    4  502    0  0.35411083120E+02  0.51114326104E+02  0.54276858782E+02  0.82672163030E+02  0.47000000000E+01 0. -1.
         -5    1    4    4    0  502 -0.28765556799E+02 -0.40191287923E+02 -0.98238434670E+01  0.50610224099E+02  0.47000000000E+01 0. -1.
          5    1    3    3  503    0 -0.37987970583E+02 -0.52854184814E+02  0.30832578188E+02  0.72176094651E+02  0.47000000000E+01 0. -1.
         -5    1    3    3    0  503  0.31342444262E+02  0.41931146632E+02 -0.14521525751E+02  0.54530125439E+02  0.47000000000E+01 0. -1.
<mgrwt>
<rscale>  0 0.12565167E+03</rscale>
<asrwt>0</asrwt>
<pdfrwt beam="1">  1        5 0.24673283E-01 0.12565196E+03</pdfrwt>
<pdfrwt beam="2">  1       -5 0.15324965E-01 0.12565196E+03</pdfrwt>
<totfact> 0.41451956E+02</totfact>
</mgrwt>
</event>
<event>
 8    1  0.3674342E-007  0.1397919E+03  0.7546771E-02  0.1213613E+00
          5   -1    0    0  501    0  0.00000000000E+00  0.00000000000E+00  0.17243866168E+03  0.17250270155E+03  0.47000000000E+01 0. -1.
         -5   -1    0    0    0  501 -0.00000000000E+00 -0.00000000000E+00 -0.11979745387E+03  0.11988961570E+03  0.47000000000E+01 0. -1.
         25    2    1    2    0    0 -0.61861659833E+02 -0.95028658133E+01 -0.80063566959E+01  0.14002097072E+03  0.12499840430E+03 0.  0.
         25    2    1    2    0    0  0.61861659833E+02  0.95028658133E+01  0.60647564506E+02  0.15237134653E+03  0.12498692230E+03 0.  0.
          5    1    4    4  502    0 -0.48582000928E+01  0.56673695102E+02  0.33290401599E+02  0.66074584094E+02  0.47000000000E+01 0. -1.
         -5    1    4    4    0  502  0.66719859926E+02 -0.47170829289E+02  0.27357162907E+02  0.86296762434E+02  0.47000000000E+01 0. -1.
          5    1    3    3  503    0  0.30539942806E+02 -0.31570547760E+02 -0.80586575514E+01  0.44904560504E+02  0.47000000000E+01 0.  1.
         -5    1    3    3    0  503 -0.92401602639E+02  0.22067681947E+02  0.52300855420E-01  0.95116410215E+02  0.47000000000E+01 0.  1.
<mgrwt>
<rscale>  0 0.13978932E+03</rscale>
<asrwt>0</asrwt>
<pdfrwt beam="1">  1        5 0.26541040E-01 0.13979188E+03</pdfrwt>
<pdfrwt beam="2">  1       -5 0.18442393E-01 0.13979188E+03</pdfrwt>
<totfact> 0.26669384E+02</totfact>
</mgrwt>
</event>
<event>
 8    1  0.3674342E-007  0.1456825E+03  0.7546771E-02  0.1205881E+00
         -5   -1    0    0    0  501 -0.00000000000E+00  0.00000000000E+00  0.29292988540E+03  0.29296758825E+03  0.47000000000E+01 0.  1.
          5   -1    0    0  501    0  0.00000000000E+00 -0.00000000000E+00 -0.89420410679E+02  0.89543843150E+02  0.47000000000E+01 0.  1.
         25    2    1    2    0    0 -0.41226123787E+02 -0.62442041803E+02  0.18527770307E+03  0.23569256215E+03  0.12499821891E+03 0.  0.
         25    2    1    2    0    0  0.41226123787E+02  0.62442041803E+02  0.18231771657E+02  0.14681886925E+03  0.12499912401E+03 0.  0.
          5    1    4    4  502    0 -0.22296038506E+02  0.73917802814E+02  0.26068522105E+02  0.81624829253E+02  0.47000000000E+01 0. -1.
         -5    1    4    4    0  502  0.63522162293E+02 -0.11475761011E+02 -0.78367504485E+01  0.65194039994E+02  0.47000000000E+01 0. -1.
          5    1    3    3  503    0  0.19049343622E+02 -0.74236309813E+02  0.13844411965E+03  0.15831225933E+03  0.47000000000E+01 0. -1.
         -5    1    3    3    0  503 -0.60275467409E+02  0.11794268010E+02  0.46833583418E+02  0.77380302823E+02  0.47000000000E+01 0. -1.
<mgrwt>
<rscale>  0 0.14568228E+03</rscale>
<asrwt>0</asrwt>
<pdfrwt beam="2">  1        5 0.13769381E-01 0.14568247E+03</pdfrwt>
<pdfrwt beam="1">  1       -5 0.45078532E-01 0.14568247E+03</pdfrwt>
<totfact> 0.15925381E+02</totfact>
</mgrwt>
</event>
<event>
 8    1  0.3674342E-007  0.1386277E+03  0.7546771E-02  0.1215190E+00
         -5   -1    0    0    0  501 -0.00000000000E+00  0.00000000000E+00  0.94867384027E+02  0.94983738356E+02  0.47000000000E+01 0.  1.
          5   -1    0    0  501    0  0.00000000000E+00 -0.00000000000E+00 -0.20878149045E+03  0.20883438595E+03  0.47000000000E+01 0.  1.
         25    2    1    2    0    0  0.58748031421E+02  0.11884044853E+02 -0.30193829618E+02  0.14187774849E+03  0.12500026581E+03 0.  0.
         25    2    1    2    0    0 -0.58748031421E+02 -0.11884044853E+02 -0.83720276809E+02  0.16194037581E+03  0.12499215516E+03 0.  0.
          5    1    4    4  502    0 -0.76922299308E+02  0.28437344989E+01 -0.23607496302E+01  0.77154326486E+02  0.47000000000E+01 0.  1.
         -5    1    4    4    0  502  0.18174267888E+02 -0.14727779352E+02 -0.81359527179E+02  0.84786049328E+02  0.47000000000E+01 0.  1.
          5    1    3    3  503    0  0.60358166947E+02  0.60962667206E+02 -0.39630996459E+01  0.86007855856E+02  0.47000000000E+01 0.  1.
         -5    1    3    3    0  503 -0.16101355265E+01 -0.49078622353E+02 -0.26230729972E+02  0.55869892638E+02  0.47000000000E+01 0.  1.
<mgrwt>
<rscale>  0 0.13862583E+03</rscale>
<asrwt>0</asrwt>
<pdfrwt beam="2">  1        5 0.32133248E-01 0.13862766E+03</pdfrwt>
<pdfrwt beam="1">  1       -5 0.14608001E-01 0.13862766E+03</pdfrwt>
<totfact> 0.28011650E+02</totfact>
</mgrwt>
</event>
<event>
 8    1  0.3674342E-007  0.1482669E+03  0.7546771E-02  0.1202622E+00
         -5   -1    0    0    0  501 -0.00000000000E+00  0.00000000000E+00  0.41348762123E+03  0.41351433217E+03  0.47000000000E+01 0.  1.
          5   -1    0    0  501    0  0.00000000000E+00 -0.00000000000E+00 -0.53795421351E+02  0.54000345909E+02  0.47000000000E+01 0.  1.
         25    2    1    2    0    0  0.36167818877E+02 -0.71030165667E+02  0.20769950962E+03  0.25519043788E+03  0.12501870953E+03 0.  0.
         25    2    1    2    0    0 -0.36167818877E+02  0.71030165667E+02  0.15199269026E+03  0.21232424020E+03  0.12500563798E+03 0.  0.
          5    1    4    4  502    0  0.32892196196E+01  0.10160580149E+02  0.13775904555E+03  0.13825230915E+03  0.47000000000E+01 0. -1.
         -5    1    4    4    0  502 -0.39457038496E+02  0.60869585518E+02  0.14233644714E+02  0.74071931053E+02  0.47000000000E+01 0. -1.
          5    1    3    3  503    0 -0.31360445430E+02 -0.64970525325E+02  0.65371875118E+02  0.97469065632E+02  0.47000000000E+01 0.  1.
         -5    1    3    3    0  503  0.67528264307E+02 -0.60596403418E+01  0.14232763450E+03  0.15772137225E+03  0.47000000000E+01 0.  1.
<mgrwt>
<rscale>  0 0.14826414E+03</rscale>
<asrwt>0</asrwt>
<pdfrwt beam="2">  1        5 0.82940372E-02 0.14826690E+03</pdfrwt>
<pdfrwt beam="1">  1       -5 0.63631295E-01 0.14826690E+03</pdfrwt>
<totfact> 0.18617029E+02</totfact>
</mgrwt>
</event>
<event>
 8    1  0.3674342E-007  0.1288446E+03  0.7546771E-02  0.1229181E+00
          5   -1    0    0  501    0  0.00000000000E+00  0.00000000000E+00  0.42033682853E+02  0.42295632093E+02  0.47000000000E+01 0.  1.
         -5   -1    0    0    0  501 -0.00000000000E+00 -0.00000000000E+00 -0.40905203483E+03  0.40907903539E+03  0.47000000000E+01 0.  1.
         25    2    1    2    0    0  0.26473002056E+01  0.31127493194E+02 -0.13942539155E+03  0.18984299071E+03  0.12499996913E+03 0.  0.
         25    2    1    2    0    0 -0.26473002056E+01 -0.31127493194E+02 -0.22759296043E+03  0.26153167678E+03  0.12499733313E+03 0.  0.
          5    1    4    4  502    0  0.20306143323E+02 -0.75433097587E+02 -0.14937086425E+03  0.16863047398E+03  0.47000000000E+01 0.  1.
         -5    1    4    4    0  502 -0.22953443528E+02  0.44305604393E+02 -0.78222096173E+02  0.92901202792E+02  0.47000000000E+01 0.  1.
          5    1    3    3  503    0  0.22351526092E+02  0.65782470221E+02 -0.13168415621E+03  0.14896218011E+03  0.47000000000E+01 0. -1.
         -5    1    3    3    0  503 -0.19704225886E+02 -0.34654977026E+02 -0.77412353378E+01  0.40880810597E+02  0.47000000000E+01 0. -1.
<mgrwt>
<rscale>  0 0.12884392E+03</rscale>
<asrwt>0</asrwt>
<pdfrwt beam="1">  1        5 0.64889476E-02 0.12884456E+03</pdfrwt>
<pdfrwt beam="2">  1       -5 0.62953306E-01 0.12884456E+03</pdfrwt>
<totfact> 0.27617164E+02</totfact>
</mgrwt>
</event>
<event>
 8    1  0.3674342E-007  0.1581317E+03  0.7546771E-02  0.1190827E+00
          5   -1    0    0  501    0  0.00000000000E+00  0.00000000000E+00  0.92430653535E+02  0.92550071383E+02  0.47000000000E+01 0. -1.
         -5   -1    0    0    0  501 -0.00000000000E+00 -0.00000000000E+00 -0.45292763826E+03  0.45295202340E+03  0.47000000000E+01 0. -1.
         25    2    1    2    0    0 -0.85916617279E+02 -0.44705444199E+02 -0.35346937845E+03  0.38722890172E+03  0.12500151584E+03 0.  0.
         25    2    1    2    0    0  0.85916617279E+02  0.44705444199E+02 -0.70276062776E+01  0.15827319306E+03  0.12498309696E+03 0.  0.
          5    1    3    3  502    0 -0.80015425842E+02 -0.55556995750E+02 -0.12579550703E+03  0.15917175547E+03  0.47000000000E+01 0.  1.
         -5    1    3    3    0  502 -0.59011914364E+01  0.10851551551E+02 -0.22767387141E+03  0.22805714625E+03  0.47000000000E+01 0.  1.
          5    1    4    4  503    0  0.68333911242E+02 -0.72398870975E+01  0.45210320351E+02  0.82389334608E+02  0.47000000000E+01 0.  1.
         -5    1    4    4    0  503  0.17582706036E+02  0.51945331297E+02 -0.52237926629E+02  0.75883858452E+02  0.47000000000E+01 0.  1.
<mgrwt>
<rscale>  0 0.15812802E+03</rscale>
<asrwt>0</asrwt>
<pdfrwt beam="1">  1        5 0.14231163E-01 0.15813166E+03</pdfrwt>
<pdfrwt beam="2">  1       -5 0.69692236E-01 0.15813166E+03</pdfrwt>
<totfact> 0.59887204E+01</totfact>
</mgrwt>
</event>
<event>
 8    1  0.3674342E-007  0.1552254E+03  0.7546771E-02  0.1194207E+00
         -5   -1    0    0    0  501 -0.00000000000E+00  0.00000000000E+00  0.55819206014E+02  0.56016727502E+02  0.47000000000E+01 0.  1.
          5   -1    0    0  501    0  0.00000000000E+00 -0.00000000000E+00 -0.57226426285E+03  0.57228356305E+03  0.47000000000E+01 0.  1.
         25    2    1    2    0    0  0.86399653406E+02  0.31522124049E+02 -0.10196177704E+03  0.18571784634E+03  0.12504547196E+03 0.  0.
         25    2    1    2    0    0 -0.86399653406E+02 -0.31522124049E+02 -0.41448327980E+03  0.44258244421E+03  0.12499714510E+03 0.  0.
          5    1    3    3  502    0  0.63737737074E+02 -0.36074506954E+02 -0.18180192251E+02  0.75607397585E+02  0.47000000000E+01 0. -1.
         -5    1    3    3    0  502  0.22661916332E+02  0.67596631003E+02 -0.83781584786E+02  0.11011044875E+03  0.47000000000E+01 0. -1.
          5    1    4    4  503    0 -0.99749056121E+01  0.48437979504E+01 -0.29944429042E+03  0.29968639306E+03  0.47000000000E+01 0.  1.
         -5    1    4    4    0  503 -0.76424747794E+02 -0.36365921999E+02 -0.11503898937E+03  0.14289605115E+03  0.47000000000E+01 0.  1.
<mgrwt>
<rscale>  0 0.15521563E+03</rscale>
<asrwt>0</asrwt>
<pdfrwt beam="2">  1        5 0.88057331E-01 0.15522537E+03</pdfrwt>
<pdfrwt beam="1">  1       -5 0.86042491E-02 0.15522537E+03</pdfrwt>
<totfact> 0.84304202E+01</totfact>
</mgrwt>
</event>
<event>
 8    1  0.3674342E-007  0.1454744E+03  0.7546771E-02  0.1206148E+00
         -5   -1    0    0    0  501 -0.00000000000E+00  0.00000000000E+00  0.15476732792E+04  0.15476804157E+04  0.47000000000E+01 0.  1.
          5   -1    0    0  501    0  0.00000000000E+00 -0.00000000000E+00 -0.13365783209E+02  0.14168068351E+02  0.47000000000E+01 0.  1.
         25    2    1    2    0    0 -0.19176209462E+02  0.71902780690E+02  0.83384611820E+03  0.84644087618E+03  0.12500028464E+03 0.  0.
         25    2    1    2    0    0  0.19176209462E+02 -0.71902780690E+02  0.70046137783E+03  0.71540760790E+03  0.12499666692E+03 0.  0.
          5    1    3    3  502    0 -0.71683869986E+02  0.53201328050E+02  0.49430792677E+03  0.50232596488E+03  0.47000000000E+01 0. -1.
         -5    1    3    3    0  502  0.52507660524E+02  0.18701452640E+02  0.33953819142E+03  0.34411491130E+03  0.47000000000E+01 0. -1.
          5    1    4    4  503    0 -0.21034577842E+01 -0.10533610868E+03  0.49606155586E+03  0.50714818104E+03  0.47000000000E+01 0. -1.
         -5    1    4    4    0  503  0.21279667246E+02  0.33433327995E+02  0.20439982196E+03  0.20825942686E+03  0.47000000000E+01 0. -1.
<mgrwt>
<rscale>  0 0.14547365E+03</rscale>
<asrwt>0</asrwt>
<pdfrwt beam="2">  1        5 0.21185381E-02 0.14547442E+03</pdfrwt>
<pdfrwt beam="1">  1       -5 0.23816579E+00 0.14547442E+03</pdfrwt>
<totfact> 0.52895179E+01</totfact>
</mgrwt>
</event>
<event>
 8    1  0.3674342E-007  0.1414025E+03  0.7546771E-02  0.1211454E+00
          5   -1    0    0  501    0  0.00000000000E+00  0.00000000000E+00  0.45682070005E+03  0.45684487739E+03  0.47000000000E+01 0. -1.
         -5   -1    0    0    0  501 -0.00000000000E+00 -0.00000000000E+00 -0.43906026653E+02  0.44156870094E+02  0.47000000000E+01 0. -1.
         25    2    1    2    0    0  0.41609295684E+02  0.51363551027E+02  0.18621483981E+03  0.23381755139E+03  0.12500053163E+03 0.  0.
         25    2    1    2    0    0 -0.41609295684E+02 -0.51363551027E+02  0.22669983358E+03  0.26718419609E+03  0.12500012893E+03 0.  0.
          5    1    4    4  502    0 -0.32238367017E+01  0.17484649831E+02  0.16746214688E+03  0.16846888954E+03  0.47000000000E+01 0.  1.
         -5    1    4    4    0  502 -0.38385458983E+02 -0.68848200858E+02  0.59237686698E+02  0.98715306554E+02  0.47000000000E+01 0.  1.
          5    1    3    3  503    0  0.71962962906E+02  0.10420624903E+02  0.16108313947E+03  0.17679684747E+03  0.47000000000E+01 0. -1.
         -5    1    3    3    0  503 -0.30353667222E+02  0.40942926125E+02  0.25131700348E+02  0.57020703923E+02  0.47000000000E+01 0. -1.
<mgrwt>
<rscale>  0 0.14140246E+03</rscale>
<asrwt>0</asrwt>
<pdfrwt beam="1">  1        5 0.70301265E-01 0.14140255E+03</pdfrwt>
<pdfrwt beam="2">  1       -5 0.67759286E-02 0.14140255E+03</pdfrwt>
<totfact> 0.20716827E+02</totfact>
</mgrwt>
</event>
<event>
 8    1  0.3674342E-007  0.1341334E+03  0.7546771E-02  0.1221451E+00
          5   -1    0    0  501    0  0.00000000000E+00  0.00000000000E+00  0.23389962324E+02  0.23857500656E+02  0.47000000000E+01 0.  1.
         -5   -1    0    0    0  501 -0.00000000000E+00 -0.00000000000E+00 -0.76235413856E+03  0.76236862644E+03  0.47000000000E+01 0.  1.
         25    2    1    2    0    0 -0.37611142157E+02  0.30856291337E+02 -0.35342032103E+03  0.37801560471E+03  0.12499266121E+03 0.  0.
         25    2    1    2    0    0  0.37611142157E+02 -0.30856291337E+02 -0.38554385520E+03  0.40821052238E+03  0.12500023028E+03 0.  0.
          5    1    4    4  502    0 -0.10826644541E+02 -0.37601661146E+02 -0.33646761666E+03  0.33876783822E+03  0.47000000000E+01 0.  1.
         -5    1    4    4    0  502  0.48437786698E+02  0.67453698092E+01 -0.49076238548E+02  0.69442684165E+02  0.47000000000E+01 0.  1.
          5    1    3    3  503    0 -0.30495940552E+02  0.17697596842E+02 -0.13989932666E+02  0.38223232989E+02  0.47000000000E+01 0.  1.
         -5    1    3    3    0  503 -0.71152016054E+01  0.13158694495E+02 -0.33943038837E+03  0.33979237172E+03  0.47000000000E+01 0.  1.
<mgrwt>
<rscale>  0 0.13413163E+03</rscale>
<asrwt>0</asrwt>
<pdfrwt beam="1">  1        5 0.36355353E-02 0.13413339E+03</pdfrwt>
<pdfrwt beam="2">  1       -5 0.11732231E+00 0.13413339E+03</pdfrwt>
<totfact> 0.16907831E+02</totfact>
</mgrwt>
</event>
<event>
 8    1  0.3674342E-007  0.1282654E+03  0.7546771E-02  0.1230055E+00
         -5   -1    0    0    0  501 -0.00000000000E+00  0.00000000000E+00  0.16302447285E+03  0.16309220934E+03  0.47000000000E+01 0. -1.
          5   -1    0    0  501    0  0.00000000000E+00 -0.00000000000E+00 -0.11751244015E+03  0.11760639264E+03  0.47000000000E+01 0. -1.
         25    2    1    2    0    0 -0.10097508912E+02 -0.26868903465E+02  0.75696600723E+02  0.14892944231E+03  0.12500442299E+03 0.  0.
         25    2    1    2    0    0  0.10097508912E+02  0.26868903465E+02 -0.30184568021E+02  0.13176915966E+03  0.12501242191E+03 0.  0.
          5    1    4    4  502    0 -0.16723991663E+02  0.69997264135E+02 -0.35688449765E+02  0.80467784424E+02  0.47000000000E+01 0. -1.
         -5    1    4    4    0  502  0.26821500574E+02 -0.43128360670E+02  0.55038817433E+01  0.51301375239E+02  0.47000000000E+01 0. -1.
          5    1    3    3  503    0  0.54437900107E+02  0.67840016719E+01  0.37306165304E+02  0.66508252243E+02  0.47000000000E+01 0.  1.
         -5    1    3    3    0  503 -0.64535409018E+02 -0.33652905136E+02  0.38390435418E+02  0.82421190072E+02  0.47000000000E+01 0.  1.
<mgrwt>
<rscale>  0 0.12826341E+03</rscale>
<asrwt>0</asrwt>
<pdfrwt beam="2">  1        5 0.18091275E-01 0.12826536E+03</pdfrwt>
<pdfrwt beam="1">  1       -5 0.25093126E-01 0.12826536E+03</pdfrwt>
<totfact> 0.29866248E+02</totfact>
</mgrwt>
</event>
<event>
 8    1  0.3674342E-007  0.1320966E+03  0.7546771E-02  0.1224383E+00
          5   -1    0    0  501    0  0.00000000000E+00  0.00000000000E+00  0.12673310938E+03  0.12682023109E+03  0.47000000000E+01 0.  1.
         -5   -1    0    0    0  501 -0.00000000000E+00 -0.00000000000E+00 -0.17700998372E+03  0.17707237034E+03  0.47000000000E+01 0.  1.
         25    2    1    2    0    0  0.41961874892E+02 -0.79196990681E+01 -0.96898204968E+02  0.16382544269E+03  0.12500397182E+03 0.  0.
         25    2    1    2    0    0 -0.41961874892E+02  0.79196990681E+01  0.46621330622E+02  0.14006715873E+03  0.12498695895E+03 0.  0.
          5    1    3    3  502    0  0.33420227027E+02  0.44977885248E+02 -0.38680004827E+01  0.56364644625E+02  0.47000000000E+01 0.  1.
         -5    1    3    3    0  502  0.85416478649E+01 -0.52897584316E+02 -0.93030204486E+02  0.10746079807E+03  0.47000000000E+01 0.  1.
          5    1    4    4  503    0  0.13608614772E+01  0.61665269344E+02  0.13313440803E+02  0.63275548937E+02  0.47000000000E+01 0.  1.
         -5    1    4    4    0  503 -0.43322736369E+02 -0.53745570276E+02  0.33307889819E+02  0.76791609796E+02  0.47000000000E+01 0.  1.
<mgrwt>
<rscale>  0 0.13209258E+03</rscale>
<asrwt>0</asrwt>
<pdfrwt beam="1">  1        5 0.19508902E-01 0.13209661E+03</pdfrwt>
<pdfrwt beam="2">  1       -5 0.27243806E-01 0.13209661E+03</pdfrwt>
<totfact> 0.22408182E+02</totfact>
</mgrwt>
</event>
<event>
 8    1  0.3674342E-007  0.1492839E+03  0.7546771E-02  0.1201357E+00
          5   -1    0    0  501    0  0.00000000000E+00  0.00000000000E+00  0.17905228323E+03  0.17911395851E+03  0.47000000000E+01 0.  1.
         -5   -1    0    0    0  501 -0.00000000000E+00 -0.00000000000E+00 -0.12545498456E+03  0.12554299324E+03  0.47000000000E+01 0.  1.
         25    2    1    2    0    0  0.80920545165E+02  0.10594761248E+02  0.12410815112E+02  0.14979566171E+03  0.12499731333E+03 0.  0.
         25    2    1    2    0    0 -0.80920545165E+02 -0.10594761248E+02  0.41186483560E+02  0.15486129003E+03  0.12500123650E+03 0.  0.
          5    1    4    4  502    0 -0.94725420750E+02 -0.10479693324E+02 -0.15197500675E+02  0.96621857440E+02  0.47000000000E+01 0.  1.
         -5    1    4    4    0  502  0.13804875585E+02 -0.11506792375E+00  0.56383984235E+02  0.58239432593E+02  0.47000000000E+01 0.  1.
          5    1    3    3  503    0 -0.36724883461E-01 -0.34707090512E+02  0.39738386454E+02  0.52969923905E+02  0.47000000000E+01 0.  1.
         -5    1    3    3    0  503  0.80957270049E+02  0.45301851760E+02 -0.27327571343E+02  0.96825737808E+02  0.47000000000E+01 0.  1.
<mgrwt>
<rscale>  0 0.14928311E+03</rscale>
<asrwt>0</asrwt>
<pdfrwt beam="1">  1        5 0.27558019E-01 0.14928393E+03</pdfrwt>
<pdfrwt beam="2">  1       -5 0.19312281E-01 0.14928393E+03</pdfrwt>
<totfact> 0.23271353E+02</totfact>
</mgrwt>
</event>
<event>
 8    1  0.3674342E-007  0.1499482E+03  0.7546771E-02  0.1200538E+00
         -5   -1    0    0    0  501 -0.00000000000E+00  0.00000000000E+00  0.82807544407E+03  0.82808878212E+03  0.47000000000E+01 0.  1.
          5   -1    0    0  501    0  0.00000000000E+00 -0.00000000000E+00 -0.41329521698E+02  0.41595905613E+02  0.47000000000E+01 0.  1.
         25    2    1    2    0    0 -0.65918852461E+02 -0.50125557695E+02  0.64891724262E+03  0.66601530649E+03  0.12499973628E+03 0.  0.
         25    2    1    2    0    0  0.65918852461E+02  0.50125557695E+02  0.13782867975E+03  0.20366938124E+03  0.12500642083E+03 0.  0.
          5    1    3    3  502    0 -0.38117774646E+02 -0.69171159866E+02  0.60649404924E+03  0.61163284401E+03  0.47000000000E+01 0. -1.
         -5    1    3    3    0  502 -0.27801077815E+02  0.19045602172E+02  0.42423193377E+02  0.54382462486E+02  0.47000000000E+01 0. -1.
          5    1    4    4  503    0 -0.21306047814E+02  0.59604853441E+01  0.93537478279E+02  0.96233179838E+02  0.47000000000E+01 0. -1.
         -5    1    4    4    0  503  0.87224900276E+02  0.44165072351E+02  0.44291201475E+02  0.10743620140E+03  0.47000000000E+01 0. -1.
<mgrwt>
<rscale>  0 0.14994684E+03</rscale>
<asrwt>0</asrwt>
<pdfrwt beam="2">  1        5 0.63799054E-02 0.14994823E+03</pdfrwt>
<pdfrwt beam="1">  1       -5 0.12741773E+00 0.14994823E+03</pdfrwt>
<totfact> 0.55723945E+01</totfact>
</mgrwt>
</event>
<event>
 8    1  0.3674342E-007  0.1553310E+03  0.7546771E-02  0.1194072E+00
         -5   -1    0    0    0  501 -0.00000000000E+00  0.00000000000E+00  0.23291181114E+02  0.23760663242E+02  0.47000000000E+01 0.  1.
          5   -1    0    0  501    0  0.00000000000E+00 -0.00000000000E+00 -0.10278941947E+04  0.10279049399E+04  0.47000000000E+01 0.  1.
         25    2    1    2    0    0 -0.67897892719E+02  0.62387799293E+02 -0.47485340601E+03  0.49961332146E+03  0.12500140975E+03 0.  0.
         25    2    1    2    0    0  0.67897892719E+02 -0.62387799293E+02 -0.52974960757E+03  0.55205228170E+03  0.12499885467E+03 0.  0.
          5    1    4    4  502    0  0.32682819542E+02 -0.92667011345E+02 -0.44029186755E+03  0.45114782535E+03  0.47000000000E+01 0.  1.
         -5    1    4    4    0  502  0.35215073177E+02  0.30279212052E+02 -0.89457740018E+02  0.10090445635E+03  0.47000000000E+01 0.  1.
          5    1    3    3  503    0 -0.90861914021E+02  0.25753795352E+01 -0.28571110383E+03  0.29985904163E+03  0.47000000000E+01 0. -1.
         -5    1    3    3    0  503  0.22964021302E+02  0.59812419758E+02 -0.18914230219E+03  0.19975427982E+03  0.47000000000E+01 0. -1.
<mgrwt>
<rscale>  0 0.15533047E+03</rscale>
<asrwt>0</asrwt>
<pdfrwt beam="2">  1        5 0.15817447E+00 0.15533098E+03</pdfrwt>
<pdfrwt beam="1">  1       -5 0.36202000E-02 0.15533098E+03</pdfrwt>
<totfact> 0.80687934E+01</totfact>
</mgrwt>
</event>
<event>
 8    1  0.3674342E-007  0.1269760E+03  0.7546771E-02  0.1232013E+00
          5   -1    0    0  501    0  0.00000000000E+00  0.00000000000E+00  0.16885429170E+03  0.16891969046E+03  0.47000000000E+01 0.  1.
         -5   -1    0    0    0  501 -0.00000000000E+00 -0.00000000000E+00 -0.10663351325E+03  0.10673704206E+03  0.47000000000E+01 0.  1.
         25    2    1    2    0    0 -0.18523106573E+02 -0.12440050716E+02 -0.13703753806E+02  0.12771271721E+03  0.12499953972E+03 0.  0.
         25    2    1    2    0    0  0.18523106573E+02  0.12440050716E+02  0.75924532257E+02  0.14794401531E+03  0.12500014692E+03 0.  0.
          5    1    4    4  502    0  0.33322577002E+02 -0.18273312757E+02  0.99241665283E+02  0.10637342819E+03  0.47000000000E+01 0. -1.
         -5    1    4    4    0  502 -0.14799470429E+02  0.30713363473E+02 -0.23317133026E+02  0.41570587118E+02  0.47000000000E+01 0. -1.
          5    1    3    3  503    0 -0.23290625605E+02  0.18795867889E+02  0.48845567009E+02  0.57477972365E+02  0.47000000000E+01 0.  1.
         -5    1    3    3    0  503  0.47675190320E+01 -0.31235918606E+02 -0.62549320815E+02  0.70234744844E+02  0.47000000000E+01 0.  1.
<mgrwt>
<rscale>  0 0.12697582E+03</rscale>
<asrwt>0</asrwt>
<pdfrwt beam="1">  1        5 0.25990578E-01 0.12697597E+03</pdfrwt>
<pdfrwt beam="2">  1       -5 0.16418150E-01 0.12697597E+03</pdfrwt>
<totfact> 0.33232450E+02</totfact>
</mgrwt>
</event>
<event>
 8    1  0.3674342E-007  0.1289786E+03  0.7546771E-02  0.1228981E+00
          5   -1    0    0  501    0  0.00000000000E+00  0.00000000000E+00  0.18674743058E+03  0.18680656527E+03  0.47000000000E+01 0. -1.
         -5   -1    0    0    0  501 -0.00000000000E+00 -0.00000000000E+00 -0.97025250765E+02  0.97139020408E+02  0.47000000000E+01 0. -1.
         25    2    1    2    0    0 -0.29841891243E+02  0.10877823503E+02  0.39185342795E+01  0.12903355786E+03  0.12500175449E+03 0.  0.
         25    2    1    2    0    0  0.29841891243E+02 -0.10877823503E+02  0.85803645532E+02  0.15491202781E+03  0.12500642087E+03 0.  0.
          5    1    4    4  502    0  0.51356072561E+02 -0.27075182421E+02  0.10598305256E+03  0.12093390394E+03  0.47000000000E+01 0.  1.
         -5    1    4    4    0  502 -0.21514181318E+02  0.16197358918E+02 -0.20179407032E+02  0.33978123872E+02  0.47000000000E+01 0.  1.
          5    1    3    3  503    0  0.21326658167E+02 -0.20125628567E+02 -0.43415064995E+02  0.52600619220E+02  0.47000000000E+01 0. -1.
         -5    1    3    3    0  503 -0.51168549410E+02  0.31003452070E+02  0.47333599274E+02  0.76432938641E+02  0.47000000000E+01 0. -1.
<mgrwt>
<rscale>  0 0.12897744E+03</rscale>
<asrwt>0</asrwt>
<pdfrwt beam="1">  1        5 0.28743674E-01 0.12897857E+03</pdfrwt>
<pdfrwt beam="2">  1       -5 0.14940262E-01 0.12897857E+03</pdfrwt>
<totfact> 0.32644098E+02</totfact>
</mgrwt>
</event>
<event>
 8    1  0.3674342E-007  0.1274434E+03  0.7546771E-02  0.1231299E+00
         -5   -1    0    0    0  501 -0.00000000000E+00  0.00000000000E+00  0.10786696318E+04  0.10786798712E+04  0.47000000000E+01 0. -1.
          5   -1    0    0  501    0  0.00000000000E+00 -0.00000000000E+00 -0.16519926047E+02  0.17175504552E+02  0.47000000000E+01 0. -1.
         25    2    1    2    0    0  0.24778506456E+02 -0.19220276648E+01  0.71015684521E+03  0.72150160304E+03  0.12499659925E+03 0.  0.
         25    2    1    2    0    0 -0.24778506456E+02  0.19220276648E+01  0.35199286055E+03  0.37435377273E+03  0.12499641878E+03 0.  0.
          5    1    4    4  502    0  0.44517907048E+02 -0.70329470459E+01  0.67015901679E+02  0.80898253813E+02  0.47000000000E+01 0.  1.
         -5    1    4    4    0  502 -0.69296413504E+02  0.89549747107E+01  0.28497695887E+03  0.29345551892E+03  0.47000000000E+01 0.  1.
          5    1    3    3  503    0  0.10193966391E+01 -0.43444643000E+02  0.96185902533E+02  0.10565175825E+03  0.47000000000E+01 0.  1.
         -5    1    3    3    0  503  0.23759109817E+02  0.41522615335E+02  0.61397094268E+03  0.61584984479E+03  0.47000000000E+01 0.  1.
<mgrwt>
<rscale>  0 0.12744335E+03</rscale>
<asrwt>0</asrwt>
<pdfrwt beam="2">  1        5 0.25927446E-02 0.12744339E+03</pdfrwt>
<pdfrwt beam="1">  1       -5 0.16600034E+00 0.12744339E+03</pdfrwt>
<totfact> 0.11374870E+02</totfact>
</mgrwt>
</event>
<event>
 8    1  0.3674342E-007  0.1289105E+03  0.7546771E-02  0.1229084E+00
         -5   -1    0    0    0  501 -0.00000000000E+00  0.00000000000E+00  0.69028118577E+03  0.69029718631E+03  0.47000000000E+01 0. -1.
          5   -1    0    0  501    0  0.00000000000E+00 -0.00000000000E+00 -0.24812438866E+02  0.25253655626E+02  0.47000000000E+01 0. -1.
         25    2    1    2    0    0 -0.81707816417E+01  0.30408716346E+02  0.40336206194E+03  0.42345868765E+03  0.12499942175E+03 0.  0.
         25    2    1    2    0    0  0.81707816417E+01 -0.30408716346E+02  0.26210668497E+03  0.29209215428E+03  0.12500584220E+03 0.  0.
          5    1    3    3  502    0 -0.50284920401E+02 -0.34392583765E+01  0.32018687373E+03  0.32416373305E+03  0.47000000000E+01 0. -1.
         -5    1    3    3    0  502  0.42114138759E+02  0.33847974723E+02  0.83175188204E+02  0.99294954600E+02  0.47000000000E+01 0. -1.
          5    1    4    4  503    0  0.15058476679E+02 -0.68412030667E+02  0.82546294101E+02  0.10836486668E+03  0.47000000000E+01 0. -1.
         -5    1    4    4    0  503 -0.68876950370E+01  0.38003314321E+02  0.17956039087E+03  0.18372728761E+03  0.47000000000E+01 0. -1.
<mgrwt>
<rscale>  0 0.12890893E+03</rscale>
<asrwt>0</asrwt>
<pdfrwt beam="2">  1        5 0.38524691E-02 0.12891048E+03</pdfrwt>
<pdfrwt beam="1">  1       -5 0.10623227E+00 0.12891048E+03</pdfrwt>
<totfact> 0.19433645E+02</totfact>
</mgrwt>
</event>
<event>
 8    1  0.3674342E-007  0.1330223E+03  0.7546771E-02  0.1223046E+00
          5   -1    0    0  501    0  0.00000000000E+00  0.00000000000E+00  0.29482805521E+02  0.29855080328E+02  0.47000000000E+01 0.  1.
         -5   -1    0    0    0  501 -0.00000000000E+00 -0.00000000000E+00 -0.65087550133E+03  0.65089247056E+03  0.47000000000E+01 0.  1.
         25    2    1    2    0    0  0.29027419068E+02 -0.35058772228E+02 -0.21186212032E+03  0.25016093097E+03  0.12499289896E+03 0.  0.
         25    2    1    2    0    0 -0.29027419068E+02  0.35058772228E+02 -0.40953057549E+03  0.43058661992E+03  0.12497134241E+03 0.  0.
          5    1    3    3  502    0 -0.22053468129E+02 -0.63306207161E+02 -0.15310925903E+03  0.16720815328E+03  0.47000000000E+01 0.  1.
         -5    1    3    3    0  502  0.51080887197E+02  0.28247434933E+02 -0.58752861290E+02  0.82952777692E+02  0.47000000000E+01 0.  1.
          5    1    4    4  503    0  0.30016863442E+02 -0.18151042976E+02 -0.43912203384E+02  0.56398972137E+02  0.47000000000E+01 0. -1.
         -5    1    4    4    0  503 -0.59044282511E+02  0.53209815204E+02 -0.36561837211E+03  0.37418764778E+03  0.47000000000E+01 0. -1.
<mgrwt>
<rscale>  0 0.13301724E+03</rscale>
<asrwt>0</asrwt>
<pdfrwt beam="1">  1        5 0.45657586E-02 0.13302230E+03</pdfrwt>
<pdfrwt beam="2">  1       -5 0.10016462E+00 0.13302230E+03</pdfrwt>
<totfact> 0.17170561E+02</totfact>
</mgrwt>
</event>
<event>
 8    1  0.3674342E-007  0.1402142E+03  0.7546771E-02  0.1213042E+00
         -5   -1    0    0    0  501 -0.00000000000E+00  0.00000000000E+00  0.79671466310E+03  0.79672852616E+03  0.47000000000E+01 0. -1.
          5   -1    0    0  501    0  0.00000000000E+00 -0.00000000000E+00 -0.24841237721E+02  0.25281951893E+02  0.47000000000E+01 0. -1.
         25    2    1    2    0    0 -0.53053498866E+02 -0.34924818231E+02  0.43785669856E+03  0.45975918102E+03  0.12500239753E+03 0.  0.
         25    2    1    2    0    0  0.53053498866E+02  0.34924818231E+02  0.33401672682E+03  0.36225129704E+03  0.12499764693E+03 0.  0.
          5    1    3    3  502    0 -0.44889260395E+02 -0.32076276451E+02  0.59516740702E+02  0.81291239587E+02  0.47000000000E+01 0. -1.
         -5    1    3    3    0  502 -0.81642384706E+01 -0.28485417798E+01  0.37833995786E+03  0.37846794143E+03  0.47000000000E+01 0. -1.
          5    1    4    4  503    0  0.82813012692E+02  0.54126282828E+01  0.13285268914E+03  0.15671381122E+03  0.47000000000E+01 0. -1.
         -5    1    4    4    0  503 -0.29759513826E+02  0.29512189948E+02  0.20116403768E+03  0.20553748582E+03  0.47000000000E+01 0. -1.
<mgrwt>
<rscale>  0 0.14021312E+03</rscale>
<asrwt>0</asrwt>
<pdfrwt beam="2">  1        5 0.38566966E-02 0.14021418E+03</pdfrwt>
<pdfrwt beam="1">  1       -5 0.12260645E+00 0.14021418E+03</pdfrwt>
<totfact> 0.13919468E+02</totfact>
</mgrwt>
</event>
<event>
 8    1  0.3674342E-007  0.1376309E+03  0.7546771E-02  0.1216557E+00
         -5   -1    0    0    0  501 -0.00000000000E+00  0.00000000000E+00  0.50959579289E+02  0.51175860728E+02  0.47000000000E+01 0.  1.
          5   -1    0    0  501    0  0.00000000000E+00 -0.00000000000E+00 -0.47638652425E+03  0.47640970864E+03  0.47000000000E+01 0.  1.
         25    2    1    2    0    0  0.34890554363E+02  0.45784267009E+02 -0.88480671792E+02  0.16361870769E+03  0.12501480847E+03 0.  0.
         25    2    1    2    0    0 -0.34890554363E+02 -0.45784267009E+02 -0.33694627317E+03  0.36396686168E+03  0.12500214201E+03 0.  0.
          5    1    3    3  502    0  0.31588704476E+02  0.74190285614E+01  0.26571736384E+02  0.42202315218E+02  0.47000000000E+01 0. -1.
         -5    1    3    3    0  502  0.33018498869E+01  0.38365238447E+02 -0.11505240818E+03  0.12141639247E+03  0.47000000000E+01 0. -1.
          5    1    4    4  503    0  0.25521223933E+02 -0.49141476679E+02 -0.65872586135E+02  0.86182975148E+02  0.47000000000E+01 0.  1.
         -5    1    4    4    0  503 -0.60411778296E+02  0.33572096703E+01 -0.27107368704E+03  0.27778388653E+03  0.47000000000E+01 0.  1.
<mgrwt>
<rscale>  0 0.13762798E+03</rscale>
<asrwt>0</asrwt>
<pdfrwt beam="2">  1        5 0.73308652E-01 0.13763085E+03</pdfrwt>
<pdfrwt beam="1">  1       -5 0.78583560E-02 0.13763085E+03</pdfrwt>
<totfact> 0.14508106E+02</totfact>
</mgrwt>
</event>
<event>
 8    1  0.3674342E-007  0.1270065E+03  0.7546771E-02  0.1231968E+00
         -5   -1    0    0    0  501 -0.00000000000E+00  0.00000000000E+00  0.33529505415E+03  0.33532799366E+03  0.47000000000E+01 0.  1.
          5   -1    0    0  501    0  0.00000000000E+00 -0.00000000000E+00 -0.48308621404E+02  0.48536717049E+02  0.47000000000E+01 0.  1.
         25    2    1    2    0    0 -0.22385449380E+02  0.17009057770E+01  0.12716812622E+03  0.17972616922E+03  0.12500304857E+03 0.  0.
         25    2    1    2    0    0  0.22385449380E+02 -0.17009057770E+01  0.15981830653E+03  0.20413854149E+03  0.12500660622E+03 0.  0.
          5    1    4    4  502    0  0.44850269683E+02 -0.48970239324E+01  0.17205451115E+03  0.17793361779E+03  0.47000000000E+01 0. -1.
         -5    1    4    4    0  502 -0.22464820304E+02  0.31961181553E+01 -0.12236204624E+02  0.26204923700E+02  0.47000000000E+01 0. -1.
          5    1    3    3  503    0  0.47173963499E+02  0.16226772719E+02  0.27284771003E+02  0.57054708077E+02  0.47000000000E+01 0. -1.
         -5    1    3    3    0  503 -0.69559412878E+02 -0.14525866941E+02  0.99883355214E+02  0.12267146114E+03  0.47000000000E+01 0. -1.
<mgrwt>
<rscale>  0 0.12700563E+03</rscale>
<asrwt>0</asrwt>
<pdfrwt beam="2">  1        5 0.74521755E-02 0.12700651E+03</pdfrwt>
<pdfrwt beam="1">  1       -5 0.51603932E-01 0.12700651E+03</pdfrwt>
<totfact> 0.33415628E+02</totfact>
</mgrwt>
</event>
<event>
 8    1  0.3674342E-007  0.1567998E+03  0.7546771E-02  0.1192360E+00
          5   -1    0    0  501    0  0.00000000000E+00  0.00000000000E+00  0.76858401836E+02  0.77001973564E+02  0.47000000000E+01 0.  1.
         -5   -1    0    0    0  501 -0.00000000000E+00 -0.00000000000E+00 -0.38734433624E+03  0.38737284987E+03  0.47000000000E+01 0.  1.
         25    2    1    2    0    0  0.45041320686E+01 -0.94551870752E+02 -0.25245270245E+03  0.29718024937E+03  0.12499356051E+03 0.  0.
         25    2    1    2    0    0 -0.45041320686E+01  0.94551870752E+02 -0.58033231954E+02  0.16719457407E+03  0.12500330443E+03 0.  0.
          5    1    4    4  502    0  0.46526626489E+02  0.15988305155E+02  0.11122393959E+02  0.50657186278E+02  0.47000000000E+01 0. -1.
         -5    1    4    4    0  502 -0.51030758558E+02  0.78563565597E+02 -0.69155625914E+02  0.11653738779E+03  0.47000000000E+01 0. -1.
          5    1    3    3  503    0 -0.93336293963E+01 -0.13884698769E+02  0.11467556701E+02  0.20820575264E+02  0.47000000000E+01 0. -1.
         -5    1    3    3    0  503  0.13837761465E+02 -0.80667171983E+02 -0.26392025915E+03  0.27635967410E+03  0.47000000000E+01 0. -1.
<mgrwt>
<rscale>  0 0.15679783E+03</rscale>
<asrwt>0</asrwt>
<pdfrwt beam="1">  1        5 0.11837607E-01 0.15679978E+03</pdfrwt>
<pdfrwt beam="2">  1       -5 0.59604672E-01 0.15679978E+03</pdfrwt>
<totfact> 0.11757947E+02</totfact>
</mgrwt>
</event>
<event>
 8    1  0.3674342E-007  0.1475547E+03  0.7546771E-02  0.1203513E+00
          5   -1    0    0  501    0  0.00000000000E+00  0.00000000000E+00  0.45425707307E+03  0.45428138685E+03  0.47000000000E+01 0.  1.
         -5   -1    0    0    0  501 -0.00000000000E+00 -0.00000000000E+00 -0.80339358865E+02  0.80476720751E+02  0.47000000000E+01 0.  1.
         25    2    1    2    0    0 -0.78392696055E+02 -0.17592206711E+01  0.16974156483E+02  0.14851842825E+03  0.12498436658E+03 0.  0.
         25    2    1    2    0    0  0.78392696055E+02  0.17592206711E+01  0.35694355772E+03  0.38623967934E+03  0.12499550731E+03 0.  0.
          5    1    4    4  502    0 -0.25000569055E+02  0.10239825202E+02  0.20793184233E+02  0.34414081184E+02  0.47000000000E+01 0.  1.
         -5    1    4    4    0  502  0.10339326511E+03 -0.84806045305E+01  0.33615037349E+03  0.35182559816E+03  0.47000000000E+01 0.  1.
          5    1    3    3  503    0  0.15031303006E+01  0.49146027342E+02 -0.89289943895E+01  0.50193708221E+02  0.47000000000E+01 0. -1.
         -5    1    3    3    0  503 -0.79895826356E+02 -0.50905248013E+02  0.25903150873E+02  0.98324720032E+02  0.47000000000E+01 0. -1.
<mgrwt>
<rscale>  0 0.14755233E+03</rscale>
<asrwt>0</asrwt>
<pdfrwt beam="1">  1        5 0.69898141E-01 0.14755469E+03</pdfrwt>
<pdfrwt beam="2">  1       -5 0.12372338E-01 0.14755469E+03</pdfrwt>
<totfact> 0.74846814E+01</totfact>
</mgrwt>
</event>
<event>
 8    1  0.3674342E-007  0.1415596E+03  0.7546771E-02  0.1211250E+00
         -5   -1    0    0    0  501 -0.00000000000E+00  0.00000000000E+00  0.62176310048E+02  0.62353697013E+02  0.47000000000E+01 0. -1.
          5   -1    0    0  501    0  0.00000000000E+00 -0.00000000000E+00 -0.50758128288E+03  0.50760304247E+03  0.47000000000E+01 0. -1.
         25    2    1    2    0    0 -0.65092154666E+02  0.13278295484E+02 -0.50247868407E+02  0.15021308392E+03  0.12500328224E+03 0.  0.
         25    2    1    2    0    0  0.65092154666E+02 -0.13278295484E+02 -0.39515710442E+03  0.41974365557E+03  0.12498918946E+03 0.  0.
          5    1    3    3  502    0  0.87269771361E+01 -0.35188492098E+02 -0.49801280678E+02  0.61779022841E+02  0.47000000000E+01 0.  1.
         -5    1    3    3    0  502 -0.73819131802E+02  0.48466787581E+02 -0.44658772861E+00  0.88434061080E+02  0.47000000000E+01 0.  1.
          5    1    4    4  503    0  0.74446254523E+02 -0.28150516452E+02 -0.12052334786E+03  0.14450835190E+03  0.47000000000E+01 0.  1.
         -5    1    4    4    0  503 -0.93540998562E+01  0.14872220969E+02 -0.27463375656E+03  0.27523530367E+03  0.47000000000E+01 0.  1.
<mgrwt>
<rscale>  0 0.14155650E+03</rscale>
<asrwt>0</asrwt>
<pdfrwt beam="2">  1        5 0.78104744E-01 0.14155961E+03</pdfrwt>
<pdfrwt beam="1">  1       -5 0.95809055E-02 0.14155961E+03</pdfrwt>
<totfact> 0.89951392E+01</totfact>
</mgrwt>
</event>
<event>
 8    1  0.3674342E-007  0.1583440E+03  0.7546771E-02  0.1190580E+00
          5   -1    0    0  501    0  0.00000000000E+00  0.00000000000E+00  0.35430170418E+03  0.35433287681E+03  0.47000000000E+01 0. -1.
         -5   -1    0    0    0  501 -0.00000000000E+00 -0.00000000000E+00 -0.74209222484E+02  0.74357909476E+02  0.47000000000E+01 0. -1.
         25    2    1    2    0    0 -0.38745336192E+02  0.89142241035E+02  0.93184764997E+02  0.18372864680E+03  0.12500110004E+03 0.  0.
         25    2    1    2    0    0  0.38745336192E+02 -0.89142241035E+02  0.18690771670E+03  0.24496213949E+03  0.12499766000E+03 0.  0.
          5    1    4    4  502    0 -0.34144855238E+00 -0.97570062450E+02  0.17901918715E+03  0.20393624749E+03  0.47000000000E+01 0.  1.
         -5    1    4    4    0  502  0.39086784744E+02  0.84278214148E+01  0.78885295507E+01  0.41025891994E+02  0.47000000000E+01 0.  1.
          5    1    3    3  503    0 -0.36182433443E+01 -0.19219741472E+02 -0.16127176167E+02  0.25781116312E+02  0.47000000000E+01 0.  1.
         -5    1    3    3    0  503 -0.35127092847E+02  0.10836198251E+03  0.10931194116E+03  0.15794753048E+03  0.47000000000E+01 0.  1.
<mgrwt>
<rscale>  0 0.15834330E+03</rscale>
<asrwt>0</asrwt>
<pdfrwt beam="1">  1        5 0.54521790E-01 0.15834398E+03</pdfrwt>
<pdfrwt beam="2">  1       -5 0.11430639E-01 0.15834398E+03</pdfrwt>
<totfact> 0.15232105E+02</totfact>
</mgrwt>
</event>
<event>
 8    1  0.3674342E-007  0.1642826E+03  0.7546771E-02  0.1183945E+00
         -5   -1    0    0    0  501 -0.00000000000E+00  0.00000000000E+00  0.14419499177E+03  0.14427156910E+03  0.47000000000E+01 0.  1.
          5   -1    0    0  501    0  0.00000000000E+00 -0.00000000000E+00 -0.19507968759E+03  0.19513629726E+03  0.47000000000E+01 0.  1.
         25    2    1    2    0    0 -0.10082572409E+03 -0.34590839581E+02  0.90558278661E+01  0.16453182732E+03  0.12500544532E+03 0.  0.
         25    2    1    2    0    0  0.10082572409E+03  0.34590839581E+02 -0.59940523683E+02  0.17487603905E+03  0.12500563920E+03 0.  0.
          5    1    4    4  502    0  0.77050700029E+02  0.16600977055E+02  0.26524180368E+02  0.83294807511E+02  0.47000000000E+01 0.  1.
         -5    1    4    4    0  502  0.23775024064E+02  0.17989862526E+02 -0.86464704051E+02  0.91581231536E+02  0.47000000000E+01 0.  1.
          5    1    3    3  503    0 -0.35556056884E+02  0.66681994142E+01  0.61193931881E+02  0.71242440748E+02  0.47000000000E+01 0. -1.
         -5    1    3    3    0  503 -0.65269667209E+02 -0.41259038995E+02 -0.52138104015E+02  0.93289386571E+02  0.47000000000E+01 0. -1.
<mgrwt>
<rscale>  0 0.16428253E+03</rscale>
<asrwt>0</asrwt>
<pdfrwt beam="2">  1        5 0.30022505E-01 0.16428257E+03</pdfrwt>
<pdfrwt beam="1">  1       -5 0.22194090E-01 0.16428257E+03</pdfrwt>
<totfact> 0.15630966E+02</totfact>
</mgrwt>
</event>
<event>
 8    1  0.3674342E-007  0.1356256E+03  0.7546771E-02  0.1219341E+00
         -5   -1    0    0    0  501 -0.00000000000E+00  0.00000000000E+00  0.17912420440E+03  0.17918585492E+03  0.47000000000E+01 0. -1.
          5   -1    0    0  501    0  0.00000000000E+00 -0.00000000000E+00 -0.15887023908E+03  0.15893974602E+03  0.47000000000E+01 0. -1.
         25    2    1    2    0    0 -0.51162022663E+02  0.12287239991E+02  0.11073656529E+03  0.17508758098E+03  0.12499818115E+03 0.  0.
         25    2    1    2    0    0  0.51162022663E+02 -0.12287239991E+02 -0.90482599974E+02  0.16303801996E+03  0.12500306486E+03 0.  0.
          5    1    3    3  502    0 -0.31910892336E+02 -0.50341421254E+02  0.86327887524E+02  0.10501027525E+03  0.47000000000E+01 0. -1.
         -5    1    3    3    0  502 -0.19251130327E+02  0.62628661244E+02  0.24408677770E+02  0.70077305731E+02  0.47000000000E+01 0. -1.
          5    1    4    4  503    0  0.27448195159E+02 -0.67564581144E+02 -0.64029698468E+02  0.97161043267E+02  0.47000000000E+01 0.  1.
         -5    1    4    4    0  503  0.23713827504E+02  0.55277341154E+02 -0.26452901505E+02  0.65876976691E+02  0.47000000000E+01 0.  1.
<mgrwt>
<rscale>  0 0.13562444E+03</rscale>
<asrwt>0</asrwt>
<pdfrwt beam="2">  1        5 0.24451664E-01 0.13562557E+03</pdfrwt>
<pdfrwt beam="1">  1       -5 0.27567659E-01 0.13562557E+03</pdfrwt>
<totfact> 0.14437633E+02</totfact>
</mgrwt>
</event>
<event>
 8    1  0.3674342E-007  0.1329894E+03  0.7546771E-02  0.1223089E+00
          5   -1    0    0  501    0  0.00000000000E+00  0.00000000000E+00  0.96589430945E+02  0.96703713322E+02  0.47000000000E+01 0. -1.
         -5   -1    0    0    0  501 -0.00000000000E+00 -0.00000000000E+00 -0.18438959746E+03  0.18444948807E+03  0.47000000000E+01 0. -1.
         25    2    1    2    0    0  0.21107869785E+02  0.40168508487E+02 -0.56772238149E+02  0.14460038177E+03  0.12500852828E+03 0.  0.
         25    2    1    2    0    0 -0.21107869785E+02 -0.40168508487E+02 -0.31027928363E+02  0.13655281962E+03  0.12499955587E+03 0.  0.
          5    1    4    4  502    0  0.34648772202E+02  0.10364928295E+02  0.23606159538E+02  0.43443180383E+02  0.47000000000E+01 0.  1.
         -5    1    4    4    0  502 -0.55756641987E+02 -0.50533436782E+02 -0.54634087901E+02  0.93109639240E+02  0.47000000000E+01 0.  1.
          5    1    3    3  503    0 -0.50573879268E+02  0.32614620471E+00 -0.23655867711E+02  0.56031363652E+02  0.47000000000E+01 0. -1.
         -5    1    3    3    0  503  0.71681749053E+02  0.39842362282E+02 -0.33116370438E+02  0.88569018119E+02  0.47000000000E+01 0. -1.
<mgrwt>
<rscale>  0 0.13298730E+03</rscale>
<asrwt>0</asrwt>
<pdfrwt beam="1">  1        5 0.14873310E-01 0.13298941E+03</pdfrwt>
<pdfrwt beam="2">  1       -5 0.28381028E-01 0.13298941E+03</pdfrwt>
<totfact> 0.34112130E+02</totfact>
</mgrwt>
</event>
<event>
 8    1  0.3674342E-007  0.1483919E+03  0.7546771E-02  0.1202468E+00
          5   -1    0    0  501    0  0.00000000000E+00  0.00000000000E+00  0.87854180613E+02  0.87979810475E+02  0.47000000000E+01 0.  1.
         -5   -1    0    0    0  501 -0.00000000000E+00 -0.00000000000E+00 -0.29448613153E+03  0.29452363515E+03  0.47000000000E+01 0.  1.
         25    2    1    2    0    0  0.46751063779E+02 -0.64884987595E+02 -0.17738118483E+03  0.23125613668E+03  0.12497836789E+03 0.  0.
         25    2    1    2    0    0 -0.46751063779E+02  0.64884987595E+02 -0.29250766086E+02  0.15124730895E+03  0.12499767025E+03 0.  0.
          5    1    4    4  502    0  0.30337153874E+02  0.48433511395E+02  0.16905108319E+02  0.59783113155E+02  0.47000000000E+01 0.  1.
         -5    1    4    4    0  502 -0.77088217653E+02  0.16451476200E+02 -0.46155874406E+02  0.91464195794E+02  0.47000000000E+01 0.  1.
          5    1    3    3  503    0  0.12744202007E+02 -0.53216921256E+02 -0.18603990070E+03  0.19397780812E+03  0.47000000000E+01 0.  1.
         -5    1    3    3    0  503  0.34006861772E+02 -0.11668066339E+02  0.86587158641E+01  0.37278328558E+02  0.47000000000E+01 0.  1.
<mgrwt>
<rscale>  0 0.14838779E+03</rscale>
<asrwt>0</asrwt>
<pdfrwt beam="1">  1        5 0.13528577E-01 0.14839185E+03</pdfrwt>
<pdfrwt beam="2">  1       -5 0.45318107E-01 0.14839185E+03</pdfrwt>
<totfact> 0.16355340E+02</totfact>
</mgrwt>
</event>
<event>
 8    1  0.3674342E-007  0.1803238E+03  0.7546771E-02  0.1167491E+00
         -5   -1    0    0    0  501 -0.00000000000E+00  0.00000000000E+00  0.55762959628E+03  0.55764940298E+03  0.47000000000E+01 0.  1.
          5   -1    0    0  501    0  0.00000000000E+00 -0.00000000000E+00 -0.63790772080E+02  0.63963681903E+02  0.47000000000E+01 0.  1.
         25    2    1    2    0    0 -0.98843376264E+02 -0.84377546450E+02  0.33883033023E+03  0.38382634651E+03  0.12500835258E+03 0.  0.
         25    2    1    2    0    0  0.98843376264E+02  0.84377546450E+02  0.15500849397E+03  0.23778673838E+03  0.12500126547E+03 0.  0.
          5    1    4    4  502    0  0.10612648192E+03  0.63925129012E+02  0.55513419340E+02  0.13584212163E+03  0.47000000000E+01 0.  1.
         -5    1    4    4    0  502 -0.72831056533E+01  0.20452417438E+02  0.99495074629E+02  0.10194461674E+03  0.47000000000E+01 0.  1.
          5    1    3    3  503    0 -0.26028897040E+01  0.28388067723E+02  0.85713780442E+02  0.90452195006E+02  0.47000000000E+01 0.  1.
         -5    1    3    3    0  503 -0.96240486560E+02 -0.11276561417E+03  0.25311654979E+03  0.29337415150E+03  0.47000000000E+01 0.  1.
<mgrwt>
<rscale>  0 0.18032257E+03</rscale>
<asrwt>0</asrwt>
<pdfrwt beam="2">  1        5 0.98287892E-02 0.18032380E+03</pdfrwt>
<pdfrwt beam="1">  1       -5 0.85803994E-01 0.18032380E+03</pdfrwt>
<totfact> 0.74275101E+01</totfact>
</mgrwt>
</event>
<event>
 8    1  0.3674342E-007  0.1374938E+03  0.7546771E-02  0.1216762E+00
         -5   -1    0    0    0  501 -0.00000000000E+00  0.00000000000E+00  0.26334579804E+03  0.26338773576E+03  0.47000000000E+01 0.  1.
          5   -1    0    0  501    0  0.00000000000E+00 -0.00000000000E+00 -0.74004266579E+02  0.74153364536E+02  0.47000000000E+01 0.  1.
         25    2    1    2    0    0  0.40643106515E+02  0.40195653907E+02  0.12483721770E+03  0.18566830816E+03  0.12498334702E+03 0.  0.
         25    2    1    2    0    0 -0.40643106515E+02 -0.40195653907E+02  0.64504313763E+02  0.15187279213E+03  0.12504793399E+03 0.  0.
          5    1    4    4  502    0  0.42652283614E+02 -0.25448176583E+02  0.39218119092E+02  0.63458473461E+02  0.47000000000E+01 0. -1.
         -5    1    4    4    0  502 -0.83295390130E+02 -0.14747477324E+02  0.25286194671E+02  0.88414318666E+02  0.47000000000E+01 0. -1.
          5    1    3    3  503    0  0.77231276655E+01 -0.44840662505E+02  0.48333263632E+02  0.66547171902E+02  0.47000000000E+01 0.  1.
         -5    1    3    3    0  503  0.32919978850E+02  0.85036316412E+02  0.76503954068E+02  0.11912113626E+03  0.47000000000E+01 0.  1.
<mgrwt>
<rscale>  0 0.13747909E+03</rscale>
<asrwt>0</asrwt>
<pdfrwt beam="2">  1        5 0.11399967E-01 0.13749378E+03</pdfrwt>
<pdfrwt beam="1">  1       -5 0.40529433E-01 0.13749378E+03</pdfrwt>
<totfact> 0.27242555E+02</totfact>
</mgrwt>
</event>
<event>
 8    1  0.3674342E-007  0.1275308E+03  0.7546771E-02  0.1231168E+00
          5   -1    0    0  501    0  0.00000000000E+00  0.00000000000E+00  0.14643177642E+03  0.14650718462E+03  0.47000000000E+01 0. -1.
         -5   -1    0    0    0  501 -0.00000000000E+00 -0.00000000000E+00 -0.12659657816E+03  0.12668379376E+03  0.47000000000E+01 0. -1.
         25    2    1    2    0    0 -0.48298824201E+01  0.24796080613E+02 -0.38131015647E+02  0.13310924238E+03  0.12500369065E+03 0.  0.
         25    2    1    2    0    0  0.48298824201E+01 -0.24796080613E+02  0.57966213901E+02  0.14008173600E+03  0.12499854970E+03 0.  0.
          5    1    3    3  502    0 -0.58167413316E+02  0.19431202382E+02 -0.48473413649E+02  0.78312077157E+02  0.47000000000E+01 0.  1.
         -5    1    3    3    0  502  0.53337530896E+02  0.53648782305E+01  0.10342398002E+02  0.54797165227E+02  0.47000000000E+01 0.  1.
          5    1    4    4  503    0  0.12624255532E+02 -0.73029853614E+02  0.17084437084E+02  0.76201701668E+02  0.47000000000E+01 0. -1.
         -5    1    4    4    0  503 -0.77943731121E+01  0.48233773001E+02  0.40881776817E+02  0.63880034329E+02  0.47000000000E+01 0. -1.
<mgrwt>
<rscale>  0 0.12752951E+03</rscale>
<asrwt>0</asrwt>
<pdfrwt beam="1">  1        5 0.22540475E-01 0.12753077E+03</pdfrwt>
<pdfrwt beam="2">  1       -5 0.19488906E-01 0.12753077E+03</pdfrwt>
<totfact> 0.31846988E+02</totfact>
</mgrwt>
</event>
<event>
 8    1  0.3674342E-007  0.1256653E+03  0.7546771E-02  0.1234033E+00
          5   -1    0    0  501    0  0.00000000000E+00  0.00000000000E+00  0.91557646608E+02  0.91678201621E+02  0.47000000000E+01 0. -1.
         -5   -1    0    0    0  501 -0.00000000000E+00 -0.00000000000E+00 -0.23037690704E+03  0.23042484522E+03  0.47000000000E+01 0. -1.
         25    2    1    2    0    0  0.70611266138E+01  0.10808082147E+02 -0.15030208165E+03  0.19591419854E+03  0.12499993316E+03 0.  0.
         25    2    1    2    0    0 -0.70611266138E+01 -0.10808082147E+02  0.11482821220E+02  0.12618884831E+03  0.12500038442E+03 0.  0.
          5    1    3    3  502    0 -0.30811559187E+02  0.14526888018E+02 -0.15362498493E+03  0.15742651826E+03  0.47000000000E+01 0. -1.
         -5    1    3    3    0  502  0.37872685801E+02 -0.37188058717E+01  0.33229032835E+01  0.38487680277E+02  0.47000000000E+01 0. -1.
          5    1    4    4  503    0 -0.82767238061E+01 -0.56929771311E+02 -0.29030004595E+02  0.64609087482E+02  0.47000000000E+01 0.  1.
         -5    1    4    4    0  503  0.12155971923E+01  0.46121689165E+02  0.40512825815E+02  0.61579760827E+02  0.47000000000E+01 0.  1.
<mgrwt>
<rscale>  0 0.12566520E+03</rscale>
<asrwt>0</asrwt>
<pdfrwt beam="1">  1        5 0.14098753E-01 0.12566531E+03</pdfrwt>
<pdfrwt beam="2">  1       -5 0.35455562E-01 0.12566531E+03</pdfrwt>
<totfact> 0.23709697E+02</totfact>
</mgrwt>
</event>
<event>
 8    1  0.3674342E-007  0.2071438E+03  0.7546771E-02  0.1143849E+00
         -5   -1    0    0    0  501 -0.00000000000E+00  0.00000000000E+00  0.22087052037E+03  0.22092052139E+03  0.47000000000E+01 0.  1.
          5   -1    0    0  501    0  0.00000000000E+00 -0.00000000000E+00 -0.19629060521E+03  0.19634686576E+03  0.47000000000E+01 0.  1.
         25    2    1    2    0    0 -0.32216193149E+02 -0.16200075405E+03  0.33984364683E+02  0.20991304300E+03  0.12500568453E+03 0.  0.
         25    2    1    2    0    0  0.32216193149E+02  0.16200075405E+03 -0.94044495156E+01  0.20735434415E+03  0.12500101181E+03 0.  0.
          5    1    4    4  502    0  0.52202238184E+02  0.44884728433E+02  0.38668838359E+02  0.79101716656E+02  0.47000000000E+01 0.  1.
         -5    1    4    4    0  502 -0.19986045035E+02  0.11711602561E+03 -0.48073287875E+02  0.12825262749E+03  0.47000000000E+01 0.  1.
          5    1    3    3  503    0 -0.60622886071E+02 -0.28439509270E+02  0.29191219851E+02  0.73199435241E+02  0.47000000000E+01 0. -1.
         -5    1    3    3    0  503  0.28406692922E+02 -0.13356124478E+03  0.47931448316E+01  0.13671360776E+03  0.47000000000E+01 0. -1.
<mgrwt>
<rscale>  0 0.20714308E+03</rscale>
<asrwt>0</asrwt>
<pdfrwt beam="2">  1        5 0.30206729E-01 0.20714379E+03</pdfrwt>
<pdfrwt beam="1">  1       -5 0.33988254E-01 0.20714379E+03</pdfrwt>
<totfact> 0.71863040E+01</totfact>
</mgrwt>
</event>
<event>
 8    1  0.3674342E-007  0.1329972E+03  0.7546771E-02  0.1223076E+00
          5   -1    0    0  501    0  0.00000000000E+00  0.00000000000E+00  0.25400035185E+03  0.25404383232E+03  0.47000000000E+01 0.  1.
         -5   -1    0    0    0  501 -0.00000000000E+00 -0.00000000000E+00 -0.71121210407E+02  0.71276339481E+02  0.47000000000E+01 0.  1.
         25    2    1    2    0    0  0.50035005143E+01  0.45140497248E+02  0.66984322916E+02  0.14891328123E+03  0.12500226518E+03 0.  0.
         25    2    1    2    0    0 -0.50035005143E+01 -0.45140497248E+02  0.11589481853E+03  0.17640689057E+03  0.12500033029E+03 0.  0.
          5    1    4    4  502    0  0.95670224359E+01 -0.86511486138E+02  0.89829792525E+02  0.12516887304E+03  0.47000000000E+01 0.  1.
         -5    1    4    4    0  502 -0.14570522950E+02  0.41370988890E+02  0.26065026002E+02  0.51238017539E+02  0.47000000000E+01 0.  1.
          5    1    3    3  503    0 -0.19441113918E+02  0.73061404600E+02  0.79171009538E+02  0.10957218855E+03  0.47000000000E+01 0.  1.
         -5    1    3    3    0  503  0.24444614432E+02 -0.27920907352E+02 -0.12186686623E+02  0.39341092676E+02  0.47000000000E+01 0.  1.
<mgrwt>
<rscale>  0 0.13299679E+03</rscale>
<asrwt>0</asrwt>
<pdfrwt beam="1">  1        5 0.39092255E-01 0.13299724E+03</pdfrwt>
<pdfrwt beam="2">  1       -5 0.10957002E-01 0.13299724E+03</pdfrwt>
<totfact> 0.31091368E+02</totfact>
</mgrwt>
</event>
<event>
 8    1  0.3674342E-007  0.1307536E+03  0.7546771E-02  0.1226349E+00
          5   -1    0    0  501    0  0.00000000000E+00  0.00000000000E+00  0.35788865388E+03  0.35791951410E+03  0.47000000000E+01 0.  1.
         -5   -1    0    0    0  501 -0.00000000000E+00 -0.00000000000E+00 -0.60036243011E+02  0.60219934199E+02  0.47000000000E+01 0.  1.
         25    2    1    2    0    0  0.32801933990E+02 -0.19793984159E+02  0.54007018981E+02  0.14144993880E+03  0.12499423348E+03 0.  0.
         25    2    1    2    0    0 -0.32801933990E+02  0.19793984159E+02  0.24384539188E+03  0.27668950950E+03  0.12501496248E+03 0.  0.
          5    1    3    3  502    0 -0.13854641559E+02 -0.46319134931E+02 -0.17752747466E+02  0.51717147989E+02  0.47000000000E+01 0.  1.
         -5    1    3    3    0  502  0.46656575549E+02  0.26525150772E+02  0.71759766447E+02  0.89732790807E+02  0.47000000000E+01 0.  1.
          5    1    4    4  503    0 -0.66128473008E+02  0.51126091935E+02  0.17358863968E+03  0.19272248972E+03  0.47000000000E+01 0.  1.
         -5    1    4    4    0  503  0.33326539018E+02 -0.31332107776E+02  0.70256752203E+02  0.83967019780E+02  0.47000000000E+01 0.  1.
<mgrwt>
<rscale>  0 0.13074867E+03</rscale>
<asrwt>0</asrwt>
<pdfrwt beam="1">  1        5 0.55076299E-01 0.13075362E+03</pdfrwt>
<pdfrwt beam="2">  1       -5 0.92528487E-02 0.13075362E+03</pdfrwt>
<totfact> 0.20255826E+02</totfact>
</mgrwt>
</event>
<event>
 8    1  0.3674342E-007  0.1366130E+03  0.7546771E-02  0.1217964E+00
         -5   -1    0    0    0  501 -0.00000000000E+00  0.00000000000E+00  0.36653357004E+03  0.36656370247E+03  0.47000000000E+01 0.  1.
          5   -1    0    0  501    0  0.00000000000E+00 -0.00000000000E+00 -0.51566067777E+02  0.51779816009E+02  0.47000000000E+01 0.  1.
         25    2    1    2    0    0  0.28103062321E+02  0.47401203008E+02  0.18335590642E+03  0.22865364350E+03  0.12500577629E+03 0.  0.
         25    2    1    2    0    0 -0.28103062321E+02 -0.47401203008E+02  0.13161159584E+03  0.18968987498E+03  0.12499592134E+03 0.  0.
          5    1    3    3  502    0  0.27546895175E+02 -0.39174139481E+02  0.83811071640E+02  0.96642797803E+02  0.47000000000E+01 0.  1.
         -5    1    3    3    0  502  0.55616714582E+00  0.86575342488E+02  0.99544834784E+02  0.13201084569E+03  0.47000000000E+01 0.  1.
          5    1    4    4  503    0 -0.58766687404E+01 -0.41151857553E+02 -0.12502412215E+02  0.43662465881E+02  0.47000000000E+01 0. -1.
         -5    1    4    4    0  503 -0.22226393581E+02 -0.62493454543E+01  0.14411400806E+03  0.14602740910E+03  0.47000000000E+01 0. -1.
<mgrwt>
<rscale>  0 0.13661070E+03</rscale>
<asrwt>0</asrwt>
<pdfrwt beam="2">  1        5 0.79520013E-02 0.13661296E+03</pdfrwt>
<pdfrwt beam="1">  1       -5 0.56408540E-01 0.13661296E+03</pdfrwt>
<totfact> 0.25354343E+02</totfact>
</mgrwt>
</event>
<event>
 8    1  0.3674342E-007  0.1409854E+03  0.7546771E-02  0.1212009E+00
         -5   -1    0    0    0  501 -0.00000000000E+00  0.00000000000E+00  0.26743511317E+03  0.26747640972E+03  0.47000000000E+01 0. -1.
          5   -1    0    0  501    0  0.00000000000E+00 -0.00000000000E+00 -0.75104550762E+02  0.75251468725E+02  0.47000000000E+01 0. -1.
         25    2    1    2    0    0  0.37136919401E+02 -0.53600297601E+02  0.11491981681E+03  0.18188851403E+03  0.12499889822E+03 0.  0.
         25    2    1    2    0    0 -0.37136919401E+02  0.53600297601E+02  0.77410745592E+02  0.16083936441E+03  0.12499893969E+03 0.  0.
          5    1    3    3  502    0 -0.22656933114E+02 -0.88632093088E-01 -0.16091590153E+02  0.28184636727E+02  0.47000000000E+01 0.  1.
         -5    1    3    3    0  502  0.59793852515E+02 -0.53511665508E+02  0.13101140697E+03  0.15370387731E+03  0.47000000000E+01 0.  1.
          5    1    4    4  503    0 -0.62593439653E+02  0.43747917024E+02 -0.22055011865E+01  0.76542623205E+02  0.47000000000E+01 0. -1.
         -5    1    4    4    0  503  0.25456520252E+02  0.98523805770E+01  0.79616246779E+02  0.84296741203E+02  0.47000000000E+01 0. -1.
<mgrwt>
<rscale>  0 0.14098537E+03</rscale>
<asrwt>0</asrwt>
<pdfrwt beam="2">  1        5 0.11569024E-01 0.14098538E+03</pdfrwt>
<pdfrwt beam="1">  1       -5 0.41158341E-01 0.14098538E+03</pdfrwt>
<totfact> 0.25937398E+02</totfact>
</mgrwt>
</event>
<event>
 8    1  0.3674342E-007  0.1275610E+03  0.7546771E-02  0.1231121E+00
         -5   -1    0    0    0  501 -0.00000000000E+00  0.00000000000E+00  0.20792618073E+03  0.20797929376E+03  0.47000000000E+01 0.  1.
          5   -1    0    0  501    0  0.00000000000E+00 -0.00000000000E+00 -0.78229873317E+02  0.78370932616E+02  0.47000000000E+01 0.  1.
         25    2    1    2    0    0  0.18319951286E+01  0.25391175345E+02  0.70132373991E+02  0.14556911851E+03  0.12499500147E+03 0.  0.
         25    2    1    2    0    0 -0.18319951286E+01 -0.25391175345E+02  0.59563933420E+02  0.14078110786E+03  0.12499356053E+03 0.  0.
          5    1    4    4  502    0 -0.92003177131E+01  0.41985039717E+02 -0.91010728665E+01  0.44184940120E+02  0.47000000000E+01 0.  1.
         -5    1    4    4    0  502  0.73683225845E+01 -0.67376215062E+02  0.68665006287E+02  0.96596167741E+02  0.47000000000E+01 0.  1.
          5    1    3    3  503    0  0.43698760201E+02  0.18553576114E+02  0.87364054890E+02  0.99540870584E+02  0.47000000000E+01 0. -1.
         -5    1    3    3    0  503 -0.41866765073E+02  0.68375992310E+01 -0.17231680899E+02  0.46028247930E+02  0.47000000000E+01 0. -1.
<mgrwt>
<rscale>  0 0.12756068E+03</rscale>
<asrwt>0</asrwt>
<pdfrwt beam="2">  1        5 0.12050302E-01 0.12756104E+03</pdfrwt>
<pdfrwt beam="1">  1       -5 0.32003579E-01 0.12756104E+03</pdfrwt>
<totfact> 0.38677997E+02</totfact>
</mgrwt>
</event>
<event>
 8    1  0.3674342E-007  0.1831848E+03  0.7546771E-02  0.1164756E+00
          5   -1    0    0  501    0  0.00000000000E+00  0.00000000000E+00  0.30442174641E+02  0.30802856960E+02  0.47000000000E+01 0. -1.
         -5   -1    0    0    0  501 -0.00000000000E+00 -0.00000000000E+00 -0.11263381161E+04  0.11263479222E+04  0.47000000000E+01 0. -1.
         25    2    1    2    0    0  0.84496785978E+02 -0.10388685058E+03 -0.64374355397E+03  0.66929993240E+03  0.12499780668E+03 0.  0.
         25    2    1    2    0    0 -0.84496785978E+02  0.10388685058E+03 -0.45215238747E+03  0.48785084671E+03  0.12499793029E+03 0.  0.
          5    1    3    3  502    0 -0.13797362485E+02 -0.67616747098E+02 -0.36462791171E+03  0.37113069894E+03  0.47000000000E+01 0.  1.
         -5    1    3    3    0  502  0.98294148462E+02 -0.36270103482E+02 -0.27911564226E+03  0.29816923346E+03  0.47000000000E+01 0.  1.
          5    1    4    4  503    0 -0.77159841234E+02  0.16122962695E+02 -0.31532351286E+03  0.32506091551E+03  0.47000000000E+01 0. -1.
         -5    1    4    4    0  503 -0.73369447440E+01  0.87763887885E+02 -0.13682887461E+03  0.16278993120E+03  0.47000000000E+01 0. -1.
<mgrwt>
<rscale>  0 0.18318477E+03</rscale>
<asrwt>0</asrwt>
<pdfrwt beam="1">  1        5 0.47119115E-02 0.18318479E+03</pdfrwt>
<pdfrwt beam="2">  1       -5 0.17331125E+00 0.18318479E+03</pdfrwt>
<totfact> 0.42082544E+01</totfact>
</mgrwt>
</event>
<event>
 8    1  0.3674342E-007  0.1339866E+03  0.7546771E-02  0.1221658E+00
          5   -1    0    0  501    0  0.00000000000E+00  0.00000000000E+00  0.23030146008E+03  0.23034941397E+03  0.47000000000E+01 0.  1.
         -5   -1    0    0    0  501 -0.00000000000E+00 -0.00000000000E+00 -0.10742020322E+03  0.10752297457E+03  0.47000000000E+01 0.  1.
         25    2    1    2    0    0 -0.25110195633E+02 -0.41197417331E+02 -0.27162491634E+02  0.13671194198E+03  0.12499842002E+03 0.  0.
         25    2    1    2    0    0  0.25110195633E+02  0.41197417331E+02  0.15004374849E+03  0.20116044656E+03  0.12499859871E+03 0.  0.
          5    1    3    3  502    0 -0.52711809099E+02  0.27331804658E+02 -0.68990850888E+01  0.59960401428E+02  0.47000000000E+01 0. -1.
         -5    1    3    3    0  502  0.27601613466E+02 -0.68529221989E+02 -0.20263406545E+02  0.76751540552E+02  0.47000000000E+01 0. -1.
          5    1    4    4  503    0  0.43243339850E+01  0.20023984790E+02  0.16587642063E+03  0.16720268166E+03  0.47000000000E+01 0.  1.
         -5    1    4    4    0  503  0.20785861648E+02  0.21173432541E+02 -0.15832672144E+02  0.33957764903E+02  0.47000000000E+01 0.  1.
<mgrwt>
<rscale>  0 0.13398652E+03</rscale>
<asrwt>0</asrwt>
<pdfrwt beam="1">  1        5 0.35442588E-01 0.13398656E+03</pdfrwt>
<pdfrwt beam="2">  1       -5 0.16537779E-01 0.13398656E+03</pdfrwt>
<totfact> 0.18179284E+02</totfact>
</mgrwt>
</event>
<event>
 8    1  0.3674342E-007  0.1364669E+03  0.7546771E-02  0.1218168E+00
          5   -1    0    0  501    0  0.00000000000E+00  0.00000000000E+00  0.17713088502E+02  0.18326033512E+02  0.47000000000E+01 0.  1.
         -5   -1    0    0    0  501 -0.00000000000E+00 -0.00000000000E+00 -0.10350919804E+04  0.10351026509E+04  0.47000000000E+01 0.  1.
         25    2    1    2    0    0  0.18742055804E+02  0.51407826239E+02 -0.53348431548E+03  0.55065917650E+03  0.12500393810E+03 0.  0.
         25    2    1    2    0    0 -0.18742055804E+02 -0.51407826239E+02 -0.48389457639E+03  0.50276950788E+03  0.12501674985E+03 0.  0.
          5    1    3    3  502    0 -0.19190955385E+00  0.30006145469E+02 -0.20016100442E+02  0.36374989651E+02  0.47000000000E+01 0.  1.
         -5    1    3    3    0  502  0.18933965358E+02  0.21401680770E+02 -0.51346821504E+03  0.51428418685E+03  0.47000000000E+01 0.  1.
          5    1    4    4  503    0 -0.56880961719E+02 -0.72757305922E+02 -0.32264454239E+03  0.33563471230E+03  0.47000000000E+01 0. -1.
         -5    1    4    4    0  503  0.38138905914E+02  0.21349479683E+02 -0.16125003401E+03  0.16713479558E+03  0.47000000000E+01 0. -1.
<mgrwt>
<rscale>  0 0.13646397E+03</rscale>
<asrwt>0</asrwt>
<pdfrwt beam="1">  1        5 0.27730618E-02 0.13646691E+03</pdfrwt>
<pdfrwt beam="2">  1       -5 0.15929284E+00 0.13646691E+03</pdfrwt>
<totfact> 0.11721493E+02</totfact>
</mgrwt>
</event>
<event>
 8    1  0.3674342E-007  0.1648120E+03  0.7546771E-02  0.1183379E+00
         -5   -1    0    0    0  501 -0.00000000000E+00  0.00000000000E+00  0.24657673967E+02  0.25101611212E+02  0.47000000000E+01 0. -1.
          5   -1    0    0  501    0  0.00000000000E+00 -0.00000000000E+00 -0.10996741376E+04  0.10996841815E+04  0.47000000000E+01 0. -1.
         25    2    1    2    0    0 -0.82855060631E+02 -0.68283390235E+02 -0.48774904897E+03  0.51483005833E+03  0.12499308674E+03 0.  0.
         25    2    1    2    0    0  0.82855060631E+02  0.68283390235E+02 -0.58726741471E+03  0.60995573437E+03  0.12504158930E+03 0.  0.
          5    1    3    3  502    0 -0.76700604427E+02 -0.97273573592E+02 -0.29850731537E+03  0.32322412993E+03  0.47000000000E+01 0. -1.
         -5    1    3    3    0  502 -0.61544562046E+01  0.28990183357E+02 -0.18924173360E+03  0.19160592840E+03  0.47000000000E+01 0. -1.
          5    1    4    4  503    0  0.88197743187E+02 -0.29919642759E+01 -0.24984009599E+03  0.26500935326E+03  0.47000000000E+01 0.  1.
         -5    1    4    4    0  503 -0.53426825560E+01  0.71275354511E+02 -0.33742731872E+03  0.34494638110E+03  0.47000000000E+01 0.  1.
<mgrwt>
<rscale>  0 0.16480276E+03</rscale>
<asrwt>0</asrwt>
<pdfrwt beam="2">  1        5 0.16921552E+00 0.16481196E+03</pdfrwt>
<pdfrwt beam="1">  1       -5 0.38284108E-02 0.16481196E+03</pdfrwt>
<totfact> 0.61818386E+01</totfact>
</mgrwt>
</event>
<event>
 8    1  0.3674342E-007  0.1481267E+03  0.7546771E-02  0.1202796E+00
         -5   -1    0    0    0  501 -0.00000000000E+00  0.00000000000E+00  0.75905741285E+02  0.76051111498E+02  0.47000000000E+01 0. -1.
          5   -1    0    0  501    0  0.00000000000E+00 -0.00000000000E+00 -0.31168796389E+03  0.31172339795E+03  0.47000000000E+01 0. -1.
         25    2    1    2    0    0 -0.61975870573E+01 -0.79223481415E+02 -0.65152455762E+02  0.16182196396E+03  0.12500694155E+03 0.  0.
         25    2    1    2    0    0  0.61975870573E+01  0.79223481415E+02 -0.17062976684E+03  0.22595254549E+03  0.12500106155E+03 0.  0.
          5    1    3    3  502    0 -0.25194063892E+02 -0.79022370087E+02  0.10448604398E+02  0.83728962513E+02  0.47000000000E+01 0. -1.
         -5    1    3    3    0  502  0.18996476835E+02 -0.20111132742E+00 -0.75601060160E+02  0.78093001449E+02  0.47000000000E+01 0. -1.
          5    1    4    4  503    0  0.17841710543E+02  0.75912160633E+02 -0.28389357282E+02  0.83120565289E+02  0.47000000000E+01 0.  1.
         -5    1    4    4    0  503 -0.11644123486E+02  0.33113207816E+01 -0.14224040956E+03  0.14283198020E+03  0.47000000000E+01 0.  1.
<mgrwt>
<rscale>  0 0.14812541E+03</rscale>
<asrwt>0</asrwt>
<pdfrwt beam="2">  1        5 0.47965902E-01 0.14812665E+03</pdfrwt>
<pdfrwt beam="1">  1       -5 0.11691715E-01 0.14812665E+03</pdfrwt>
<totfact> 0.18820167E+02</totfact>
</mgrwt>
</event>
<event>
 8    1  0.3674342E-007  0.1552280E+03  0.7546771E-02  0.1194193E+00
          5   -1    0    0  501    0  0.00000000000E+00  0.00000000000E+00  0.67731237426E+02  0.67894112582E+02  0.47000000000E+01 0. -1.
         -5   -1    0    0    0  501 -0.00000000000E+00 -0.00000000000E+00 -0.35515412788E+03  0.35518522569E+03  0.47000000000E+01 0. -1.
         25    2    1    2    0    0 -0.86017130933E+02 -0.32753278078E+02 -0.14241372934E+03  0.21065944052E+03  0.12499602208E+03 0.  0.
         25    2    1    2    0    0  0.86017130933E+02  0.32753278078E+02 -0.14500916111E+03  0.21241989775E+03  0.12499132817E+03 0.  0.
          5    1    4    4  502    0  0.23733202879E+02  0.73606685926E+02 -0.94952067570E+02  0.12255282236E+03  0.47000000000E+01 0. -1.
         -5    1    4    4    0  502  0.62283928055E+02 -0.40853407848E+02 -0.50057093542E+02  0.89867075398E+02  0.47000000000E+01 0. -1.
          5    1    3    3  503    0  0.23552326657E+02 -0.20476124736E+02 -0.13920771784E+01  0.31591322448E+02  0.47000000000E+01 0. -1.
         -5    1    3    3    0  503 -0.10956945759E+03 -0.12277153342E+02 -0.14102165217E+03  0.17906811807E+03  0.47000000000E+01 0. -1.
<mgrwt>
<rscale>  0 0.15522705E+03</rscale>
<asrwt>0</asrwt>
<pdfrwt beam="1">  1        5 0.10435112E-01 0.15522799E+03</pdfrwt>
<pdfrwt beam="2">  1       -5 0.54654017E-01 0.15522799E+03</pdfrwt>
<totfact> 0.17678272E+02</totfact>
</mgrwt>
</event>
<event>
 8    1  0.3674342E-007  0.1838389E+03  0.7546771E-02  0.1164139E+00
         -5   -1    0    0    0  501 -0.00000000000E+00  0.00000000000E+00  0.23943655512E+03  0.23948267981E+03  0.47000000000E+01 0.  1.
          5   -1    0    0  501    0  0.00000000000E+00 -0.00000000000E+00 -0.14863707567E+03  0.14871136562E+03  0.47000000000E+01 0.  1.
         25    2    1    2    0    0 -0.91131400552E+02  0.99322477726E+02  0.89229872215E+02  0.20434846638E+03  0.12500575534E+03 0.  0.
         25    2    1    2    0    0  0.91131400552E+02 -0.99322477726E+02  0.15696072321E+01  0.18384557905E+03  0.12500738586E+03 0.  0.
          5    1    3    3  502    0 -0.15120437172E+01 -0.22901497315E+02  0.37344159158E+02  0.44084476618E+02  0.47000000000E+01 0.  1.
         -5    1    3    3    0  502 -0.89619356835E+02  0.12222397504E+03  0.51885713057E+02  0.16026398976E+03  0.47000000000E+01 0.  1.
          5    1    4    4  503    0  0.97272834994E+02 -0.24413649219E+02 -0.25897131864E+02  0.10368597849E+03  0.47000000000E+01 0. -1.
         -5    1    4    4    0  503 -0.61414344417E+01 -0.74908828506E+02  0.27466739097E+02  0.80159600559E+02  0.47000000000E+01 0. -1.
<mgrwt>
<rscale>  0 0.18383860E+03</rscale>
<asrwt>0</asrwt>
<pdfrwt beam="2">  1        5 0.22876505E-01 0.18383888E+03</pdfrwt>
<pdfrwt beam="1">  1       -5 0.36845655E-01 0.18383888E+03</pdfrwt>
<totfact> 0.10131873E+02</totfact>
</mgrwt>
</event>
<event>
 8    1  0.3674342E-007  0.1379272E+03  0.7546771E-02  0.1216147E+00
         -5   -1    0    0    0  501 -0.00000000000E+00  0.00000000000E+00  0.10739702350E+03  0.10749981701E+03  0.47000000000E+01 0.  1.
          5   -1    0    0  501    0  0.00000000000E+00 -0.00000000000E+00 -0.18008814309E+03  0.18014946373E+03  0.47000000000E+01 0.  1.
         25    2    1    2    0    0 -0.35098015377E+02  0.46552125514E+02 -0.17251130823E+02  0.13900182521E+03  0.12499973929E+03 0.  0.
         25    2    1    2    0    0  0.35098015377E+02 -0.46552125514E+02 -0.55439988772E+02  0.14864745553E+03  0.12499401029E+03 0.  0.
          5    1    3    3  502    0  0.44721604298E+02  0.34326080226E+02 -0.14793291294E+01  0.56591342883E+02  0.47000000000E+01 0. -1.
         -5    1    3    3    0  502 -0.79819619674E+02  0.12226045288E+02 -0.15771801694E+02  0.82410482325E+02  0.47000000000E+01 0. -1.
          5    1    4    4  503    0 -0.45102100498E+02 -0.38554333684E+01 -0.28765745580E+02  0.53838851720E+02  0.47000000000E+01 0. -1.
         -5    1    4    4    0  503  0.80200115875E+02 -0.42696692146E+02 -0.26674243192E+02  0.94808603810E+02  0.47000000000E+01 0. -1.
<mgrwt>
<rscale>  0 0.13792588E+03</rscale>
<asrwt>0</asrwt>
<pdfrwt beam="2">  1        5 0.27718492E-01 0.13792718E+03</pdfrwt>
<pdfrwt beam="1">  1       -5 0.16535243E-01 0.13792718E+03</pdfrwt>
<totfact> 0.29832464E+02</totfact>
</mgrwt>
</event>
<event>
 8    1  0.3674342E-007  0.1279205E+03  0.7546771E-02  0.1230582E+00
         -5   -1    0    0    0  501 -0.00000000000E+00  0.00000000000E+00  0.52892194661E+03  0.52894282830E+03  0.47000000000E+01 0.  1.
          5   -1    0    0  501    0  0.00000000000E+00 -0.00000000000E+00 -0.39145600649E+02  0.39426742830E+02  0.47000000000E+01 0.  1.
         25    2    1    2    0    0 -0.37708229852E+01  0.26835237525E+02  0.37604803950E+03  0.39720365877E+03  0.12499707776E+03 0.  0.
         25    2    1    2    0    0  0.37708229852E+01 -0.26835237525E+02  0.11372830646E+03  0.17116591236E+03  0.12501716995E+03 0.  0.
          5    1    4    4  502    0 -0.16141686596E+01  0.41414326021E+02  0.88883363057E+02  0.98183981222E+02  0.47000000000E+01 0.  1.
         -5    1    4    4    0  502  0.53849916449E+01 -0.68249563546E+02  0.24844943403E+02  0.72981931133E+02  0.47000000000E+01 0.  1.
          5    1    3    3  503    0 -0.28120703411E+02 -0.30742854865E+02  0.50326129572E+02  0.65503483902E+02  0.47000000000E+01 0.  1.
         -5    1    3    3    0  503  0.24349880426E+02  0.57578092390E+02  0.32572190993E+03  0.33170017487E+03  0.47000000000E+01 0.  1.
<mgrwt>
<rscale>  0 0.12791554E+03</rscale>
<asrwt>0</asrwt>
<pdfrwt beam="2">  1        5 0.60456330E-02 0.12792045E+03</pdfrwt>
<pdfrwt beam="1">  1       -5 0.81395836E-01 0.12792045E+03</pdfrwt>
<totfact> 0.17362928E+02</totfact>
</mgrwt>
</event>
<event>
 8    1  0.3674342E-007  0.1494224E+03  0.7546771E-02  0.1201185E+00
         -5   -1    0    0    0  501 -0.00000000000E+00  0.00000000000E+00  0.27494377877E+03  0.27498394768E+03  0.47000000000E+01 0. -1.
          5   -1    0    0  501    0  0.00000000000E+00 -0.00000000000E+00 -0.83538226120E+02  0.83670336579E+02  0.47000000000E+01 0. -1.
         25    2    1    2    0    0 -0.32587420596E+02 -0.75106971157E+02  0.12636577809E+03  0.19569043572E+03  0.12499375848E+03 0.  0.
         25    2    1    2    0    0  0.32587420596E+02  0.75106971157E+02  0.65039774556E+02  0.16296384855E+03  0.12499618619E+03 0.  0.
          5    1    4    4  502    0 -0.47035129454E+01  0.87543358361E+02  0.11509912638E+01  0.87803060357E+02  0.47000000000E+01 0.  1.
         -5    1    4    4    0  502  0.37290933542E+02 -0.12436387204E+02  0.63888783292E+02  0.75160788192E+02  0.47000000000E+01 0.  1.
          5    1    3    3  503    0  0.11260549332E+02 -0.96562076864E+02  0.10179529221E+03  0.14083822697E+03  0.47000000000E+01 0.  1.
         -5    1    3    3    0  503 -0.43847969929E+02  0.21455105707E+02  0.24570485881E+02  0.54852208745E+02  0.47000000000E+01 0.  1.
<mgrwt>
<rscale>  0 0.14942186E+03</rscale>
<asrwt>0</asrwt>
<pdfrwt beam="2">  1        5 0.12865287E-01 0.14942237E+03</pdfrwt>
<pdfrwt beam="1">  1       -5 0.42312295E-01 0.14942237E+03</pdfrwt>
<totfact> 0.20685274E+02</totfact>
</mgrwt>
</event>
<event>
 8    1  0.3674342E-007  0.1309619E+03  0.7546771E-02  0.1226044E+00
          5   -1    0    0  501    0  0.00000000000E+00  0.00000000000E+00  0.39236544362E+02  0.39517039533E+02  0.47000000000E+01 0. -1.
         -5   -1    0    0    0  501 -0.00000000000E+00 -0.00000000000E+00 -0.47636578294E+03  0.47638896834E+03  0.47000000000E+01 0. -1.
         25    2    1    2    0    0  0.18249699314E+02 -0.34475390838E+02 -0.29439693349E+03  0.32221201123E+03  0.12501768531E+03 0.  0.
         25    2    1    2    0    0 -0.18249699314E+02  0.34475390838E+02 -0.14273230509E+03  0.19369399663E+03  0.12499299708E+03 0.  0.
          5    1    4    4  502    0  0.18250285204E+02  0.20585740963E+02 -0.15095092175E+03  0.15350933659E+03  0.47000000000E+01 0.  1.
         -5    1    4    4    0  502 -0.36499984518E+02  0.13889649875E+02  0.82186166635E+01  0.40184660050E+02  0.47000000000E+01 0.  1.
          5    1    3    3  503    0  0.54434623992E+02 -0.61908130388E+02 -0.21928520602E+03  0.23431567697E+03  0.47000000000E+01 0. -1.
         -5    1    3    3    0  503 -0.36184924679E+02  0.27432739550E+02 -0.75111727467E+02  0.87896334260E+02  0.47000000000E+01 0. -1.
<mgrwt>
<rscale>  0 0.13095603E+03</rscale>
<asrwt>0</asrwt>
<pdfrwt beam="1">  1        5 0.60597518E-02 0.13096192E+03</pdfrwt>
<pdfrwt beam="2">  1       -5 0.73310399E-01 0.13096192E+03</pdfrwt>
<totfact> 0.22170036E+02</totfact>
</mgrwt>
</event>
<event>
 8    1  0.3674342E-007  0.1289996E+03  0.7546771E-02  0.1228951E+00
          5   -1    0    0  501    0  0.00000000000E+00  0.00000000000E+00  0.39911735535E+03  0.39914502796E+03  0.47000000000E+01 0.  1.
         -5   -1    0    0    0  501 -0.00000000000E+00 -0.00000000000E+00 -0.60017178331E+02  0.60200927690E+02  0.47000000000E+01 0.  1.
         25    2    1    2    0    0 -0.26586533260E+02 -0.17581263262E+02  0.42342557988E+02  0.13576291365E+03  0.12499092742E+03 0.  0.
         25    2    1    2    0    0  0.26586533260E+02  0.17581263262E+02  0.29675761904E+03  0.32358304200E+03  0.12499982418E+03 0.  0.
          5    1    3    3  502    0  0.45069555232E+02  0.31332402516E+01  0.40727548557E+02  0.61007419342E+02  0.47000000000E+01 0.  1.
         -5    1    3    3    0  502 -0.71656088492E+02 -0.20714503513E+02  0.16150094304E+01  0.74755494308E+02  0.47000000000E+01 0.  1.
          5    1    4    4  503    0  0.70947031297E+02  0.54399070314E+01  0.24005057517E+03  0.25041853461E+03  0.47000000000E+01 0.  1.
         -5    1    4    4    0  503 -0.44360498036E+02  0.12141356230E+02  0.56707043868E+02  0.73164507389E+02  0.47000000000E+01 0.  1.
<mgrwt>
<rscale>  0 0.12899746E+03</rscale>
<asrwt>0</asrwt>
<pdfrwt beam="1">  1        5 0.61418935E-01 0.12899961E+03</pdfrwt>
<pdfrwt beam="2">  1       -5 0.92496750E-02 0.12899961E+03</pdfrwt>
<totfact> 0.15916332E+02</totfact>
</mgrwt>
</event>
<event>
 8    1  0.3674342E-007  0.1449726E+03  0.7546771E-02  0.1206792E+00
          5   -1    0    0  501    0  0.00000000000E+00  0.00000000000E+00  0.32282915463E+03  0.32286336596E+03  0.47000000000E+01 0. -1.
         -5   -1    0    0    0  501 -0.00000000000E+00 -0.00000000000E+00 -0.66027305701E+02  0.66194373614E+02  0.47000000000E+01 0. -1.
         25    2    1    2    0    0 -0.73271613124E+02  0.48218122073E+01  0.10391810492E+03  0.17836720865E+03  0.12499563764E+03 0.  0.
         25    2    1    2    0    0  0.73271613124E+02 -0.48218122073E+01  0.15288374401E+03  0.21069053092E+03  0.12500032590E+03 0.  0.
          5    1    4    4  502    0 -0.33455386812E+02 -0.15786089338E+02  0.33714179600E+02  0.50271258482E+02  0.47000000000E+01 0.  1.
         -5    1    4    4    0  502  0.10672699994E+03  0.10964277130E+02  0.11916956441E+03  0.16041927244E+03  0.47000000000E+01 0.  1.
          5    1    3    3  503    0  0.90206112912E+01 -0.37514226855E+02  0.69286037623E+02  0.79443902561E+02  0.47000000000E+01 0. -1.
         -5    1    3    3    0  503 -0.82292224415E+02  0.42336039062E+02  0.34632067292E+02  0.98923306089E+02  0.47000000000E+01 0. -1.
<mgrwt>
<rscale>  0 0.14497161E+03</rscale>
<asrwt>0</asrwt>
<pdfrwt beam="1">  1        5 0.49681506E-01 0.14497262E+03</pdfrwt>
<pdfrwt beam="2">  1       -5 0.10173530E-01 0.14497262E+03</pdfrwt>
<totfact> 0.22160454E+02</totfact>
</mgrwt>
</event>
<event>
 8    1  0.3674342E-007  0.1333790E+03  0.7546771E-02  0.1222527E+00
         -5   -1    0    0    0  501 -0.00000000000E+00  0.00000000000E+00  0.20241094071E+03  0.20246550057E+03  0.47000000000E+01 0.  1.
          5   -1    0    0  501    0  0.00000000000E+00 -0.00000000000E+00 -0.14591778000E+03  0.14599345369E+03  0.47000000000E+01 0.  1.
         25    2    1    2    0    0  0.43803464182E+01  0.46328907353E+02  0.13818255133E+03  0.19205306618E+03  0.12499763056E+03 0.  0.
         25    2    1    2    0    0 -0.43803464182E+01 -0.46328907353E+02 -0.81689390619E+02  0.15640588808E+03  0.12499636072E+03 0.  0.
          5    1    3    3  502    0  0.65199284429E+01  0.85099848302E+02  0.59386452311E+02  0.10408330493E+03  0.47000000000E+01 0.  1.
         -5    1    3    3    0  502 -0.21395820247E+01 -0.38770940949E+02  0.78796099019E+02  0.87969761248E+02  0.47000000000E+01 0.  1.
          5    1    4    4  503    0  0.15624416393E+02 -0.81441692522E+02 -0.25214733105E+02  0.86802905678E+02  0.47000000000E+01 0. -1.
         -5    1    4    4    0  503 -0.20004762812E+02  0.35112785170E+02 -0.56474657514E+02  0.69602982399E+02  0.47000000000E+01 0. -1.
<mgrwt>
<rscale>  0 0.13337872E+03</rscale>
<asrwt>0</asrwt>
<pdfrwt beam="2">  1        5 0.22458907E-01 0.13337902E+03</pdfrwt>
<pdfrwt beam="1">  1       -5 0.31150163E-01 0.13337902E+03</pdfrwt>
<totfact> 0.13289353E+02</totfact>
</mgrwt>
</event>
<event>
 8    1  0.3674342E-007  0.1514821E+03  0.7546771E-02  0.1198664E+00
         -5   -1    0    0    0  501 -0.00000000000E+00  0.00000000000E+00  0.14107213124E+02  0.14869548148E+02  0.47000000000E+01 0. -1.
          5   -1    0    0  501    0  0.00000000000E+00 -0.00000000000E+00 -0.15923438696E+04  0.15923508059E+04  0.47000000000E+01 0. -1.
         25    2    1    2    0    0 -0.78169716503E+02 -0.34807506259E+02 -0.72767608533E+03  0.74327605710E+03  0.12499897932E+03 0.  0.
         25    2    1    2    0    0  0.78169716503E+02  0.34807506259E+02 -0.85056057116E+03  0.86394429696E+03  0.12499758385E+03 0.  0.
          5    1    3    3  502    0 -0.92360301529E+01  0.42838733911E+02 -0.29601077972E+03  0.29927401004E+03  0.47000000000E+01 0.  1.
         -5    1    3    3    0  502 -0.68933686350E+02 -0.77646240170E+02 -0.43166530561E+03  0.44400204706E+03  0.47000000000E+01 0.  1.
          5    1    4    4  503    0  0.89861996576E+02 -0.18461212599E+02 -0.63161111401E+03  0.63825597071E+03  0.47000000000E+01 0. -1.
         -5    1    4    4    0  503 -0.11692280073E+02  0.53268718858E+02 -0.21894945715E+03  0.22568832625E+03  0.47000000000E+01 0. -1.
<mgrwt>
<rscale>  0 0.15148176E+03</rscale>
<asrwt>0</asrwt>
<pdfrwt beam="2">  1        5 0.24503502E+00 0.15148205E+03</pdfrwt>
<pdfrwt beam="1">  1       -5 0.22295165E-02 0.15148205E+03</pdfrwt>
<totfact> 0.44555574E+01</totfact>
</mgrwt>
</event>
<event>
 8    1  0.3674342E-007  0.1492473E+03  0.7546771E-02  0.1201409E+00
          5   -1    0    0  501    0  0.00000000000E+00  0.00000000000E+00  0.30437094790E+03  0.30440723370E+03  0.47000000000E+01 0. -1.
         -5   -1    0    0    0  501 -0.00000000000E+00 -0.00000000000E+00 -0.11407377705E+03  0.11417055930E+03  0.47000000000E+01 0. -1.
         25    2    1    2    0    0  0.54577611888E+02  0.60541946090E+02 -0.30259587586E+02  0.15228395145E+03  0.12502286299E+03 0.  0.
         25    2    1    2    0    0 -0.54577611888E+02 -0.60541946090E+02  0.22055675844E+03  0.26629384155E+03  0.12499233335E+03 0.  0.
          5    1    4    4  502    0 -0.42663614034E+02 -0.83714525123E+02  0.22059460202E+03  0.23981737660E+03  0.47000000000E+01 0. -1.
         -5    1    4    4    0  502 -0.11913997854E+02  0.23172579033E+02 -0.37843578080E-01  0.26476464947E+02  0.47000000000E+01 0. -1.
          5    1    3    3  503    0  0.39775652962E+02  0.56485036225E+02 -0.76590432217E+02  0.10325137381E+03  0.47000000000E+01 0.  1.
         -5    1    3    3    0  503  0.14801958926E+02  0.40569098644E+01  0.46330844631E+02  0.49032577639E+02  0.47000000000E+01 0.  1.
<mgrwt>
<rscale>  0 0.14924092E+03</rscale>
<asrwt>0</asrwt>
<pdfrwt beam="1">  1        5 0.46836535E-01 0.14924731E+03</pdfrwt>
<pdfrwt beam="2">  1       -5 0.17560048E-01 0.14924731E+03</pdfrwt>
<totfact> 0.95181939E+01</totfact>
</mgrwt>
</event>
<event>
 8    1  0.3674342E-007  0.1359711E+03  0.7546771E-02  0.1218856E+00
         -5   -1    0    0    0  501 -0.00000000000E+00  0.00000000000E+00  0.23914020854E+02  0.24371507820E+02  0.47000000000E+01 0. -1.
          5   -1    0    0  501    0  0.00000000000E+00 -0.00000000000E+00 -0.12036638774E+04  0.12036730535E+04  0.47000000000E+01 0. -1.
         25    2    1    2    0    0 -0.35843625658E+02 -0.39747279784E+02 -0.21939641554E+03  0.25811318371E+03  0.12499206655E+03 0.  0.
         25    2    1    2    0    0  0.35843625658E+02  0.39747279784E+02 -0.96035344099E+03  0.96993137762E+03  0.12499413551E+03 0.  0.
          5    1    3    3  502    0  0.23403436248E+02 -0.66597526842E+02 -0.11537368209E+03  0.13533709000E+03  0.47000000000E+01 0. -1.
         -5    1    3    3    0  502 -0.59247061907E+02  0.26850247058E+02 -0.10402273345E+03  0.12277609371E+03  0.47000000000E+01 0. -1.
          5    1    4    4  503    0  0.78146576712E+02  0.37353855836E+02 -0.48723338609E+03  0.49489459536E+03  0.47000000000E+01 0.  1.
         -5    1    4    4    0  503 -0.42302951053E+02  0.23934239475E+01 -0.47312005490E+03  0.47503678225E+03  0.47000000000E+01 0.  1.
<mgrwt>
<rscale>  0 0.13597065E+03</rscale>
<asrwt>0</asrwt>
<pdfrwt beam="2">  1        5 0.18521491E+00 0.13597112E+03</pdfrwt>
<pdfrwt beam="1">  1       -5 0.37149782E-02 0.13597112E+03</pdfrwt>
<totfact> 0.47195432E+01</totfact>
</mgrwt>
</event>
<event>
 8    1  0.3674342E-007  0.1434403E+03  0.7546771E-02  0.1208774E+00
         -5   -1    0    0    0  501 -0.00000000000E+00  0.00000000000E+00  0.56656297827E+02  0.56850911017E+02  0.47000000000E+01 0. -1.
          5   -1    0    0  501    0  0.00000000000E+00 -0.00000000000E+00 -0.36308228096E+03  0.36311269979E+03  0.47000000000E+01 0. -1.
         25    2    1    2    0    0 -0.70361242561E+02  0.63585189265E-02 -0.14358345246E+03  0.20295484946E+03  0.12499503430E+03 0.  0.
         25    2    1    2    0    0  0.70361242561E+02 -0.63585189265E-02 -0.16284253067E+03  0.21700876135E+03  0.12499763283E+03 0.  0.
          5    1    3    3  502    0 -0.92475299133E+02 -0.17567065856E+02 -0.14647336085E+03  0.17417467724E+03  0.47000000000E+01 0.  1.
         -5    1    3    3    0  502  0.22114056573E+02  0.17573424375E+02  0.28899083850E+01  0.28780172217E+02  0.47000000000E+01 0.  1.
          5    1    4    4  503    0  0.10520615301E+03  0.12634911095E+02 -0.12154483654E+03  0.16131711905E+03  0.47000000000E+01 0.  1.
         -5    1    4    4    0  503 -0.34844910448E+02 -0.12641269614E+02 -0.41297694136E+02  0.55691642304E+02  0.47000000000E+01 0.  1.
<mgrwt>
<rscale>  0 0.14343971E+03</rscale>
<asrwt>0</asrwt>
<pdfrwt beam="2">  1        5 0.55876121E-01 0.14344028E+03</pdfrwt>
<pdfrwt beam="1">  1       -5 0.87336639E-02 0.14344028E+03</pdfrwt>
<totfact> 0.22388235E+02</totfact>
</mgrwt>
</event>
<event>
 8    1  0.3674342E-007  0.1854415E+03  0.7546771E-02  0.1162638E+00
          5   -1    0    0  501    0  0.00000000000E+00  0.00000000000E+00  0.53115920532E+03  0.53117999906E+03  0.47000000000E+01 0.  1.
         -5   -1    0    0    0  501 -0.00000000000E+00 -0.00000000000E+00 -0.72740618817E+02  0.72892301554E+02  0.47000000000E+01 0.  1.
         25    2    1    2    0    0  0.90495059651E+02 -0.10282885594E+03  0.12851119055E+03  0.22561839999E+03  0.12500162751E+03 0.  0.
         25    2    1    2    0    0 -0.90495059651E+02  0.10282885594E+03  0.32990739595E+03  0.37845390062E+03  0.12500134223E+03 0.  0.
          5    1    4    4  502    0  0.13294264876E+02  0.37537650823E+02  0.18154998258E+03  0.18592551972E+03  0.47000000000E+01 0.  1.
         -5    1    4    4    0  502 -0.10378932453E+03  0.65291205117E+02  0.14835741337E+03  0.19252838090E+03  0.47000000000E+01 0.  1.
          5    1    3    3  503    0  0.22978296187E+02  0.17258852804E+02 -0.94284794306E+01  0.30608108732E+02  0.47000000000E+01 0. -1.
         -5    1    3    3    0  503  0.67516763464E+02 -0.12008770874E+03  0.13793966998E+03  0.19501029125E+03  0.47000000000E+01 0. -1.
<mgrwt>
<rscale>  0 0.18544142E+03</rscale>
<asrwt>0</asrwt>
<pdfrwt beam="1">  1        5 0.81730066E-01 0.18544146E+03</pdfrwt>
<pdfrwt beam="2">  1       -5 0.11204132E-01 0.18544146E+03</pdfrwt>
<totfact> 0.66640584E+01</totfact>
</mgrwt>
</event>
<event>
 8    1  0.3674342E-007  0.1429245E+03  0.7546771E-02  0.1209448E+00
         -5   -1    0    0    0  501 -0.00000000000E+00  0.00000000000E+00  0.12756280976E+03  0.12764936519E+03  0.47000000000E+01 0. -1.
          5   -1    0    0  501    0  0.00000000000E+00 -0.00000000000E+00 -0.16772934921E+03  0.16779518642E+03  0.47000000000E+01 0. -1.
         25    2    1    2    0    0  0.62916133681E+01  0.69004260722E+02  0.11703361892E+02  0.14339886588E+03  0.12500037464E+03 0.  0.
         25    2    1    2    0    0 -0.62916133681E+01 -0.69004260722E+02 -0.51869901339E+02  0.15204568573E+03  0.12500492585E+03 0.  0.
          5    1    4    4  502    0  0.43250575456E+02 -0.66366384381E+02  0.10402408950E+01  0.79361712142E+02  0.47000000000E+01 0.  1.
         -5    1    4    4    0  502 -0.49542188824E+02 -0.26378763408E+01 -0.52910142234E+02  0.72683973586E+02  0.47000000000E+01 0.  1.
          5    1    3    3  503    0  0.30006165243E+02  0.61586089378E+02  0.58498773155E+02  0.90207609535E+02  0.47000000000E+01 0. -1.
         -5    1    3    3    0  503 -0.23714551875E+02  0.74181713439E+01 -0.46795411263E+02  0.53191256349E+02  0.47000000000E+01 0. -1.
<mgrwt>
<rscale>  0 0.14292347E+03</rscale>
<asrwt>0</asrwt>
<pdfrwt beam="2">  1        5 0.25816238E-01 0.14292447E+03</pdfrwt>
<pdfrwt beam="1">  1       -5 0.19636770E-01 0.14292447E+03</pdfrwt>
<totfact> 0.25225861E+02</totfact>
</mgrwt>
</event>
<event>
 8    1  0.3674342E-007  0.1312662E+03  0.7546771E-02  0.1225598E+00
          5   -1    0    0  501    0  0.00000000000E+00  0.00000000000E+00  0.96555912486E+02  0.96670234488E+02  0.47000000000E+01 0.  1.
         -5   -1    0    0    0  501 -0.00000000000E+00 -0.00000000000E+00 -0.21610173762E+03  0.21615284177E+03  0.47000000000E+01 0.  1.
         25    2    1    2    0    0 -0.39273691054E+02 -0.79969726195E+01 -0.12528180091E+03  0.18145614493E+03  0.12499771403E+03 0.  0.
         25    2    1    2    0    0  0.39273691054E+02  0.79969726195E+01  0.57359757709E+01  0.13136693133E+03  0.12497197625E+03 0.  0.
          5    1    4    4  502    0  0.29630586259E+02 -0.53407186364E+02 -0.19251943276E+02  0.64210797513E+02  0.47000000000E+01 0. -1.
         -5    1    4    4    0  502  0.96431047954E+01  0.61404158983E+02  0.24987919047E+02  0.67156133814E+02  0.47000000000E+01 0. -1.
          5    1    3    3  503    0 -0.26161205643E+02 -0.19369165569E+02 -0.14849460603E+03  0.15209310068E+03  0.47000000000E+01 0. -1.
         -5    1    3    3    0  503 -0.13112485411E+02  0.11372192949E+02  0.23212805117E+02  0.29363044249E+02  0.47000000000E+01 0. -1.
<mgrwt>
<rscale>  0 0.13126003E+03</rscale>
<asrwt>0</asrwt>
<pdfrwt beam="1">  1        5 0.14867481E-01 0.13126615E+03</pdfrwt>
<pdfrwt beam="2">  1       -5 0.33259146E-01 0.13126615E+03</pdfrwt>
<totfact> 0.24869943E+02</totfact>
</mgrwt>
</event>
<event>
 8    1  0.3674342E-007  0.1480455E+03  0.7546771E-02  0.1202897E+00
          5   -1    0    0  501    0  0.00000000000E+00  0.00000000000E+00  0.18649778444E+03  0.18655699827E+03  0.47000000000E+01 0. -1.
         -5   -1    0    0    0  501 -0.00000000000E+00 -0.00000000000E+00 -0.14454581014E+03  0.14462220171E+03  0.47000000000E+01 0. -1.
         25    2    1    2    0    0 -0.79040425758E+02  0.66329113489E+01 -0.50758000521E+02  0.15650064658E+03  0.12499877338E+03 0.  0.
         25    2    1    2    0    0  0.79040425758E+02 -0.66329113489E+01  0.92709974826E+02  0.17467855340E+03  0.12500429260E+03 0.  0.
          5    1    4    4  502    0  0.72573135304E+02  0.26459130719E+02  0.15885523773E+01  0.77405161746E+02  0.47000000000E+01 0.  1.
         -5    1    4    4    0  502  0.64672904539E+01 -0.33092042068E+02  0.91121422448E+02  0.97273391650E+02  0.47000000000E+01 0.  1.
          5    1    3    3  503    0 -0.86718554429E+02  0.91982169027E+01  0.16259728553E+02  0.88832334479E+02  0.47000000000E+01 0.  1.
         -5    1    3    3    0  503  0.76781286708E+01 -0.25653055538E+01 -0.67017729075E+02  0.67668312103E+02  0.47000000000E+01 0.  1.
<mgrwt>
<rscale>  0 0.14804429E+03</rscale>
<asrwt>0</asrwt>
<pdfrwt beam="1">  1        5 0.28702398E-01 0.14804546E+03</pdfrwt>
<pdfrwt beam="2">  1       -5 0.22248248E-01 0.14804546E+03</pdfrwt>
<totfact> 0.16438152E+02</totfact>
</mgrwt>
</event>
<event>
 8    1  0.3674342E-007  0.1332473E+03  0.7546771E-02  0.1222716E+00
         -5   -1    0    0    0  501 -0.00000000000E+00  0.00000000000E+00  0.16283058535E+03  0.16289840246E+03  0.47000000000E+01 0. -1.
          5   -1    0    0  501    0  0.00000000000E+00 -0.00000000000E+00 -0.11312662807E+03  0.11322421993E+03  0.47000000000E+01 0. -1.
         25    2    1    2    0    0  0.37635800488E+02 -0.26672081501E+02  0.51530920842E+02  0.14286277060E+03  0.12500592791E+03 0.  0.
         25    2    1    2    0    0 -0.37635800488E+02  0.26672081501E+02 -0.18269635673E+01  0.13325985179E+03  0.12500798732E+03 0.  0.
          5    1    3    3  502    0  0.54264854323E+02 -0.17606965310E+02 -0.26030906524E+02  0.62883843208E+02  0.47000000000E+01 0.  1.
         -5    1    3    3    0  502 -0.16629053835E+02 -0.90651161908E+01  0.77561827366E+02  0.79978927396E+02  0.47000000000E+01 0.  1.
          5    1    4    4  503    0  0.16134900621E+02  0.58198908088E+02 -0.26419919353E+02  0.66087442523E+02  0.47000000000E+01 0. -1.
         -5    1    4    4    0  503 -0.53770701109E+02 -0.31526826587E+02  0.24592955786E+02  0.67172409267E+02  0.47000000000E+01 0. -1.
<mgrwt>
<rscale>  0 0.13324684E+03</rscale>
<asrwt>0</asrwt>
<pdfrwt beam="2">  1        5 0.17416820E-01 0.13324733E+03</pdfrwt>
<pdfrwt beam="1">  1       -5 0.25063583E-01 0.13324733E+03</pdfrwt>
<totfact> 0.32547105E+02</totfact>
</mgrwt>
</event>
<event>
 8    1  0.3674342E-007  0.1676854E+03  0.7546771E-02  0.1180284E+00
          5   -1    0    0  501    0  0.00000000000E+00  0.00000000000E+00  0.97875983040E+02  0.97988764948E+02  0.47000000000E+01 0. -1.
         -5   -1    0    0    0  501 -0.00000000000E+00 -0.00000000000E+00 -0.39959678483E+03  0.39962442423E+03  0.47000000000E+01 0. -1.
         25    2    1    2    0    0  0.10365000805E+03  0.41830616365E+02 -0.28292133487E+03  0.32888123638E+03  0.12500104513E+03 0.  0.
         25    2    1    2    0    0 -0.10365000805E+03 -0.41830616365E+02 -0.18799466914E+02  0.16873195280E+03  0.12499570915E+03 0.  0.
          5    1    4    4  502    0 -0.11888875101E+03 -0.67769155706E+02 -0.11430138427E+02  0.13740426357E+03  0.47000000000E+01 0.  1.
         -5    1    4    4    0  502  0.15238742966E+02  0.25938539341E+02 -0.73693284878E+01  0.31327689233E+02  0.47000000000E+01 0.  1.
          5    1    3    3  503    0 -0.20278435935E+02 -0.11685054164E+02 -0.13318969975E+02  0.27335698564E+02  0.47000000000E+01 0. -1.
         -5    1    3    3    0  503  0.12392844398E+03  0.53515670528E+02 -0.26960236490E+03  0.30154553782E+03  0.47000000000E+01 0. -1.
<mgrwt>
<rscale>  0 0.16768438E+03</rscale>
<asrwt>0</asrwt>
<pdfrwt beam="1">  1        5 0.15068645E-01 0.16768538E+03</pdfrwt>
<pdfrwt beam="2">  1       -5 0.61487229E-01 0.16768538E+03</pdfrwt>
<totfact> 0.72634430E+01</totfact>
</mgrwt>
</event>
<event>
 8    1  0.3674342E-007  0.1303517E+03  0.7546771E-02  0.1226936E+00
         -5   -1    0    0    0  501 -0.00000000000E+00  0.00000000000E+00  0.37244854642E+02  0.37540234380E+02  0.47000000000E+01 0.  1.
          5   -1    0    0  501    0  0.00000000000E+00 -0.00000000000E+00 -0.45433005009E+03  0.45435435996E+03  0.47000000000E+01 0.  1.
         25    2    1    2    0    0  0.88954347186E+01  0.35874952584E+02 -0.20288308059E+03  0.24114954852E+03  0.12500167752E+03 0.  0.
         25    2    1    2    0    0 -0.88954347186E+01 -0.35874952584E+02 -0.21420211486E+03  0.25074504582E+03  0.12499756401E+03 0.  0.
          5    1    4    4  502    0  0.26048964131E+02  0.36506508928E+02 -0.46807917956E+02  0.64994960649E+02  0.47000000000E+01 0.  1.
         -5    1    4    4    0  502 -0.34944398850E+02 -0.72381461513E+02 -0.16739419691E+03  0.18575008517E+03  0.47000000000E+01 0.  1.
          5    1    3    3  503    0  0.52030711356E+02  0.59661968060E+02 -0.14251112052E+03  0.16308971405E+03  0.47000000000E+01 0.  1.
         -5    1    3    3    0  503 -0.43135276638E+02 -0.23787015476E+02 -0.60371960063E+02  0.78059834471E+02  0.47000000000E+01 0.  1.
<mgrwt>
<rscale>  0 0.13035069E+03</rscale>
<asrwt>0</asrwt>
<pdfrwt beam="2">  1        5 0.69921518E-01 0.13035168E+03</pdfrwt>
<pdfrwt beam="1">  1       -5 0.57545695E-02 0.13035168E+03</pdfrwt>
<totfact> 0.26861527E+02</totfact>
</mgrwt>
</event>
<event>
 8    1  0.3674342E-007  0.1422076E+03  0.7546771E-02  0.1210396E+00
          5   -1    0    0  501    0  0.00000000000E+00  0.00000000000E+00  0.36169831639E+03  0.36172885160E+03  0.47000000000E+01 0.  1.
         -5   -1    0    0    0  501 -0.00000000000E+00 -0.00000000000E+00 -0.63910152162E+02  0.64082739871E+02  0.47000000000E+01 0.  1.
         25    2    1    2    0    0  0.62647904884E+02  0.25950241387E+02  0.73033205280E+02  0.15984580441E+03  0.12497462582E+03 0.  0.
         25    2    1    2    0    0 -0.62647904884E+02 -0.25950241387E+02  0.22475495895E+03  0.26596578706E+03  0.12499933320E+03 0.  0.
          5    1    3    3  502    0  0.97816615639E+02  0.34258093682E+02  0.41804824872E+02  0.11185455136E+03  0.47000000000E+01 0.  1.
         -5    1    3    3    0  502 -0.35168710755E+02 -0.83078522951E+01  0.31228380409E+02  0.47991253045E+02  0.47000000000E+01 0.  1.
          5    1    4    4  503    0 -0.46479217055E+00 -0.46072900390E+02  0.18181930997E+03  0.18762537051E+03  0.47000000000E+01 0.  1.
         -5    1    4    4    0  503 -0.62183112713E+02  0.20122659003E+02  0.42935648979E+02  0.78340416551E+02  0.47000000000E+01 0.  1.
<mgrwt>
<rscale>  0 0.14220219E+03</rscale>
<asrwt>0</asrwt>
<pdfrwt beam="1">  1        5 0.55661520E-01 0.14220762E+03</pdfrwt>
<pdfrwt beam="2">  1       -5 0.98479559E-02 0.14220762E+03</pdfrwt>
<totfact> 0.18275577E+02</totfact>
</mgrwt>
</event>
<event>
 8    1  0.3674342E-007  0.1394572E+03  0.7546771E-02  0.1214064E+00
          5   -1    0    0  501    0  0.00000000000E+00  0.00000000000E+00  0.11559760074E+03  0.11569310825E+03  0.47000000000E+01 0.  1.
         -5   -1    0    0    0  501 -0.00000000000E+00 -0.00000000000E+00 -0.19772568001E+03  0.19778153234E+03  0.47000000000E+01 0.  1.
         25    2    1    2    0    0  0.46220082571E+02 -0.41074234812E+02 -0.10177994193E+03  0.17264840262E+03  0.12499970220E+03 0.  0.
         25    2    1    2    0    0 -0.46220082571E+02  0.41074234812E+02  0.19651862658E+02  0.14082623797E+03  0.12498977877E+03 0.  0.
          5    1    3    3  502    0 -0.40260741658E+02 -0.33371269757E+02 -0.37771945729E+02  0.64679044893E+02  0.47000000000E+01 0. -1.
         -5    1    3    3    0  502  0.86480824229E+02 -0.77029650547E+01 -0.64007996201E+02  0.10796935773E+03  0.47000000000E+01 0. -1.
          5    1    4    4  503    0 -0.40593970903E+02  0.49056895518E+01  0.68313056982E+02  0.79753996877E+02  0.47000000000E+01 0. -1.
         -5    1    4    4    0  503 -0.56261116681E+01  0.36168545260E+02 -0.48661194324E+02  0.61072241090E+02  0.47000000000E+01 0. -1.
<mgrwt>
<rscale>  0 0.13945499E+03</rscale>
<asrwt>0</asrwt>
<pdfrwt beam="1">  1        5 0.17795889E-01 0.13945721E+03</pdfrwt>
<pdfrwt beam="2">  1       -5 0.30430979E-01 0.13945721E+03</pdfrwt>
<totfact> 0.21803001E+02</totfact>
</mgrwt>
</event>
<event>
 8    1  0.3674342E-007  0.1522611E+03  0.7546771E-02  0.1197732E+00
          5   -1    0    0  501    0  0.00000000000E+00  0.00000000000E+00  0.22545271980E+03  0.22550170480E+03  0.47000000000E+01 0. -1.
         -5   -1    0    0    0  501 -0.00000000000E+00 -0.00000000000E+00 -0.20011473516E+03  0.20016992088E+03  0.47000000000E+01 0. -1.
         25    2    1    2    0    0  0.86756948763E+02  0.55767100247E+01 -0.13578428582E+03  0.20398757941E+03  0.12496276414E+03 0.  0.
         25    2    1    2    0    0 -0.86756948763E+02 -0.55767100247E+01  0.16112227047E+03  0.22168404628E+03  0.12500224989E+03 0.  0.
          5    1    3    3  502    0  0.57513855778E+02  0.97563803866E+01 -0.15684306552E+03  0.16740629548E+03  0.47000000000E+01 0. -1.
         -5    1    3    3    0  502  0.29243092985E+02 -0.41796703619E+01  0.21058779692E+02  0.36581283928E+02  0.47000000000E+01 0. -1.
          5    1    4    4  503    0  0.28267968863E+02 -0.12071394051E+02  0.12343603732E+02  0.33455211419E+02  0.47000000000E+01 0.  1.
         -5    1    4    4    0  503 -0.11502491763E+03  0.64946840260E+01  0.14877866674E+03  0.18822883486E+03  0.47000000000E+01 0.  1.
<mgrwt>
<rscale>  0 0.15225296E+03</rscale>
<asrwt>0</asrwt>
<pdfrwt beam="1">  1        5 0.34693047E-01 0.15226106E+03</pdfrwt>
<pdfrwt beam="2">  1       -5 0.30794895E-01 0.15226106E+03</pdfrwt>
<totfact> 0.60834330E+01</totfact>
</mgrwt>
</event>
<event>
 8    1  0.3674342E-007  0.1314221E+03  0.7546771E-02  0.1225370E+00
          5   -1    0    0  501    0  0.00000000000E+00  0.00000000000E+00  0.48463492209E+03  0.48465771191E+03  0.47000000000E+01 0. -1.
         -5   -1    0    0    0  501 -0.00000000000E+00 -0.00000000000E+00 -0.38123463085E+02  0.38412087129E+02  0.47000000000E+01 0. -1.
         25    2    1    2    0    0 -0.32080074898E+02 -0.24730851765E+02  0.15435223563E+03  0.20272243681E+03  0.12502410771E+03 0.  0.
         25    2    1    2    0    0  0.32080074898E+02  0.24730851765E+02  0.29215922338E+03  0.32034736223E+03  0.12499869777E+03 0.  0.
          5    1    3    3  502    0  0.47181828792E+02  0.93330796637E+00  0.65035840335E+02  0.80490661322E+02  0.47000000000E+01 0. -1.
         -5    1    3    3    0  502 -0.79261903690E+02 -0.25664159732E+02  0.89316395291E+02  0.12223177549E+03  0.47000000000E+01 0. -1.
          5    1    4    4  503    0  0.60488507647E+02  0.13463816060E+02  0.28049949861E+03  0.28730157087E+03  0.47000000000E+01 0. -1.
         -5    1    4    4    0  503 -0.28408432750E+02  0.11267035705E+02  0.11659724766E+02  0.33045791359E+02  0.47000000000E+01 0. -1.
<mgrwt>
<rscale>  0 0.13141608E+03</rscale>
<asrwt>0</asrwt>
<pdfrwt beam="1">  1        5 0.74583177E-01 0.13142212E+03</pdfrwt>
<pdfrwt beam="2">  1       -5 0.58891028E-02 0.13142212E+03</pdfrwt>
<totfact> 0.22393568E+02</totfact>
</mgrwt>
</event>
<event>
 8    1  0.3674342E-007  0.1488735E+03  0.7546771E-02  0.1201865E+00
          5   -1    0    0  501    0  0.00000000000E+00  0.00000000000E+00  0.75906816496E+03  0.75908271556E+03  0.47000000000E+01 0.  1.
         -5   -1    0    0    0  501 -0.00000000000E+00 -0.00000000000E+00 -0.29749967770E+02  0.30118940591E+02  0.47000000000E+01 0.  1.
         25    2    1    2    0    0 -0.39951507759E+02 -0.70295888509E+02  0.30213869549E+03  0.33682505988E+03  0.12500277891E+03 0.  0.
         25    2    1    2    0    0  0.39951507759E+02  0.70295888509E+02  0.42717950171E+03  0.45237659628E+03  0.12499849306E+03 0.  0.
          5    1    3    3  502    0  0.26433314634E+02 -0.64569408914E+02  0.87370096143E+02  0.11190867880E+03  0.47000000000E+01 0. -1.
         -5    1    3    3    0  502 -0.66384822393E+02 -0.57264795950E+01  0.21476859935E+03  0.22491638108E+03  0.47000000000E+01 0. -1.
          5    1    4    4  503    0  0.56748940250E+02  0.35537565304E+02  0.86518377594E+02  0.10950287863E+03  0.47000000000E+01 0.  1.
         -5    1    4    4    0  503 -0.16797432491E+02  0.34758323205E+02  0.34066112411E+03  0.34287371764E+03  0.47000000000E+01 0.  1.
<mgrwt>
<rscale>  0 0.14887264E+03</rscale>
<asrwt>0</asrwt>
<pdfrwt beam="1">  1        5 0.11680920E+00 0.14887354E+03</pdfrwt>
<pdfrwt beam="2">  1       -5 0.46064206E-02 0.14887354E+03</pdfrwt>
<totfact> 0.11980297E+02</totfact>
</mgrwt>
</event>
<event>
 8    1  0.3674342E-007  0.1262277E+03  0.7546771E-02  0.1233163E+00
         -5   -1    0    0    0  501 -0.00000000000E+00  0.00000000000E+00  0.75932653495E+03  0.75934108059E+03  0.47000000000E+01 0. -1.
          5   -1    0    0  501    0  0.00000000000E+00 -0.00000000000E+00 -0.26262568203E+02  0.26679814253E+02  0.47000000000E+01 0. -1.
         25    2    1    2    0    0 -0.17622011566E+02  0.36243793987E+00  0.54566455768E+03  0.56007431304E+03  0.12499103955E+03 0.  0.
         25    2    1    2    0    0  0.17622011566E+02 -0.36243793987E+00  0.18739940907E+03  0.22594658181E+03  0.12499061028E+03 0.  0.
          5    1    3    3  502    0  0.90662820487E+01 -0.59577247190E+02  0.26038151363E+03  0.26730557138E+03  0.47000000000E+01 0.  1.
         -5    1    3    3    0  502 -0.26688293615E+02  0.59939685130E+02  0.28528304405E+03  0.29276874165E+03  0.47000000000E+01 0.  1.
          5    1    4    4  503    0  0.34315556584E+02 -0.34485364709E+02  0.17697817838E+02  0.51981732936E+02  0.47000000000E+01 0. -1.
         -5    1    4    4    0  503 -0.16693545019E+02  0.34122926769E+02  0.16970159123E+03  0.17396484887E+03  0.47000000000E+01 0. -1.
<mgrwt>
<rscale>  0 0.12622757E+03</rscale>
<asrwt>0</asrwt>
<pdfrwt beam="2">  1        5 0.40736102E-02 0.12622768E+03</pdfrwt>
<pdfrwt beam="1">  1       -5 0.11685267E+00 0.12622768E+03</pdfrwt>
<totfact> 0.13891719E+02</totfact>
</mgrwt>
</event>
<event>
 8    1  0.3674342E-007  0.1416895E+03  0.7546771E-02  0.1211074E+00
          5   -1    0    0  501    0  0.00000000000E+00  0.00000000000E+00  0.63237876023E+02  0.63412293476E+02  0.47000000000E+01 0.  1.
         -5   -1    0    0    0  501 -0.00000000000E+00 -0.00000000000E+00 -0.31689986789E+03  0.31693471925E+03  0.47000000000E+01 0.  1.
         25    2    1    2    0    0  0.55577452122E+02  0.36909239789E+02 -0.12409798205E+03  0.18835028491E+03  0.12499750201E+03 0.  0.
         25    2    1    2    0    0 -0.55577452122E+02 -0.36909239789E+02 -0.12956400981E+03  0.19199672782E+03  0.12499906276E+03 0.  0.
          5    1    4    4  502    0 -0.20955633402E+02 -0.44477888973E+01  0.23221142835E+02  0.31941084389E+02  0.47000000000E+01 0. -1.
         -5    1    4    4    0  502 -0.34621818720E+02 -0.32461450892E+02 -0.15278515265E+03  0.16005564343E+03  0.47000000000E+01 0. -1.
          5    1    3    3  503    0 -0.13426776662E+02  0.60558513190E+02 -0.85366345676E+02  0.10562724471E+03  0.47000000000E+01 0. -1.
         -5    1    3    3    0  503  0.69004228784E+02 -0.23649273401E+02 -0.38731636376E+02  0.82723040194E+02  0.47000000000E+01 0. -1.
<mgrwt>
<rscale>  0 0.14168914E+03</rscale>
<asrwt>0</asrwt>
<pdfrwt beam="1">  1        5 0.97450018E-02 0.14168949E+03</pdfrwt>
<pdfrwt beam="2">  1       -5 0.48769923E-01 0.14168949E+03</pdfrwt>
<totfact> 0.24654502E+02</totfact>
</mgrwt>
</event>
<event>
 8    1  0.3674342E-007  0.1375240E+03  0.7546771E-02  0.1216700E+00
          5   -1    0    0  501    0  0.00000000000E+00  0.00000000000E+00  0.16152329698E+02  0.16822239882E+02  0.47000000000E+01 0. -1.
         -5   -1    0    0    0  501 -0.00000000000E+00 -0.00000000000E+00 -0.12312297193E+04  0.12312386900E+04  0.47000000000E+01 0. -1.
         25    2    1    2    0    0 -0.11538036332E+02 -0.56168400398E+02 -0.77125881283E+03  0.78342389457E+03  0.12499930688E+03 0.  0.
         25    2    1    2    0    0  0.11538036332E+02  0.56168400398E+02 -0.44381857676E+03  0.46463703528E+03  0.12499851995E+03 0.  0.
          5    1    3    3  502    0  0.19529064372E+02 -0.73636262084E+01 -0.63445421761E+03  0.63481481676E+03  0.47000000000E+01 0. -1.
         -5    1    3    3    0  502 -0.31067100704E+02 -0.48804774189E+02 -0.13680459523E+03  0.14860907780E+03  0.47000000000E+01 0. -1.
          5    1    4    4  503    0  0.94174443162E+01  0.60631115206E+02 -0.80854285143E+02  0.10160868966E+03  0.47000000000E+01 0. -1.
         -5    1    4    4    0  503  0.21205920160E+01 -0.44627148085E+01 -0.36296429162E+03  0.36302834562E+03  0.47000000000E+01 0. -1.
<mgrwt>
<rscale>  0 0.13752379E+03</rscale>
<asrwt>0</asrwt>
<pdfrwt beam="1">  1        5 0.25371964E-02 0.13752397E+03</pdfrwt>
<pdfrwt beam="2">  1       -5 0.18947211E+00 0.13752397E+03</pdfrwt>
<totfact> 0.81934794E+01</totfact>
</mgrwt>
</event>
<event>
 8    1  0.3674342E-007  0.1322547E+03  0.7546771E-02  0.1224150E+00
          5   -1    0    0  501    0  0.00000000000E+00  0.00000000000E+00  0.96010256214E+02  0.96125227169E+02  0.47000000000E+01 0.  1.
         -5   -1    0    0    0  501 -0.00000000000E+00 -0.00000000000E+00 -0.21702944485E+03  0.21708033060E+03  0.47000000000E+01 0.  1.
         25    2    1    2    0    0 -0.27469330369E+02  0.33315819083E+02 -0.12347428517E+03  0.18093425490E+03  0.12500719014E+03 0.  0.
         25    2    1    2    0    0  0.27469330369E+02 -0.33315819083E+02  0.24550965315E+01  0.13227130287E+03  0.12500064860E+03 0.  0.
          5    1    4    4  502    0  0.53116841986E+01  0.39606722528E+02  0.30955554073E+02  0.50766551847E+02  0.47000000000E+01 0. -1.
         -5    1    4    4    0  502  0.22157646171E+02 -0.72922541611E+02 -0.28500457542E+02  0.81504751021E+02  0.47000000000E+01 0. -1.
          5    1    3    3  503    0 -0.66577262797E+02 -0.63486654306E+01 -0.33348432362E+02  0.74880207100E+02  0.47000000000E+01 0.  1.
         -5    1    3    3    0  503  0.39107932428E+02  0.39664484513E+02 -0.90125852806E+02  0.10605404780E+03  0.47000000000E+01 0.  1.
<mgrwt>
<rscale>  0 0.13225315E+03</rscale>
<asrwt>0</asrwt>
<pdfrwt beam="1">  1        5 0.14783567E-01 0.13225470E+03</pdfrwt>
<pdfrwt beam="2">  1       -5 0.33401904E-01 0.13225470E+03</pdfrwt>
<totfact> 0.24979748E+02</totfact>
</mgrwt>
</event>
<event>
 8    1  0.3674342E-007  0.1305038E+03  0.7546771E-02  0.1226716E+00
          5   -1    0    0  501    0  0.00000000000E+00  0.00000000000E+00  0.38759904808E+03  0.38762754298E+03  0.47000000000E+01 0.  1.
         -5   -1    0    0    0  501 -0.00000000000E+00 -0.00000000000E+00 -0.45296744811E+02  0.45539928530E+02  0.47000000000E+01 0.  1.
         25    2    1    2    0    0 -0.29580502430E+02  0.23026645443E+02  0.13162140699E+03  0.18534158016E+03  0.12498829558E+03 0.  0.
         25    2    1    2    0    0  0.29580502430E+02 -0.23026645443E+02  0.21068089628E+03  0.24782589135E+03  0.12500399931E+03 0.  0.
          5    1    3    3  502    0 -0.32862843785E+02 -0.34640434807E+02  0.11568355469E+03  0.12523857653E+03  0.47000000000E+01 0.  1.
         -5    1    3    3    0  502  0.32823413546E+01  0.57667080250E+02  0.15937852305E+02  0.60103003630E+02  0.47000000000E+01 0.  1.
          5    1    4    4  503    0  0.28691725283E+01  0.37550645375E+01 -0.16329739650E+02  0.17637546816E+02  0.47000000000E+01 0. -1.
         -5    1    4    4    0  503  0.26711329902E+02 -0.26781709980E+02  0.22701063593E+03  0.23018834453E+03  0.47000000000E+01 0. -1.
<mgrwt>
<rscale>  0 0.13050000E+03</rscale>
<asrwt>0</asrwt>
<pdfrwt beam="1">  1        5 0.59651522E-01 0.13050376E+03</pdfrwt>
<pdfrwt beam="2">  1       -5 0.69896282E-02 0.13050376E+03</pdfrwt>
<totfact> 0.27536422E+02</totfact>
</mgrwt>
</event>
<event>
 8    1  0.3674342E-007  0.1334627E+03  0.7546771E-02  0.1222412E+00
         -5   -1    0    0    0  501 -0.00000000000E+00  0.00000000000E+00  0.74635704385E+02  0.74783543437E+02  0.47000000000E+01 0. -1.
          5   -1    0    0  501    0  0.00000000000E+00 -0.00000000000E+00 -0.29095303560E+03  0.29099099458E+03  0.47000000000E+01 0. -1.
         25    2    1    2    0    0 -0.16077302499E+02 -0.43916811306E+02 -0.30331048612E+02  0.13686587333E+03  0.12500051520E+03 0.  0.
         25    2    1    2    0    0  0.16077302499E+02  0.43916811306E+02 -0.18598628261E+03  0.22890866469E+03  0.12498445296E+03 0.  0.
          5    1    3    3  502    0  0.53639640278E+00  0.42217042962E+02  0.37339124459E+01  0.42645029484E+02  0.47000000000E+01 0.  1.
         -5    1    3    3    0  502 -0.16613698902E+02 -0.86133854268E+02 -0.34064961058E+02  0.94220843841E+02  0.47000000000E+01 0.  1.
          5    1    4    4  503    0 -0.47962001293E+02  0.38799233541E+02 -0.54326804287E+02  0.82336053801E+02  0.47000000000E+01 0. -1.
         -5    1    4    4    0  503  0.64039303792E+02  0.51175777651E+01 -0.13165947832E+03  0.14657261089E+03  0.47000000000E+01 0. -1.
<mgrwt>
<rscale>  0 0.13345895E+03</rscale>
<asrwt>0</asrwt>
<pdfrwt beam="2">  1        5 0.44776297E-01 0.13346271E+03</pdfrwt>
<pdfrwt beam="1">  1       -5 0.11496708E-01 0.13346271E+03</pdfrwt>
<totfact> 0.21628821E+02</totfact>
</mgrwt>
</event>
<event>
 8    1  0.3674342E-007  0.1680050E+03  0.7546771E-02  0.1179946E+00
         -5   -1    0    0    0  501 -0.00000000000E+00  0.00000000000E+00  0.55221943784E+03  0.55223943859E+03  0.47000000000E+01 0.  1.
          5   -1    0    0  501    0  0.00000000000E+00 -0.00000000000E+00 -0.65861147123E+02  0.66028635457E+02  0.47000000000E+01 0.  1.
         25    2    1    2    0    0  0.87433884396E+02  0.70390856041E+02  0.38987149266E+03  0.42452755454E+03  0.12499722803E+03 0.  0.
         25    2    1    2    0    0 -0.87433884396E+02 -0.70390856041E+02  0.96486798061E+02  0.19374051951E+03  0.12500451970E+03 0.  0.
          5    1    4    4  502    0 -0.18122952974E+02 -0.22070903588E+02  0.10478865524E+03  0.10871208984E+03  0.47000000000E+01 0. -1.
         -5    1    4    4    0  502 -0.69310931422E+02 -0.48319952453E+02 -0.83018571830E+01  0.85028429671E+02  0.47000000000E+01 0. -1.
          5    1    3    3  503    0  0.83013775221E+02  0.22006360671E+02  0.35307279761E+03  0.36339793230E+03  0.47000000000E+01 0.  1.
         -5    1    3    3    0  503  0.44201091754E+01  0.48384495370E+02  0.36798695050E+02  0.61129622236E+02  0.47000000000E+01 0.  1.
<mgrwt>
<rscale>  0 0.16800366E+03</rscale>
<asrwt>0</asrwt>
<pdfrwt beam="2">  1        5 0.10146907E-01 0.16800502E+03</pdfrwt>
<pdfrwt beam="1">  1       -5 0.84971256E-01 0.16800502E+03</pdfrwt>
<totfact> 0.70448689E+01</totfact>
</mgrwt>
</event>
<event>
 8    1  0.3674342E-007  0.1270044E+03  0.7546771E-02  0.1231979E+00
         -5   -1    0    0    0  501 -0.00000000000E+00  0.00000000000E+00  0.31052339897E+04  0.31052375466E+04  0.47000000000E+01 0.  1.
          5   -1    0    0  501    0  0.00000000000E+00 -0.00000000000E+00 -0.41385421265E+01  0.62623901932E+01  0.47000000000E+01 0.  1.
         25    2    1    2    0    0 -0.96595182741E+01  0.20317733328E+02  0.14805060890E+04  0.14859415740E+04  0.12497185696E+03 0.  0.
         25    2    1    2    0    0  0.96595182741E+01 -0.20317733328E+02  0.16205893586E+04  0.16255583628E+04  0.12499602117E+03 0.  0.
          5    1    4    4  502    0  0.17459087072E+02  0.26945031831E+02  0.12338629564E+03  0.12758182635E+03  0.47000000000E+01 0.  1.
         -5    1    4    4    0  502 -0.77995687976E+01 -0.47262765159E+02  0.14972030629E+04  0.14979765365E+04  0.47000000000E+01 0.  1.
          5    1    3    3  503    0 -0.60904306441E+02  0.33209739970E+02  0.64071617552E+03  0.64447771796E+03  0.47000000000E+01 0. -1.
         -5    1    3    3    0  503  0.51244788167E+02 -0.12892006642E+02  0.83978991350E+03  0.84146385601E+03  0.47000000000E+01 0. -1.
<mgrwt>
<rscale>  0 0.12699847E+03</rscale>
<asrwt>0</asrwt>
<pdfrwt beam="2">  1        5 0.80034388E-03 0.12700442E+03</pdfrwt>
<pdfrwt beam="1">  1       -5 0.47789281E+00 0.12700442E+03</pdfrwt>
<totfact> 0.55320043E+00</totfact>
</mgrwt>
</event>
<event>
 8    1  0.3674342E-007  0.1606998E+03  0.7546771E-02  0.1187919E+00
         -5   -1    0    0    0  501 -0.00000000000E+00  0.00000000000E+00  0.17637765881E+02  0.18253240405E+02  0.47000000000E+01 0. -1.
          5   -1    0    0  501    0  0.00000000000E+00 -0.00000000000E+00 -0.14392400735E+04  0.14392477477E+04  0.47000000000E+01 0. -1.
         25    2    1    2    0    0 -0.10056683411E+03  0.92379313566E+01 -0.69050882917E+03  0.70896181464E+03  0.12500153583E+03 0.  0.
         25    2    1    2    0    0  0.10056683411E+03 -0.92379313566E+01 -0.73109347849E+03  0.74853917347E+03  0.12495676226E+03 0.  0.
          5    1    4    4  502    0  0.66506488547E+02 -0.28344068594E+02 -0.68102402419E+03  0.68486663722E+03  0.47000000000E+01 0.  1.
         -5    1    4    4    0  502  0.34060345561E+02  0.19106137237E+02 -0.50069454296E+02  0.63672536256E+02  0.47000000000E+01 0.  1.
          5    1    3    3  503    0 -0.78013608540E+02 -0.40082171685E+01 -0.67208424784E+03  0.67662509199E+03  0.47000000000E+01 0.  1.
         -5    1    3    3    0  503 -0.22553225568E+02  0.13246148525E+02 -0.18424581329E+02  0.32336722645E+02  0.47000000000E+01 0.  1.
<mgrwt>
<rscale>  0 0.16069105E+03</rscale>
<asrwt>0</asrwt>
<pdfrwt beam="2">  1        5 0.22146939E+00 0.16069976E+03</pdfrwt>
<pdfrwt beam="1">  1       -5 0.27614381E-02 0.16069976E+03</pdfrwt>
<totfact> 0.45550927E+01</totfact>
</mgrwt>
</event>
<event>
 8    1  0.3674342E-007  0.1453686E+03  0.7546771E-02  0.1206284E+00
         -5   -1    0    0    0  501 -0.00000000000E+00  0.00000000000E+00  0.44093327662E+03  0.44095832505E+03  0.47000000000E+01 0. -1.
          5   -1    0    0  501    0  0.00000000000E+00 -0.00000000000E+00 -0.51784228979E+02  0.51997080408E+02  0.47000000000E+01 0. -1.
         25    2    1    2    0    0  0.67416761354E+02 -0.31004948749E+02  0.26292609131E+03  0.30043462485E+03  0.12499803103E+03 0.  0.
         25    2    1    2    0    0 -0.67416761354E+02  0.31004948749E+02  0.12622295633E+03  0.19252078060E+03  0.12500275877E+03 0.  0.
          5    1    3    3  502    0  0.82386660023E+02 -0.52460625249E+02  0.11875067086E+03  0.15382942105E+03  0.47000000000E+01 0.  1.
         -5    1    3    3    0  502 -0.14969898669E+02  0.21455676500E+02  0.14417542045E+03  0.14660520381E+03  0.47000000000E+01 0.  1.
          5    1    4    4  503    0 -0.68637049158E+02 -0.10873625479E+02  0.13269824162E+03  0.14986725319E+03  0.47000000000E+01 0.  1.
         -5    1    4    4    0  503  0.12202878036E+01  0.41878574227E+02 -0.64752852899E+01  0.42653527418E+02  0.47000000000E+01 0.  1.
<mgrwt>
<rscale>  0 0.14536754E+03</rscale>
<asrwt>0</asrwt>
<pdfrwt beam="2">  1        5 0.79851047E-02 0.14536855E+03</pdfrwt>
<pdfrwt beam="1">  1       -5 0.67854186E-01 0.14536855E+03</pdfrwt>
<totfact> 0.17110106E+02</totfact>
</mgrwt>
</event>
<event>
 8    1  0.3674342E-007  0.1296664E+03  0.7546771E-02  0.1227982E+00
         -5   -1    0    0    0  501 -0.00000000000E+00  0.00000000000E+00  0.29476183839E+02  0.29848541233E+02  0.47000000000E+01 0.  1.
          5   -1    0    0  501    0  0.00000000000E+00 -0.00000000000E+00 -0.63397750737E+03  0.63399492888E+03  0.47000000000E+01 0.  1.
         25    2    1    2    0    0  0.34411327354E+02  0.53068121581E+00 -0.19358157951E+03  0.23295090201E+03  0.12493147622E+03 0.  0.
         25    2    1    2    0    0 -0.34411327354E+02 -0.53068121581E+00 -0.41091974402E+03  0.43089256811E+03  0.12501579160E+03 0.  0.
          5    1    3    3  502    0  0.46401695363E+02  0.46901309200E+02 -0.54260677629E+02  0.85552096842E+02  0.47000000000E+01 0.  1.
         -5    1    3    3    0  502 -0.11990368009E+02 -0.46370627984E+02 -0.13932090188E+03  0.14739880517E+03  0.47000000000E+01 0.  1.
          5    1    4    4  503    0 -0.68837457294E+02 -0.31380093209E+02 -0.31918472870E+03  0.32806140708E+03  0.47000000000E+01 0. -1.
         -5    1    4    4    0  503  0.34426129940E+02  0.30849411993E+02 -0.91735015320E+02  0.10283116103E+03  0.47000000000E+01 0. -1.
<mgrwt>
<rscale>  0 0.12964605E+03</rscale>
<asrwt>0</asrwt>
<pdfrwt beam="2">  1        5 0.97564974E-01 0.12966638E+03</pdfrwt>
<pdfrwt beam="1">  1       -5 0.45647810E-02 0.12966638E+03</pdfrwt>
<totfact> 0.18145109E+02</totfact>
</mgrwt>
</event>
<event>
 8    1  0.3674342E-007  0.1276753E+03  0.7546771E-02  0.1230947E+00
          5   -1    0    0  501    0  0.00000000000E+00  0.00000000000E+00  0.17016207964E+03  0.17022697597E+03  0.47000000000E+01 0.  1.
         -5   -1    0    0    0  501 -0.00000000000E+00 -0.00000000000E+00 -0.12403005106E+03  0.12411907012E+03  0.47000000000E+01 0.  1.
         25    2    1    2    0    0 -0.19470072424E+02  0.17238350198E+02 -0.47281616550E+02  0.13614649329E+03  0.12499628768E+03 0.  0.
         25    2    1    2    0    0  0.19470072424E+02 -0.17238350198E+02  0.93413645130E+02  0.15819955280E+03  0.12499897989E+03 0.  0.
          5    1    3    3  502    0  0.21131630761E+02 -0.19319578190E+02  0.29771837136E+02  0.41572156626E+02  0.47000000000E+01 0.  1.
         -5    1    3    3    0  502 -0.40601703185E+02  0.36557928389E+02 -0.77053453687E+02  0.94574336660E+02  0.47000000000E+01 0.  1.
          5    1    4    4  503    0 -0.20997962110E+01 -0.44508050138E+02 -0.12590337618E+02  0.46540114660E+02  0.47000000000E+01 0. -1.
         -5    1    4    4    0  503  0.21569868635E+02  0.27269699940E+02  0.10600398275E+03  0.11165943814E+03  0.47000000000E+01 0. -1.
<mgrwt>
<rscale>  0 0.12767467E+03</rscale>
<asrwt>0</asrwt>
<pdfrwt beam="1">  1        5 0.26190621E-01 0.12767533E+03</pdfrwt>
<pdfrwt beam="2">  1       -5 0.19093386E-01 0.12767533E+03</pdfrwt>
<totfact> 0.24859417E+02</totfact>
</mgrwt>
</event>
<event>
 8    1  0.3674342E-007  0.1263509E+03  0.7546771E-02  0.1232981E+00
          5   -1    0    0  501    0  0.00000000000E+00  0.00000000000E+00  0.35652627109E+02  0.35961087578E+02  0.47000000000E+01 0.  1.
         -5   -1    0    0    0  501 -0.00000000000E+00 -0.00000000000E+00 -0.45061256737E+03  0.45063707778E+03  0.47000000000E+01 0.  1.
         25    2    1    2    0    0  0.59150629108E+01  0.17304076022E+02 -0.23348485208E+03  0.26546976353E+03  0.12499840072E+03 0.  0.
         25    2    1    2    0    0 -0.59150629108E+01 -0.17304076022E+02 -0.18147508818E+03  0.22112840183E+03  0.12502057210E+03 0.  0.
          5    1    4    4  502    0  0.25801708790E+02  0.28279936803E+02 -0.86328808975E+01  0.39523406162E+02  0.47000000000E+01 0. -1.
         -5    1    4    4    0  502 -0.31716771701E+02 -0.45584012826E+02 -0.17284220728E+03  0.18160499567E+03  0.47000000000E+01 0. -1.
          5    1    3    3  503    0  0.18961861121E+02  0.10054960571E+02  0.80714860166E+01  0.23407120621E+02  0.47000000000E+01 0. -1.
         -5    1    3    3    0  503 -0.13046798210E+02  0.72491154509E+01 -0.24155633810E+03  0.24206264291E+03  0.47000000000E+01 0. -1.
<mgrwt>
<rscale>  0 0.12634546E+03</rscale>
<asrwt>0</asrwt>
<pdfrwt beam="1">  1        5 0.55106330E-02 0.12635095E+03</pdfrwt>
<pdfrwt beam="2">  1       -5 0.69350619E-01 0.12635095E+03</pdfrwt>
<totfact> 0.29085911E+02</totfact>
</mgrwt>
</event>
<event>
 8    1  0.3674342E-007  0.1288472E+03  0.7546771E-02  0.1229178E+00
         -5   -1    0    0    0  501 -0.00000000000E+00  0.00000000000E+00  0.18911026272E+02  0.19486326351E+02  0.47000000000E+01 0.  1.
          5   -1    0    0  501    0  0.00000000000E+00 -0.00000000000E+00 -0.88670978805E+03  0.88672224412E+03  0.47000000000E+01 0.  1.
         25    2    1    2    0    0 -0.31011869179E+02  0.37653511228E+01 -0.36158386786E+03  0.38385322351E+03  0.12499795917E+03 0.  0.
         25    2    1    2    0    0  0.31011869179E+02 -0.37653511228E+01 -0.50621489391E+03  0.52235534697E+03  0.12500270312E+03 0.  0.
          5    1    4    4  502    0  0.65688468833E+02  0.36665566130E+02 -0.29666170504E+03  0.30608756250E+03  0.47000000000E+01 0. -1.
         -5    1    4    4    0  502 -0.34676599654E+02 -0.40430917253E+02 -0.20955318887E+03  0.21626778447E+03  0.47000000000E+01 0. -1.
          5    1    3    3  503    0  0.32155404183E+02  0.17444947161E+02 -0.26493641946E+03  0.26749148128E+03  0.47000000000E+01 0. -1.
         -5    1    3    3    0  503 -0.63167273362E+02 -0.13679596038E+02 -0.96647448405E+02  0.11636174223E+03  0.47000000000E+01 0. -1.
<mgrwt>
<rscale>  0 0.12884601E+03</rscale>
<asrwt>0</asrwt>
<pdfrwt beam="2">  1        5 0.13646207E+00 0.12884716E+03</pdfrwt>
<pdfrwt beam="1">  1       -5 0.29546014E-02 0.12884716E+03</pdfrwt>
<totfact> 0.15805751E+02</totfact>
</mgrwt>
</event>
<event>
 8    1  0.3674342E-007  0.1626487E+03  0.7546771E-02  0.1185739E+00
         -5   -1    0    0    0  501 -0.00000000000E+00  0.00000000000E+00  0.21547254793E+03  0.21552380127E+03  0.47000000000E+01 0.  1.
          5   -1    0    0  501    0  0.00000000000E+00 -0.00000000000E+00 -0.12291335465E+03  0.12300318187E+03  0.47000000000E+01 0.  1.
         25    2    1    2    0    0 -0.13759015766E+02  0.10315299454E+03  0.53907463769E+02  0.17134876509E+03  0.12499813539E+03 0.  0.
         25    2    1    2    0    0  0.13759015766E+02 -0.10315299454E+03  0.38651729520E+02  0.16717821805E+03  0.12499899839E+03 0.  0.
          5    1    3    3  502    0 -0.22160168557E+02  0.68800769926E+02 -0.31350542588E+02  0.78927596780E+02  0.47000000000E+01 0.  1.
         -5    1    3    3    0  502  0.84011527911E+01  0.34352224613E+02  0.85258006357E+02  0.92421168311E+02  0.47000000000E+01 0.  1.
          5    1    4    4  503    0  0.35717944725E+02 -0.12573798121E+03  0.30721551994E+02  0.13435667178E+03  0.47000000000E+01 0. -1.
         -5    1    4    4    0  503 -0.21958928959E+02  0.22584986671E+02  0.79301775260E+01  0.32821546270E+02  0.47000000000E+01 0. -1.
<mgrwt>
<rscale>  0 0.16264854E+03</rscale>
<asrwt>0</asrwt>
<pdfrwt beam="2">  1        5 0.18920600E-01 0.16264870E+03</pdfrwt>
<pdfrwt beam="1">  1       -5 0.33160475E-01 0.16264870E+03</pdfrwt>
<totfact> 0.17266313E+02</totfact>
</mgrwt>
</event>
<event>
 8    1  0.3674342E-007  0.1290416E+03  0.7546771E-02  0.1228886E+00
         -5   -1    0    0    0  501 -0.00000000000E+00  0.00000000000E+00  0.21999309112E+03  0.22004329152E+03  0.47000000000E+01 0.  1.
          5   -1    0    0  501    0  0.00000000000E+00 -0.00000000000E+00 -0.79266000950E+02  0.79405219643E+02  0.47000000000E+01 0.  1.
         25    2    1    2    0    0 -0.17793303701E+02 -0.26627264842E+02  0.10270715911E+03  0.16492575907E+03  0.12500453025E+03 0.  0.
         25    2    1    2    0    0  0.17793303701E+02  0.26627264842E+02  0.38019931062E+02  0.13452275209E+03  0.12500097113E+03 0.  0.
          5    1    4    4  502    0  0.28571012843E+02  0.80323442805E+00  0.79303635849E+02  0.84428103255E+02  0.47000000000E+01 0.  1.
         -5    1    4    4    0  502 -0.10777709142E+02  0.25824030414E+02 -0.41283704787E+02  0.50094648837E+02  0.47000000000E+01 0.  1.
          5    1    3    3  503    0 -0.40050960784E+02  0.15502497338E+02 -0.83363170619E+01  0.43999898473E+02  0.47000000000E+01 0.  1.
         -5    1    3    3    0  503  0.22257657083E+02 -0.42129762180E+02  0.11104347617E+03  0.12092586060E+03  0.47000000000E+01 0.  1.
<mgrwt>
<rscale>  0 0.12904078E+03</rscale>
<asrwt>0</asrwt>
<pdfrwt beam="2">  1        5 0.12209340E-01 0.12904164E+03</pdfrwt>
<pdfrwt beam="1">  1       -5 0.33859662E-01 0.12904164E+03</pdfrwt>
<totfact> 0.33933228E+02</totfact>
</mgrwt>
</event>
<event>
 8    1  0.3674342E-007  0.1303290E+03  0.7546771E-02  0.1226969E+00
          5   -1    0    0  501    0  0.00000000000E+00  0.00000000000E+00  0.25038136587E+03  0.25042547469E+03  0.47000000000E+01 0.  1.
         -5   -1    0    0    0  501 -0.00000000000E+00 -0.00000000000E+00 -0.11639460708E+03  0.11648946114E+03  0.47000000000E+01 0.  1.
         25    2    1    2    0    0 -0.32206377924E+02 -0.18028209193E+02 -0.51571445265E+02  0.14016065574E+03  0.12499251316E+03 0.  0.
         25    2    1    2    0    0  0.32206377924E+02  0.18028209193E+02  0.18555820406E+03  0.22675428009E+03  0.12499355719E+03 0.  0.
          5    1    3    3  502    0 -0.62647888426E+02 -0.24935757067E+01 -0.75444035321E+02  0.98208290432E+02  0.47000000000E+01 0. -1.
         -5    1    3    3    0  502  0.30441510501E+02 -0.15534633486E+02  0.23872590055E+02  0.41952365310E+02  0.47000000000E+01 0. -1.
          5    1    4    4  503    0  0.69971871638E+02  0.34726278130E+02  0.15960338155E+03  0.17775631245E+03  0.47000000000E+01 0. -1.
         -5    1    4    4    0  503 -0.37765493713E+02 -0.16698068937E+02  0.25954822512E+02  0.48997967644E+02  0.47000000000E+01 0. -1.
<mgrwt>
<rscale>  0 0.13032878E+03</rscale>
<asrwt>0</asrwt>
<pdfrwt beam="1">  1        5 0.38530900E-01 0.13032903E+03</pdfrwt>
<pdfrwt beam="2">  1       -5 0.17917552E-01 0.13032903E+03</pdfrwt>
<totfact> 0.13132577E+02</totfact>
</mgrwt>
</event>
<event>
 8    1  0.3674342E-007  0.1382744E+03  0.7546771E-02  0.1215684E+00
         -5   -1    0    0    0  501 -0.00000000000E+00  0.00000000000E+00  0.47052877493E+03  0.47055224793E+03  0.47000000000E+01 0. -1.
          5   -1    0    0  501    0  0.00000000000E+00 -0.00000000000E+00 -0.48287771548E+02  0.48515965218E+02  0.47000000000E+01 0. -1.
         25    2    1    2    0    0  0.59015834264E+02  0.11414468711E+01  0.31532978825E+03  0.34431479316E+03  0.12504251209E+03 0.  0.
         25    2    1    2    0    0 -0.59015834264E+02 -0.11414468711E+01  0.10691121512E+03  0.17475341999E+03  0.12499831313E+03 0.  0.
          5    1    4    4  502    0 -0.92075460008E+02 -0.25435477265E+02  0.85267164942E+02  0.12813053210E+03  0.47000000000E+01 0.  1.
         -5    1    4    4    0  502  0.33059625744E+02  0.24294030394E+02  0.21644050181E+02  0.46622887891E+02  0.47000000000E+01 0.  1.
          5    1    3    3  503    0  0.64282060083E+02  0.54250380994E+02  0.17895183511E+03  0.19779063773E+03  0.47000000000E+01 0.  1.
         -5    1    3    3    0  503 -0.52662258183E+01 -0.53108934122E+02  0.13637795315E+03  0.14652415543E+03  0.47000000000E+01 0.  1.
<mgrwt>
<rscale>  0 0.13826438E+03</rscale>
<asrwt>0</asrwt>
<pdfrwt beam="2">  1        5 0.74482468E-02 0.13827437E+03</pdfrwt>
<pdfrwt beam="1">  1       -5 0.72408403E-01 0.13827437E+03</pdfrwt>
<totfact> 0.16377267E+02</totfact>
</mgrwt>
</event>
<event>
 8    1  0.3674342E-007  0.1284851E+03  0.7546771E-02  0.1229724E+00
          5   -1    0    0  501    0  0.00000000000E+00  0.00000000000E+00  0.58017254620E+03  0.58019158333E+03  0.47000000000E+01 0.  1.
         -5   -1    0    0    0  501 -0.00000000000E+00 -0.00000000000E+00 -0.29799904175E+02  0.30168266255E+02  0.47000000000E+01 0.  1.
         25    2    1    2    0    0  0.22920286018E+02  0.18881999597E+02  0.20580931746E+03  0.24262293837E+03  0.12500618245E+03 0.  0.
         25    2    1    2    0    0 -0.22920286018E+02 -0.18881999597E+02  0.34456332457E+03  0.36773691122E+03  0.12499872724E+03 0.  0.
          5    1    4    4  502    0  0.36569758183E+02 -0.46485136197E+02  0.12196303483E+03  0.13562922608E+03  0.47000000000E+01 0.  1.
         -5    1    4    4    0  502 -0.59490044201E+02  0.27603136601E+02  0.22260028974E+03  0.23210768514E+03  0.47000000000E+01 0.  1.
          5    1    3    3  503    0  0.37545495628E+02  0.62291204253E+02  0.16769322184E+03  0.18284683486E+03  0.47000000000E+01 0. -1.
         -5    1    3    3    0  503 -0.14625209610E+02 -0.43409204656E+02  0.38116095622E+02  0.59776103507E+02  0.47000000000E+01 0. -1.
<mgrwt>
<rscale>  0 0.12848326E+03</rscale>
<asrwt>0</asrwt>
<pdfrwt beam="1">  1        5 0.89287114E-01 0.12848508E+03</pdfrwt>
<pdfrwt beam="2">  1       -5 0.46144006E-02 0.12848508E+03</pdfrwt>
<totfact> 0.21956066E+02</totfact>
</mgrwt>
</event>
<event>
 8    1  0.3674342E-007  0.1257263E+03  0.7546771E-02  0.1233945E+00
         -5   -1    0    0    0  501 -0.00000000000E+00  0.00000000000E+00  0.38510878914E+02  0.38796620919E+02  0.47000000000E+01 0. -1.
          5   -1    0    0  501    0  0.00000000000E+00 -0.00000000000E+00 -0.41467347809E+03  0.41470011264E+03  0.47000000000E+01 0. -1.
         25    2    1    2    0    0  0.83386250556E+01 -0.10500212672E+02 -0.16061008612E+03  0.20395720246E+03  0.12499261393E+03 0.  0.
         25    2    1    2    0    0 -0.83386250556E+01  0.10500212672E+02 -0.21555251305E+03  0.24953953110E+03  0.12500921793E+03 0.  0.
          5    1    3    3  502    0 -0.19871683481E+02  0.46328696718E+02 -0.30448847205E+02  0.59080066352E+02  0.47000000000E+01 0.  1.
         -5    1    3    3    0  502  0.28210308536E+02 -0.56828909390E+02 -0.13016123892E+03  0.14487713611E+03  0.47000000000E+01 0.  1.
          5    1    4    4  503    0 -0.31967731632E+02 -0.44197261700E+02 -0.52399134839E+02  0.75783198265E+02  0.47000000000E+01 0. -1.
         -5    1    4    4    0  503  0.23629106576E+02  0.54697474372E+02 -0.16315337821E+03  0.17375633284E+03  0.47000000000E+01 0. -1.
<mgrwt>
<rscale>  0 0.12572213E+03</rscale>
<asrwt>0</asrwt>
<pdfrwt beam="2">  1        5 0.63819946E-01 0.12572626E+03</pdfrwt>
<pdfrwt beam="1">  1       -5 0.59487799E-02 0.12572626E+03</pdfrwt>
<totfact> 0.30739869E+02</totfact>
</mgrwt>
</event>
<event>
 8    1  0.3674342E-007  0.1271062E+03  0.7546771E-02  0.1231816E+00
         -5   -1    0    0    0  501 -0.00000000000E+00  0.00000000000E+00  0.22663279784E+03  0.22668152782E+03  0.47000000000E+01 0.  1.
          5   -1    0    0  501    0  0.00000000000E+00 -0.00000000000E+00 -0.71380820938E+02  0.71535387032E+02  0.47000000000E+01 0.  1.
         25    2    1    2    0    0 -0.10685791924E+02 -0.20435810399E+02  0.86106032165E+02  0.15352600975E+03  0.12499671355E+03 0.  0.
         25    2    1    2    0    0  0.10685791924E+02  0.20435810399E+02  0.69145944737E+02  0.14469090511E+03  0.12498995100E+03 0.  0.
          5    1    3    3  502    0  0.24055395418E+02 -0.57289354873E+02  0.11708657819E+02  0.63402798822E+02  0.47000000000E+01 0. -1.
         -5    1    3    3    0  502 -0.34741187342E+02  0.36853544474E+02  0.74397374346E+02  0.90123210927E+02  0.47000000000E+01 0. -1.
          5    1    4    4  503    0  0.41536437928E+02 -0.39908459528E+02  0.42405440265E+02  0.71681742317E+02  0.47000000000E+01 0.  1.
         -5    1    4    4    0  503 -0.30850646004E+02  0.60344269927E+02  0.26740504472E+02  0.73009162790E+02  0.47000000000E+01 0.  1.
<mgrwt>
<rscale>  0 0.12710454E+03</rscale>
<asrwt>0</asrwt>
<pdfrwt beam="2">  1        5 0.10997303E-01 0.12710620E+03</pdfrwt>
<pdfrwt beam="1">  1       -5 0.34882222E-01 0.12710620E+03</pdfrwt>
<totfact> 0.38241201E+02</totfact>
</mgrwt>
</event>
<event>
 8    1  0.3674342E-007  0.1467239E+03  0.7546771E-02  0.1204559E+00
         -5   -1    0    0    0  501 -0.00000000000E+00  0.00000000000E+00  0.31719309174E+03  0.31722791089E+03  0.47000000000E+01 0. -1.
          5   -1    0    0  501    0  0.00000000000E+00 -0.00000000000E+00 -0.10793712676E+03  0.10803940639E+03  0.47000000000E+01 0. -1.
         25    2    1    2    0    0 -0.26578441281E+02 -0.72079927999E+02  0.23427652407E+03  0.27642970578E+03  0.12500385172E+03 0.  0.
         25    2    1    2    0    0  0.26578441281E+02  0.72079927999E+02 -0.25020559088E+02  0.14883761150E+03  0.12499870663E+03 0.  0.
          5    1    4    4  502    0  0.64935338469E+02  0.78549363885E+01  0.95956586346E+01  0.66275673308E+02  0.47000000000E+01 0. -1.
         -5    1    4    4    0  502 -0.38356897188E+02  0.64224991610E+02 -0.34616217723E+02  0.82561938196E+02  0.47000000000E+01 0. -1.
          5    1    3    3  503    0 -0.28056710835E+01 -0.76450407535E+02  0.23932051592E+03  0.25129452032E+03  0.47000000000E+01 0. -1.
         -5    1    3    3    0  503 -0.23772770198E+02  0.43704795368E+01 -0.50439918509E+01  0.25135185459E+02  0.47000000000E+01 0. -1.
<mgrwt>
<rscale>  0 0.14672277E+03</rscale>
<asrwt>0</asrwt>
<pdfrwt beam="2">  1        5 0.16616258E-01 0.14672386E+03</pdfrwt>
<pdfrwt beam="1">  1       -5 0.48809483E-01 0.14672386E+03</pdfrwt>
<totfact> 0.96055288E+01</totfact>
</mgrwt>
</event>
<event>
 8    1  0.3674342E-007  0.1319469E+03  0.7546771E-02  0.1224598E+00
         -5   -1    0    0    0  501 -0.00000000000E+00  0.00000000000E+00  0.41251045026E+03  0.41253722447E+03  0.47000000000E+01 0. -1.
          5   -1    0    0  501    0  0.00000000000E+00 -0.00000000000E+00 -0.42043859608E+02  0.42305745836E+02  0.47000000000E+01 0. -1.
         25    2    1    2    0    0 -0.17483510753E+02 -0.38453863401E+02  0.18495162171E+03  0.22719021060E+03  0.12499566656E+03 0.  0.
         25    2    1    2    0    0  0.17483510753E+02  0.38453863401E+02  0.18551496894E+03  0.22765275971E+03  0.12500241015E+03 0.  0.
          5    1    3    3  502    0  0.35130687483E+02  0.22734635066E+02  0.27771213720E+02  0.50441640993E+02  0.47000000000E+01 0. -1.
         -5    1    3    3    0  502 -0.52614198236E+02 -0.61188498467E+02  0.15718040799E+03  0.17674856960E+03  0.47000000000E+01 0. -1.
          5    1    4    4  503    0 -0.52501577482E+02  0.81724831153E+01  0.56412399557E+02  0.77637967143E+02  0.47000000000E+01 0.  1.
         -5    1    4    4    0  503  0.69985088235E+02  0.30281380286E+02  0.12910256938E+03  0.15001479257E+03  0.47000000000E+01 0.  1.
<mgrwt>
<rscale>  0 0.13194527E+03</rscale>
<asrwt>0</asrwt>
<pdfrwt beam="2">  1        5 0.64904905E-02 0.13194687E+03</pdfrwt>
<pdfrwt beam="1">  1       -5 0.63485353E-01 0.13194687E+03</pdfrwt>
<totfact> 0.27331254E+02</totfact>
</mgrwt>
</event>
<event>
 8    1  0.3674342E-007  0.1292480E+03  0.7546771E-02  0.1228576E+00
          5   -1    0    0  501    0  0.00000000000E+00  0.00000000000E+00  0.41561928577E+03  0.41564585973E+03  0.47000000000E+01 0.  1.
         -5   -1    0    0    0  501 -0.00000000000E+00 -0.00000000000E+00 -0.46405433630E+02  0.46642837289E+02  0.47000000000E+01 0.  1.
         25    2    1    2    0    0 -0.31022485652E+02  0.10841959082E+02  0.99174657475E+02  0.16291299921E+03  0.12500035974E+03 0.  0.
         25    2    1    2    0    0  0.31022485652E+02 -0.10841959082E+02  0.27003919467E+03  0.29937569780E+03  0.12499879633E+03 0.  0.
          5    1    3    3  502    0  0.10881697222E+02 -0.10867965615E+02  0.11250434165E+03  0.11364788120E+03  0.47000000000E+01 0. -1.
         -5    1    3    3    0  502 -0.41904182874E+02  0.21709924697E+02 -0.13329684175E+02  0.49265118013E+02  0.47000000000E+01 0. -1.
          5    1    4    4  503    0  0.57543320684E+02  0.41004083295E+02  0.14955481286E+03  0.16547296048E+03  0.47000000000E+01 0.  1.
         -5    1    4    4    0  503 -0.26520835032E+02 -0.51846042377E+02  0.12048438181E+03  0.13390273732E+03  0.47000000000E+01 0.  1.
<mgrwt>
<rscale>  0 0.12924757E+03</rscale>
<asrwt>0</asrwt>
<pdfrwt beam="1">  1        5 0.63961737E-01 0.12924795E+03</pdfrwt>
<pdfrwt beam="2">  1       -5 0.71596031E-02 0.12924795E+03</pdfrwt>
<totfact> 0.22599651E+02</totfact>
</mgrwt>
</event>
<event>
 8    1  0.3674342E-007  0.2188751E+03  0.7546771E-02  0.1134725E+00
         -5   -1    0    0    0  501 -0.00000000000E+00  0.00000000000E+00  0.20072547349E+03  0.20078049135E+03  0.47000000000E+01 0. -1.
          5   -1    0    0  501    0  0.00000000000E+00 -0.00000000000E+00 -0.24256452210E+03  0.24261005210E+03  0.47000000000E+01 0. -1.
         25    2    1    2    0    0  0.17833378303E+03  0.21877271255E+02  0.75934021998E+01  0.21900675743E+03  0.12499898750E+03 0.  0.
         25    2    1    2    0    0 -0.17833378303E+03 -0.21877271255E+02 -0.49432450815E+02  0.22438378602E+03  0.12499185201E+03 0.  0.
          5    1    3    3  502    0  0.33450077744E+02 -0.42042998588E+01  0.54650714505E+02  0.64384582272E+02  0.47000000000E+01 0.  1.
         -5    1    3    3    0  502  0.14488370529E+03  0.26081571114E+02 -0.47057312306E+02  0.15462217516E+03  0.47000000000E+01 0.  1.
          5    1    4    4  503    0 -0.10148548776E+03  0.46529157001E+02 -0.39918717607E+01  0.11181364727E+03  0.47000000000E+01 0.  1.
         -5    1    4    4    0  503 -0.76848295272E+02 -0.68406428256E+02 -0.45440579054E+02  0.11257013875E+03  0.47000000000E+01 0.  1.
<mgrwt>
<rscale>  0 0.21887406E+03</rscale>
<asrwt>0</asrwt>
<pdfrwt beam="2">  1        5 0.37325353E-01 0.21887508E+03</pdfrwt>
<pdfrwt beam="1">  1       -5 0.30888577E-01 0.21887508E+03</pdfrwt>
<totfact> 0.57692549E+01</totfact>
</mgrwt>
</event>
<event>
 8    1  0.3674342E-007  0.1289098E+03  0.7546771E-02  0.1229090E+00
         -5   -1    0    0    0  501 -0.00000000000E+00  0.00000000000E+00  0.22131652408E+03  0.22136642435E+03  0.47000000000E+01 0.  1.
          5   -1    0    0  501    0  0.00000000000E+00 -0.00000000000E+00 -0.75062280461E+02  0.75209280997E+02  0.47000000000E+01 0.  1.
         25    2    1    2    0    0 -0.21131158182E+02  0.23317372991E+02  0.79051296345E+02  0.15121788896E+03  0.12501006663E+03 0.  0.
         25    2    1    2    0    0  0.21131158182E+02 -0.23317372991E+02  0.67202947271E+02  0.14535781638E+03  0.12498973131E+03 0.  0.
          5    1    4    4  502    0  0.12299623262E+02  0.49380760371E+02  0.94460245922E+01  0.51971700067E+02  0.47000000000E+01 0. -1.
         -5    1    4    4    0  502  0.88315349199E+01 -0.72698133363E+02  0.57756922679E+02  0.93386116317E+02  0.47000000000E+01 0. -1.
          5    1    3    3  503    0  0.16171415427E+02  0.48677624860E+02  0.90779873627E+02  0.10437481159E+03  0.47000000000E+01 0. -1.
         -5    1    3    3    0  503 -0.37302573609E+02 -0.25360251868E+02 -0.11728577282E+02  0.46843077372E+02  0.47000000000E+01 0. -1.
<mgrwt>
<rscale>  0 0.12890489E+03</rscale>
<asrwt>0</asrwt>
<pdfrwt beam="2">  1        5 0.11563189E-01 0.12890982E+03</pdfrwt>
<pdfrwt beam="1">  1       -5 0.34063842E-01 0.12890982E+03</pdfrwt>
<totfact> 0.36899809E+02</totfact>
</mgrwt>
</event>
<event>
 8    1  0.3674342E-007  0.1256394E+03  0.7546771E-02  0.1234075E+00
         -5   -1    0    0    0  501 -0.00000000000E+00  0.00000000000E+00  0.52978832785E+02  0.53186903682E+02  0.47000000000E+01 0.  1.
          5   -1    0    0  501    0  0.00000000000E+00 -0.00000000000E+00 -0.30819828271E+03  0.30823411794E+03  0.47000000000E+01 0.  1.
         25    2    1    2    0    0 -0.12440655695E+02 -0.21524193399E+01 -0.93384899926E+02  0.15654394852E+03  0.12500346180E+03 0.  0.
         25    2    1    2    0    0  0.12440655695E+02  0.21524193399E+01 -0.16183455000E+03  0.20487707311E+03  0.12499916275E+03 0.  0.
          5    1    3    3  502    0 -0.20675551442E+02  0.46205924834E+02  0.13070024097E+00  0.50838695889E+02  0.47000000000E+01 0.  1.
         -5    1    3    3    0  502  0.82348957475E+01 -0.48358344173E+02 -0.93515600167E+02  0.10570525263E+03  0.47000000000E+01 0.  1.
          5    1    4    4  503    0 -0.85036915407E+01 -0.23986989828E+02  0.11466258829E+02  0.28306422281E+02  0.47000000000E+01 0.  1.
         -5    1    4    4    0  503  0.20944347236E+02  0.26139409168E+02 -0.17330080883E+03  0.17657065082E+03  0.47000000000E+01 0.  1.
<mgrwt>
<rscale>  0 0.12563837E+03</rscale>
<asrwt>0</asrwt>
<pdfrwt beam="2">  1        5 0.47433881E-01 0.12563944E+03</pdfrwt>
<pdfrwt beam="1">  1       -5 0.81693518E-02 0.12563944E+03</pdfrwt>
<totfact> 0.33988360E+02</totfact>
</mgrwt>
</event>
<event>
 8    1  0.3674342E-007  0.1350092E+03  0.7546771E-02  0.1220208E+00
          5   -1    0    0  501    0  0.00000000000E+00  0.00000000000E+00  0.12235109301E+02  0.13106788302E+02  0.47000000000E+01 0. -1.
         -5   -1    0    0    0  501 -0.00000000000E+00 -0.00000000000E+00 -0.14402307393E+04  0.14402384082E+04  0.47000000000E+01 0. -1.
         25    2    1    2    0    0 -0.27769787843E+02 -0.42781027542E+02 -0.68309395675E+03  0.69630756550E+03  0.12500197833E+03 0.  0.
         25    2    1    2    0    0  0.27769787843E+02  0.42781027542E+02 -0.74490167327E+03  0.75703763102E+03  0.12500437791E+03 0.  0.
          5    1    4    4  502    0 -0.79815611029E+00 -0.40874166113E+02 -0.14827705945E+03  0.15388148319E+03  0.47000000000E+01 0.  1.
         -5    1    4    4    0  502  0.28567943953E+02  0.83655193655E+02 -0.59662461382E+03  0.60315614783E+03  0.47000000000E+01 0.  1.
          5    1    3    3  503    0  0.35630007494E+02  0.81293581229E+01 -0.84312614663E+02  0.92012449641E+02  0.47000000000E+01 0.  1.
         -5    1    3    3    0  503 -0.63399795337E+02 -0.50910385665E+02 -0.59878134209E+03  0.60429511586E+03  0.47000000000E+01 0.  1.
<mgrwt>
<rscale>  0 0.13500860E+03</rscale>
<asrwt>0</asrwt>
<pdfrwt beam="1">  1        5 0.19499678E-02 0.13500915E+03</pdfrwt>
<pdfrwt beam="2">  1       -5 0.22164147E+00 0.13500915E+03</pdfrwt>
<totfact> 0.75518114E+01</totfact>
</mgrwt>
</event>
<event>
 8    1  0.3674342E-007  0.1553085E+03  0.7546771E-02  0.1194099E+00
          5   -1    0    0  501    0  0.00000000000E+00  0.00000000000E+00  0.10088075261E+03  0.10099017897E+03  0.47000000000E+01 0.  1.
         -5   -1    0    0    0  501 -0.00000000000E+00 -0.00000000000E+00 -0.26143875965E+03  0.26148100322E+03  0.47000000000E+01 0.  1.
         25    2    1    2    0    0 -0.56068344800E+02 -0.73159860348E+02 -0.27001408433E+02  0.15763824001E+03  0.12499885680E+03 0.  0.
         25    2    1    2    0    0  0.56068344800E+02  0.73159860348E+02 -0.13355659860E+03  0.20483294218E+03  0.12499257864E+03 0.  0.
          5    1    4    4  502    0  0.23730217421E+01 -0.28618297135E+02 -0.63959354419E+02  0.70267540023E+02  0.47000000000E+01 0. -1.
         -5    1    4    4    0  502  0.53695323058E+02  0.10177815748E+03 -0.69597244181E+02  0.13456540215E+03  0.47000000000E+01 0. -1.
          5    1    3    3  503    0 -0.25546074620E+02 -0.99146718647E+01  0.47569240151E+02  0.55098323525E+02  0.47000000000E+01 0.  1.
         -5    1    3    3    0  503 -0.30522270180E+02 -0.63245188484E+02 -0.74570648584E+02  0.10253991649E+03  0.47000000000E+01 0.  1.
<mgrwt>
<rscale>  0 0.15530726E+03</rscale>
<asrwt>0</asrwt>
<pdfrwt beam="1">  1        5 0.15531783E-01 0.15530853E+03</pdfrwt>
<pdfrwt beam="2">  1       -5 0.40233014E-01 0.15530853E+03</pdfrwt>
<totfact> 0.16545897E+02</totfact>
</mgrwt>
</event>
<event>
 8    1  0.3674342E-007  0.1297943E+03  0.7546771E-02  0.1227765E+00
         -5   -1    0    0    0  501 -0.00000000000E+00  0.00000000000E+00  0.11626735980E+02  0.12540773085E+02  0.47000000000E+01 0. -1.
          5   -1    0    0  501    0  0.00000000000E+00 -0.00000000000E+00 -0.15072345178E+04  0.15072418457E+04  0.47000000000E+01 0. -1.
         25    2    1    2    0    0 -0.34602688433E+02  0.45686425155E+01 -0.53876931264E+03  0.55418103255E+03  0.12500410414E+03 0.  0.
         25    2    1    2    0    0  0.34602688433E+02 -0.45686425155E+01 -0.95683846914E+03  0.96560158627E+03  0.12501339464E+03 0.  0.
          5    1    4    4  502    0  0.40487782888E+02  0.76282932113E+01 -0.94768865409E+03  0.94859544934E+03  0.47000000000E+01 0. -1.
         -5    1    4    4    0  502 -0.58850944556E+01 -0.12196935727E+02 -0.91498150570E+01  0.17006136935E+02  0.47000000000E+01 0. -1.
          5    1    3    3  503    0 -0.21132836594E+02 -0.59258782870E+02 -0.30364879433E+03  0.31013364930E+03  0.47000000000E+01 0. -1.
         -5    1    3    3    0  503 -0.13469851839E+02  0.63827425386E+02 -0.23512051831E+03  0.24404738325E+03  0.47000000000E+01 0. -1.
<mgrwt>
<rscale>  0 0.12979209E+03</rscale>
<asrwt>0</asrwt>
<pdfrwt beam="2">  1        5 0.23195296E+00 0.12979433E+03</pdfrwt>
<pdfrwt beam="1">  1       -5 0.18596040E-02 0.12979433E+03</pdfrwt>
<totfact> 0.69048326E+01</totfact>
</mgrwt>
</event>
<event>
 8    1  0.3674342E-007  0.1272234E+03  0.7546771E-02  0.1231635E+00
          5   -1    0    0  501    0  0.00000000000E+00  0.00000000000E+00  0.61165584911E+02  0.61345894545E+02  0.47000000000E+01 0.  1.
         -5   -1    0    0    0  501 -0.00000000000E+00 -0.00000000000E+00 -0.29189857125E+03  0.29193640728E+03  0.47000000000E+01 0.  1.
         25    2    1    2    0    0  0.23039385752E+02 -0.54461913348E+01 -0.16992618490E+03  0.21227431138E+03  0.12500000264E+03 0.  0.
         25    2    1    2    0    0 -0.23039385752E+02  0.54461913348E+01 -0.60806801438E+02  0.14100799045E+03  0.12500124789E+03 0.  0.
          5    1    3    3  502    0 -0.41882898485E+02 -0.92338649802E+00 -0.16000891470E+02  0.45090446394E+02  0.47000000000E+01 0.  1.
         -5    1    3    3    0  502  0.64922284237E+02 -0.45228048368E+01 -0.15392529343E+03  0.16718386498E+03  0.47000000000E+01 0.  1.
          5    1    4    4  503    0 -0.21156105401E+02 -0.19736039816E+02  0.32771951474E+02  0.43967975468E+02  0.47000000000E+01 0.  1.
         -5    1    4    4    0  503 -0.18832803510E+01  0.25182231150E+02 -0.93578752912E+02  0.97040014980E+02  0.47000000000E+01 0.  1.
<mgrwt>
<rscale>  0 0.12722307E+03</rscale>
<asrwt>0</asrwt>
<pdfrwt beam="1">  1        5 0.94268706E-02 0.12722337E+03</pdfrwt>
<pdfrwt beam="2">  1       -5 0.44924252E-01 0.12722337E+03</pdfrwt>
<totfact> 0.29882362E+02</totfact>
</mgrwt>
</event>
<event>
 8    1  0.3674342E-007  0.1818748E+03  0.7546771E-02  0.1166006E+00
         -5   -1    0    0    0  501 -0.00000000000E+00  0.00000000000E+00  0.10641438576E+03  0.10651812755E+03  0.47000000000E+01 0. -1.
          5   -1    0    0  501    0  0.00000000000E+00 -0.00000000000E+00 -0.31085605555E+03  0.31089158443E+03  0.47000000000E+01 0. -1.
         25    2    1    2    0    0  0.12219046639E+03  0.50164479514E+02 -0.95562228386E+02  0.20545213695E+03  0.12502582135E+03 0.  0.
         25    2    1    2    0    0 -0.12219046639E+03 -0.50164479514E+02 -0.10887944140E+03  0.21195757503E+03  0.12499718305E+03 0.  0.
          5    1    4    4  502    0 -0.16453933790E+02  0.35364031023E+02 -0.27436784979E+01  0.39382285346E+02  0.47000000000E+01 0. -1.
         -5    1    4    4    0  502 -0.10573653260E+03 -0.85528510538E+02 -0.10613576290E+03  0.17257528968E+03  0.47000000000E+01 0. -1.
          5    1    3    3  503    0  0.10015141245E+02 -0.55909024976E+01 -0.77874306785E+02  0.78854669501E+02  0.47000000000E+01 0.  1.
         -5    1    3    3    0  503  0.11217532515E+03  0.55755382012E+02 -0.17687921602E+02  0.12659746745E+03  0.47000000000E+01 0.  1.
<mgrwt>
<rscale>  0 0.18186987E+03</rscale>
<asrwt>0</asrwt>
<pdfrwt beam="2">  1        5 0.47834721E-01 0.18187480E+03</pdfrwt>
<pdfrwt beam="1">  1       -5 0.16382157E-01 0.18187480E+03</pdfrwt>
<totfact> 0.10978927E+02</totfact>
</mgrwt>
</event>
<event>
 8    1  0.3674342E-007  0.1407159E+03  0.7546771E-02  0.1212382E+00
          5   -1    0    0  501    0  0.00000000000E+00  0.00000000000E+00  0.10461704298E+03  0.10472256529E+03  0.47000000000E+01 0. -1.
         -5   -1    0    0    0  501 -0.00000000000E+00 -0.00000000000E+00 -0.18992098505E+03  0.18997913191E+03  0.47000000000E+01 0. -1.
         25    2    1    2    0    0  0.24688508026E+02  0.59704035292E+02 -0.52971375752E+02  0.15035605912E+03  0.12500753420E+03 0.  0.
         25    2    1    2    0    0 -0.24688508026E+02 -0.59704035292E+02 -0.32332566317E+02  0.14434563809E+03  0.12496469154E+03 0.  0.
          5    1    4    4  502    0 -0.43459830907E+02 -0.92506694110E+02 -0.27567645834E+02  0.10596372235E+03  0.47000000000E+01 0. -1.
         -5    1    4    4    0  502  0.18771322881E+02  0.32802658819E+02 -0.47649204824E+01  0.38381915735E+02  0.47000000000E+01 0. -1.
          5    1    3    3  503    0  0.10148174818E+02  0.11051891186E+02  0.40739479772E+02  0.43668351961E+02  0.47000000000E+01 0.  1.
         -5    1    3    3    0  503  0.14540333207E+02  0.48652144105E+02 -0.93710855524E+02  0.10668770716E+03  0.47000000000E+01 0.  1.
<mgrwt>
<rscale>  0 0.14070643E+03</rscale>
<asrwt>0</asrwt>
<pdfrwt beam="1">  1        5 0.16107520E-01 0.14071595E+03</pdfrwt>
<pdfrwt beam="2">  1       -5 0.29231203E-01 0.14071595E+03</pdfrwt>
<totfact> 0.28409082E+02</totfact>
</mgrwt>
</event>
<event>
 8    1  0.3674342E-007  0.1708914E+03  0.7546771E-02  0.1176922E+00
         -5   -1    0    0    0  501 -0.00000000000E+00  0.00000000000E+00  0.12035220630E+04  0.12035312402E+04  0.47000000000E+01 0. -1.
          5   -1    0    0  501    0  0.00000000000E+00 -0.00000000000E+00 -0.26271356936E+02  0.26688465585E+02  0.47000000000E+01 0. -1.
         25    2    1    2    0    0 -0.33064279594E+02 -0.11173374777E+03  0.76685897516E+03  0.78566949631E+03  0.12500477058E+03 0.  0.
         25    2    1    2    0    0  0.33064279594E+02  0.11173374777E+03  0.41039173093E+03  0.44455020950E+03  0.12500335586E+03 0.  0.
          5    1    3    3  502    0  0.42349847205E+02 -0.66054573105E+02  0.27792794975E+03  0.28882996977E+03  0.47000000000E+01 0.  1.
         -5    1    3    3    0  502 -0.75414126799E+02 -0.45679174660E+02  0.48893102541E+03  0.49683952654E+03  0.47000000000E+01 0.  1.
          5    1    4    4  503    0 -0.45893747922E+02  0.56240127978E+02  0.14742663748E+03  0.16439553380E+03  0.47000000000E+01 0. -1.
         -5    1    4    4    0  503  0.78958027516E+02  0.55493619787E+02  0.26296509345E+03  0.28015467571E+03  0.47000000000E+01 0. -1.
<mgrwt>
<rscale>  0 0.17089114E+03</rscale>
<asrwt>0</asrwt>
<pdfrwt beam="2">  1        5 0.40745396E-02 0.17089140E+03</pdfrwt>
<pdfrwt beam="1">  1       -5 0.18518998E+00 0.17089140E+03</pdfrwt>
<totfact> 0.43200491E+01</totfact>
</mgrwt>
</event>
<event>
 8    1  0.3674342E-007  0.1407985E+03  0.7546771E-02  0.1212262E+00
          5   -1    0    0  501    0  0.00000000000E+00  0.00000000000E+00  0.10172748667E+02  0.11206016930E+02  0.47000000000E+01 0. -1.
         -5   -1    0    0    0  501 -0.00000000000E+00 -0.00000000000E+00 -0.18892789387E+04  0.18892847849E+04  0.47000000000E+01 0. -1.
         25    2    1    2    0    0  0.57440191155E+02  0.29980394636E+02 -0.10704081333E+04  0.10796273692E+04  0.12499393947E+03 0.  0.
         25    2    1    2    0    0 -0.57440191155E+02 -0.29980394636E+02 -0.80869805676E+03  0.82086343258E+03  0.12500411318E+03 0.  0.
          5    1    3    3  502    0  0.86957652682E+02  0.69394467611E+01 -0.47106196745E+03  0.47909420416E+03  0.47000000000E+01 0. -1.
         -5    1    3    3    0  502 -0.29517461528E+02  0.23040947874E+02 -0.59934616586E+03  0.60053316507E+03  0.47000000000E+01 0. -1.
          5    1    4    4  503    0  0.54070496079E+01  0.37893481332E+02 -0.39733241545E+03  0.39919956222E+03  0.47000000000E+01 0. -1.
         -5    1    4    4    0  503 -0.62847240763E+02 -0.67873875967E+02 -0.41136564132E+03  0.42166387036E+03  0.47000000000E+01 0. -1.
<mgrwt>
<rscale>  0 0.14079628E+03</rscale>
<asrwt>0</asrwt>
<pdfrwt beam="1">  1        5 0.16449716E-02 0.14079854E+03</pdfrwt>
<pdfrwt beam="2">  1       -5 0.29073796E+00 0.14079854E+03</pdfrwt>
<totfact> 0.36423469E+01</totfact>
</mgrwt>
</event>
<event>
 8    1  0.3674342E-007  0.1438646E+03  0.7546771E-02  0.1208222E+00
          5   -1    0    0  501    0  0.00000000000E+00  0.00000000000E+00  0.68935493897E+03  0.68937096101E+03  0.47000000000E+01 0.  1.
         -5   -1    0    0    0  501 -0.00000000000E+00 -0.00000000000E+00 -0.29966322458E+02  0.30332663610E+02  0.47000000000E+01 0.  1.
         25    2    1    2    0    0 -0.89874386254E+00  0.71212050753E+02  0.30498753554E+03  0.33721569309E+03  0.12500025167E+03 0.  0.
         25    2    1    2    0    0  0.89874386254E+00 -0.71212050753E+02  0.35440108097E+03  0.38248793153E+03  0.12499971063E+03 0.  0.
          5    1    3    3  502    0  0.46274299359E+02  0.77341325950E+02  0.24100383678E+03  0.25734787899E+03  0.47000000000E+01 0.  1.
         -5    1    3    3    0  502 -0.47173043221E+02 -0.61292751969E+01  0.63983698767E+02  0.79867814100E+02  0.47000000000E+01 0.  1.
          5    1    4    4  503    0 -0.72843224642E+01 -0.87325642351E+02  0.35301965848E+03  0.36376338249E+03  0.47000000000E+01 0.  1.
         -5    1    4    4    0  503  0.81830663268E+01  0.16113591598E+02  0.13814224913E+01  0.18724549041E+02  0.47000000000E+01 0.  1.
<mgrwt>
<rscale>  0 0.14386450E+03</rscale>
<asrwt>0</asrwt>
<pdfrwt beam="1">  1        5 0.10608400E+00 0.14386461E+03</pdfrwt>
<pdfrwt beam="2">  1       -5 0.46396167E-02 0.14386461E+03</pdfrwt>
<totfact> 0.14894396E+02</totfact>
</mgrwt>
</event>
<event>
 8    1  0.3674342E-007  0.1361588E+03  0.7546771E-02  0.1218621E+00
         -5   -1    0    0    0  501 -0.00000000000E+00  0.00000000000E+00  0.53590280760E+03  0.53592341729E+03  0.47000000000E+01 0. -1.
          5   -1    0    0  501    0  0.00000000000E+00 -0.00000000000E+00 -0.37405457404E+02  0.37699578825E+02  0.47000000000E+01 0. -1.
         25    2    1    2    0    0 -0.46231132229E+02  0.27481217961E+02  0.33035237863E+03  0.35731207665E+03  0.12508673439E+03 0.  0.
         25    2    1    2    0    0  0.46231132229E+02 -0.27481217961E+02  0.16814497157E+03  0.21631091947E+03  0.12500058996E+03 0.  0.
          5    1    3    3  502    0  0.38279895265E+02  0.30192024039E+02  0.89806824039E+02  0.10229498688E+03  0.47000000000E+01 0.  1.
         -5    1    3    3    0  502 -0.84511027493E+02 -0.27108060776E+01  0.24054555460E+03  0.25501708977E+03  0.47000000000E+01 0.  1.
          5    1    4    4  503    0  0.16757285737E+02  0.40516029087E+02  0.11991094962E+03  0.12776181384E+03  0.47000000000E+01 0. -1.
         -5    1    4    4    0  503  0.29473846492E+02 -0.67997247048E+02  0.48234021947E+02  0.88549105622E+02  0.47000000000E+01 0. -1.
<mgrwt>
<rscale>  0 0.13613904E+03</rscale>
<asrwt>0</asrwt>
<pdfrwt beam="2">  1        5 0.57788965E-02 0.13615883E+03</pdfrwt>
<pdfrwt beam="1">  1       -5 0.82470787E-01 0.13615883E+03</pdfrwt>
<totfact> 0.18558286E+02</totfact>
</mgrwt>
</event>
<event>
 8    1  0.3674342E-007  0.1622506E+03  0.7546771E-02  0.1186180E+00
          5   -1    0    0  501    0  0.00000000000E+00  0.00000000000E+00  0.59922605263E+03  0.59924448445E+03  0.47000000000E+01 0.  1.
         -5   -1    0    0    0  501 -0.00000000000E+00 -0.00000000000E+00 -0.77759423438E+02  0.77901334606E+02  0.47000000000E+01 0.  1.
         25    2    1    2    0    0  0.18887365401E+02  0.10169901655E+03  0.37252467832E+02  0.16647224302E+03  0.12500335514E+03 0.  0.
         25    2    1    2    0    0 -0.18887365401E+02 -0.10169901655E+03  0.48421416136E+03  0.51067357604E+03  0.12499889867E+03 0.  0.
          5    1    4    4  502    0  0.27028784603E+02  0.15973750013E+02  0.15075691598E+03  0.15406314810E+03  0.47000000000E+01 0.  1.
         -5    1    4    4    0  502 -0.45916150004E+02 -0.11767276656E+03  0.33345724538E+03  0.35661042794E+03  0.47000000000E+01 0.  1.
          5    1    3    3  503    0  0.70238551573E+02  0.77143692890E+02  0.16639104107E+02  0.10575232038E+03  0.47000000000E+01 0. -1.
         -5    1    3    3    0  503 -0.51351186172E+02  0.24555323660E+02  0.20613363726E+02  0.60719922640E+02  0.47000000000E+01 0. -1.
<mgrwt>
<rscale>  0 0.16224975E+03</rscale>
<asrwt>0</asrwt>
<pdfrwt beam="1">  1        5 0.92200958E-01 0.16225061E+03</pdfrwt>
<pdfrwt beam="2">  1       -5 0.11975322E-01 0.16225061E+03</pdfrwt>
<totfact> 0.42900909E+01</totfact>
</mgrwt>
</event>
<event>
 8    1  0.3674342E-007  0.1316902E+03  0.7546771E-02  0.1224972E+00
         -5   -1    0    0    0  501 -0.00000000000E+00  0.00000000000E+00  0.22822226486E+02  0.23301159237E+02  0.47000000000E+01 0.  1.
          5   -1    0    0  501    0  0.00000000000E+00 -0.00000000000E+00 -0.75617240010E+03  0.75618700641E+03  0.47000000000E+01 0.  1.
         25    2    1    2    0    0 -0.17463619637E+02  0.37568733019E+02 -0.33592922479E+03  0.36081679461E+03  0.12499570992E+03 0.  0.
         25    2    1    2    0    0  0.17463619637E+02 -0.37568733019E+02 -0.39742094882E+03  0.41867137104E+03  0.12500367455E+03 0.  0.
          5    1    4    4  502    0  0.16286880589E+02  0.16814938476E+02 -0.33455367553E+03  0.33540461602E+03  0.47000000000E+01 0. -1.
         -5    1    4    4    0  502  0.11767390474E+01 -0.54383671496E+02 -0.62867273294E+02  0.83266755020E+02  0.47000000000E+01 0. -1.
          5    1    3    3  503    0 -0.68330774296E+02  0.24215364273E+02 -0.24631200202E+03  0.25680181254E+03  0.47000000000E+01 0. -1.
         -5    1    3    3    0  503  0.50867154660E+02  0.13353368747E+02 -0.89617222767E+02  0.10401498208E+03  0.47000000000E+01 0. -1.
<mgrwt>
<rscale>  0 0.13168830E+03</rscale>
<asrwt>0</asrwt>
<pdfrwt beam="2">  1        5 0.11637216E+00 0.13169019E+03</pdfrwt>
<pdfrwt beam="1">  1       -5 0.35490769E-02 0.13169019E+03</pdfrwt>
<totfact> 0.17837540E+02</totfact>
</mgrwt>
</event>
<event>
 8    1  0.3674342E-007  0.1472374E+03  0.7546771E-02  0.1203913E+00
          5   -1    0    0  501    0  0.00000000000E+00  0.00000000000E+00  0.16251884642E+03  0.16258679356E+03  0.47000000000E+01 0.  1.
         -5   -1    0    0    0  501 -0.00000000000E+00 -0.00000000000E+00 -0.13795514981E+03  0.13803518884E+03  0.47000000000E+01 0.  1.
         25    2    1    2    0    0 -0.16225525163E+02  0.76092459163E+02 -0.15473629846E+02  0.14804821574E+03  0.12500204380E+03 0.  0.
         25    2    1    2    0    0  0.16225525163E+02 -0.76092459163E+02  0.40037326453E+02  0.15257376667E+03  0.12498974661E+03 0.  0.
          5    1    3    3  502    0  0.46757965835E+02  0.58240565781E+02 -0.30340983555E+02  0.80752313618E+02  0.47000000000E+01 0.  1.
         -5    1    3    3    0  502 -0.62983490999E+02  0.17851893382E+02  0.14867353710E+02  0.67295902119E+02  0.47000000000E+01 0.  1.
          5    1    4    4  503    0 -0.28432487362E+02 -0.42276643388E+02  0.71679404041E+02  0.88066724007E+02  0.47000000000E+01 0. -1.
         -5    1    4    4    0  503  0.44658012525E+02 -0.33815815774E+02 -0.31642077588E+02  0.64507042664E+02  0.47000000000E+01 0. -1.
<mgrwt>
<rscale>  0 0.14723475E+03</rscale>
<asrwt>0</asrwt>
<pdfrwt beam="1">  1        5 0.25014283E-01 0.14723736E+03</pdfrwt>
<pdfrwt beam="2">  1       -5 0.21235253E-01 0.14723736E+03</pdfrwt>
<totfact> 0.23381224E+02</totfact>
</mgrwt>
</event>
<event>
 8    1  0.3674342E-007  0.1288389E+03  0.7546771E-02  0.1229192E+00
          5   -1    0    0  501    0  0.00000000000E+00  0.00000000000E+00  0.96892616708E+02  0.97006541905E+02  0.47000000000E+01 0.  1.
         -5   -1    0    0    0  501 -0.00000000000E+00 -0.00000000000E+00 -0.17707332986E+03  0.17713569417E+03  0.47000000000E+01 0.  1.
         25    2    1    2    0    0  0.16428306158E+02  0.26502536529E+02 -0.65341678922E+02  0.14446104808E+03  0.12500874258E+03 0.  0.
         25    2    1    2    0    0 -0.16428306158E+02 -0.26502536529E+02 -0.14839034233E+02  0.12968118800E+03  0.12499895959E+03 0.  0.
          5    1    4    4  502    0 -0.18984027581E+02  0.13930894620E+02 -0.62498499132E+02  0.66952337688E+02  0.47000000000E+01 0.  1.
         -5    1    4    4    0  502  0.25557214237E+01 -0.40433431149E+02  0.47659464900E+02  0.62728850308E+02  0.47000000000E+01 0.  1.
          5    1    3    3  503    0  0.19810166981E+02  0.51919959953E+02  0.16829970166E+02  0.58253436406E+02  0.47000000000E+01 0.  1.
         -5    1    3    3    0  503 -0.33818608238E+01 -0.25417423424E+02 -0.82171649088E+02  0.86207611671E+02  0.47000000000E+01 0.  1.
<mgrwt>
<rscale>  0 0.12883652E+03</rscale>
<asrwt>0</asrwt>
<pdfrwt beam="1">  1        5 0.14920117E-01 0.12883889E+03</pdfrwt>
<pdfrwt beam="2">  1       -5 0.27255611E-01 0.12883889E+03</pdfrwt>
<totfact> 0.36268145E+02</totfact>
</mgrwt>
</event>
<event>
 8    1  0.3674342E-007  0.1789939E+03  0.7546771E-02  0.1168782E+00
         -5   -1    0    0    0  501 -0.00000000000E+00  0.00000000000E+00  0.55794553143E+03  0.55796532691E+03  0.47000000000E+01 0. -1.
          5   -1    0    0  501    0  0.00000000000E+00 -0.00000000000E+00 -0.57330177147E+02  0.57522510479E+02  0.47000000000E+01 0. -1.
         25    2    1    2    0    0  0.74713234956E+02 -0.10407294492E+03  0.25699167783E+03  0.31318289777E+03  0.12500223854E+03 0.  0.
         25    2    1    2    0    0 -0.74713234956E+02  0.10407294492E+03  0.24362367645E+03  0.30230493962E+03  0.12499014141E+03 0.  0.
          5    1    4    4  502    0  0.97739909290E+01  0.29790351902E+02  0.15719825544E+03  0.16036326723E+03  0.47000000000E+01 0. -1.
         -5    1    4    4    0  502 -0.84487225885E+02  0.74282593021E+02  0.86425421012E+02  0.14194167239E+03  0.47000000000E+01 0. -1.
          5    1    3    3  503    0  0.54068215901E+02 -0.36038680393E+02  0.22649450481E+03  0.23567776553E+03  0.47000000000E+01 0. -1.
         -5    1    3    3    0  503  0.20645019055E+02 -0.68034264529E+02  0.30497173020E+02  0.77505132243E+02  0.47000000000E+01 0. -1.
<mgrwt>
<rscale>  0 0.17899176E+03</rscale>
<asrwt>0</asrwt>
<pdfrwt beam="2">  1        5 0.88363448E-02 0.17899387E+03</pdfrwt>
<pdfrwt beam="1">  1       -5 0.85854092E-01 0.17899387E+03</pdfrwt>
<totfact> 0.89109475E+01</totfact>
</mgrwt>
</event>
<event>
 8    1  0.3674342E-007  0.1453783E+03  0.7546771E-02  0.1206271E+00
         -5   -1    0    0    0  501 -0.00000000000E+00  0.00000000000E+00  0.87841007564E+02  0.87966656239E+02  0.47000000000E+01 0.  1.
          5   -1    0    0  501    0  0.00000000000E+00 -0.00000000000E+00 -0.25412970177E+03  0.25417316011E+03  0.47000000000E+01 0.  1.
         25    2    1    2    0    0  0.45510665501E+02  0.58632819556E+02 -0.12307411914E+03  0.19047854250E+03  0.12500323255E+03 0.  0.
         25    2    1    2    0    0 -0.45510665501E+02 -0.58632819556E+02 -0.43214575069E+02  0.15166127385E+03  0.12499845713E+03 0.  0.
          5    1    3    3  502    0  0.23130564553E+02  0.92530412546E+02 -0.11378534513E+03  0.14854660894E+03  0.47000000000E+01 0. -1.
         -5    1    3    3    0  502  0.22380100949E+02 -0.33897592991E+02 -0.92887740058E+01  0.41931933554E+02  0.47000000000E+01 0. -1.
          5    1    4    4  503    0  0.31199838355E+01  0.36285793696E+02 -0.22036088293E+02  0.42826070454E+02  0.47000000000E+01 0. -1.
         -5    1    4    4    0  503 -0.48630649337E+02 -0.94918613251E+02 -0.21178486776E+02  0.10883520340E+03  0.47000000000E+01 0. -1.
<mgrwt>
<rscale>  0 0.14537723E+03</rscale>
<asrwt>0</asrwt>
<pdfrwt beam="2">  1        5 0.39109885E-01 0.14537825E+03</pdfrwt>
<pdfrwt beam="1">  1       -5 0.13527009E-01 0.14537825E+03</pdfrwt>
<totfact> 0.22023700E+02</totfact>
</mgrwt>
</event>
<event>
 8    1  0.3674342E-007  0.1779854E+03  0.7546771E-02  0.1169767E+00
         -5   -1    0    0    0  501 -0.00000000000E+00  0.00000000000E+00  0.45636006492E+03  0.45638426666E+03  0.47000000000E+01 0.  1.
          5   -1    0    0  501    0  0.00000000000E+00 -0.00000000000E+00 -0.69354564827E+02  0.69513636521E+02  0.47000000000E+01 0.  1.
         25    2    1    2    0    0 -0.10778449854E+03 -0.66603306606E+02  0.18685843136E+03  0.25805901647E+03  0.12499953613E+03 0.  0.
         25    2    1    2    0    0  0.10778449854E+03  0.66603306606E+02  0.20014706874E+03  0.26783888672E+03  0.12500128615E+03 0.  0.
          5    1    3    3  502    0 -0.22777718689E+02 -0.86874051915E+02  0.84704858668E+02  0.12354322501E+03  0.47000000000E+01 0.  1.
         -5    1    3    3    0  502 -0.85006779851E+02  0.20270745309E+02  0.10215357269E+03  0.13451579145E+03  0.47000000000E+01 0.  1.
          5    1    4    4  503    0  0.38403155398E+02  0.71281188552E+02  0.17649422109E+03  0.19423725252E+03  0.47000000000E+01 0.  1.
         -5    1    4    4    0  503  0.69381343142E+02 -0.46778819453E+01  0.23652847644E+02  0.73601634203E+02  0.47000000000E+01 0.  1.
<mgrwt>
<rscale>  0 0.17798514E+03</rscale>
<asrwt>0</asrwt>
<pdfrwt beam="2">  1        5 0.10684031E-01 0.17798545E+03</pdfrwt>
<pdfrwt beam="1">  1       -5 0.70223341E-01 0.17798545E+03</pdfrwt>
<totfact> 0.10157950E+02</totfact>
</mgrwt>
</event>
<event>
 8    1  0.3674342E-007  0.1297887E+03  0.7546771E-02  0.1227770E+00
          5   -1    0    0  501    0  0.00000000000E+00  0.00000000000E+00  0.22894716949E+03  0.22899540698E+03  0.47000000000E+01 0. -1.
         -5   -1    0    0    0  501 -0.00000000000E+00 -0.00000000000E+00 -0.74169409626E+02  0.74318176271E+02  0.47000000000E+01 0. -1.
         25    2    1    2    0    0  0.21452444636E+02 -0.27572340714E+02  0.62418164924E+02  0.14401699550E+03  0.12499770529E+03 0.  0.
         25    2    1    2    0    0 -0.21452444636E+02  0.27572340714E+02  0.92359594942E+02  0.15929658775E+03  0.12499866694E+03 0.  0.
          5    1    3    3  502    0  0.21531751764E+02 -0.39699001253E+02 -0.27552106653E+02  0.53111539382E+02  0.47000000000E+01 0.  1.
         -5    1    3    3    0  502 -0.79307127781E-01  0.12126660538E+02  0.89970271576E+02  0.90905456123E+02  0.47000000000E+01 0.  1.
          5    1    4    4  503    0 -0.19993872718E+01 -0.48994988553E+02  0.24354438776E+02  0.54952116801E+02  0.47000000000E+01 0. -1.
         -5    1    4    4    0  503 -0.19453057364E+02  0.76567329267E+02  0.68005156167E+02  0.10434447095E+03  0.47000000000E+01 0. -1.
<mgrwt>
<rscale>  0 0.12978847E+03</rscale>
<asrwt>0</asrwt>
<pdfrwt beam="1">  1        5 0.35237796E-01 0.12978871E+03</pdfrwt>
<pdfrwt beam="2">  1       -5 0.11425833E-01 0.12978871E+03</pdfrwt>
<totfact> 0.35305303E+02</totfact>
</mgrwt>
</event>
<event>
 8    1  0.3674342E-007  0.2122954E+03  0.7546771E-02  0.1139762E+00
         -5   -1    0    0    0  501 -0.00000000000E+00  0.00000000000E+00  0.55085721823E+03  0.55087726843E+03  0.47000000000E+01 0.  1.
          5   -1    0    0  501    0  0.00000000000E+00 -0.00000000000E+00 -0.82482168569E+02  0.82615967778E+02  0.47000000000E+01 0.  1.
         25    2    1    2    0    0 -0.15689298920E+03  0.69488967937E+02  0.26451402839E+03  0.33917107668E+03  0.12500088525E+03 0.  0.
         25    2    1    2    0    0  0.15689298920E+03 -0.69488967937E+02  0.20386102126E+03  0.29432215953E+03  0.12498836295E+03 0.  0.
          5    1    3    3  502    0 -0.19782153584E+02  0.56689893789E+02  0.14411197662E+03  0.15619036290E+03  0.47000000000E+01 0.  1.
         -5    1    3    3    0  502 -0.13711083562E+03  0.12799074149E+02  0.12040205177E+03  0.18298071377E+03  0.47000000000E+01 0.  1.
          5    1    4    4  503    0  0.14726018130E+03 -0.86554879043E+02  0.21225490684E+03  0.27249136420E+03  0.47000000000E+01 0. -1.
         -5    1    4    4    0  503  0.96328078968E+01  0.17065911106E+02 -0.83938855747E+01  0.21830795333E+02  0.47000000000E+01 0. -1.
<mgrwt>
<rscale>  0 0.21229358E+03</rscale>
<asrwt>0</asrwt>
<pdfrwt beam="2">  1        5 0.12701398E-01 0.21229543E+03</pdfrwt>
<pdfrwt beam="1">  1       -5 0.84759103E-01 0.21229543E+03</pdfrwt>
<totfact> 0.50692166E+01</totfact>
</mgrwt>
</event>
<event>
 8    1  0.3674342E-007  0.1295345E+03  0.7546771E-02  0.1228149E+00
          5   -1    0    0  501    0  0.00000000000E+00  0.00000000000E+00  0.46537720355E+03  0.46540093638E+03  0.47000000000E+01 0. -1.
         -5   -1    0    0    0  501 -0.00000000000E+00 -0.00000000000E+00 -0.36560105466E+02  0.36860972745E+02  0.47000000000E+01 0. -1.
         25    2    1    2    0    0  0.27834878300E+02  0.19483113505E+02  0.18022387257E+03  0.22194461028E+03  0.12499757449E+03 0.  0.
         25    2    1    2    0    0 -0.27834878300E+02 -0.19483113505E+02  0.24859322551E+03  0.28031729884E+03  0.12499929638E+03 0.  0.
          5    1    3    3  502    0  0.19692534753E+02  0.40627260682E+02  0.55335337990E+01  0.45728330736E+02  0.47000000000E+01 0.  1.
         -5    1    3    3    0  502  0.81423435461E+01 -0.21144147178E+02  0.17469033877E+03  0.17621627955E+03  0.47000000000E+01 0.  1.
          5    1    4    4  503    0 -0.41358303309E+02 -0.67097269378E+02  0.13650892139E+03  0.15770012184E+03  0.47000000000E+01 0. -1.
         -5    1    4    4    0  503  0.13523425010E+02  0.47614155873E+02  0.11208430412E+03  0.12261717699E+03  0.47000000000E+01 0. -1.
<mgrwt>
<rscale>  0 0.12953412E+03</rscale>
<asrwt>0</asrwt>
<pdfrwt beam="1">  1        5 0.71621459E-01 0.12953454E+03</pdfrwt>
<pdfrwt beam="2">  1       -5 0.56496011E-02 0.12953454E+03</pdfrwt>
<totfact> 0.26182055E+02</totfact>
</mgrwt>
</event>
<event>
 8    1  0.3674342E-007  0.1660033E+03  0.7546771E-02  0.1182082E+00
         -5   -1    0    0    0  501 -0.00000000000E+00  0.00000000000E+00  0.52896044895E+03  0.52898132912E+03  0.47000000000E+01 0. -1.
          5   -1    0    0  501    0  0.00000000000E+00 -0.00000000000E+00 -0.69813429536E+02  0.69971458063E+02  0.47000000000E+01 0. -1.
         25    2    1    2    0    0  0.92244372298E+02  0.58504810484E+02  0.38076169640E+03  0.41537521354E+03  0.12500104603E+03 0.  0.
         25    2    1    2    0    0 -0.92244372298E+02 -0.58504810484E+02  0.78385323021E+02  0.18357757365E+03  0.12499851843E+03 0.  0.
          5    1    4    4  502    0 -0.73488387257E+02  0.23025420625E+01  0.92472675255E+02  0.11823337274E+03  0.47000000000E+01 0.  1.
         -5    1    4    4    0  502 -0.18755985041E+02 -0.60807352546E+02 -0.14087352234E+02  0.65344200902E+02  0.47000000000E+01 0.  1.
          5    1    3    3  503    0  0.21982532167E+02  0.87057701897E+02  0.19905877850E+03  0.21842335607E+03  0.47000000000E+01 0.  1.
         -5    1    3    3    0  503  0.70261840131E+02 -0.28552891413E+02  0.18170291789E+03  0.19695185746E+03  0.47000000000E+01 0.  1.
<mgrwt>
<rscale>  0 0.16600283E+03</rscale>
<asrwt>0</asrwt>
<pdfrwt beam="2">  1        5 0.10754290E-01 0.16600331E+03</pdfrwt>
<pdfrwt beam="1">  1       -5 0.81392290E-01 0.16600331E+03</pdfrwt>
<totfact> 0.70110027E+01</totfact>
</mgrwt>
</event>
<event>
 8    1  0.3674342E-007  0.1527077E+03  0.7546771E-02  0.1197185E+00
         -5   -1    0    0    0  501 -0.00000000000E+00  0.00000000000E+00  0.59927523779E+02  0.60111547196E+02  0.47000000000E+01 0.  1.
          5   -1    0    0  501    0  0.00000000000E+00 -0.00000000000E+00 -0.39019216958E+03  0.39022047512E+03  0.47000000000E+01 0.  1.
         25    2    1    2    0    0  0.41350521806E+02  0.77359551086E+02 -0.14958500113E+03  0.21376459203E+03  0.12500104978E+03 0.  0.
         25    2    1    2    0    0 -0.41350521806E+02 -0.77359551086E+02 -0.18067964466E+03  0.23656743028E+03  0.12499859709E+03 0.  0.
          5    1    3    3  502    0  0.21868706164E+02 -0.26907380373E+02 -0.78625642184E+02  0.86060031586E+02  0.47000000000E+01 0. -1.
         -5    1    3    3    0  502  0.19481815642E+02  0.10426693146E+03 -0.70959358951E+02  0.12770456045E+03  0.47000000000E+01 0. -1.
          5    1    4    4  503    0  0.13980854279E+02 -0.26296787883E+02 -0.15341948889E+03  0.15635413301E+03  0.47000000000E+01 0.  1.
         -5    1    4    4    0  503 -0.55331376085E+02 -0.51062763203E+02 -0.27260155777E+02  0.80213297267E+02  0.47000000000E+01 0.  1.
<mgrwt>
<rscale>  0 0.15270715E+03</rscale>
<asrwt>0</asrwt>
<pdfrwt beam="2">  1        5 0.60045896E-01 0.15270766E+03</pdfrwt>
<pdfrwt beam="1">  1       -5 0.92359523E-02 0.15270766E+03</pdfrwt>
<totfact> 0.17734974E+02</totfact>
</mgrwt>
</event>
<event>
 8    1  0.3674342E-007  0.1402199E+03  0.7546771E-02  0.1213035E+00
          5   -1    0    0  501    0  0.00000000000E+00  0.00000000000E+00  0.58139492237E+03  0.58141391948E+03  0.47000000000E+01 0.  1.
         -5   -1    0    0    0  501 -0.00000000000E+00 -0.00000000000E+00 -0.33938156904E+02  0.34262056185E+02  0.47000000000E+01 0.  1.
         25    2    1    2    0    0  0.13107889522E+02  0.62163064714E+02  0.24472614125E+03  0.28205055173E+03  0.12500226453E+03 0.  0.
         25    2    1    2    0    0 -0.13107889522E+02 -0.62163064714E+02  0.30273062422E+03  0.33362542393E+03  0.12499611703E+03 0.  0.
          5    1    4    4  502    0  0.31389744657E+02 -0.17335760250E+02  0.24585059721E+03  0.24849637985E+03  0.47000000000E+01 0. -1.
         -5    1    4    4    0  502 -0.44497634179E+02 -0.44827304464E+02  0.56880027013E+02  0.85129044080E+02  0.47000000000E+01 0. -1.
          5    1    3    3  503    0 -0.37338877682E+02  0.70933718813E+02  0.19336106253E+03  0.20937137998E+03  0.47000000000E+01 0.  1.
         -5    1    3    3    0  503  0.50446767204E+02 -0.87706540990E+01  0.51365078724E+02  0.72679171754E+02  0.47000000000E+01 0.  1.
<mgrwt>
<rscale>  0 0.14021856E+03</rscale>
<asrwt>0</asrwt>
<pdfrwt beam="1">  1        5 0.89471745E-01 0.14021993E+03</pdfrwt>
<pdfrwt beam="2">  1       -5 0.52476318E-02 0.14021993E+03</pdfrwt>
<totfact> 0.18181781E+02</totfact>
</mgrwt>
</event>
<event>
 8    1  0.3674342E-007  0.1284466E+03  0.7546771E-02  0.1229782E+00
         -5   -1    0    0    0  501 -0.00000000000E+00  0.00000000000E+00  0.19831073602E+02  0.20380419039E+02  0.47000000000E+01 0.  1.
          5   -1    0    0  501    0  0.00000000000E+00 -0.00000000000E+00 -0.82347779593E+03  0.82349120845E+03  0.47000000000E+01 0.  1.
         25    2    1    2    0    0 -0.26123236428E+02  0.13731386630E+02 -0.37437916753E+03  0.39580082443E+03  0.12501022791E+03 0.  0.
         25    2    1    2    0    0  0.26123236428E+02 -0.13731386630E+02 -0.42926755480E+03  0.44807080305E+03  0.12500334589E+03 0.  0.
          5    1    3    3  502    0 -0.69414695224E+02  0.14599292163E+02 -0.31017747179E+03  0.31821956767E+03  0.47000000000E+01 0.  1.
         -5    1    3    3    0  502  0.43291458796E+02 -0.86790553270E+00 -0.64201695741E+02  0.77581256761E+02  0.47000000000E+01 0.  1.
          5    1    4    4  503    0  0.42240383218E+02  0.47895337087E+02 -0.19449895670E+03  0.20476852162E+03  0.47000000000E+01 0.  1.
         -5    1    4    4    0  503 -0.16117146789E+02 -0.61626723717E+02 -0.23476859810E+03  0.24330228143E+03  0.47000000000E+01 0.  1.
<mgrwt>
<rscale>  0 0.12844494E+03</rscale>
<asrwt>0</asrwt>
<pdfrwt beam="2">  1        5 0.12673215E+00 0.12844661E+03</pdfrwt>
<pdfrwt beam="1">  1       -5 0.30942241E-02 0.12844661E+03</pdfrwt>
<totfact> 0.17768453E+02</totfact>
</mgrwt>
</event>
<event>
 8    1  0.3674342E-007  0.1298720E+03  0.7546771E-02  0.1227653E+00
         -5   -1    0    0    0  501 -0.00000000000E+00  0.00000000000E+00  0.13136723881E+04  0.13136807958E+04  0.47000000000E+01 0. -1.
          5   -1    0    0  501    0  0.00000000000E+00 -0.00000000000E+00 -0.12438777182E+02  0.13297111633E+02  0.47000000000E+01 0. -1.
         25    2    1    2    0    0  0.24892397882E+02 -0.24892097307E+02  0.68713479179E+03  0.69930034306E+03  0.12500999857E+03 0.  0.
         25    2    1    2    0    0 -0.24892397882E+02  0.24892097307E+02  0.61409881911E+03  0.62767756435E+03  0.12499006831E+03 0.  0.
          5    1    3    3  502    0 -0.23511121187E+02 -0.59715435634E+02  0.45750888971E+03  0.46201209967E+03  0.47000000000E+01 0.  1.
         -5    1    3    3    0  502  0.48403519069E+02  0.34823338327E+02  0.22962590207E+03  0.23728824340E+03  0.47000000000E+01 0.  1.
          5    1    4    4  503    0  0.11623987319E+02  0.29762887405E+02  0.56594601012E+03  0.56686675941E+03  0.47000000000E+01 0.  1.
         -5    1    4    4    0  503 -0.36516385201E+02 -0.48707900977E+01  0.48152808988E+02  0.60810804942E+02  0.47000000000E+01 0.  1.
<mgrwt>
<rscale>  0 0.12986725E+03</rscale>
<asrwt>0</asrwt>
<pdfrwt beam="2">  1        5 0.19803304E-02 0.12987204E+03</pdfrwt>
<pdfrwt beam="1">  1       -5 0.20217012E+00 0.12987204E+03</pdfrwt>
<totfact> 0.97904858E+01</totfact>
</mgrwt>
</event>
<event>
 8    1  0.3674342E-007  0.1259303E+03  0.7546771E-02  0.1233626E+00
         -5   -1    0    0    0  501 -0.00000000000E+00  0.00000000000E+00  0.59575560215E+02  0.59760667457E+02  0.47000000000E+01 0. -1.
          5   -1    0    0  501    0  0.00000000000E+00 -0.00000000000E+00 -0.26925125196E+03  0.26929227000E+03  0.47000000000E+01 0. -1.
         25    2    1    2    0    0 -0.52074350626E+01  0.14272929443E+02 -0.85558412860E+02  0.15223795043E+03  0.12500127057E+03 0.  0.
         25    2    1    2    0    0  0.52074350626E+01 -0.14272929443E+02 -0.12411727888E+03  0.17681498703E+03  0.12501042687E+03 0.  0.
          5    1    4    4  502    0 -0.50926880570E+02  0.20797446939E+02 -0.79738821948E+02  0.96986858334E+02  0.47000000000E+01 0. -1.
         -5    1    4    4    0  502  0.56134315632E+02 -0.35070376382E+02 -0.44378456935E+02  0.79828128695E+02  0.47000000000E+01 0. -1.
          5    1    3    3  503    0  0.41224640090E+02  0.17158556998E+02  0.98682540424E+01  0.45971289590E+02  0.47000000000E+01 0.  1.
         -5    1    3    3    0  503 -0.46432075152E+02 -0.28856275548E+01 -0.95426666903E+02  0.10626666084E+03  0.47000000000E+01 0.  1.
<mgrwt>
<rscale>  0 0.12592803E+03</rscale>
<asrwt>0</asrwt>
<pdfrwt beam="2">  1        5 0.41440663E-01 0.12593030E+03</pdfrwt>
<pdfrwt beam="1">  1       -5 0.91828652E-02 0.12593030E+03</pdfrwt>
<totfact> 0.36808122E+02</totfact>
</mgrwt>
</event>
<event>
 8    1  0.3674342E-007  0.1350932E+03  0.7546771E-02  0.1220094E+00
         -5   -1    0    0    0  501 -0.00000000000E+00  0.00000000000E+00  0.31163904398E+03  0.31167448361E+03  0.47000000000E+01 0. -1.
          5   -1    0    0  501    0  0.00000000000E+00 -0.00000000000E+00 -0.58450987410E+02  0.58639644689E+02  0.47000000000E+01 0. -1.
         25    2    1    2    0    0 -0.18439853414E+02 -0.47748103420E+02  0.13074723068E+03  0.18800267986E+03  0.12502103716E+03 0.  0.
         25    2    1    2    0    0  0.18439853414E+02  0.47748103420E+02  0.12244082589E+03  0.18231144843E+03  0.12500319520E+03 0.  0.
          5    1    4    4  502    0  0.93375724495E+01 -0.32793562909E+02 -0.11491095524E+01  0.34438619024E+02  0.47000000000E+01 0. -1.
         -5    1    4    4    0  502  0.91022809642E+01  0.80541666329E+02  0.12358993545E+03  0.14787282941E+03  0.47000000000E+01 0. -1.
          5    1    3    3  503    0 -0.13806103773E+02  0.27143833489E+02  0.10357412814E+03  0.10806056736E+03  0.47000000000E+01 0. -1.
         -5    1    3    3    0  503 -0.46337496403E+01 -0.74891936910E+02  0.27173102531E+02  0.79942112500E+02  0.47000000000E+01 0. -1.
<mgrwt>
<rscale>  0 0.13508906E+03</rscale>
<asrwt>0</asrwt>
<pdfrwt beam="2">  1        5 0.90096978E-02 0.13509319E+03</pdfrwt>
<pdfrwt beam="1">  1       -5 0.47961706E-01 0.13509319E+03</pdfrwt>
<totfact> 0.28795867E+02</totfact>
</mgrwt>
</event>
<event>
 8    1  0.3674342E-007  0.1604936E+03  0.7546771E-02  0.1188141E+00
         -5   -1    0    0    0  501 -0.00000000000E+00  0.00000000000E+00  0.89660484355E+02  0.89783586778E+02  0.47000000000E+01 0. -1.
          5   -1    0    0  501    0  0.00000000000E+00 -0.00000000000E+00 -0.34363839717E+03  0.34367053701E+03  0.47000000000E+01 0.  1.
         25    2    1    2    0    0 -0.94860261986E+02  0.33676141781E+02 -0.38978462023E+02  0.16515771324E+03  0.12500079164E+03 0.  0.
         25    2    1    2    0    0  0.94860261986E+02 -0.33676141781E+02 -0.21499945079E+03  0.26829641055E+03  0.12500259295E+03 0.  0.
          5    1    4    4  502    0  0.11568041394E+03 -0.44653559707E+02 -0.12893365845E+03  0.17894657539E+03  0.47000000000E+01 0.  1.
         -5    1    4    4    0  502 -0.20820151951E+02  0.10977417926E+02 -0.86065792337E+02  0.89349835155E+02  0.47000000000E+01 0.  1.
          5    1    3    3  503    0 -0.82857215014E+02  0.95839152835E+01  0.31721258097E+02  0.89361612156E+02  0.47000000000E+01 0.  1.
         -5    1    3    3    0  503 -0.12003046973E+02  0.24092226498E+02 -0.70699720120E+02  0.75796101082E+02  0.47000000000E+01 0.  1.
<mgrwt>
<rscale>  0 0.16049326E+03</rscale>
<asrwt>0</asrwt>
<pdfrwt beam="2">  1        5 0.52879387E-01 0.16049361E+03</pdfrwt>
<pdfrwt beam="1">  1       -5 0.13805863E-01 0.16049361E+03</pdfrwt>
<totfact> 0.11664035E+02</totfact>
</mgrwt>
</event>
<event>
 8    1  0.3674342E-007  0.1327220E+03  0.7546771E-02  0.1223474E+00
          5   -1    0    0  501    0  0.00000000000E+00  0.00000000000E+00  0.36843344264E+02  0.37141917244E+02  0.47000000000E+01 0. -1.
         -5   -1    0    0    0  501 -0.00000000000E+00 -0.00000000000E+00 -0.51295658934E+03  0.51297812093E+03  0.47000000000E+01 0. -1.
         25    2    1    2    0    0  0.16978434609E+02 -0.41245456345E+02 -0.31201758310E+03  0.33907241664E+03  0.12500270658E+03 0.  0.
         25    2    1    2    0    0 -0.16978434609E+02  0.41245456345E+02 -0.16409566198E+03  0.21104762153E+03  0.12499702941E+03 0.  0.
          5    1    3    3  502    0 -0.18422368709E+02 -0.11542279060E+02  0.13483059275E+01  0.22282634575E+02  0.47000000000E+01 0. -1.
         -5    1    3    3    0  502  0.35400803318E+02 -0.29703177286E+02 -0.31336588903E+03  0.31678978207E+03  0.47000000000E+01 0. -1.
          5    1    4    4  503    0 -0.64285492396E+02  0.53177660908E+02 -0.10806658519E+03  0.13660514260E+03  0.47000000000E+01 0.  1.
         -5    1    4    4    0  503  0.47307057787E+02 -0.11932204563E+02 -0.56029076790E+02  0.74442478923E+02  0.47000000000E+01 0.  1.
<mgrwt>
<rscale>  0 0.13272067E+03</rscale>
<asrwt>0</asrwt>
<pdfrwt beam="1">  1        5 0.56928306E-02 0.13272201E+03</pdfrwt>
<pdfrwt beam="2">  1       -5 0.78941017E-01 0.13272201E+03</pdfrwt>
<totfact> 0.20881490E+02</totfact>
</mgrwt>
</event>
<event>
 8    1  0.3674342E-007  0.1332457E+03  0.7546771E-02  0.1222720E+00
         -5   -1    0    0    0  501 -0.00000000000E+00  0.00000000000E+00  0.27535175754E+03  0.27539186694E+03  0.47000000000E+01 0. -1.
          5   -1    0    0  501    0  0.00000000000E+00 -0.00000000000E+00 -0.67752272644E+02  0.67915097353E+02  0.47000000000E+01 0. -1.
         25    2    1    2    0    0 -0.16740699508E+02 -0.42968547157E+02  0.14223739603E+03  0.19489968511E+03  0.12501145291E+03 0.  0.
         25    2    1    2    0    0  0.16740699508E+02  0.42968547157E+02  0.65362088858E+02  0.14840727919E+03  0.12500388311E+03 0.  0.
          5    1    3    3  502    0  0.42057912003E+02  0.17526627437E+02  0.70431688040E+02  0.84016446673E+02  0.47000000000E+01 0. -1.
         -5    1    3    3    0  502 -0.58798611511E+02 -0.60495174594E+02  0.71805707993E+02  0.11088323843E+03  0.47000000000E+01 0. -1.
          5    1    4    4  503    0  0.46993707948E+02 -0.22850466337E+02  0.53356199645E+02  0.74829983556E+02  0.47000000000E+01 0.  1.
         -5    1    4    4    0  503 -0.30253008440E+02  0.65819013494E+02  0.12005889213E+02  0.73577295634E+02  0.47000000000E+01 0.  1.
<mgrwt>
<rscale>  0 0.13324390E+03</rscale>
<asrwt>0</asrwt>
<pdfrwt beam="2">  1        5 0.10439037E-01 0.13324568E+03</pdfrwt>
<pdfrwt beam="1">  1       -5 0.42377419E-01 0.13324568E+03</pdfrwt>
<totfact> 0.28706801E+02</totfact>
</mgrwt>
</event>
<event>
 8    1  0.3674342E-007  0.1706043E+03  0.7546771E-02  0.1177221E+00
          5   -1    0    0  501    0  0.00000000000E+00  0.00000000000E+00  0.15241837662E+03  0.15249082442E+03  0.47000000000E+01 0.  1.
         -5   -1    0    0    0  501 -0.00000000000E+00 -0.00000000000E+00 -0.20259587179E+03  0.20265038186E+03  0.47000000000E+01 0.  1.
         25    2    1    2    0    0 -0.84038159810E+02  0.80128884211E+02  0.17733053530E+02  0.17151745636E+03  0.12498290387E+03 0.  0.
         25    2    1    2    0    0  0.84038159810E+02 -0.80128884211E+02 -0.67910548704E+02  0.18362374991E+03  0.12499115376E+03 0.  0.
          5    1    3    3  502    0 -0.39225822717E+02 -0.61741103633E+01 -0.41441707467E+02  0.57587237513E+02  0.47000000000E+01 0.  1.
         -5    1    3    3    0  502 -0.44812337093E+02  0.86302994574E+02  0.59174760997E+02  0.11393021885E+03  0.47000000000E+01 0.  1.
          5    1    4    4  503    0 -0.31819404373E+02 -0.54685832778E+01 -0.10970815210E+02  0.34421340533E+02  0.47000000000E+01 0.  1.
         -5    1    4    4    0  503  0.11585756418E+03 -0.74660300933E+02 -0.56939733494E+02  0.14920240938E+03  0.47000000000E+01 0.  1.
<mgrwt>
<rscale>  0 0.17060282E+03</rscale>
<asrwt>0</asrwt>
<pdfrwt beam="1">  1        5 0.23458747E-01 0.17060433E+03</pdfrwt>
<pdfrwt beam="2">  1       -5 0.31178362E-01 0.17060433E+03</pdfrwt>
<totfact> 0.13205533E+02</totfact>
</mgrwt>
</event>
<event>
 8    1  0.3674342E-007  0.1277462E+03  0.7546771E-02  0.1230842E+00
          5   -1    0    0  501    0  0.00000000000E+00  0.00000000000E+00  0.11905127825E+03  0.11914401728E+03  0.47000000000E+01 0.  1.
         -5   -1    0    0    0  501 -0.00000000000E+00 -0.00000000000E+00 -0.16748589678E+03  0.16755182966E+03  0.47000000000E+01 0.  1.
         25    2    1    2    0    0 -0.20295423768E+02  0.16813007595E+02 -0.85462918558E+02  0.15369139820E+03  0.12499021555E+03 0.  0.
         25    2    1    2    0    0  0.20295423768E+02 -0.16813007595E+02  0.37028300028E+02  0.13300444873E+03  0.12499802770E+03 0.  0.
          5    1    3    3  502    0  0.15111209240E+02  0.46239570126E+02 -0.94638344466E+02  0.10651268813E+03  0.47000000000E+01 0. -1.
         -5    1    3    3    0  502 -0.35406633008E+02 -0.29426562532E+02  0.91754259074E+01  0.47178710071E+02  0.47000000000E+01 0. -1.
          5    1    4    4  503    0  0.43020685310E+00 -0.41258070139E+02  0.73601382658E+02  0.84508383956E+02  0.47000000000E+01 0. -1.
         -5    1    4    4    0  503  0.19865216915E+02  0.24445062545E+02 -0.36573082630E+02  0.48496064778E+02  0.47000000000E+01 0. -1.
<mgrwt>
<rscale>  0 0.12774428E+03</rscale>
<asrwt>0</asrwt>
<pdfrwt beam="1">  1        5 0.18327787E-01 0.12774619E+03</pdfrwt>
<pdfrwt beam="2">  1       -5 0.25779266E-01 0.12774619E+03</pdfrwt>
<totfact> 0.27648480E+02</totfact>
</mgrwt>
</event>
<event>
 8    1  0.3674342E-007  0.1421916E+03  0.7546771E-02  0.1210421E+00
         -5   -1    0    0    0  501 -0.00000000000E+00  0.00000000000E+00  0.29768139225E+02  0.30136889569E+02  0.47000000000E+01 0. -1.
          5   -1    0    0  501    0  0.00000000000E+00 -0.00000000000E+00 -0.71281379197E+03  0.71282928673E+03  0.47000000000E+01 0. -1.
         25    2    1    2    0    0 -0.24275105430E+02  0.63288992460E+02 -0.25535421607E+03  0.29225737011E+03  0.12495526163E+03 0.  0.
         25    2    1    2    0    0  0.24275105430E+02 -0.63288992460E+02 -0.42769143667E+03  0.45070880619E+03  0.12499474253E+03 0.  0.
          5    1    3    3  502    0 -0.54407737065E+02  0.59241577164E+02 -0.77612736863E+02  0.11187311223E+03  0.47000000000E+01 0.  1.
         -5    1    3    3    0  502  0.30132631635E+02  0.40474152960E+01 -0.17774147920E+03  0.18038425788E+03  0.47000000000E+01 0.  1.
          5    1    4    4  503    0  0.57842837236E+02 -0.61953819886E+02 -0.16231267487E+03  0.18317086024E+03  0.47000000000E+01 0.  1.
         -5    1    4    4    0  503 -0.33567731806E+02 -0.13351725739E+01 -0.26537876181E+03  0.26753794595E+03  0.47000000000E+01 0.  1.
<mgrwt>
<rscale>  0 0.14218296E+03</rscale>
<asrwt>0</asrwt>
<pdfrwt beam="2">  1        5 0.10969320E+00 0.14219164E+03</pdfrwt>
<pdfrwt beam="1">  1       -5 0.46092716E-02 0.14219164E+03</pdfrwt>
<totfact> 0.13805981E+02</totfact>
</mgrwt>
</event>
<event>
 8    1  0.3674342E-007  0.1553357E+03  0.7546771E-02  0.1194070E+00
         -5   -1    0    0    0  501 -0.00000000000E+00  0.00000000000E+00  0.24085768519E+02  0.24540053895E+02  0.47000000000E+01 0.  1.
          5   -1    0    0  501    0  0.00000000000E+00 -0.00000000000E+00 -0.10666147811E+04  0.10666251362E+04  0.47000000000E+01 0.  1.
         25    2    1    2    0    0 -0.15892644825E+01 -0.92203856096E+02 -0.37690413383E+03  0.40765906582E+03  0.12500044403E+03 0.  0.
         25    2    1    2    0    0  0.15892644825E+01  0.92203856096E+02 -0.66562487876E+03  0.68350612432E+03  0.12498026213E+03 0.  0.
          5    1    3    3  502    0  0.45539407874E+02  0.56085587348E+01 -0.12831418379E+03  0.13635216669E+03  0.47000000000E+01 0. -1.
         -5    1    3    3    0  502 -0.47128672357E+02 -0.97812414831E+02 -0.24858995004E+03  0.27130689912E+03  0.47000000000E+01 0. -1.
          5    1    4    4  503    0 -0.16975955342E+02  0.11970371878E+03 -0.49038049520E+03  0.50508641184E+03  0.47000000000E+01 0.  1.
         -5    1    4    4    0  503  0.18565219824E+02 -0.27499862680E+02 -0.17524438356E+03  0.17841971248E+03  0.47000000000E+01 0.  1.
<mgrwt>
<rscale>  0 0.15533167E+03</rscale>
<asrwt>0</asrwt>
<pdfrwt beam="2">  1        5 0.16413029E+00 0.15533573E+03</pdfrwt>
<pdfrwt beam="1">  1       -5 0.37412453E-02 0.15533573E+03</pdfrwt>
<totfact> 0.68896417E+01</totfact>
</mgrwt>
</event>
<event>
 8    1  0.3674342E-007  0.1463241E+03  0.7546771E-02  0.1205066E+00
          5   -1    0    0  501    0  0.00000000000E+00  0.00000000000E+00  0.20409404258E+02  0.20943585705E+02  0.47000000000E+01 0. -1.
         -5   -1    0    0    0  501 -0.00000000000E+00 -0.00000000000E+00 -0.14682617197E+04  0.14682692422E+04  0.47000000000E+01 0. -1.
         25    2    1    2    0    0 -0.67200228544E+02  0.35646658758E+02 -0.11283561590E+04  0.11378034866E+04  0.12499039004E+03 0.  0.
         25    2    1    2    0    0  0.67200228544E+02 -0.35646658758E+02 -0.31949615648E+03  0.35140934131E+03  0.12499670459E+03 0.  0.
          5    1    3    3  502    0 -0.37356699798E+02 -0.18922095647E+02 -0.11412121065E+03  0.12165241241E+03  0.47000000000E+01 0. -1.
         -5    1    3    3    0  502 -0.29843528746E+02  0.54568754405E+02 -0.10142349483E+04  0.10161510742E+04  0.47000000000E+01 0. -1.
          5    1    4    4  503    0 -0.79455471753E+01  0.37890489064E+02 -0.11476884860E+03  0.12121385849E+03  0.47000000000E+01 0. -1.
         -5    1    4    4    0  503  0.75145775720E+02 -0.73537147823E+02 -0.20472730788E+03  0.23019548282E+03  0.47000000000E+01 0. -1.
<mgrwt>
<rscale>  0 0.14632271E+03</rscale>
<asrwt>0</asrwt>
<pdfrwt beam="1">  1        5 0.31815790E-02 0.14632406E+03</pdfrwt>
<pdfrwt beam="2">  1       -5 0.22592801E+00 0.14632406E+03</pdfrwt>
<totfact> 0.33061109E+01</totfact>
</mgrwt>
</event>
<event>
 8    1  0.3674342E-007  0.1350418E+03  0.7546771E-02  0.1220162E+00
         -5   -1    0    0    0  501 -0.00000000000E+00  0.00000000000E+00  0.22571313242E+03  0.22576206091E+03  0.47000000000E+01 0.  1.
          5   -1    0    0  501    0  0.00000000000E+00 -0.00000000000E+00 -0.87695352140E+02  0.87821209209E+02  0.47000000000E+01 0.  1.
         25    2    1    2    0    0 -0.49134531202E+02  0.14018282464E+02  0.11335181524E+03  0.17630725834E+03  0.12499960371E+03 0.  0.
         25    2    1    2    0    0  0.49134531202E+02 -0.14018282464E+02  0.24665965038E+02  0.13727601178E+03  0.12500231669E+03 0.  0.
          5    1    4    4  502    0 -0.40124651135E+01  0.50158413146E+01 -0.46013551687E+02  0.46696846566E+02  0.47000000000E+01 0.  1.
         -5    1    4    4    0  502  0.53146996316E+02 -0.19034123779E+02  0.70679516725E+02  0.90579165209E+02  0.47000000000E+01 0.  1.
          5    1    3    3  503    0  0.15153854870E+02 -0.14814323713E+02  0.10260941375E+03  0.10488033798E+03  0.47000000000E+01 0.  1.
         -5    1    3    3    0  503 -0.64288386072E+02  0.28832606177E+02  0.10742401489E+02  0.71426920363E+02  0.47000000000E+01 0.  1.
<mgrwt>
<rscale>  0 0.13504119E+03</rscale>
<asrwt>0</asrwt>
<pdfrwt beam="2">  1        5 0.13505038E-01 0.13504182E+03</pdfrwt>
<pdfrwt beam="1">  1       -5 0.34738542E-01 0.13504182E+03</pdfrwt>
<totfact> 0.27375279E+02</totfact>
</mgrwt>
</event>
<event>
 8    1  0.3674342E-007  0.1542270E+03  0.7546771E-02  0.1195382E+00
          5   -1    0    0  501    0  0.00000000000E+00  0.00000000000E+00  0.21006865844E+03  0.21012122991E+03  0.47000000000E+01 0. -1.
         -5   -1    0    0    0  501 -0.00000000000E+00 -0.00000000000E+00 -0.20877279589E+03  0.20882569359E+03  0.47000000000E+01 0. -1.
         25    2    1    2    0    0 -0.16023998226E+02  0.88902609778E+02 -0.14111732075E+03  0.20904559168E+03  0.12500207453E+03 0.  0.
         25    2    1    2    0    0  0.16023998226E+02 -0.88902609778E+02  0.14241318330E+03  0.20990133182E+03  0.12496644261E+03 0.  0.
          5    1    3    3  502    0  0.42209782138E+02  0.72077730893E+01 -0.81671587983E+02  0.92336103365E+02  0.47000000000E+01 0. -1.
         -5    1    3    3    0  502 -0.58233780364E+02  0.81694836689E+02 -0.59445732772E+02  0.11670948831E+03  0.47000000000E+01 0. -1.
          5    1    4    4  503    0 -0.90041473111E+00 -0.11850459304E+03  0.98944517125E+02  0.15445470788E+03  0.47000000000E+01 0.  1.
         -5    1    4    4    0  503  0.16924412957E+02  0.29601983262E+02  0.43468666177E+02  0.55446623938E+02  0.47000000000E+01 0.  1.
<mgrwt>
<rscale>  0 0.15421976E+03</rscale>
<asrwt>0</asrwt>
<pdfrwt beam="1">  1        5 0.32326368E-01 0.15422698E+03</pdfrwt>
<pdfrwt beam="2">  1       -5 0.32127005E-01 0.15422698E+03</pdfrwt>
<totfact> 0.64672835E+01</totfact>
</mgrwt>
</event>
<event>
 8    1  0.3674342E-007  0.1409446E+03  0.7546771E-02  0.1212067E+00
          5   -1    0    0  501    0  0.00000000000E+00  0.00000000000E+00  0.28353199604E+03  0.28357094840E+03  0.47000000000E+01 0. -1.
         -5   -1    0    0    0  501 -0.00000000000E+00 -0.00000000000E+00 -0.70830579867E+02  0.70986344069E+02  0.47000000000E+01 0. -1.
         25    2    1    2    0    0  0.61319708161E+02 -0.21839642378E+02  0.86462937065E+02  0.16535181934E+03  0.12501323163E+03 0.  0.
         25    2    1    2    0    0 -0.61319708161E+02  0.21839642378E+02  0.12623847911E+03  0.18920547313E+03  0.12500192346E+03 0.  0.
          5    1    4    4  502    0  0.83755151769E+01  0.43925551906E+01  0.11600231816E+03  0.11648206564E+03  0.47000000000E+01 0.  1.
         -5    1    4    4    0  502 -0.69695223338E+02  0.17447087187E+02  0.10236160944E+02  0.72723407500E+02  0.47000000000E+01 0.  1.
          5    1    3    3  503    0  0.56419712791E+02  0.44377919347E+02  0.60170642800E+02  0.93782620842E+02  0.47000000000E+01 0.  1.
         -5    1    3    3    0  503  0.48999953702E+01 -0.66217561724E+02  0.26292294265E+02  0.71569198494E+02  0.47000000000E+01 0.  1.
<mgrwt>
<rscale>  0 0.14094211E+03</rscale>
<asrwt>0</asrwt>
<pdfrwt beam="1">  1        5 0.43635285E-01 0.14094462E+03</pdfrwt>
<pdfrwt beam="2">  1       -5 0.10911990E-01 0.14094462E+03</pdfrwt>
<totfact> 0.25483097E+02</totfact>
</mgrwt>
</event>
<event>
 8    1  0.3674342E-007  0.1303800E+03  0.7546771E-02  0.1226895E+00
          5   -1    0    0  501    0  0.00000000000E+00  0.00000000000E+00  0.15642422497E+04  0.15642493106E+04  0.47000000000E+01 0. -1.
         -5   -1    0    0    0  501 -0.00000000000E+00 -0.00000000000E+00 -0.11669620106E+02  0.12580541857E+02  0.47000000000E+01 0. -1.
         25    2    1    2    0    0 -0.37019050876E+02 -0.18087129604E+01  0.52165114409E+03  0.53769653677E+03  0.12499587177E+03 0.  0.
         25    2    1    2    0    0  0.37019050876E+02  0.18087129604E+01  0.10309214855E+04  0.10391333157E+04  0.12500102775E+03 0.  0.
          5    1    3    3  502    0 -0.31046189147E+02 -0.25625379675E+02  0.45674109615E+02  0.61063411574E+02  0.47000000000E+01 0. -1.
         -5    1    3    3    0  502 -0.59728617295E+01  0.23816666714E+02  0.47597703447E+03  0.47663312520E+03  0.47000000000E+01 0. -1.
          5    1    4    4  503    0  0.72911250476E+02  0.56614447612E+01  0.90753365852E+03  0.91048752531E+03  0.47000000000E+01 0.  1.
         -5    1    4    4    0  503 -0.35892199600E+02 -0.38527318008E+01  0.12338782695E+03  0.12864579035E+03  0.47000000000E+01 0.  1.
<mgrwt>
<rscale>  0 0.13037874E+03</rscale>
<asrwt>0</asrwt>
<pdfrwt beam="1">  1        5 0.24072307E+00 0.13037998E+03</pdfrwt>
<pdfrwt beam="2">  1       -5 0.18659418E-02 0.13037998E+03</pdfrwt>
<totfact> 0.60456272E+01</totfact>
</mgrwt>
</event>
<event>
 8    1  0.3674342E-007  0.1642269E+03  0.7546771E-02  0.1184006E+00
          5   -1    0    0  501    0  0.00000000000E+00  0.00000000000E+00  0.15210645872E+03  0.15217905501E+03  0.47000000000E+01 0.  1.
         -5   -1    0    0    0  501 -0.00000000000E+00 -0.00000000000E+00 -0.17911293043E+03  0.17917458482E+03  0.47000000000E+01 0.  1.
         25    2    1    2    0    0  0.64620926112E+02  0.84668339684E+02 -0.30779240863E+02  0.16708629278E+03  0.12500350288E+03 0.  0.
         25    2    1    2    0    0 -0.64620926112E+02 -0.84668339684E+02  0.37727691576E+01  0.16426734705E+03  0.12499974274E+03 0.  0.
          5    1    3    3  502    0 -0.43897270288E-01  0.88219081387E+02  0.12251516754E+02  0.89189673788E+02  0.47000000000E+01 0.  1.
         -5    1    3    3    0  502  0.64664823382E+02 -0.35507417027E+01 -0.43030757617E+02  0.77896618995E+02  0.47000000000E+01 0.  1.
          5    1    4    4  503    0  0.23125855133E+02 -0.45982668592E+02  0.36005791780E+02  0.62989824799E+02  0.47000000000E+01 0. -1.
         -5    1    4    4    0  503 -0.87746781245E+02 -0.38685671092E+02 -0.32233022622E+02  0.10127752226E+03  0.47000000000E+01 0. -1.
<mgrwt>
<rscale>  0 0.16422616E+03</rscale>
<asrwt>0</asrwt>
<pdfrwt beam="1">  1        5 0.23411321E-01 0.16422688E+03</pdfrwt>
<pdfrwt beam="2">  1       -5 0.27566163E-01 0.16422688E+03</pdfrwt>
<totfact> 0.16689404E+02</totfact>
</mgrwt>
</event>
<event>
 8    1  0.3674342E-007  0.1291988E+03  0.7546771E-02  0.1228657E+00
          5   -1    0    0  501    0  0.00000000000E+00  0.00000000000E+00  0.96245781523E+01  0.10710859191E+02  0.47000000000E+01 0. -1.
         -5   -1    0    0    0  501 -0.00000000000E+00 -0.00000000000E+00 -0.17823791187E+04  0.17823853154E+04  0.47000000000E+01 0. -1.
         25    2    1    2    0    0  0.24639227058E+02 -0.21344410889E+02 -0.11393122411E+04  0.11466122471E+04  0.12499834816E+03 0.  0.
         25    2    1    2    0    0 -0.24639227058E+02  0.21344410889E+02 -0.63344229939E+03  0.64648392752E+03  0.12501858460E+03 0.  0.
          5    1    3    3  502    0 -0.33198863593E+01 -0.37135111612E+02 -0.10632812317E+04  0.10639450671E+04  0.47000000000E+01 0.  1.
         -5    1    3    3    0  502  0.27959113417E+02  0.15790700722E+02 -0.76031009416E+02  0.82667179976E+02  0.47000000000E+01 0.  1.
          5    1    4    4  503    0  0.11861398918E+02  0.58297865099E+02 -0.49428764900E+03  0.49787719752E+03  0.47000000000E+01 0. -1.
         -5    1    4    4    0  503 -0.36500625977E+02 -0.36953454209E+02 -0.13915465040E+03  0.14860673000E+03  0.47000000000E+01 0. -1.
<mgrwt>
<rscale>  0 0.12919387E+03</rscale>
<asrwt>0</asrwt>
<pdfrwt beam="1">  1        5 0.15647425E-02 0.12919877E+03</pdfrwt>
<pdfrwt beam="2">  1       -5 0.27429596E+00 0.12919877E+03</pdfrwt>
<totfact> 0.48882464E+01</totfact>
</mgrwt>
</event>
<event>
 8    1  0.3674342E-007  0.2595482E+03  0.7546771E-02  0.1107415E+00
          5   -1    0    0  501    0  0.00000000000E+00  0.00000000000E+00  0.90132424877E+03  0.90133650288E+03  0.47000000000E+01 0. -1.
         -5   -1    0    0    0  501 -0.00000000000E+00 -0.00000000000E+00 -0.74664012119E+02  0.74811795231E+02  0.47000000000E+01 0. -1.
         25    2    1    2    0    0 -0.22410085840E+03  0.38974078319E+02  0.40758391101E+03  0.48320793580E+03  0.12500036475E+03 0.  0.
         25    2    1    2    0    0  0.22410085840E+03 -0.38974078319E+02  0.41907632564E+03  0.49294036231E+03  0.12500024225E+03 0.  0.
          5    1    3    3  502    0 -0.88482482149E+02  0.73757362816E+02  0.22758697747E+03  0.25512197187E+03  0.47000000000E+01 0. -1.
         -5    1    3    3    0  502 -0.13561837625E+03 -0.34783284497E+02  0.17999693354E+03  0.22808596393E+03  0.47000000000E+01 0. -1.
          5    1    4    4  503    0  0.14532446540E+02  0.16322939829E+00 -0.67537377569E+01  0.16700946679E+02  0.47000000000E+01 0.  1.
         -5    1    4    4    0  503  0.20956841186E+03 -0.39137307717E+02  0.42583006340E+03  0.47623941563E+03  0.47000000000E+01 0.  1.
<mgrwt>
<rscale>  0 0.25954818E+03</rscale>
<asrwt>0</asrwt>
<pdfrwt beam="1">  1        5 0.13867758E+00 0.25954819E+03</pdfrwt>
<pdfrwt beam="2">  1       -5 0.11499082E-01 0.25954819E+03</pdfrwt>
<totfact> 0.18365723E+01</totfact>
</mgrwt>
</event>
<event>
 8    1  0.3674342E-007  0.1387342E+03  0.7546771E-02  0.1215046E+00
          5   -1    0    0  501    0  0.00000000000E+00  0.00000000000E+00  0.38138760360E+03  0.38141656254E+03  0.47000000000E+01 0.  1.
         -5   -1    0    0    0  501 -0.00000000000E+00 -0.00000000000E+00 -0.16481301076E+03  0.16488001248E+03  0.47000000000E+01 0.  1.
         25    2    1    2    0    0 -0.98218354936E+01  0.59402010030E+02 -0.11925338819E+03  0.18294412204E+03  0.12498845524E+03 0.  0.
         25    2    1    2    0    0  0.98218354936E+01 -0.59402010030E+02  0.33582798104E+03  0.36335245298E+03  0.12497801804E+03 0.  0.
          5    1    3    3  502    0 -0.87532382334E+01  0.31977070506E+02  0.21282620336E+02  0.39676090358E+02  0.47000000000E+01 0. -1.
         -5    1    3    3    0  502 -0.10685972602E+01  0.27424939524E+02 -0.14053600853E+03  0.14326803168E+03  0.47000000000E+01 0. -1.
          5    1    4    4  503    0  0.41585425319E+02 -0.85131514251E+02  0.26464430993E+03  0.28113239425E+03  0.47000000000E+01 0.  1.
         -5    1    4    4    0  503 -0.31763589825E+02  0.25729504221E+02  0.71183671104E+02  0.82220058732E+02  0.47000000000E+01 0.  1.
<mgrwt>
<rscale>  0 0.13873186E+03</rscale>
<asrwt>0</asrwt>
<pdfrwt beam="1">  1        5 0.58682398E-01 0.13873421E+03</pdfrwt>
<pdfrwt beam="2">  1       -5 0.25363229E-01 0.13873421E+03</pdfrwt>
<totfact> 0.28786949E+01</totfact>
</mgrwt>
</event>
<event>
 8    1  0.3674342E-007  0.1396673E+03  0.7546771E-02  0.1213779E+00
          5   -1    0    0  501    0  0.00000000000E+00  0.00000000000E+00  0.53703424588E+03  0.53705481214E+03  0.47000000000E+01 0. -1.
         -5   -1    0    0    0  501 -0.00000000000E+00 -0.00000000000E+00 -0.36451772323E+02  0.36753526436E+02  0.47000000000E+01 0. -1.
         25    2    1    2    0    0 -0.30506746331E+02 -0.54322265856E+02  0.22426158043E+03  0.26419535655E+03  0.12499743928E+03 0.  0.
         25    2    1    2    0    0  0.30506746331E+02  0.54322265856E+02  0.27632089312E+03  0.30961298202E+03  0.12500157008E+03 0.  0.
          5    1    3    3  502    0  0.44832267552E+02 -0.44825542558E+02  0.10377641755E+03  0.12170002596E+03  0.47000000000E+01 0. -1.
         -5    1    3    3    0  502 -0.75339013883E+02 -0.94967232980E+01  0.12048516288E+03  0.14249533059E+03  0.47000000000E+01 0. -1.
          5    1    4    4  503    0  0.23854608037E+02 -0.51998446616E+01 -0.19419146678E+01  0.24938759826E+02  0.47000000000E+01 0. -1.
         -5    1    4    4    0  503  0.66521382942E+01  0.59522110517E+02  0.27826280779E+03  0.28467422220E+03  0.47000000000E+01 0. -1.
<mgrwt>
<rscale>  0 0.13966640E+03</rscale>
<asrwt>0</asrwt>
<pdfrwt beam="1">  1        5 0.82645442E-01 0.13966733E+03</pdfrwt>
<pdfrwt beam="2">  1       -5 0.56327592E-02 0.13966733E+03</pdfrwt>
<totfact> 0.19439185E+02</totfact>
</mgrwt>
</event>
