<event>
 8    1  0.9691636E-006  0.2672791E+03  0.7546771E-02  0.1102847E+00
         21   -1    0    0  504  503  0.00000000000E+00  0.00000000000E+00  0.17549169438E+03  0.17549169438E+03  0.00000000000E+00 0.  1.
         21   -1    0    0  503  504 -0.00000000000E+00 -0.00000000000E+00 -0.10176851673E+03  0.10176851673E+03  0.00000000000E+00 0.  1.
         25    2    1    2    0    0 -0.33392470354E+02 -0.33320112047E+02  0.35913435800E+02  0.13840844863E+03  0.12506732922E+03 0.  0.
         25    2    1    2    0    0  0.33392470354E+02  0.33320112047E+02  0.37809741852E+02  0.13885176248E+03  0.12499979369E+03 0.  0.
          5    1    3    3  501    0 -0.65443457156E+02 -0.36342001725E+02  0.61518878227E+02  0.97006440777E+02  0.47000000000E+01 0. -1.
         -5    1    3    3    0  501  0.32050986802E+02  0.30218896781E+01 -0.25605442427E+02  0.41402007851E+02  0.47000000000E+01 0. -1.
          5    1    4    4  502    0 -0.22364576830E+02  0.46465258902E+02  0.58166106243E+02  0.77875416513E+02  0.47000000000E+01 0. -1.
         -5    1    4    4    0  502  0.55757047185E+02 -0.13145146854E+02 -0.20356364392E+02  0.60976345970E+02  0.47000000000E+01 0. -1.
<mgrwt>
<rscale>  0 0.26727910E+03</rscale>
<asrwt>0</asrwt>
<pdfrwt beam="1">  1       21 0.26998722E-01 0.26727910E+03</pdfrwt>
<pdfrwt beam="2">  1       21 0.15656695E-01 0.26727910E+03</pdfrwt>
<totfact> 0.46724980E+05</totfact>
</mgrwt>
</event>
<event>
 8    1  0.9691636E-006  0.3197711E+03  0.7546771E-02  0.1075755E+00
         21   -1    0    0  504  503  0.00000000000E+00  0.00000000000E+00  0.23109553091E+04  0.23109553091E+04  0.00000000000E+00 0. -1.
         21   -1    0    0  503  504 -0.00000000000E+00 -0.00000000000E+00 -0.11061829574E+02  0.11061829574E+02  0.00000000000E+00 0. -1.
         25    2    1    2    0    0  0.79840676709E+01 -0.20679102999E+02  0.44419787489E+03  0.46198393167E+03  0.12500412164E+03 0.  0.
         25    2    1    2    0    0 -0.79840676709E+01  0.20679102999E+02  0.18556956046E+04  0.18600332070E+04  0.12500393377E+03 0.  0.
          5    1    3    3  501    0 -0.89526704547E+01 -0.10721643845E+02  0.44133470429E+03  0.44158070063E+03  0.47000000000E+01 0. -1.
         -5    1    3    3    0  501  0.16936738126E+02 -0.99574591548E+01  0.28631706014E+01  0.20403231044E+02  0.47000000000E+01 0. -1.
          5    1    4    4  502    0 -0.39297510103E+02  0.86140821492E+01  0.20358459677E+03  0.20757474498E+03  0.47000000000E+01 0. -1.
         -5    1    4    4    0  502  0.31313442432E+02  0.12065020850E+02  0.16521110078E+04  0.16524584620E+04  0.47000000000E+01 0. -1.
<mgrwt>
<rscale>  0 0.31977113E+03</rscale>
<asrwt>0</asrwt>
<pdfrwt beam="1">  1       21 0.35553120E+00 0.31977113E+03</pdfrwt>
<pdfrwt beam="2">  1       21 0.17018218E-02 0.31977113E+03</pdfrwt>
<totfact> 0.23289040E+04</totfact>
</mgrwt>
</event>
<event>
 8    1  0.9691636E-006  0.3183692E+03  0.7546771E-02  0.1076402E+00
         21   -1    0    0  504  503  0.00000000000E+00  0.00000000000E+00  0.39832906400E+02  0.39832906400E+02  0.00000000000E+00 0.  1.
         21   -1    0    0  503  504 -0.00000000000E+00 -0.00000000000E+00 -0.63615079960E+03  0.63615079960E+03  0.00000000000E+00 0.  1.
         25    2    1    2    0    0 -0.52546259447E+02 -0.83046374393E+02 -0.28196947414E+03  0.32371083232E+03  0.12499643566E+03 0.  0.
         25    2    1    2    0    0  0.52546259447E+02  0.83046374393E+02 -0.31434841906E+03  0.35227287368E+03  0.12499375699E+03 0.  0.
          5    1    3    3  501    0 -0.28151427986E+01 -0.10424468080E+03 -0.19551387105E+03  0.22163628375E+03  0.47000000000E+01 0. -1.
         -5    1    3    3    0  501 -0.49731116648E+02  0.21198306408E+02 -0.86455603096E+02  0.10207454856E+03  0.47000000000E+01 0. -1.
          5    1    4    4  502    0  0.75883512648E+02  0.21290895734E+02 -0.96999999042E+02  0.12507077815E+03  0.47000000000E+01 0.  1.
         -5    1    4    4    0  502 -0.23337253202E+02  0.61755478659E+02 -0.21734842001E+03  0.22720209553E+03  0.47000000000E+01 0.  1.
<mgrwt>
<rscale>  0 0.31836919E+03</rscale>
<asrwt>0</asrwt>
<pdfrwt beam="1">  1       21 0.61281391E-02 0.31836919E+03</pdfrwt>
<pdfrwt beam="2">  1       21 0.97869359E-01 0.31836919E+03</pdfrwt>
<totfact> 0.15801550E+05</totfact>
</mgrwt>
</event>
<event>
 8    1  0.9691636E-006  0.2763135E+03  0.7546771E-02  0.1097720E+00
         21   -1    0    0  504  503  0.00000000000E+00  0.00000000000E+00  0.14992910464E+03  0.14992910464E+03  0.00000000000E+00 0.  1.
         21   -1    0    0  503  504 -0.00000000000E+00 -0.00000000000E+00 -0.12730872184E+03  0.12730872184E+03  0.00000000000E+00 0.  1.
         25    2    1    2    0    0  0.58371158540E+02  0.69540019078E+01  0.13901600923E+02  0.13882942706E+03  0.12499922007E+03 0.  0.
         25    2    1    2    0    0 -0.58371158540E+02 -0.69540019078E+01  0.87187818724E+01  0.13840839942E+03  0.12500127032E+03 0.  0.
          5    1    3    3  501    0  0.46436645601E+02 -0.27200683436E+02 -0.44485685063E+02  0.69980750279E+02  0.47000000000E+01 0.  1.
         -5    1    3    3    0  501  0.11934512939E+02  0.34154685344E+02  0.58387285986E+02  0.68848676784E+02  0.47000000000E+01 0.  1.
          5    1    4    4  502    0 -0.50845793022E+02 -0.47523024127E+02 -0.35056442961E+02  0.78069050739E+02  0.47000000000E+01 0.  1.
         -5    1    4    4    0  502 -0.75253655186E+01  0.40569022219E+02  0.43775224833E+02  0.60339348681E+02  0.47000000000E+01 0.  1.
<mgrwt>
<rscale>  0 0.27631346E+03</rscale>
<asrwt>0</asrwt>
<pdfrwt beam="1">  1       21 0.23066016E-01 0.27631346E+03</pdfrwt>
<pdfrwt beam="2">  1       21 0.19585957E-01 0.27631346E+03</pdfrwt>
<totfact> 0.41647498E+05</totfact>
</mgrwt>
</event>
<event>
 8    1  0.9691636E-006  0.3901470E+03  0.7546771E-02  0.1047246E+00
         21   -1    0    0  504  503  0.00000000000E+00  0.00000000000E+00  0.13357139257E+03  0.13357139257E+03  0.00000000000E+00 0. -1.
         21   -1    0    0  503  504 -0.00000000000E+00 -0.00000000000E+00 -0.28489386513E+03  0.28489386513E+03  0.00000000000E+00 0. -1.
         25    2    1    2    0    0  0.48741407983E+02 -0.11559840171E+03  0.12064238962E+02  0.17750989478E+03  0.12500200620E+03 0.  0.
         25    2    1    2    0    0 -0.48741407983E+02  0.11559840171E+03 -0.16338671152E+03  0.24095536291E+03  0.12500221632E+03 0.  0.
          5    1    3    3  501    0  0.89930975210E+01 -0.16682397140E+02  0.58101899360E+02  0.61295178331E+02  0.47000000000E+01 0.  1.
         -5    1    3    3    0  501  0.39748310462E+02 -0.98916004571E+02 -0.46037660398E+02  0.11621471645E+03  0.47000000000E+01 0.  1.
          5    1    4    4  502    0 -0.88814148085E+02  0.56046887367E+02 -0.99574076668E+02  0.14479742134E+03  0.47000000000E+01 0. -1.
         -5    1    4    4    0  502  0.40072740102E+02  0.59551514345E+02 -0.63812634854E+02  0.96157941571E+02  0.47000000000E+01 0. -1.
<mgrwt>
<rscale>  0 0.39014700E+03</rscale>
<asrwt>0</asrwt>
<pdfrwt beam="1">  1       21 0.20549445E-01 0.39014700E+03</pdfrwt>
<pdfrwt beam="2">  1       21 0.43829825E-01 0.39014700E+03</pdfrwt>
<totfact> 0.10366877E+05</totfact>
</mgrwt>
</event>
<event>
 8    1  0.9691636E-006  0.2558898E+03  0.7546771E-02  0.1109638E+00
         21   -1    0    0  504  503  0.00000000000E+00  0.00000000000E+00  0.13857153861E+03  0.13857153861E+03  0.00000000000E+00 0.  1.
         21   -1    0    0  503  504 -0.00000000000E+00 -0.00000000000E+00 -0.11813320544E+03  0.11813320544E+03  0.00000000000E+00 0.  1.
         25    2    1    2    0    0 -0.12234944161E+02 -0.22947407309E+02  0.18906755305E+01  0.12769620686E+03  0.12500587679E+03 0.  0.
         25    2    1    2    0    0  0.12234944161E+02  0.22947407309E+02  0.18547657637E+02  0.12900853719E+03  0.12499163853E+03 0.  0.
          5    1    3    3  501    0 -0.51267712773E+01 -0.69330064755E+02 -0.24249356189E+02  0.73777116630E+02  0.47000000000E+01 0.  1.
         -5    1    3    3    0  501 -0.71081728833E+01  0.46382657446E+02  0.26140031719E+02  0.53919090235E+02  0.47000000000E+01 0.  1.
          5    1    4    4  502    0 -0.49274176311E+02  0.12025924691E+02 -0.20808870648E+02  0.55024234783E+02  0.47000000000E+01 0. -1.
         -5    1    4    4    0  502  0.61509120472E+02  0.10921482617E+02  0.39356528286E+02  0.73984302406E+02  0.47000000000E+01 0. -1.
<mgrwt>
<rscale>  0 0.25588982E+03</rscale>
<asrwt>0</asrwt>
<pdfrwt beam="1">  1       21 0.21318698E-01 0.25588982E+03</pdfrwt>
<pdfrwt beam="2">  1       21 0.18174339E-01 0.25588982E+03</pdfrwt>
<totfact> 0.55838266E+05</totfact>
</mgrwt>
</event>
<event>
 8    1  0.9691636E-006  0.3384108E+03  0.7546771E-02  0.1067475E+00
         21   -1    0    0  504  503  0.00000000000E+00  0.00000000000E+00  0.13579235105E+04  0.13579235105E+04  0.00000000000E+00 0. -1.
         21   -1    0    0  503  504 -0.00000000000E+00 -0.00000000000E+00 -0.21084001036E+02  0.21084001036E+02  0.00000000000E+00 0. -1.
         25    2    1    2    0    0  0.42523415772E+02 -0.33847979871E+02  0.10769631668E+04  0.10855556485E+04  0.12500990644E+03 0.  0.
         25    2    1    2    0    0 -0.42523415772E+02  0.33847979871E+02  0.25987634268E+03  0.29345186305E+03  0.12499742324E+03 0.  0.
          5    1    3    3  501    0  0.16005824842E+02  0.36817580607E+02  0.69522133043E+03  0.69639536828E+03  0.47000000000E+01 0. -1.
         -5    1    3    3    0  501  0.26517590930E+02 -0.70665560478E+02  0.38174183640E+03  0.38916028025E+03  0.47000000000E+01 0. -1.
          5    1    4    4  502    0 -0.86408232202E+02  0.30630115467E+02  0.18354153145E+03  0.20521737337E+03  0.47000000000E+01 0. -1.
         -5    1    4    4    0  502  0.43884816431E+02  0.32178644042E+01  0.76334811230E+02  0.88234489685E+02  0.47000000000E+01 0. -1.
<mgrwt>
<rscale>  0 0.33841076E+03</rscale>
<asrwt>0</asrwt>
<pdfrwt beam="1">  1       21 0.20891124E+00 0.33841076E+03</pdfrwt>
<pdfrwt beam="2">  1       21 0.32436935E-02 0.33841076E+03</pdfrwt>
<totfact> 0.60900503E+04</totfact>
</mgrwt>
</event>
<event>
 8    1  0.9691636E-006  0.3479784E+03  0.7546771E-02  0.1063448E+00
         21   -1    0    0  504  503  0.00000000000E+00  0.00000000000E+00  0.39374075892E+02  0.39374075892E+02  0.00000000000E+00 0. -1.
         21   -1    0    0  503  504 -0.00000000000E+00 -0.00000000000E+00 -0.76883709524E+03  0.76883709524E+03  0.00000000000E+00 0. -1.
         25    2    1    2    0    0 -0.43452908119E+02  0.10840282773E+03 -0.29096862772E+03  0.33753042609E+03  0.12499887172E+03 0.  0.
         25    2    1    2    0    0  0.43452908119E+02 -0.10840282773E+03 -0.43849439162E+03  0.47068074504E+03  0.12499481582E+03 0.  0.
          5    1    3    3  501    0  0.27907648908E+02  0.93360104926E+02 -0.17810910154E+03  0.20307606484E+03  0.47000000000E+01 0.  1.
         -5    1    3    3    0  501 -0.71360557027E+02  0.15042722807E+02 -0.11285952618E+03  0.13445436125E+03  0.47000000000E+01 0.  1.
          5    1    4    4  502    0  0.85216948873E+02 -0.49616406532E+02 -0.24607474651E+03  0.26513880712E+03  0.47000000000E+01 0.  1.
         -5    1    4    4    0  502 -0.41764040754E+02 -0.58786421201E+02 -0.19241964511E+03  0.20554193792E+03  0.47000000000E+01 0.  1.
<mgrwt>
<rscale>  0 0.34797845E+03</rscale>
<asrwt>0</asrwt>
<pdfrwt beam="1">  1       21 0.60575507E-02 0.34797845E+03</pdfrwt>
<pdfrwt beam="2">  1       21 0.11828262E+00 0.34797845E+03</pdfrwt>
<totfact> 0.10060578E+05</totfact>
</mgrwt>
</event>
<event>
 8    1  0.9691636E-006  0.3344345E+03  0.7546771E-02  0.1069191E+00
         21   -1    0    0  504  503  0.00000000000E+00  0.00000000000E+00  0.82488756278E+02  0.82488756278E+02  0.00000000000E+00 0. -1.
         21   -1    0    0  503  504 -0.00000000000E+00 -0.00000000000E+00 -0.33897484544E+03  0.33897484544E+03  0.00000000000E+00 0. -1.
         25    2    1    2    0    0 -0.40975166684E+01  0.11063230546E+03 -0.11602345743E+03  0.20329483682E+03  0.12494419294E+03 0.  0.
         25    2    1    2    0    0  0.40975166684E+01 -0.11063230546E+03 -0.14046263173E+03  0.21816876489E+03  0.12494623807E+03 0.  0.
          5    1    3    3  501    0  0.14998540643E+02  0.37931899599E+02  0.21612933297E+02  0.46400367609E+02  0.47000000000E+01 0.  1.
         -5    1    3    3    0  501 -0.19096057311E+02  0.72700405861E+02 -0.13763639073E+03  0.15689446921E+03  0.47000000000E+01 0.  1.
          5    1    4    4  502    0 -0.39128068280E+02 -0.10685061822E+03 -0.13086506366E+03  0.17348145500E+03  0.47000000000E+01 0.  1.
         -5    1    4    4    0  502  0.43225584949E+02 -0.37816872342E+01 -0.95975680661E+01  0.44687309891E+02  0.47000000000E+01 0.  1.
<mgrwt>
<rscale>  0 0.33443453E+03</rscale>
<asrwt>0</asrwt>
<pdfrwt beam="1">  1       21 0.12690578E-01 0.33443453E+03</pdfrwt>
<pdfrwt beam="2">  1       21 0.52149977E-01 0.33443453E+03</pdfrwt>
<totfact> 0.17829251E+05</totfact>
</mgrwt>
</event>
<event>
 8    1  0.9691636E-006  0.3798204E+03  0.7546771E-02  0.1051000E+00
         21   -1    0    0  504  503  0.00000000000E+00  0.00000000000E+00  0.18650664051E+03  0.18650664051E+03  0.00000000000E+00 0. -1.
         21   -1    0    0  503  504 -0.00000000000E+00 -0.00000000000E+00 -0.19337582792E+03  0.19337582792E+03  0.00000000000E+00 0. -1.
         25    2    1    2    0    0 -0.12596495124E+03  0.60286243596E+02  0.27219221034E+02  0.18938615478E+03  0.12499851807E+03 0.  0.
         25    2    1    2    0    0  0.12596495124E+03 -0.60286243596E+02 -0.34088408444E+02  0.19049631364E+03  0.12500090325E+03 0.  0.
          5    1    3    3  501    0  0.18997183812E+02 -0.47114727147E+01 -0.14805392183E+02  0.24987609042E+02  0.47000000000E+01 0.  1.
         -5    1    3    3    0  501 -0.14496213505E+03  0.64997716311E+02  0.42024613217E+02  0.16439854574E+03  0.47000000000E+01 0.  1.
          5    1    4    4  502    0  0.81529177509E+02  0.29270372030E+02 -0.83359915413E+01  0.87151249096E+02  0.47000000000E+01 0.  1.
         -5    1    4    4    0  502  0.44435773732E+02 -0.89556615626E+02 -0.25752416903E+02  0.10334506455E+03  0.47000000000E+01 0.  1.
<mgrwt>
<rscale>  0 0.37982036E+03</rscale>
<asrwt>0</asrwt>
<pdfrwt beam="1">  1       21 0.28693329E-01 0.37982036E+03</pdfrwt>
<pdfrwt beam="2">  1       21 0.29750127E-01 0.37982036E+03</pdfrwt>
<totfact> 0.11943699E+05</totfact>
</mgrwt>
</event>
<event>
 8    1  0.9691636E-006  0.3283244E+03  0.7546771E-02  0.1071881E+00
         21   -1    0    0  504  503  0.00000000000E+00  0.00000000000E+00  0.21068717814E+03  0.21068717814E+03  0.00000000000E+00 0.  1.
         21   -1    0    0  503  504 -0.00000000000E+00 -0.00000000000E+00 -0.12791105980E+03  0.12791105980E+03  0.00000000000E+00 0.  1.
         25    2    1    2    0    0 -0.71096476392E+02 -0.57362564593E+01  0.12284308869E+03  0.18920767039E+03  0.12498601723E+03 0.  0.
         25    2    1    2    0    0  0.71096476392E+02  0.57362564593E+01 -0.40066970347E+02  0.14939056754E+03  0.12499826384E+03 0.  0.
          5    1    3    3  501    0 -0.85352059795E+02  0.39701713975E+02  0.95105522367E+02  0.13389679081E+03  0.47000000000E+01 0. -1.
         -5    1    3    3    0  501  0.14255583402E+02 -0.45437970434E+02  0.27737566320E+02  0.55310879587E+02  0.47000000000E+01 0. -1.
          5    1    4    4  502    0 -0.22716710569E+01 -0.19579748158E+02 -0.64722046599E+02  0.67820058561E+02  0.47000000000E+01 0. -1.
         -5    1    4    4    0  502  0.73368147449E+02  0.25316004617E+02  0.24655076252E+02  0.81570508978E+02  0.47000000000E+01 0. -1.
<mgrwt>
<rscale>  0 0.32832435E+03</rscale>
<asrwt>0</asrwt>
<pdfrwt beam="1">  1       21 0.32413412E-01 0.32832435E+03</pdfrwt>
<pdfrwt beam="2">  1       21 0.19678625E-01 0.32832435E+03</pdfrwt>
<totfact> 0.21057153E+05</totfact>
</mgrwt>
</event>
<event>
 8    1  0.9691636E-006  0.3096375E+03  0.7546771E-02  0.1080520E+00
         21   -1    0    0  504  503  0.00000000000E+00  0.00000000000E+00  0.40326555918E+02  0.40326555918E+02  0.00000000000E+00 0.  1.
         21   -1    0    0  503  504 -0.00000000000E+00 -0.00000000000E+00 -0.59436867846E+03  0.59436867846E+03  0.00000000000E+00 0.  1.
         25    2    1    2    0    0 -0.71886559132E+02 -0.56192816130E+02 -0.26855780337E+03  0.30995945235E+03  0.12500503341E+03 0.  0.
         25    2    1    2    0    0  0.71886559132E+02  0.56192816130E+02 -0.28548431917E+03  0.32473578204E+03  0.12500688650E+03 0.  0.
          5    1    3    3  501    0 -0.10392498306E+03 -0.59427600082E+02 -0.18630731618E+03  0.22150518688E+03  0.47000000000E+01 0.  1.
         -5    1    3    3    0  501  0.32038423926E+02  0.32347839520E+01 -0.82250487194E+02  0.88454265463E+02  0.47000000000E+01 0.  1.
          5    1    4    4  502    0  0.46723758887E+02  0.39260455169E+02 -0.28753321865E+03  0.29397607864E+03  0.47000000000E+01 0.  1.
         -5    1    4    4    0  502  0.25162800245E+02  0.16932360961E+02  0.20488994788E+01  0.30759703395E+02  0.47000000000E+01 0.  1.
<mgrwt>
<rscale>  0 0.30963748E+03</rscale>
<asrwt>0</asrwt>
<pdfrwt beam="1">  1       21 0.62040856E-02 0.30963748E+03</pdfrwt>
<pdfrwt beam="2">  1       21 0.91441334E-01 0.30963748E+03</pdfrwt>
<totfact> 0.18211177E+05</totfact>
</mgrwt>
</event>
<event>
 8    1  0.9691636E-006  0.3411090E+03  0.7546771E-02  0.1066325E+00
         21   -1    0    0  504  503  0.00000000000E+00  0.00000000000E+00  0.78853327869E+02  0.78853327869E+02  0.00000000000E+00 0.  1.
         21   -1    0    0  503  504 -0.00000000000E+00 -0.00000000000E+00 -0.36889804621E+03  0.36889804621E+03  0.00000000000E+00 0.  1.
         25    2    1    2    0    0  0.48816161855E+02  0.64536984188E+02 -0.25417810775E+03  0.29458271687E+03  0.12499770651E+03 0.  0.
         25    2    1    2    0    0 -0.48816161855E+02 -0.64536984188E+02 -0.35866610593E+02  0.15316865721E+03  0.12500473515E+03 0.  0.
          5    1    3    3  501    0  0.67140308184E+02 -0.21391421385E+01 -0.67029909081E+02  0.95013133953E+02  0.47000000000E+01 0.  1.
         -5    1    3    3    0  501 -0.18324146329E+02  0.66676126327E+02 -0.18714819867E+03  0.19956958292E+03  0.47000000000E+01 0.  1.
          5    1    4    4  502    0 -0.46186440929E+02 -0.71966752029E+02  0.26875078031E+02  0.89759459348E+02  0.47000000000E+01 0. -1.
         -5    1    4    4    0  502 -0.26297209253E+01  0.74297678405E+01 -0.62741688624E+02  0.63409197863E+02  0.47000000000E+01 0. -1.
<mgrwt>
<rscale>  0 0.34110901E+03</rscale>
<asrwt>0</asrwt>
<pdfrwt beam="1">  1       21 0.12131281E-01 0.34110901E+03</pdfrwt>
<pdfrwt beam="2">  1       21 0.56753545E-01 0.34110901E+03</pdfrwt>
<totfact> 0.16121213E+05</totfact>
</mgrwt>
</event>
<event>
 8    1  0.9691636E-006  0.3434129E+03  0.7546771E-02  0.1065352E+00
         21   -1    0    0  504  503  0.00000000000E+00  0.00000000000E+00  0.94709224687E+03  0.94709224687E+03  0.00000000000E+00 0. -1.
         21   -1    0    0  503  504 -0.00000000000E+00 -0.00000000000E+00 -0.31130130423E+02  0.31130130423E+02  0.00000000000E+00 0. -1.
         25    2    1    2    0    0 -0.40149289013E+02 -0.45941597299E+02  0.74476593741E+03  0.75764324080E+03  0.12499753209E+03 0.  0.
         25    2    1    2    0    0  0.40149289013E+02  0.45941597299E+02  0.17119617903E+03  0.22057913649E+03  0.12499771186E+03 0.  0.
          5    1    3    3  501    0 -0.31451120725E+02  0.12728478824E+02  0.51634297269E+02  0.61962713163E+02  0.47000000000E+01 0.  1.
         -5    1    3    3    0  501 -0.86981682880E+01 -0.58670076124E+02  0.69313164014E+03  0.69568052764E+03  0.47000000000E+01 0.  1.
          5    1    4    4  502    0  0.24839663603E+02  0.86555488748E+02  0.14146476706E+03  0.16775944635E+03  0.47000000000E+01 0. -1.
         -5    1    4    4    0  502  0.15309625410E+02 -0.40613891449E+02  0.29731411971E+02  0.52819690141E+02  0.47000000000E+01 0. -1.
<mgrwt>
<rscale>  0 0.34341290E+03</rscale>
<asrwt>0</asrwt>
<pdfrwt beam="1">  1       21 0.14570648E+00 0.34341290E+03</pdfrwt>
<pdfrwt beam="2">  1       21 0.47892516E-02 0.34341290E+03</pdfrwt>
<totfact> 0.88056142E+04</totfact>
</mgrwt>
</event>
<event>
 8    1  0.9691636E-006  0.2876489E+03  0.7546771E-02  0.1091583E+00
         21   -1    0    0  504  503  0.00000000000E+00  0.00000000000E+00  0.17300280143E+02  0.17300280143E+02  0.00000000000E+00 0.  1.
         21   -1    0    0  503  504 -0.00000000000E+00 -0.00000000000E+00 -0.11956723007E+04  0.11956723007E+04  0.00000000000E+00 0.  1.
         25    2    1    2    0    0 -0.79745515706E+01  0.51953412401E+02 -0.79129971612E+03  0.80283414712E+03  0.12499870604E+03 0.  0.
         25    2    1    2    0    0  0.79745515706E+01 -0.51953412401E+02 -0.38707230441E+03  0.41013843370E+03  0.12500326165E+03 0.  0.
          5    1    3    3  501    0  0.33202248483E+02  0.78224632777E+02 -0.55559481077E+03  0.56207576556E+03  0.47000000000E+01 0. -1.
         -5    1    3    3    0  501 -0.41176800054E+02 -0.26271220376E+02 -0.23570490535E+03  0.24075838156E+03  0.47000000000E+01 0. -1.
          5    1    4    4  502    0 -0.49665581643E+01 -0.84408517098E+02 -0.16683745716E+03  0.18709968351E+03  0.47000000000E+01 0.  1.
         -5    1    4    4    0  502  0.12941109735E+02  0.32455104697E+02 -0.22023484725E+03  0.22303875019E+03  0.47000000000E+01 0.  1.
<mgrwt>
<rscale>  0 0.28764885E+03</rscale>
<asrwt>0</asrwt>
<pdfrwt beam="1">  1       21 0.26615812E-02 0.28764885E+03</pdfrwt>
<pdfrwt beam="2">  1       21 0.18394961E+00 0.28764885E+03</pdfrwt>
<totfact> 0.12645650E+05</totfact>
</mgrwt>
</event>
<event>
 8    1  0.9691636E-006  0.5168652E+03  0.7546771E-02  0.1009468E+00
         21   -1    0    0  504  503  0.00000000000E+00  0.00000000000E+00  0.27433893352E+02  0.27433893352E+02  0.00000000000E+00 0.  1.
         21   -1    0    0  503  504 -0.00000000000E+00 -0.00000000000E+00 -0.24344854272E+04  0.24344854272E+04  0.00000000000E+00 0.  1.
         25    2    1    2    0    0  0.12047851475E+03  0.12646105919E+03 -0.51895671108E+03  0.56164751047E+03  0.12499754411E+03 0.  0.
         25    2    1    2    0    0 -0.12047851475E+03 -0.12646105919E+03 -0.18880948228E+04  0.19002718101E+04  0.12499368157E+03 0.  0.
          5    1    3    3  501    0  0.10562269421E+03  0.10748966187E+03 -0.25269743542E+03  0.29425883981E+03  0.47000000000E+01 0. -1.
         -5    1    3    3    0  501  0.14855820542E+02  0.18971397322E+02 -0.26625927566E+03  0.26738867066E+03  0.47000000000E+01 0. -1.
          5    1    4    4  502    0 -0.66927628718E+02 -0.79712850176E+02 -0.16040223936E+04  0.16074026798E+04  0.47000000000E+01 0. -1.
         -5    1    4    4    0  502 -0.53550886029E+02 -0.46748209011E+02 -0.28407242917E+03  0.29286913026E+03  0.47000000000E+01 0. -1.
<mgrwt>
<rscale>  0 0.51686522E+03</rscale>
<asrwt>0</asrwt>
<pdfrwt beam="1">  1       21 0.42205994E-02 0.51686522E+03</pdfrwt>
<pdfrwt beam="2">  1       21 0.37453619E+00 0.51686522E+03</pdfrwt>
<totfact> 0.34927935E+03</totfact>
</mgrwt>
</event>
<event>
 8    1  0.9691636E-006  0.2570544E+03  0.7546771E-02  0.1108926E+00
         21   -1    0    0  504  503  0.00000000000E+00  0.00000000000E+00  0.13106345333E+03  0.13106345333E+03  0.00000000000E+00 0.  1.
         21   -1    0    0  503  504 -0.00000000000E+00 -0.00000000000E+00 -0.12604006021E+03  0.12604006021E+03  0.00000000000E+00 0.  1.
         25    2    1    2    0    0  0.74203294692E+01 -0.13096450005E+02 -0.23345016461E+02  0.12804848375E+03  0.12499938441E+03 0.  0.
         25    2    1    2    0    0 -0.74203294692E+01  0.13096450005E+02  0.28368409575E+02  0.12905502979E+03  0.12499542296E+03 0.  0.
          5    1    3    3  501    0 -0.20543711193E+02 -0.62925465612E+02 -0.24405413690E+02  0.70706240951E+02  0.47000000000E+01 0.  1.
         -5    1    3    3    0  501  0.27964040662E+02  0.49829015606E+02  0.10603972290E+01  0.57342242794E+02  0.47000000000E+01 0.  1.
          5    1    4    4  502    0 -0.44167768590E+02  0.43718893460E+02  0.46421277892E+02  0.77712022678E+02  0.47000000000E+01 0.  1.
         -5    1    4    4    0  502  0.36747439121E+02 -0.30622443454E+02 -0.18052868317E+02  0.51343007114E+02  0.47000000000E+01 0.  1.
<mgrwt>
<rscale>  0 0.25705443E+03</rscale>
<asrwt>0</asrwt>
<pdfrwt beam="1">  1       21 0.20163608E-01 0.25705443E+03</pdfrwt>
<pdfrwt beam="2">  1       21 0.19390778E-01 0.25705443E+03</pdfrwt>
<totfact> 0.54942820E+05</totfact>
</mgrwt>
</event>
<event>
 8    1  0.9691636E-006  0.2742610E+03  0.7546771E-02  0.1098865E+00
         21   -1    0    0  504  503  0.00000000000E+00  0.00000000000E+00  0.78727750039E+03  0.78727750039E+03  0.00000000000E+00 0.  1.
         21   -1    0    0  503  504 -0.00000000000E+00 -0.00000000000E+00 -0.23885825810E+02  0.23885825810E+02  0.00000000000E+00 0.  1.
         25    2    1    2    0    0  0.20023112641E+02 -0.64504386138E+01  0.53641727095E+03  0.55119105488E+03  0.12500222882E+03 0.  0.
         25    2    1    2    0    0 -0.20023112641E+02  0.64504386138E+01  0.22697440363E+03  0.25997227132E+03  0.12500267499E+03 0.  0.
          5    1    3    3  501    0 -0.44140997069E+02  0.24556533571E+02  0.15335376874E+03  0.16152683787E+03  0.47000000000E+01 0. -1.
         -5    1    3    3    0  501  0.64164109710E+02 -0.31006972185E+02  0.38306350221E+03  0.38966421702E+03  0.47000000000E+01 0. -1.
          5    1    4    4  502    0  0.17815854962E+02  0.15049238829E+02 -0.53486283330E+01  0.24384054265E+02  0.47000000000E+01 0.  1.
         -5    1    4    4    0  502 -0.37838967603E+02 -0.85988002152E+01  0.23232303196E+03  0.23558821705E+03  0.47000000000E+01 0.  1.
<mgrwt>
<rscale>  0 0.27426099E+03</rscale>
<asrwt>0</asrwt>
<pdfrwt beam="1">  1       21 0.12111960E+00 0.27426099E+03</pdfrwt>
<pdfrwt beam="2">  1       21 0.36747430E-02 0.27426099E+03</pdfrwt>
<totfact> 0.22703771E+05</totfact>
</mgrwt>
</event>
<event>
 8    1  0.9691636E-006  0.3634892E+03  0.7546771E-02  0.1057211E+00
         21   -1    0    0  504  503  0.00000000000E+00  0.00000000000E+00  0.41771517149E+03  0.41771517149E+03  0.00000000000E+00 0.  1.
         21   -1    0    0  503  504 -0.00000000000E+00 -0.00000000000E+00 -0.79075634486E+02  0.79075634486E+02  0.00000000000E+00 0.  1.
         25    2    1    2    0    0 -0.86353459025E+02 -0.98421147788E+02  0.19139730431E+03  0.26344527976E+03  0.12500738023E+03 0.  0.
         25    2    1    2    0    0  0.86353459025E+02  0.98421147788E+02  0.14724223269E+03  0.23334552622E+03  0.12500486911E+03 0.  0.
          5    1    3    3  501    0 -0.36365721707E+02 -0.11587729835E+03  0.98617065016E+02  0.15651654705E+03  0.47000000000E+01 0. -1.
         -5    1    3    3    0  501 -0.49987737318E+02  0.17456150561E+02  0.92780239294E+02  0.10692873271E+03  0.47000000000E+01 0. -1.
          5    1    4    4  502    0  0.76907403814E+02 -0.39597286996E+01  0.51386967634E+02  0.92699183683E+02  0.47000000000E+01 0. -1.
         -5    1    4    4    0  502  0.94460552105E+01  0.10238087649E+03  0.95855265054E+02  0.14064634253E+03  0.47000000000E+01 0. -1.
<mgrwt>
<rscale>  0 0.36348916E+03</rscale>
<asrwt>0</asrwt>
<pdfrwt beam="1">  1       21 0.64263871E-01 0.36348916E+03</pdfrwt>
<pdfrwt beam="2">  1       21 0.12165482E-01 0.36348916E+03</pdfrwt>
<totfact> 0.12170126E+05</totfact>
</mgrwt>
</event>
<event>
 8    1  0.9691636E-006  0.6420136E+03  0.7546771E-02  0.9821882E-01
         21   -1    0    0  504  503  0.00000000000E+00  0.00000000000E+00  0.19395992311E+03  0.19395992311E+03  0.00000000000E+00 0.  1.
         21   -1    0    0  503  504 -0.00000000000E+00 -0.00000000000E+00 -0.53127143958E+03  0.53127143958E+03  0.00000000000E+00 0.  1.
         25    2    1    2    0    0  0.21861948433E+01  0.55325190624E+02  0.15943628303E+03  0.21002435809E+03  0.12499858591E+03 0.  0.
         25    2    1    2    0    0 -0.21861948433E+01 -0.55325190624E+02 -0.49674779950E+03  0.51520700460E+03  0.12495689301E+03 0.  0.
          5    1    3    3  501    0  0.12934520882E+02 -0.78966069170E+01 -0.16388438083E+02  0.22810724102E+02  0.47000000000E+01 0.  1.
         -5    1    3    3    0  501 -0.10748326039E+02  0.63221797541E+02  0.17582472112E+03  0.18721363399E+03  0.47000000000E+01 0.  1.
          5    1    4    4  502    0  0.37887079686E+02 -0.79602185448E+02 -0.28870026947E+03  0.30189712541E+03  0.47000000000E+01 0.  1.
         -5    1    4    4    0  502 -0.40073274530E+02  0.24276994824E+02 -0.20804753003E+03  0.21330987919E+03  0.47000000000E+01 0.  1.
<mgrwt>
<rscale>  0 0.64201361E+03</rscale>
<asrwt>0</asrwt>
<pdfrwt beam="1">  1       21 0.29839989E-01 0.64201361E+03</pdfrwt>
<pdfrwt beam="2">  1       21 0.81734066E-01 0.64201361E+03</pdfrwt>
<totfact> 0.12073530E+04</totfact>
</mgrwt>
</event>
<event>
 8    1  0.9691636E-006  0.4414202E+03  0.7546771E-02  0.1030312E+00
         21   -1    0    0  504  503  0.00000000000E+00  0.00000000000E+00  0.17360422975E+03  0.17360422975E+03  0.00000000000E+00 0. -1.
         21   -1    0    0  503  504 -0.00000000000E+00 -0.00000000000E+00 -0.28059770292E+03  0.28059770292E+03  0.00000000000E+00 0. -1.
         25    2    1    2    0    0 -0.14655145877E+03  0.10168576018E+03 -0.16811235412E+02  0.21845866059E+03  0.12499697940E+03 0.  0.
         25    2    1    2    0    0  0.14655145877E+03 -0.10168576018E+03 -0.90182237753E+02  0.23574327207E+03  0.12499892171E+03 0.  0.
          5    1    3    3  501    0  0.18800355066E+02 -0.47292282737E+01 -0.82345467660E+01  0.21580470595E+02  0.47000000000E+01 0. -1.
         -5    1    3    3    0  501 -0.16535181384E+03  0.10641498846E+03 -0.85766886463E+01  0.19687819000E+03  0.47000000000E+01 0. -1.
          5    1    4    4  502    0  0.61996051891E+02 -0.93027403472E+02 -0.99982012121E+02  0.15005366038E+03  0.47000000000E+01 0.  1.
         -5    1    4    4    0  502  0.84555406882E+02 -0.86583567099E+01  0.97997743678E+01  0.85689611690E+02  0.47000000000E+01 0.  1.
<mgrwt>
<rscale>  0 0.44142020E+03</rscale>
<asrwt>0</asrwt>
<pdfrwt beam="1">  1       21 0.26708343E-01 0.44142020E+03</pdfrwt>
<pdfrwt beam="2">  1       21 0.43168877E-01 0.44142020E+03</pdfrwt>
<totfact> 0.63823472E+04</totfact>
</mgrwt>
</event>
<event>
 8    1  0.9691636E-006  0.2842498E+03  0.7546771E-02  0.1093390E+00
         21   -1    0    0  504  503  0.00000000000E+00  0.00000000000E+00  0.37769875688E+02  0.37769875688E+02  0.00000000000E+00 0.  1.
         21   -1    0    0  503  504 -0.00000000000E+00 -0.00000000000E+00 -0.53480427384E+03  0.53480427384E+03  0.00000000000E+00 0.  1.
         25    2    1    2    0    0 -0.41803463742E+02 -0.10841114457E+01 -0.14141579633E+03  0.19331469670E+03  0.12499375837E+03 0.  0.
         25    2    1    2    0    0  0.41803463742E+02  0.10841114457E+01 -0.35561860182E+03  0.37925945283E+03  0.12499775085E+03 0.  0.
          5    1    3    3  501    0  0.44289444914E+02  0.25298498012E+01 -0.37818664496E+02  0.58483300651E+02  0.47000000000E+01 0.  1.
         -5    1    3    3    0  501 -0.86092908656E+02 -0.36139612470E+01 -0.10359713183E+03  0.13483139605E+03  0.47000000000E+01 0.  1.
          5    1    4    4  502    0  0.77357878136E+02 -0.26427004426E+02 -0.17719181646E+03  0.19519645922E+03  0.47000000000E+01 0.  1.
         -5    1    4    4    0  502 -0.35554414394E+02  0.27511115872E+02 -0.17842678537E+03  0.18406299361E+03  0.47000000000E+01 0.  1.
<mgrwt>
<rscale>  0 0.28424983E+03</rscale>
<asrwt>0</asrwt>
<pdfrwt beam="1">  1       21 0.58107500E-02 0.28424983E+03</pdfrwt>
<pdfrwt beam="2">  1       21 0.82277582E-01 0.28424983E+03</pdfrwt>
<totfact> 0.26224350E+05</totfact>
</mgrwt>
</event>
<event>
 8    1  0.9691636E-006  0.2681155E+03  0.7546771E-02  0.1102363E+00
         21   -1    0    0  504  503  0.00000000000E+00  0.00000000000E+00  0.27094666852E+03  0.27094666852E+03  0.00000000000E+00 0. -1.
         21   -1    0    0  503  504 -0.00000000000E+00 -0.00000000000E+00 -0.66328470490E+02  0.66328470490E+02  0.00000000000E+00 0. -1.
         25    2    1    2    0    0 -0.20205823461E+02 -0.20049380730E+02  0.15161010029E+03  0.19854718473E+03  0.12500043633E+03 0.  0.
         25    2    1    2    0    0  0.20205823461E+02  0.20049380730E+02  0.53008097740E+02  0.13872795428E+03  0.12500133561E+03 0.  0.
          5    1    3    3  501    0  0.51241665211E+02 -0.17278409486E+02  0.84118627657E+02  0.10011136402E+03  0.47000000000E+01 0. -1.
         -5    1    3    3    0  501 -0.71447488672E+02 -0.27709712438E+01  0.67491472637E+02  0.98435820705E+02  0.47000000000E+01 0. -1.
          5    1    4    4  502    0 -0.25382393358E+02  0.45840603658E+02 -0.13137549884E+02  0.54224644335E+02  0.47000000000E+01 0.  1.
         -5    1    4    4    0  502  0.45588216819E+02 -0.25791222927E+02  0.66145647624E+02  0.84503309950E+02  0.47000000000E+01 0.  1.
<mgrwt>
<rscale>  0 0.26811548E+03</rscale>
<asrwt>0</asrwt>
<pdfrwt beam="1">  1       21 0.41684102E-01 0.26811548E+03</pdfrwt>
<pdfrwt beam="2">  1       21 0.10204380E-01 0.26811548E+03</pdfrwt>
<totfact> 0.42696617E+05</totfact>
</mgrwt>
</event>
<event>
 8    1  0.9691636E-006  0.3861040E+03  0.7546771E-02  0.1048700E+00
         21   -1    0    0  504  503  0.00000000000E+00  0.00000000000E+00  0.38640393220E+02  0.38640393220E+02  0.00000000000E+00 0. -1.
         21   -1    0    0  503  504 -0.00000000000E+00 -0.00000000000E+00 -0.96451093516E+03  0.96451093516E+03  0.00000000000E+00 0. -1.
         25    2    1    2    0    0  0.23926530738E+01  0.97255542972E+02 -0.17619919570E+03  0.23692885806E+03  0.12499904715E+03 0.  0.
         25    2    1    2    0    0 -0.23926530738E+01 -0.97255542972E+02 -0.74967134624E+03  0.76622247032E+03  0.12500152490E+03 0.  0.
          5    1    3    3  501    0  0.33746481175E+02 -0.11738037162E+02 -0.13366496522E+02  0.38436437626E+02  0.47000000000E+01 0. -1.
         -5    1    3    3    0  501 -0.31353828101E+02  0.10899358013E+03 -0.16283269918E+03  0.19849242043E+03  0.47000000000E+01 0. -1.
          5    1    4    4  502    0  0.29796484528E+02  0.12878294117E+01 -0.46548005662E+02  0.55482392035E+02  0.47000000000E+01 0.  1.
         -5    1    4    4    0  502 -0.32189137601E+02 -0.98543372383E+02 -0.70312334057E+03  0.71074007828E+03  0.47000000000E+01 0.  1.
<mgrwt>
<rscale>  0 0.38610404E+03</rscale>
<asrwt>0</asrwt>
<pdfrwt beam="1">  1       21 0.59446762E-02 0.38610404E+03</pdfrwt>
<pdfrwt beam="2">  1       21 0.14838629E+00 0.38610404E+03</pdfrwt>
<totfact> 0.57061423E+04</totfact>
</mgrwt>
</event>
<event>
 8    1  0.9691636E-006  0.2960775E+03  0.7546771E-02  0.1087218E+00
         21   -1    0    0  504  503  0.00000000000E+00  0.00000000000E+00  0.36162377871E+03  0.36162377871E+03  0.00000000000E+00 0. -1.
         21   -1    0    0  503  504 -0.00000000000E+00 -0.00000000000E+00 -0.60602952789E+02  0.60602952789E+02  0.00000000000E+00 0. -1.
         25    2    1    2    0    0 -0.70713493257E+02 -0.34901872104E+02  0.13832045988E+03  0.20242601407E+03  0.12500081098E+03 0.  0.
         25    2    1    2    0    0  0.70713493257E+02  0.34901872104E+02  0.16270036605E+03  0.21980071744E+03  0.12498962944E+03 0.  0.
          5    1    3    3  501    0 -0.88117049662E+01  0.59357286926E+00 -0.23482481075E+02  0.25524799521E+02  0.47000000000E+01 0.  1.
         -5    1    3    3    0  501 -0.61901788291E+02 -0.35495444973E+02  0.16180294095E+03  0.17690121455E+03  0.47000000000E+01 0.  1.
          5    1    4    4  502    0 -0.60785148577E+01 -0.26533515722E+02 -0.22357086608E+01  0.27713971073E+02  0.47000000000E+01 0. -1.
         -5    1    4    4    0  502  0.76792008115E+02  0.61435387826E+02  0.16493607471E+03  0.19208674636E+03  0.47000000000E+01 0. -1.
<mgrwt>
<rscale>  0 0.29607748E+03</rscale>
<asrwt>0</asrwt>
<pdfrwt beam="1">  1       21 0.55634426E-01 0.29607748E+03</pdfrwt>
<pdfrwt beam="2">  1       21 0.93235314E-02 0.29607748E+03</pdfrwt>
<totfact> 0.27241835E+05</totfact>
</mgrwt>
</event>
<event>
 8    1  0.9691636E-006  0.3696526E+03  0.7546771E-02  0.1054826E+00
         21   -1    0    0  504  503  0.00000000000E+00  0.00000000000E+00  0.41707462840E+03  0.41707462840E+03  0.00000000000E+00 0. -1.
         21   -1    0    0  503  504 -0.00000000000E+00 -0.00000000000E+00 -0.81905648605E+02  0.81905648605E+02  0.00000000000E+00 0. -1.
         25    2    1    2    0    0 -0.59747253139E+02 -0.11662970033E+03  0.11778387921E+03  0.21604237430E+03  0.12501617508E+03 0.  0.
         25    2    1    2    0    0  0.59747253139E+02  0.11662970033E+03  0.21738510058E+03  0.28293790271E+03  0.12500141429E+03 0.  0.
          5    1    3    3  501    0 -0.23859485632E+02 -0.24616330531E+02  0.11174750204E+03  0.11698219093E+03  0.47000000000E+01 0. -1.
         -5    1    3    3    0  501 -0.35887767507E+02 -0.92013369804E+02  0.60363771726E+01  0.99060183366E+02  0.47000000000E+01 0. -1.
          5    1    4    4  502    0  0.26463014048E+02  0.86842984036E+02  0.38885268551E+02  0.98874410739E+02  0.47000000000E+01 0. -1.
         -5    1    4    4    0  502  0.33284239091E+02  0.29786716298E+02  0.17849983203E+03  0.18406349197E+03  0.47000000000E+01 0. -1.
<mgrwt>
<rscale>  0 0.36965264E+03</rscale>
<asrwt>0</asrwt>
<pdfrwt beam="1">  1       21 0.64165326E-01 0.36965264E+03</pdfrwt>
<pdfrwt beam="2">  1       21 0.12600869E-01 0.36965264E+03</pdfrwt>
<totfact> 0.11439364E+05</totfact>
</mgrwt>
</event>
<event>
 8    1  0.9691636E-006  0.3176400E+03  0.7546771E-02  0.1076741E+00
         21   -1    0    0  504  503  0.00000000000E+00  0.00000000000E+00  0.89552813972E+02  0.89552813972E+02  0.00000000000E+00 0. -1.
         21   -1    0    0  503  504 -0.00000000000E+00 -0.00000000000E+00 -0.28166381733E+03  0.28166381733E+03  0.00000000000E+00 0. -1.
         25    2    1    2    0    0 -0.12854710843E+02 -0.44621839824E+02  0.47595879682E+01  0.13343648739E+03  0.12500516114E+03 0.  0.
         25    2    1    2    0    0  0.12854710843E+02  0.44621839824E+02 -0.19687059133E+03  0.23778014391E+03  0.12500005971E+03 0.  0.
          5    1    3    3  501    0 -0.33513057637E+02  0.15608418745E+02  0.44644499720E+02  0.58154699923E+02  0.47000000000E+01 0.  1.
         -5    1    3    3    0  501  0.20658346794E+02 -0.60230258568E+02 -0.39884911751E+02  0.75281787471E+02  0.47000000000E+01 0.  1.
          5    1    4    4  502    0  0.27867718933E+02 -0.32644198510E+00 -0.18702855888E+03  0.18915202394E+03  0.47000000000E+01 0. -1.
         -5    1    4    4    0  502 -0.15013008089E+02  0.44948281809E+02 -0.98420324500E+01  0.48628119974E+02  0.47000000000E+01 0. -1.
<mgrwt>
<rscale>  0 0.31763997E+03</rscale>
<asrwt>0</asrwt>
<pdfrwt beam="1">  1       21 0.13777356E-01 0.31763997E+03</pdfrwt>
<pdfrwt beam="2">  1       21 0.43332894E-01 0.31763997E+03</pdfrwt>
<totfact> 0.22708369E+05</totfact>
</mgrwt>
</event>
<event>
 8    1  0.9691636E-006  0.3146957E+03  0.7546771E-02  0.1078117E+00
         21   -1    0    0  504  503  0.00000000000E+00  0.00000000000E+00  0.32721908558E+03  0.32721908558E+03  0.00000000000E+00 0. -1.
         21   -1    0    0  503  504 -0.00000000000E+00 -0.00000000000E+00 -0.75662881181E+02  0.75662881181E+02  0.00000000000E+00 0. -1.
         25    2    1    2    0    0  0.47258314009E+02 -0.62398576981E+02  0.55580841135E+02  0.15761046226E+03  0.12499958904E+03 0.  0.
         25    2    1    2    0    0 -0.47258314009E+02  0.62398576981E+02  0.19597536326E+03  0.24527150450E+03  0.12499934905E+03 0.  0.
          5    1    3    3  501    0  0.35949073560E+02  0.26828562902E+02  0.50055138537E+02  0.67377404011E+02  0.47000000000E+01 0.  1.
         -5    1    3    3    0  501  0.11309240449E+02 -0.89227139883E+02  0.55257025978E+01  0.90233058246E+02  0.47000000000E+01 0.  1.
          5    1    4    4  502    0  0.41722628143E+02  0.10500532036E+02  0.72116730045E+02  0.84106787030E+02  0.47000000000E+01 0. -1.
         -5    1    4    4    0  502 -0.88980942152E+02  0.51898044945E+02  0.12385863321E+03  0.16116471747E+03  0.47000000000E+01 0. -1.
<mgrwt>
<rscale>  0 0.31469565E+03</rscale>
<asrwt>0</asrwt>
<pdfrwt beam="1">  1       21 0.50341397E-01 0.31469565E+03</pdfrwt>
<pdfrwt beam="2">  1       21 0.11640443E-01 0.31469565E+03</pdfrwt>
<totfact> 0.22562067E+05</totfact>
</mgrwt>
</event>
<event>
 8    1  0.9691636E-006  0.2663868E+03  0.7546771E-02  0.1103366E+00
         21   -1    0    0  504  503  0.00000000000E+00  0.00000000000E+00  0.14862579416E+03  0.14862579416E+03  0.00000000000E+00 0. -1.
         21   -1    0    0  503  504 -0.00000000000E+00 -0.00000000000E+00 -0.11936337240E+03  0.11936337240E+03  0.00000000000E+00 0. -1.
         25    2    1    2    0    0 -0.27239810859E+02 -0.21610891451E+02 -0.15652910375E+02  0.13068817569E+03  0.12500139094E+03 0.  0.
         25    2    1    2    0    0  0.27239810859E+02  0.21610891451E+02  0.44915332140E+02  0.13730099087E+03  0.12500054843E+03 0.  0.
          5    1    3    3  501    0 -0.13925338865E+02  0.35610658872E+02  0.35695591763E+02  0.52519514079E+02  0.47000000000E+01 0.  1.
         -5    1    3    3    0  501 -0.13314471994E+02 -0.57221550323E+02 -0.51348502138E+02  0.78168661608E+02  0.47000000000E+01 0.  1.
          5    1    4    4  502    0  0.34568036308E+02  0.17791126934E+02  0.86336543116E+02  0.94802753172E+02  0.47000000000E+01 0. -1.
         -5    1    4    4    0  502 -0.73282254492E+01  0.38197645174E+01 -0.41421210975E+02  0.42498237703E+02  0.47000000000E+01 0. -1.
<mgrwt>
<rscale>  0 0.26638676E+03</rscale>
<asrwt>0</asrwt>
<pdfrwt beam="1">  1       21 0.22865507E-01 0.26638676E+03</pdfrwt>
<pdfrwt beam="2">  1       21 0.18363596E-01 0.26638676E+03</pdfrwt>
<totfact> 0.47863508E+05</totfact>
</mgrwt>
</event>
<event>
 8    1  0.9691636E-006  0.2874087E+03  0.7546771E-02  0.1091710E+00
         21   -1    0    0  504  503  0.00000000000E+00  0.00000000000E+00  0.45439217939E+03  0.45439217939E+03  0.00000000000E+00 0. -1.
         21   -1    0    0  503  504 -0.00000000000E+00 -0.00000000000E+00 -0.45447378033E+02  0.45447378033E+02  0.00000000000E+00 0. -1.
         25    2    1    2    0    0 -0.14657215198E+02  0.15427326077E+02  0.32207969698E+03  0.34613891944E+03  0.12499593592E+03 0.  0.
         25    2    1    2    0    0  0.14657215198E+02 -0.15427326077E+02  0.86865104376E+02  0.15370063798E+03  0.12500201363E+03 0.  0.
          5    1    3    3  501    0 -0.93117587364E+00  0.70070245216E+02  0.18180383778E+03  0.19489851663E+03  0.47000000000E+01 0. -1.
         -5    1    3    3    0  501 -0.13726039324E+02 -0.54642919139E+02  0.14027585920E+03  0.15124040281E+03  0.47000000000E+01 0. -1.
          5    1    4    4  502    0 -0.88828157058E+01  0.49091701854E+02  0.63743356816E+02  0.81081472260E+02  0.47000000000E+01 0.  1.
         -5    1    4    4    0  502  0.23540030903E+02 -0.64519027931E+02  0.23121747560E+02  0.72619165723E+02  0.47000000000E+01 0.  1.
<mgrwt>
<rscale>  0 0.28740865E+03</rscale>
<asrwt>0</asrwt>
<pdfrwt beam="1">  1       21 0.69906486E-01 0.28740865E+03</pdfrwt>
<pdfrwt beam="2">  1       21 0.69919046E-02 0.28740865E+03</pdfrwt>
<totfact> 0.27488826E+05</totfact>
</mgrwt>
</event>
<event>
 8    1  0.9691636E-006  0.3545089E+03  0.7546771E-02  0.1060779E+00
         21   -1    0    0  504  503  0.00000000000E+00  0.00000000000E+00  0.10642622738E+03  0.10642622738E+03  0.00000000000E+00 0.  1.
         21   -1    0    0  503  504 -0.00000000000E+00 -0.00000000000E+00 -0.29521984972E+03  0.29521984972E+03  0.00000000000E+00 0.  1.
         25    2    1    2    0    0 -0.56266868293E+02 -0.88079558712E+02 -0.17349779766E+03  0.23801323527E+03  0.12499938097E+03 0.  0.
         25    2    1    2    0    0  0.56266868293E+02  0.88079558712E+02 -0.15295824680E+02  0.16363284182E+03  0.12497109882E+03 0.  0.
          5    1    3    3  501    0 -0.17796360496E+01  0.30908331263E+02 -0.42444377979E+02  0.52745684828E+02  0.47000000000E+01 0.  1.
         -5    1    3    3    0  501 -0.54487232244E+02 -0.11898788998E+03 -0.13105341968E+03  0.18526755044E+03  0.47000000000E+01 0.  1.
          5    1    4    4  502    0  0.80472472450E+02  0.30910892119E+02  0.24498985787E+02  0.89741809534E+02  0.47000000000E+01 0. -1.
         -5    1    4    4    0  502 -0.24205604157E+02  0.57168666593E+02 -0.39794810467E+02  0.73891032289E+02  0.47000000000E+01 0. -1.
<mgrwt>
<rscale>  0 0.35450887E+03</rscale>
<asrwt>0</asrwt>
<pdfrwt beam="1">  1       21 0.16373266E-01 0.35450887E+03</pdfrwt>
<pdfrwt beam="2">  1       21 0.45418437E-01 0.35450887E+03</pdfrwt>
<totfact> 0.14866741E+05</totfact>
</mgrwt>
</event>
<event>
 8    1  0.9691636E-006  0.2585940E+03  0.7546771E-02  0.1107991E+00
         21   -1    0    0  504  503  0.00000000000E+00  0.00000000000E+00  0.19974385453E+02  0.19974385453E+02  0.00000000000E+00 0.  1.
         21   -1    0    0  503  504 -0.00000000000E+00 -0.00000000000E+00 -0.83695772115E+03  0.83695772115E+03  0.00000000000E+00 0.  1.
         25    2    1    2    0    0  0.91558847024E+00  0.36717136224E+01 -0.51735817240E+03  0.53225862458E+03  0.12500178041E+03 0.  0.
         25    2    1    2    0    0 -0.91558847024E+00 -0.36717136224E+01 -0.29962516330E+03  0.32467348202E+03  0.12499324648E+03 0.  0.
          5    1    3    3  501    0  0.36068334935E+02  0.26733675768E+02 -0.45298718125E+03  0.45523081022E+03  0.47000000000E+01 0.  1.
         -5    1    3    3    0  501 -0.35152746465E+02 -0.23061962145E+02 -0.64370991156E+02  0.77027814356E+02  0.47000000000E+01 0.  1.
          5    1    4    4  502    0  0.13889873543E+02  0.33781436582E+02 -0.27453020750E+03  0.27698923964E+03  0.47000000000E+01 0.  1.
         -5    1    4    4    0  502 -0.14805462013E+02 -0.37453150204E+02 -0.25094955796E+02  0.47684242387E+02  0.47000000000E+01 0.  1.
<mgrwt>
<rscale>  0 0.25859401E+03</rscale>
<asrwt>0</asrwt>
<pdfrwt beam="1">  1       21 0.30729815E-02 0.25859401E+03</pdfrwt>
<pdfrwt beam="2">  1       21 0.12876276E+00 0.25859401E+03</pdfrwt>
<totfact> 0.26355935E+05</totfact>
</mgrwt>
</event>
<event>
 8    1  0.9691636E-006  0.2834909E+03  0.7546771E-02  0.1093797E+00
         21   -1    0    0  504  503  0.00000000000E+00  0.00000000000E+00  0.28876862068E+03  0.28876862068E+03  0.00000000000E+00 0. -1.
         21   -1    0    0  503  504 -0.00000000000E+00 -0.00000000000E+00 -0.69577413192E+02  0.69577413192E+02  0.00000000000E+00 0. -1.
         25    2    1    2    0    0  0.27409094552E+02  0.26809340025E+02  0.40399696118E+02  0.13684856907E+03  0.12500158492E+03 0.  0.
         25    2    1    2    0    0 -0.27409094552E+02 -0.26809340025E+02  0.17879151137E+03  0.22149746480E+03  0.12499889279E+03 0.  0.
          5    1    3    3  501    0 -0.44574394982E+02  0.25325618357E+02  0.39165337379E+02  0.64685989868E+02  0.47000000000E+01 0.  1.
         -5    1    3    3    0  501  0.71983489534E+02  0.14837216674E+01  0.12343587390E+01  0.72162579201E+02  0.47000000000E+01 0.  1.
          5    1    4    4  502    0  0.37912286840E+02 -0.22693768056E+02  0.13620567709E+03  0.14327046127E+03  0.47000000000E+01 0. -1.
         -5    1    4    4    0  502 -0.65321381392E+02 -0.41155719693E+01  0.42585834278E+02  0.78227003527E+02  0.47000000000E+01 0. -1.
<mgrwt>
<rscale>  0 0.28349091E+03</rscale>
<asrwt>0</asrwt>
<pdfrwt beam="1">  1       21 0.44425941E-01 0.28349091E+03</pdfrwt>
<pdfrwt beam="2">  1       21 0.10704218E-01 0.28349091E+03</pdfrwt>
<totfact> 0.34282309E+05</totfact>
</mgrwt>
</event>
<event>
 8    1  0.9691636E-006  0.3384918E+03  0.7546771E-02  0.1067440E+00
         21   -1    0    0  504  503  0.00000000000E+00  0.00000000000E+00  0.23229815243E+02  0.23229815243E+02  0.00000000000E+00 0.  1.
         21   -1    0    0  503  504 -0.00000000000E+00 -0.00000000000E+00 -0.12330781133E+04  0.12330781133E+04  0.00000000000E+00 0.  1.
         25    2    1    2    0    0 -0.40320095986E+02 -0.82832771662E+02 -0.85479237491E+03  0.86878231917E+03  0.12500294272E+03 0.  0.
         25    2    1    2    0    0  0.40320095986E+02  0.82832771662E+02 -0.35505592312E+03  0.38752560935E+03  0.12499764461E+03 0.  0.
          5    1    3    3  501    0 -0.83359792156E+02 -0.35416906490E+02 -0.53005669835E+03  0.53775961700E+03  0.47000000000E+01 0.  1.
         -5    1    3    3    0  501  0.43039696170E+02 -0.47415865173E+02 -0.32473567656E+03  0.33102270217E+03  0.47000000000E+01 0.  1.
          5    1    4    4  502    0  0.33515479418E+01 -0.56595915496E+01  0.83656406885E+01  0.11633477307E+02  0.47000000000E+01 0.  1.
         -5    1    4    4    0  502  0.36968548044E+02  0.88492363212E+02 -0.36342156381E+03  0.37589213204E+03  0.47000000000E+01 0.  1.
<mgrwt>
<rscale>  0 0.33849181E+03</rscale>
<asrwt>0</asrwt>
<pdfrwt beam="1">  1       21 0.35738177E-02 0.33849181E+03</pdfrwt>
<pdfrwt beam="2">  1       21 0.18970433E+00 0.33849181E+03</pdfrwt>
<totfact> 0.69273851E+04</totfact>
</mgrwt>
</event>
<event>
 8    1  0.9691636E-006  0.3064249E+03  0.7546771E-02  0.1082072E+00
         21   -1    0    0  504  503  0.00000000000E+00  0.00000000000E+00  0.18621566933E+02  0.18621566933E+02  0.00000000000E+00 0.  1.
         21   -1    0    0  503  504 -0.00000000000E+00 -0.00000000000E+00 -0.12605840365E+04  0.12605840365E+04  0.00000000000E+00 0.  1.
         25    2    1    2    0    0 -0.58175245625E+02 -0.62255980012E+02 -0.51966220033E+03  0.54123339647E+03  0.12499848297E+03 0.  0.
         25    2    1    2    0    0  0.58175245625E+02  0.62255980012E+02 -0.72230026920E+03  0.73797220693E+03  0.12500053228E+03 0.  0.
          5    1    3    3  501    0 -0.11296084620E+02  0.13143469945E+02 -0.34290685677E+03  0.34337669511E+03  0.47000000000E+01 0.  1.
         -5    1    3    3    0  501 -0.46879161006E+02 -0.75399449957E+02 -0.17675534357E+03  0.19785670135E+03  0.47000000000E+01 0.  1.
          5    1    4    4  502    0  0.41765140636E+02 -0.30527761926E+02 -0.17303747508E+03  0.18066634717E+03  0.47000000000E+01 0. -1.
         -5    1    4    4    0  502  0.16410104989E+02  0.92783741939E+02 -0.54926279412E+03  0.55730585976E+03  0.47000000000E+01 0. -1.
<mgrwt>
<rscale>  0 0.30642487E+03</rscale>
<asrwt>0</asrwt>
<pdfrwt beam="1">  1       21 0.28648560E-02 0.30642487E+03</pdfrwt>
<pdfrwt beam="2">  1       21 0.19393604E+00 0.30642487E+03</pdfrwt>
<totfact> 0.95147564E+04</totfact>
</mgrwt>
</event>
<event>
 8    1  0.9691636E-006  0.3367456E+03  0.7546771E-02  0.1068191E+00
         21   -1    0    0  504  503  0.00000000000E+00  0.00000000000E+00  0.16425934676E+03  0.16425934676E+03  0.00000000000E+00 0. -1.
         21   -1    0    0  503  504 -0.00000000000E+00 -0.00000000000E+00 -0.17258930753E+03  0.17258930753E+03  0.00000000000E+00 0. -1.
         25    2    1    2    0    0  0.82946531849E+01 -0.60278526235E+02  0.90847365055E+02  0.16607550450E+03  0.12500210983E+03 0.  0.
         25    2    1    2    0    0 -0.82946531849E+01  0.60278526235E+02 -0.99177325824E+02  0.17077314978E+03  0.12500009893E+03 0.  0.
          5    1    3    3  501    0  0.62578338159E+01  0.38899368296E+02  0.24247260419E+02  0.46500978224E+02  0.47000000000E+01 0. -1.
         -5    1    3    3    0  501  0.20368193690E+01 -0.99177894531E+02  0.66600104636E+02  0.11957452628E+03  0.47000000000E+01 0. -1.
          5    1    4    4  502    0  0.38275245031E+02  0.68677967278E+02 -0.24953279296E+02  0.82622113985E+02  0.47000000000E+01 0.  1.
         -5    1    4    4    0  502 -0.46569898216E+02 -0.83994410431E+01 -0.74224046528E+02  0.88151035800E+02  0.47000000000E+01 0.  1.
<mgrwt>
<rscale>  0 0.33674564E+03</rscale>
<asrwt>0</asrwt>
<pdfrwt beam="1">  1       21 0.25270669E-01 0.33674564E+03</pdfrwt>
<pdfrwt beam="2">  1       21 0.26552201E-01 0.33674564E+03</pdfrwt>
<totfact> 0.19301805E+05</totfact>
</mgrwt>
</event>
<event>
 8    1  0.9691636E-006  0.2850609E+03  0.7546771E-02  0.1092956E+00
         21   -1    0    0  504  503  0.00000000000E+00  0.00000000000E+00  0.34905371851E+03  0.34905371851E+03  0.00000000000E+00 0.  1.
         21   -1    0    0  503  504 -0.00000000000E+00 -0.00000000000E+00 -0.58200010861E+02  0.58200010861E+02  0.00000000000E+00 0.  1.
         25    2    1    2    0    0  0.12813676217E+02  0.10721959951E+02  0.24031155766E+03  0.27139271368E+03  0.12500083829E+03 0.  0.
         25    2    1    2    0    0 -0.12813676217E+02 -0.10721959951E+02  0.50542149986E+02  0.13586101568E+03  0.12499822372E+03 0.  0.
          5    1    3    3  501    0 -0.30178323424E+02 -0.14302935147E+02  0.21055089398E+03  0.21323478636E+03  0.47000000000E+01 0. -1.
         -5    1    3    3    0  501  0.42991999641E+02  0.25024895098E+02  0.29760663680E+02  0.58157927322E+02  0.47000000000E+01 0. -1.
          5    1    4    4  502    0 -0.79778325733E+01  0.56318552059E+02  0.12296135410E+02  0.58384159364E+02  0.47000000000E+01 0.  1.
         -5    1    4    4    0  502 -0.48358436440E+01 -0.67040512010E+02  0.38246014576E+02  0.77476856320E+02  0.47000000000E+01 0.  1.
<mgrwt>
<rscale>  0 0.28506091E+03</rscale>
<asrwt>0</asrwt>
<pdfrwt beam="1">  1       21 0.53700571E-01 0.28506091E+03</pdfrwt>
<pdfrwt beam="2">  1       21 0.89538481E-02 0.28506091E+03</pdfrwt>
<totfact> 0.31635031E+05</totfact>
</mgrwt>
</event>
<event>
 8    1  0.9691636E-006  0.3024993E+03  0.7546771E-02  0.1083998E+00
         21   -1    0    0  504  503  0.00000000000E+00  0.00000000000E+00  0.77147434354E+02  0.77147434354E+02  0.00000000000E+00 0.  1.
         21   -1    0    0  503  504 -0.00000000000E+00 -0.00000000000E+00 -0.29652910207E+03  0.29652910207E+03  0.00000000000E+00 0.  1.
         25    2    1    2    0    0 -0.48373698896E+02 -0.54590006331E+02 -0.16399129070E+03  0.21872055269E+03  0.12500181283E+03 0.  0.
         25    2    1    2    0    0  0.48373698896E+02  0.54590006331E+02 -0.55390377019E+02  0.15495598373E+03  0.12499271775E+03 0.  0.
          5    1    3    3  501    0 -0.47286442869E+02 -0.87509857479E+02 -0.15504230618E+03  0.18426662623E+03  0.47000000000E+01 0. -1.
         -5    1    3    3    0  501 -0.10872560264E+01  0.32919851147E+02 -0.89489845166E+01  0.34453926469E+02  0.47000000000E+01 0. -1.
          5    1    4    4  502    0 -0.10010897708E+02  0.71198572635E+02 -0.60189329761E+02  0.93884504767E+02  0.47000000000E+01 0.  1.
         -5    1    4    4    0  502  0.58384596604E+02 -0.16608566304E+02  0.47989527418E+01  0.61071478962E+02  0.47000000000E+01 0.  1.
<mgrwt>
<rscale>  0 0.30249932E+03</rscale>
<asrwt>0</asrwt>
<pdfrwt beam="1">  1       21 0.11868836E-01 0.30249932E+03</pdfrwt>
<pdfrwt beam="2">  1       21 0.45619863E-01 0.30249932E+03</pdfrwt>
<totfact> 0.26846181E+05</totfact>
</mgrwt>
</event>
<event>
 8    1  0.9691636E-006  0.2672402E+03  0.7546771E-02  0.1102870E+00
         21   -1    0    0  504  503  0.00000000000E+00  0.00000000000E+00  0.38227934846E+03  0.38227934846E+03  0.00000000000E+00 0. -1.
         21   -1    0    0  503  504 -0.00000000000E+00 -0.00000000000E+00 -0.46704941843E+02  0.46704941843E+02  0.00000000000E+00 0. -1.
         25    2    1    2    0    0  0.25726755500E+02 -0.36184576490E+02  0.14193281200E+03  0.19426437922E+03  0.12499014516E+03 0.  0.
         25    2    1    2    0    0 -0.25726755500E+02  0.36184576490E+02  0.19364159461E+03  0.23471991108E+03  0.12500071987E+03 0.  0.
          5    1    3    3  501    0  0.44575348433E+02 -0.29340098998E+02  0.28311118190E+01  0.53646139575E+02  0.47000000000E+01 0.  1.
         -5    1    3    3    0  501 -0.18848592934E+02 -0.68444774926E+01  0.13910170018E+03  0.14061823965E+03  0.47000000000E+01 0.  1.
          5    1    4    4  502    0 -0.91018810395E+01  0.72334054312E+02  0.57985764025E+02  0.93271102069E+02  0.47000000000E+01 0.  1.
         -5    1    4    4    0  502 -0.16624874460E+02 -0.36149477822E+02  0.13565583059E+03  0.14144880901E+03  0.47000000000E+01 0.  1.
<mgrwt>
<rscale>  0 0.26724023E+03</rscale>
<asrwt>0</asrwt>
<pdfrwt beam="1">  1       21 0.58812205E-01 0.26724023E+03</pdfrwt>
<pdfrwt beam="2">  1       21 0.71853759E-02 0.26724023E+03</pdfrwt>
<totfact> 0.38445424E+05</totfact>
</mgrwt>
</event>
<event>
 8    1  0.9691636E-006  0.2800630E+03  0.7546771E-02  0.1095655E+00
         21   -1    0    0  504  503  0.00000000000E+00  0.00000000000E+00  0.11259797681E+04  0.11259797681E+04  0.00000000000E+00 0. -1.
         21   -1    0    0  503  504 -0.00000000000E+00 -0.00000000000E+00 -0.17414894552E+02  0.17414894552E+02  0.00000000000E+00 0. -1.
         25    2    1    2    0    0 -0.17052853259E+02  0.47319227983E+02  0.39862349739E+03  0.42077986416E+03  0.12500036908E+03 0.  0.
         25    2    1    2    0    0  0.17052853259E+02 -0.47319227983E+02  0.70994137613E+03  0.72261479846E+03  0.12500192109E+03 0.  0.
          5    1    3    3  501    0  0.27827785683E+02  0.42096247547E+02  0.57510307467E+02  0.76655105365E+02  0.47000000000E+01 0. -1.
         -5    1    3    3    0  501 -0.44880638941E+02  0.52229804362E+01  0.34111318993E+03  0.34412475880E+03  0.47000000000E+01 0. -1.
          5    1    4    4  502    0  0.29019744858E+02 -0.58032102223E+02  0.16420297025E+03  0.17661986276E+03  0.47000000000E+01 0. -1.
         -5    1    4    4    0  502 -0.11966891599E+02  0.10712874240E+02  0.54573840588E+03  0.54599493571E+03  0.47000000000E+01 0. -1.
<mgrwt>
<rscale>  0 0.28006299E+03</rscale>
<asrwt>0</asrwt>
<pdfrwt beam="1">  1       21 0.17322760E+00 0.28006299E+03</pdfrwt>
<pdfrwt beam="2">  1       21 0.26792154E-02 0.28006299E+03</pdfrwt>
<totfact> 0.14891339E+05</totfact>
</mgrwt>
</event>
<event>
 8    1  0.9691636E-006  0.4694551E+03  0.7546771E-02  0.1022074E+00
         21   -1    0    0  504  503  0.00000000000E+00  0.00000000000E+00  0.25535380426E+02  0.25535380426E+02  0.00000000000E+00 0. -1.
         21   -1    0    0  503  504 -0.00000000000E+00 -0.00000000000E+00 -0.21576737024E+04  0.21576737024E+04  0.00000000000E+00 0. -1.
         25    2    1    2    0    0  0.18262388595E+03 -0.17139552597E+01 -0.14298172085E+04  0.14468437925E+04  0.12500115578E+03 0.  0.
         25    2    1    2    0    0 -0.18262388595E+03  0.17139552597E+01 -0.70232111349E+03  0.73636529029E+03  0.12499789172E+03 0.  0.
          5    1    3    3  501    0  0.24006017985E+02 -0.23801180085E+02 -0.72825314523E+02  0.80426373214E+02  0.47000000000E+01 0. -1.
         -5    1    3    3    0  501  0.15861786797E+03  0.22087224825E+02 -0.13569918940E+04  0.13664174193E+04  0.47000000000E+01 0. -1.
          5    1    4    4  502    0 -0.81506305229E+02  0.41312800630E+02 -0.16999923144E+03  0.19305919812E+03  0.47000000000E+01 0. -1.
         -5    1    4    4    0  502 -0.10111758072E+03 -0.39598845371E+02 -0.53232188205E+03  0.54330609218E+03  0.47000000000E+01 0. -1.
<mgrwt>
<rscale>  0 0.46945508E+03</rscale>
<asrwt>0</asrwt>
<pdfrwt beam="1">  1       21 0.39285197E-02 0.46945508E+03</pdfrwt>
<pdfrwt beam="2">  1       21 0.33194983E+00 0.46945508E+03</pdfrwt>
<totfact> 0.73947152E+03</totfact>
</mgrwt>
</event>
<event>
 8    1  0.9691636E-006  0.2993546E+03  0.7546771E-02  0.1085564E+00
         21   -1    0    0  504  503  0.00000000000E+00  0.00000000000E+00  0.62985405695E+02  0.62985405695E+02  0.00000000000E+00 0.  1.
         21   -1    0    0  503  504 -0.00000000000E+00 -0.00000000000E+00 -0.35569018782E+03  0.35569018782E+03  0.00000000000E+00 0.  1.
         25    2    1    2    0    0 -0.41103401355E+02 -0.42487079560E+02 -0.22649052142E+03  0.26536165489E+03  0.12499684021E+03 0.  0.
         25    2    1    2    0    0  0.41103401355E+02  0.42487079560E+02 -0.66214260702E+02  0.15331393862E+03  0.12500477560E+03 0.  0.
          5    1    3    3  501    0 -0.52242001025E+02 -0.33392549645E+02 -0.23823097521E+03  0.24621205615E+03  0.47000000000E+01 0.  1.
         -5    1    3    3    0  501  0.11138599670E+02 -0.90945299153E+01  0.11740453789E+02  0.19149598747E+02  0.47000000000E+01 0.  1.
          5    1    4    4  502    0  0.66912498829E+02  0.20566246847E+02  0.89619936636E+01  0.70729487057E+02  0.47000000000E+01 0.  1.
         -5    1    4    4    0  502 -0.25809097474E+02  0.21920832713E+02 -0.75176254365E+02  0.82584451561E+02  0.47000000000E+01 0.  1.
<mgrwt>
<rscale>  0 0.29935458E+03</rscale>
<asrwt>0</asrwt>
<pdfrwt beam="1">  1       21 0.96900624E-02 0.29935458E+03</pdfrwt>
<pdfrwt beam="2">  1       21 0.54721567E-01 0.29935458E+03</pdfrwt>
<totfact> 0.26335427E+05</totfact>
</mgrwt>
</event>
<event>
 8    1  0.9691636E-006  0.3399393E+03  0.7546771E-02  0.1066822E+00
         21   -1    0    0  504  503  0.00000000000E+00  0.00000000000E+00  0.87165487679E+02  0.87165487679E+02  0.00000000000E+00 0.  1.
         21   -1    0    0  503  504 -0.00000000000E+00 -0.00000000000E+00 -0.33143479839E+03  0.33143479839E+03  0.00000000000E+00 0.  1.
         25    2    1    2    0    0 -0.59498269461E+02  0.14380225226E+02 -0.19968480322E+01  0.13919461096E+03  0.12499726946E+03 0.  0.
         25    2    1    2    0    0  0.59498269461E+02 -0.14380225226E+02 -0.24227246268E+03  0.27940567511E+03  0.12499900065E+03 0.  0.
          5    1    3    3  501    0 -0.74123307454E+02 -0.32950155193E+02  0.21668754357E+02  0.84092819852E+02  0.47000000000E+01 0.  1.
         -5    1    3    3    0  501  0.14625037994E+02  0.47330380420E+02 -0.23665602390E+02  0.55101791109E+02  0.47000000000E+01 0.  1.
          5    1    4    4  502    0  0.72304196955E+02 -0.10830158730E+02 -0.55014850887E+02  0.91618300866E+02  0.47000000000E+01 0. -1.
         -5    1    4    4    0  502 -0.12805927494E+02 -0.35500664960E+01 -0.18725761179E+03  0.18778737425E+03  0.47000000000E+01 0. -1.
<mgrwt>
<rscale>  0 0.33993926E+03</rscale>
<asrwt>0</asrwt>
<pdfrwt beam="1">  1       21 0.13410075E-01 0.33993926E+03</pdfrwt>
<pdfrwt beam="2">  1       21 0.50989969E-01 0.33993926E+03</pdfrwt>
<totfact> 0.16892663E+05</totfact>
</mgrwt>
</event>
<event>
 8    1  0.9691636E-006  0.3989614E+03  0.7546771E-02  0.1044140E+00
         21   -1    0    0  504  503  0.00000000000E+00  0.00000000000E+00  0.11698100330E+03  0.11698100330E+03  0.00000000000E+00 0.  1.
         21   -1    0    0  503  504 -0.00000000000E+00 -0.00000000000E+00 -0.34016256405E+03  0.34016256405E+03  0.00000000000E+00 0.  1.
         25    2    1    2    0    0 -0.11296886587E+03  0.76164352202E+02 -0.25811897153E+02  0.18669119380E+03  0.12499749839E+03 0.  0.
         25    2    1    2    0    0  0.11296886587E+03 -0.76164352202E+02 -0.19736966360E+03  0.27045237356E+03  0.12500691602E+03 0.  0.
          5    1    3    3  501    0 -0.48540358224E+02 -0.29614225355E+02 -0.26112214889E+02  0.62746366320E+02  0.47000000000E+01 0.  1.
         -5    1    3    3    0  501 -0.64428507646E+02  0.10577857756E+03  0.30031773566E+00  0.12394482748E+03  0.47000000000E+01 0.  1.
          5    1    4    4  502    0  0.71307933657E+02 -0.52115737669E+02 -0.20334853200E+03  0.22175118259E+03  0.47000000000E+01 0.  1.
         -5    1    4    4    0  502  0.41660932214E+02 -0.24048614532E+02  0.59788684053E+01  0.48701190963E+02  0.47000000000E+01 0.  1.
<mgrwt>
<rscale>  0 0.39896144E+03</rscale>
<asrwt>0</asrwt>
<pdfrwt beam="1">  1       21 0.17997077E-01 0.39896144E+03</pdfrwt>
<pdfrwt beam="2">  1       21 0.52332702E-01 0.39896144E+03</pdfrwt>
<totfact> 0.91505158E+04</totfact>
</mgrwt>
</event>
<event>
 8    1  0.9691636E-006  0.5987503E+03  0.7546771E-02  0.9908002E-01
         21   -1    0    0  504  503  0.00000000000E+00  0.00000000000E+00  0.14076441095E+04  0.14076441095E+04  0.00000000000E+00 0. -1.
         21   -1    0    0  503  504 -0.00000000000E+00 -0.00000000000E+00 -0.63670549042E+02  0.63670549042E+02  0.00000000000E+00 0. -1.
         25    2    1    2    0    0 -0.24181140280E+03 -0.11003313051E+03  0.52828533040E+03  0.60439277660E+03  0.12500077498E+03 0.  0.
         25    2    1    2    0    0  0.24181140280E+03  0.11003313051E+03  0.81568823010E+03  0.86692188199E+03  0.12500486558E+03 0.  0.
          5    1    3    3  501    0 -0.17693900112E+02 -0.48110552308E+02  0.16677321754E+03  0.17453680252E+03  0.47000000000E+01 0. -1.
         -5    1    3    3    0  501 -0.22411750269E+03 -0.61922578202E+02  0.36151211287E+03  0.42985597408E+03  0.47000000000E+01 0. -1.
          5    1    4    4  502    0  0.86234252608E+01  0.33993847976E+01  0.19583807871E+03  0.19611364652E+03  0.47000000000E+01 0. -1.
         -5    1    4    4    0  502  0.23318797754E+03  0.10663374571E+03  0.61985015139E+03  0.67080823547E+03  0.47000000000E+01 0. -1.
<mgrwt>
<rscale>  0 0.59875028E+03</rscale>
<asrwt>0</asrwt>
<pdfrwt beam="1">  1       21 0.21656061E+00 0.59875028E+03</pdfrwt>
<pdfrwt beam="2">  1       21 0.97954701E-02 0.59875028E+03</pdfrwt>
<totfact> 0.73028309E+03</totfact>
</mgrwt>
</event>
<event>
 8    1  0.9691636E-006  0.5938210E+03  0.7546771E-02  0.9918309E-01
         21   -1    0    0  504  503  0.00000000000E+00  0.00000000000E+00  0.94867492356E+03  0.94867492356E+03  0.00000000000E+00 0. -1.
         21   -1    0    0  503  504 -0.00000000000E+00 -0.00000000000E+00 -0.92925244785E+02  0.92925244785E+02  0.00000000000E+00 0. -1.
         25    2    1    2    0    0  0.22933744169E+03  0.13879945994E+03  0.38247716865E+03  0.48350249231E+03  0.12499969317E+03 0.  0.
         25    2    1    2    0    0 -0.22933744169E+03 -0.13879945994E+03  0.47327251013E+03  0.55809767603E+03  0.12500077965E+03 0.  0.
          5    1    3    3  501    0  0.10388514708E+03 -0.98668900359E+00  0.10019485819E+03  0.14440982289E+03  0.47000000000E+01 0.  1.
         -5    1    3    3    0  501  0.12545229461E+03  0.13978614895E+03  0.28228231046E+03  0.33909266942E+03  0.47000000000E+01 0.  1.
          5    1    4    4  502    0  0.60799885372E+01 -0.36650013681E+02  0.42381514934E+02  0.56555040196E+02  0.47000000000E+01 0. -1.
         -5    1    4    4    0  502 -0.23541743022E+03 -0.10214944626E+03  0.43089099519E+03  0.50154263584E+03  0.47000000000E+01 0. -1.
<mgrwt>
<rscale>  0 0.59382102E+03</rscale>
<asrwt>0</asrwt>
<pdfrwt beam="1">  1       21 0.14594998E+00 0.59382102E+03</pdfrwt>
<pdfrwt beam="2">  1       21 0.14296192E-01 0.59382102E+03</pdfrwt>
<totfact> 0.11724452E+04</totfact>
</mgrwt>
</event>
<event>
 8    1  0.9691636E-006  0.3217168E+03  0.7546771E-02  0.1074862E+00
         21   -1    0    0  504  503  0.00000000000E+00  0.00000000000E+00  0.36539210427E+03  0.36539210427E+03  0.00000000000E+00 0. -1.
         21   -1    0    0  503  504 -0.00000000000E+00 -0.00000000000E+00 -0.70815522350E+02  0.70815522350E+02  0.00000000000E+00 0. -1.
         25    2    1    2    0    0  0.88183322814E+02  0.23980179402E+02  0.20638033503E+03  0.25801152906E+03  0.12500303602E+03 0.  0.
         25    2    1    2    0    0 -0.88183322814E+02 -0.23980179402E+02  0.88196246890E+02  0.17819609756E+03  0.12499569510E+03 0.  0.
          5    1    3    3  501    0  0.54629480886E+02  0.75222717742E+02  0.11601278253E+03  0.14874102715E+03  0.47000000000E+01 0.  1.
         -5    1    3    3    0  501  0.33553841928E+02 -0.51242538340E+02  0.90367552502E+02  0.10927050192E+03  0.47000000000E+01 0.  1.
          5    1    4    4  502    0  0.93840964264E+01 -0.40794887422E+02 -0.46573232252E+01  0.42380004308E+02  0.47000000000E+01 0.  1.
         -5    1    4    4    0  502 -0.97567419240E+02  0.16814708020E+02  0.92853570115E+02  0.13581609325E+03  0.47000000000E+01 0.  1.
<mgrwt>
<rscale>  0 0.32171685E+03</rscale>
<asrwt>0</asrwt>
<pdfrwt beam="1">  1       21 0.56214169E-01 0.32171685E+03</pdfrwt>
<pdfrwt beam="2">  1       21 0.10894696E-01 0.32171685E+03</pdfrwt>
<totfact> 0.20064055E+05</totfact>
</mgrwt>
</event>
<event>
 8    1  0.9691636E-006  0.6630319E+03  0.7546771E-02  0.9782628E-01
         21   -1    0    0  504  503  0.00000000000E+00  0.00000000000E+00  0.26228018798E+03  0.26228018798E+03  0.00000000000E+00 0.  1.
         21   -1    0    0  503  504 -0.00000000000E+00 -0.00000000000E+00 -0.41902832420E+03  0.41902832420E+03  0.00000000000E+00 0.  1.
         25    2    1    2    0    0 -0.96128308891E+01  0.81127492343E+02 -0.38251304370E+03  0.41062847967E+03  0.12500177273E+03 0.  0.
         25    2    1    2    0    0  0.96128308891E+01 -0.81127492343E+02  0.22576490748E+03  0.27068003251E+03  0.12499523998E+03 0.  0.
          5    1    3    3  501    0 -0.25022245505E+01  0.10308760233E+03 -0.36964328572E+03  0.38378583033E+03  0.47000000000E+01 0. -1.
         -5    1    3    3    0  501 -0.71106063387E+01 -0.21960109989E+02 -0.12869757977E+02  0.26842649340E+02  0.47000000000E+01 0. -1.
          5    1    4    4  502    0 -0.53935235911E+02 -0.40005652310E+02  0.68268473254E+02  0.95875629489E+02  0.47000000000E+01 0.  1.
         -5    1    4    4    0  502  0.63548066800E+02 -0.41121840033E+02  0.15749643422E+03  0.17480440302E+03  0.47000000000E+01 0.  1.
<mgrwt>
<rscale>  0 0.66303191E+03</rscale>
<asrwt>0</asrwt>
<pdfrwt beam="1">  1       21 0.40350799E-01 0.66303191E+03</pdfrwt>
<pdfrwt beam="2">  1       21 0.64465895E-01 0.66303191E+03</pdfrwt>
<totfact> 0.11187894E+04</totfact>
</mgrwt>
</event>
<event>
 8    1  0.9691636E-006  0.2953716E+03  0.7546771E-02  0.1087577E+00
         21   -1    0    0  504  503  0.00000000000E+00  0.00000000000E+00  0.77267089611E+02  0.77267089611E+02  0.00000000000E+00 0. -1.
         21   -1    0    0  503  504 -0.00000000000E+00 -0.00000000000E+00 -0.28228187771E+03  0.28228187771E+03  0.00000000000E+00 0. -1.
         25    2    1    2    0    0 -0.62978546141E+02  0.44905738528E+02 -0.11981806401E+03  0.18964357252E+03  0.12500197402E+03 0.  0.
         25    2    1    2    0    0  0.62978546141E+02 -0.44905738528E+02 -0.85196724083E+02  0.16990539480E+03  0.12500615489E+03 0.  0.
          5    1    3    3  501    0 -0.16868463439E+02 -0.30310927535E+02  0.63903466360E+01  0.35584040200E+02  0.47000000000E+01 0.  1.
         -5    1    3    3    0  501 -0.46110082702E+02  0.75216666063E+02 -0.12620841065E+03  0.15405953232E+03  0.47000000000E+01 0.  1.
          5    1    4    4  502    0  0.61555819260E+02 -0.22994361150E+02  0.14714752894E+02  0.67501655403E+02  0.47000000000E+01 0.  1.
         -5    1    4    4    0  502  0.14227268812E+01 -0.21911377378E+02 -0.99911476977E+02  0.10240373939E+03  0.47000000000E+01 0.  1.
<mgrwt>
<rscale>  0 0.29537162E+03</rscale>
<asrwt>0</asrwt>
<pdfrwt beam="1">  1       21 0.11887244E-01 0.29537162E+03</pdfrwt>
<pdfrwt beam="2">  1       21 0.43427982E-01 0.29537162E+03</pdfrwt>
<totfact> 0.29689694E+05</totfact>
</mgrwt>
</event>
<event>
 8    1  0.9691636E-006  0.3079628E+03  0.7546771E-02  0.1081326E+00
         21   -1    0    0  504  503  0.00000000000E+00  0.00000000000E+00  0.51203356406E+02  0.51203356406E+02  0.00000000000E+00 0.  1.
         21   -1    0    0  503  504 -0.00000000000E+00 -0.00000000000E+00 -0.46306087434E+03  0.46306087434E+03  0.00000000000E+00 0.  1.
         25    2    1    2    0    0 -0.86136194393E+02  0.24348588684E+02 -0.19176337537E+03  0.24578443361E+03  0.12499799166E+03 0.  0.
         25    2    1    2    0    0  0.86136194393E+02 -0.24348588684E+02 -0.22009414256E+03  0.26847979713E+03  0.12501068803E+03 0.  0.
          5    1    3    3  501    0 -0.10150127406E+03  0.53736958307E+02 -0.17206706991E+03  0.20692833511E+03  0.47000000000E+01 0.  1.
         -5    1    3    3    0  501  0.15365079667E+02 -0.29388369623E+02 -0.19696305461E+02  0.38856098505E+02  0.47000000000E+01 0.  1.
          5    1    4    4  502    0  0.84553122708E+02  0.36666305938E+02 -0.13982884434E+03  0.16753460616E+03  0.47000000000E+01 0. -1.
         -5    1    4    4    0  502  0.15830716843E+01 -0.61014894622E+02 -0.80265298224E+02  0.10094519097E+03  0.47000000000E+01 0. -1.
<mgrwt>
<rscale>  0 0.30796280E+03</rscale>
<asrwt>0</asrwt>
<pdfrwt beam="1">  1       21 0.78774396E-02 0.30796280E+03</pdfrwt>
<pdfrwt beam="2">  1       21 0.71240133E-01 0.30796280E+03</pdfrwt>
<totfact> 0.21293408E+05</totfact>
</mgrwt>
</event>
<event>
 8    1  0.9691636E-006  0.4498971E+03  0.7546771E-02  0.1027753E+00
         21   -1    0    0  504  503  0.00000000000E+00  0.00000000000E+00  0.15299649393E+04  0.15299649393E+04  0.00000000000E+00 0. -1.
         21   -1    0    0  503  504 -0.00000000000E+00 -0.00000000000E+00 -0.33073868169E+02  0.33073868169E+02  0.00000000000E+00 0. -1.
         25    2    1    2    0    0 -0.10641536401E+03  0.15187641470E+03  0.83266552294E+03  0.86217483808E+03  0.12499161286E+03 0.  0.
         25    2    1    2    0    0  0.10641536401E+03 -0.15187641470E+03  0.66422554824E+03  0.70086396943E+03  0.12499619867E+03 0.  0.
          5    1    3    3  501    0  0.27281250603E+02  0.31689861674E+02  0.11980248903E+03  0.12697732217E+03  0.47000000000E+01 0.  1.
         -5    1    3    3    0  501 -0.13369661461E+03  0.12018655303E+03  0.71286303392E+03  0.73519751592E+03  0.47000000000E+01 0.  1.
          5    1    4    4  502    0  0.75913239993E+02 -0.14873822110E+03  0.38190933871E+03  0.41684854734E+03  0.47000000000E+01 0. -1.
         -5    1    4    4    0  502  0.30502124015E+02 -0.31381935989E+01  0.28231620953E+03  0.28401542210E+03  0.47000000000E+01 0. -1.
<mgrwt>
<rscale>  0 0.44989714E+03</rscale>
<asrwt>0</asrwt>
<pdfrwt beam="1">  1       21 0.23537917E+00 0.44989714E+03</pdfrwt>
<pdfrwt beam="2">  1       21 0.50882886E-02 0.44989714E+03</pdfrwt>
<totfact> 0.18449726E+04</totfact>
</mgrwt>
</event>
<event>
 8    1  0.9691636E-006  0.3908309E+03  0.7546771E-02  0.1047002E+00
         21   -1    0    0  504  503  0.00000000000E+00  0.00000000000E+00  0.27834458687E+03  0.27834458687E+03  0.00000000000E+00 0.  1.
         21   -1    0    0  503  504 -0.00000000000E+00 -0.00000000000E+00 -0.13719399060E+03  0.13719399060E+03  0.00000000000E+00 0.  1.
         25    2    1    2    0    0 -0.37869038315E+02  0.14049805174E+03  0.30933088540E+02  0.19430665476E+03  0.12499781403E+03 0.  0.
         25    2    1    2    0    0  0.37869038315E+02 -0.14049805174E+03  0.11021750773E+03  0.22123192271E+03  0.12498759143E+03 0.  0.
          5    1    3    3  501    0 -0.34484380712E+02  0.13653020495E+03  0.68094126441E+02  0.15648824055E+03  0.47000000000E+01 0. -1.
         -5    1    3    3    0  501 -0.33846576026E+01  0.39678467893E+01 -0.37161037901E+02  0.37818414207E+02  0.47000000000E+01 0. -1.
          5    1    4    4  502    0  0.16987769509E+02 -0.51455798985E+02  0.11738433225E+03  0.12937331649E+03  0.47000000000E+01 0.  1.
         -5    1    4    4    0  502  0.20881268805E+02 -0.89042252751E+02 -0.71668245222E+01  0.91858606214E+02  0.47000000000E+01 0.  1.
<mgrwt>
<rscale>  0 0.39083093E+03</rscale>
<asrwt>0</asrwt>
<pdfrwt beam="1">  1       21 0.42822244E-01 0.39083093E+03</pdfrwt>
<pdfrwt beam="2">  1       21 0.21106768E-01 0.39083093E+03</pdfrwt>
<totfact> 0.10337687E+05</totfact>
</mgrwt>
</event>
<event>
 8    1  0.9691636E-006  0.5327983E+03  0.7546771E-02  0.1005556E+00
         21   -1    0    0  504  503  0.00000000000E+00  0.00000000000E+00  0.25443276558E+03  0.25443276558E+03  0.00000000000E+00 0.  1.
         21   -1    0    0  503  504 -0.00000000000E+00 -0.00000000000E+00 -0.27892835224E+03  0.27892835224E+03  0.00000000000E+00 0.  1.
         25    2    1    2    0    0  0.20715523795E+03  0.34915168233E+02 -0.11824745631E+03  0.27154828309E+03  0.12499459005E+03 0.  0.
         25    2    1    2    0    0 -0.20715523795E+03 -0.34915168233E+02  0.93751869651E+02  0.26181283474E+03  0.12499674310E+03 0.  0.
          5    1    3    3  501    0 -0.10631844534E+02  0.22227513029E+02 -0.45368924577E+01  0.25490622724E+02  0.47000000000E+01 0.  1.
         -5    1    3    3    0  501  0.21778708248E+03  0.12687655204E+02 -0.11371056386E+03  0.24605766036E+03  0.47000000000E+01 0.  1.
          5    1    4    4  502    0 -0.22169550754E+03 -0.28288342125E+02  0.72907778304E+02  0.23513137285E+03  0.47000000000E+01 0.  1.
         -5    1    4    4    0  502  0.14540269590E+02 -0.66268261081E+01  0.20844091347E+02  0.26681461881E+02  0.47000000000E+01 0.  1.
<mgrwt>
<rscale>  0 0.53279832E+03</rscale>
<asrwt>0</asrwt>
<pdfrwt beam="1">  1       21 0.39143503E-01 0.53279832E+03</pdfrwt>
<pdfrwt beam="2">  1       21 0.42912054E-01 0.53279832E+03</pdfrwt>
<totfact> 0.29430804E+04</totfact>
</mgrwt>
</event>
<event>
 8    1  0.9691636E-006  0.3302365E+03  0.7546771E-02  0.1071032E+00
         21   -1    0    0  504  503  0.00000000000E+00  0.00000000000E+00  0.60692559037E+03  0.60692559037E+03  0.00000000000E+00 0.  1.
         21   -1    0    0  503  504 -0.00000000000E+00 -0.00000000000E+00 -0.44921545256E+02  0.44921545256E+02  0.00000000000E+00 0.  1.
         25    2    1    2    0    0  0.91281958501E+02 -0.86629141278E+01  0.39321384742E+03  0.42267080238E+03  0.12500414133E+03 0.  0.
         25    2    1    2    0    0 -0.91281958501E+02  0.86629141278E+01  0.16879019769E+03  0.22917633325E+03  0.12499687538E+03 0.  0.
          5    1    3    3  501    0  0.83157957397E+02 -0.56711177280E+02  0.31172939212E+03  0.32761060334E+03  0.47000000000E+01 0.  1.
         -5    1    3    3    0  501  0.81240011040E+01  0.48048263152E+02  0.81484455295E+02  0.95060199036E+02  0.47000000000E+01 0.  1.
          5    1    4    4  502    0 -0.25408973189E+02  0.63737431167E+02  0.68525057775E+02  0.97086814724E+02  0.47000000000E+01 0.  1.
         -5    1    4    4    0  502 -0.65872985312E+02 -0.55074517039E+02  0.10026513992E+03  0.13208951852E+03  0.47000000000E+01 0.  1.
<mgrwt>
<rscale>  0 0.33023649E+03</rscale>
<asrwt>0</asrwt>
<pdfrwt beam="1">  1       21 0.93373162E-01 0.33023649E+03</pdfrwt>
<pdfrwt beam="2">  1       21 0.69110074E-02 0.33023649E+03</pdfrwt>
<totfact> 0.14295607E+05</totfact>
</mgrwt>
</event>
<event>
 8    1  0.9691636E-006  0.3852453E+03  0.7546771E-02  0.1049012E+00
         21   -1    0    0  504  503  0.00000000000E+00  0.00000000000E+00  0.11535339741E+03  0.11535339741E+03  0.00000000000E+00 0. -1.
         21   -1    0    0  503  504 -0.00000000000E+00 -0.00000000000E+00 -0.32165063723E+03  0.32165063723E+03  0.00000000000E+00 0. -1.
         25    2    1    2    0    0  0.13054318661E+03 -0.51590428937E+02 -0.15094333800E+03  0.24106442210E+03  0.12500027356E+03 0.  0.
         25    2    1    2    0    0 -0.13054318661E+03  0.51590428937E+02 -0.55353901821E+02  0.19593961254E+03  0.12500072554E+03 0.  0.
          5    1    3    3  501    0  0.13351065118E+03 -0.49013073245E+02 -0.16962171376E+03  0.22140684521E+03  0.47000000000E+01 0. -1.
         -5    1    3    3    0  501 -0.29674645692E+01 -0.25773556921E+01  0.18678375759E+02  0.19657576893E+02  0.47000000000E+01 0. -1.
          5    1    4    4  502    0 -0.29513092526E+01  0.59647045409E+02 -0.14387715799E+02  0.61608251219E+02  0.47000000000E+01 0.  1.
         -5    1    4    4    0  502 -0.12759187736E+03 -0.80566164719E+01 -0.40966186022E+02  0.13433136132E+03  0.47000000000E+01 0.  1.
<mgrwt>
<rscale>  0 0.38524534E+03</rscale>
<asrwt>0</asrwt>
<pdfrwt beam="1">  1       21 0.17746677E-01 0.38524534E+03</pdfrwt>
<pdfrwt beam="2">  1       21 0.49484713E-01 0.38524534E+03</pdfrwt>
<totfact> 0.10612464E+05</totfact>
</mgrwt>
</event>
<event>
 8    1  0.9691636E-006  0.2935804E+03  0.7546771E-02  0.1088494E+00
         21   -1    0    0  504  503  0.00000000000E+00  0.00000000000E+00  0.80092434399E+02  0.80092434399E+02  0.00000000000E+00 0. -1.
         21   -1    0    0  503  504 -0.00000000000E+00 -0.00000000000E+00 -0.26903111589E+03  0.26903111589E+03  0.00000000000E+00 0. -1.
         25    2    1    2    0    0 -0.24315565624E+02 -0.72877796347E+02 -0.99809195861E+02  0.17744746083E+03  0.12499322320E+03 0.  0.
         25    2    1    2    0    0  0.24315565624E+02  0.72877796347E+02 -0.89129485627E+02  0.17167608945E+03  0.12500477811E+03 0.  0.
          5    1    3    3  501    0 -0.88454504335E+01 -0.44783770717E+02 -0.12706441058E+03  0.13509730771E+03  0.47000000000E+01 0. -1.
         -5    1    3    3    0  501 -0.15470115191E+02 -0.28094025631E+02  0.27255214723E+02  0.42350153125E+02  0.47000000000E+01 0. -1.
          5    1    4    4  502    0 -0.19799727138E+02  0.93623701989E+02 -0.71787965570E+02  0.11972062800E+03  0.47000000000E+01 0.  1.
         -5    1    4    4    0  502  0.44115292762E+02 -0.20745905642E+02 -0.17341520056E+02  0.51955461447E+02  0.47000000000E+01 0.  1.
<mgrwt>
<rscale>  0 0.29358036E+03</rscale>
<asrwt>0</asrwt>
<pdfrwt beam="1">  1       21 0.12321913E-01 0.29358036E+03</pdfrwt>
<pdfrwt beam="2">  1       21 0.41389403E-01 0.29358036E+03</pdfrwt>
<totfact> 0.30728168E+05</totfact>
</mgrwt>
</event>
<event>
 8    1  0.9691636E-006  0.2616410E+03  0.7546771E-02  0.1106161E+00
         21   -1    0    0  504  503  0.00000000000E+00  0.00000000000E+00  0.48733917701E+02  0.48733917701E+02  0.00000000000E+00 0.  1.
         21   -1    0    0  503  504 -0.00000000000E+00 -0.00000000000E+00 -0.35117225239E+03  0.35117225239E+03  0.00000000000E+00 0.  1.
         25    2    1    2    0    0 -0.77847342545E-01  0.19694513828E+02 -0.10053217144E+03  0.16161870135E+03  0.12500402871E+03 0.  0.
         25    2    1    2    0    0  0.77847342545E-01 -0.19694513828E+02 -0.20190616325E+03  0.23828746875E+03  0.12500775603E+03 0.  0.
          5    1    3    3  501    0  0.35851926471E+02  0.45203121173E+02 -0.10199965388E+03  0.11728044248E+03  0.47000000000E+01 0. -1.
         -5    1    3    3    0  501 -0.35929773813E+02 -0.25508607345E+02  0.14674824386E+01  0.44338258870E+02  0.47000000000E+01 0. -1.
          5    1    4    4  502    0  0.53666688056E+02  0.14276719880E+02 -0.13453946929E+03  0.14562588003E+03  0.47000000000E+01 0. -1.
         -5    1    4    4    0  502 -0.53588840713E+02 -0.33971233708E+02 -0.67366693956E+02  0.92661588715E+02  0.47000000000E+01 0. -1.
<mgrwt>
<rscale>  0 0.26164097E+03</rscale>
<asrwt>0</asrwt>
<pdfrwt beam="1">  1       21 0.74975256E-02 0.26164097E+03</pdfrwt>
<pdfrwt beam="2">  1       21 0.54026502E-01 0.26164097E+03</pdfrwt>
<totfact> 0.42859247E+05</totfact>
</mgrwt>
</event>
<event>
 8    1  0.9691636E-006  0.2689115E+03  0.7546771E-02  0.1101904E+00
         21   -1    0    0  504  503  0.00000000000E+00  0.00000000000E+00  0.58201361535E+02  0.58201361535E+02  0.00000000000E+00 0. -1.
         21   -1    0    0  503  504 -0.00000000000E+00 -0.00000000000E+00 -0.31061730310E+03  0.31061730310E+03  0.00000000000E+00 0. -1.
         25    2    1    2    0    0  0.35382136699E+02  0.14411901216E+02 -0.16934314744E+03  0.21395324379E+03  0.12505714874E+03 0.  0.
         25    2    1    2    0    0 -0.35382136699E+02 -0.14411901216E+02 -0.83072794125E+02  0.15486542084E+03  0.12499044345E+03 0.  0.
          5    1    3    3  501    0 -0.16732374254E+02  0.59314803160E+02 -0.79351358068E+02  0.10058303162E+03  0.47000000000E+01 0. -1.
         -5    1    3    3    0  501  0.52114510954E+02 -0.44902901945E+02 -0.89991789368E+02  0.11337021218E+03  0.47000000000E+01 0. -1.
          5    1    4    4  502    0  0.50266982127E+01 -0.64825364144E+02 -0.33498496310E+02  0.73292801736E+02  0.47000000000E+01 0. -1.
         -5    1    4    4    0  502 -0.40408834912E+02  0.50413462928E+02 -0.49574297815E+02  0.81572619102E+02  0.47000000000E+01 0. -1.
<mgrwt>
<rscale>  0 0.26891151E+03</rscale>
<asrwt>0</asrwt>
<pdfrwt beam="1">  1       21 0.89540555E-02 0.26891151E+03</pdfrwt>
<pdfrwt beam="2">  1       21 0.47787278E-01 0.26891151E+03</pdfrwt>
<totfact> 0.40582654E+05</totfact>
</mgrwt>
</event>
<event>
 8    1  0.9691636E-006  0.5457763E+03  0.7546771E-02  0.1002476E+00
         21   -1    0    0  504  503  0.00000000000E+00  0.00000000000E+00  0.74792220650E+02  0.74792220650E+02  0.00000000000E+00 0. -1.
         21   -1    0    0  503  504 -0.00000000000E+00 -0.00000000000E+00 -0.99566434083E+03  0.99566434083E+03  0.00000000000E+00 0. -1.
         25    2    1    2    0    0  0.21530498185E+03  0.22946078721E+02 -0.67492542838E+03  0.71974695313E+03  0.12501433886E+03 0.  0.
         25    2    1    2    0    0 -0.21530498185E+03 -0.22946078721E+02 -0.24594669180E+03  0.35070960836E+03  0.12499878579E+03 0.  0.
          5    1    3    3  501    0  0.13346880108E+03 -0.47524530548E+02 -0.36977118724E+03  0.39601177101E+03  0.47000000000E+01 0.  1.
         -5    1    3    3    0  501  0.81836180768E+02  0.70470609268E+02 -0.30515424114E+03  0.32373518211E+03  0.47000000000E+01 0.  1.
          5    1    4    4  502    0 -0.38030767850E+02 -0.39174837997E+02 -0.12200180967E+03  0.13374430380E+03  0.47000000000E+01 0.  1.
         -5    1    4    4    0  502 -0.17727421400E+03  0.16228759276E+02 -0.12394488213E+03  0.21696530456E+03  0.47000000000E+01 0.  1.
<mgrwt>
<rscale>  0 0.54577632E+03</rscale>
<asrwt>0</asrwt>
<pdfrwt beam="1">  1       21 0.11506495E-01 0.54577632E+03</pdfrwt>
<pdfrwt beam="2">  1       21 0.15317913E+00 0.54577632E+03</pdfrwt>
<totfact> 0.15497830E+04</totfact>
</mgrwt>
</event>
<event>
 8    1  0.9691636E-006  0.3328756E+03  0.7546771E-02  0.1069872E+00
         21   -1    0    0  504  503  0.00000000000E+00  0.00000000000E+00  0.12995258717E+03  0.12995258717E+03  0.00000000000E+00 0. -1.
         21   -1    0    0  503  504 -0.00000000000E+00 -0.00000000000E+00 -0.21316654559E+03  0.21316654559E+03  0.00000000000E+00 0. -1.
         25    2    1    2    0    0 -0.33103416453E+02  0.81632624135E+02 -0.10932652633E+03  0.18798540208E+03  0.12500600199E+03 0.  0.
         25    2    1    2    0    0  0.33103416453E+02 -0.81632624135E+02  0.26112567913E+02  0.15513373068E+03  0.12499954675E+03 0.  0.
          5    1    3    3  501    0 -0.86296097618E+00 -0.31887586658E+02 -0.10266895635E+02  0.33838765203E+02  0.47000000000E+01 0. -1.
         -5    1    3    3    0  501 -0.32240455477E+02  0.11352021079E+03 -0.99059630692E+02  0.15414663688E+03  0.47000000000E+01 0. -1.
          5    1    4    4  502    0 -0.40836464133E+02 -0.30378120302E+02  0.38777409273E+02  0.64157809079E+02  0.47000000000E+01 0.  1.
         -5    1    4    4    0  502  0.73939880586E+02 -0.51254503833E+02 -0.12664841360E+02  0.90975921600E+02  0.47000000000E+01 0.  1.
<mgrwt>
<rscale>  0 0.33287562E+03</rscale>
<asrwt>0</asrwt>
<pdfrwt beam="1">  1       21 0.19992706E-01 0.33287562E+03</pdfrwt>
<pdfrwt beam="2">  1       21 0.32794853E-01 0.33287562E+03</pdfrwt>
<totfact> 0.19947145E+05</totfact>
</mgrwt>
</event>
<event>
 8    1  0.9691636E-006  0.3605189E+03  0.7546771E-02  0.1058379E+00
         21   -1    0    0  504  503  0.00000000000E+00  0.00000000000E+00  0.22596763860E+03  0.22596763860E+03  0.00000000000E+00 0.  1.
         21   -1    0    0  503  504 -0.00000000000E+00 -0.00000000000E+00 -0.14379698289E+03  0.14379698289E+03  0.00000000000E+00 0.  1.
         25    2    1    2    0    0 -0.33825805460E+02 -0.98353931708E+02  0.12085320130E+03  0.20260988452E+03  0.12501035175E+03 0.  0.
         25    2    1    2    0    0  0.33825805460E+02  0.98353931708E+02 -0.38682545589E+02  0.16715473697E+03  0.12500674286E+03 0.  0.
          5    1    3    3  501    0  0.14188890871E+02  0.23445140327E+02  0.39824601219E+02  0.48570444628E+02  0.47000000000E+01 0. -1.
         -5    1    3    3    0  501 -0.48014696330E+02 -0.12179907204E+03  0.81028600077E+02  0.15403943989E+03  0.47000000000E+01 0. -1.
          5    1    4    4  502    0 -0.38249783566E+02  0.75142742308E+02 -0.63539748991E+01  0.84687311101E+02  0.47000000000E+01 0. -1.
         -5    1    4    4    0  502  0.72075589026E+02  0.23211189400E+02 -0.32328570690E+02  0.82467425870E+02  0.47000000000E+01 0. -1.
<mgrwt>
<rscale>  0 0.36051887E+03</rscale>
<asrwt>0</asrwt>
<pdfrwt beam="1">  1       21 0.34764252E-01 0.36051887E+03</pdfrwt>
<pdfrwt beam="2">  1       21 0.22122613E-01 0.36051887E+03</pdfrwt>
<totfact> 0.14556387E+05</totfact>
</mgrwt>
</event>
<event>
 8    1  0.9691636E-006  0.3858043E+03  0.7546771E-02  0.1048809E+00
         21   -1    0    0  504  503  0.00000000000E+00  0.00000000000E+00  0.16292225844E+03  0.16292225844E+03  0.00000000000E+00 0.  1.
         21   -1    0    0  503  504 -0.00000000000E+00 -0.00000000000E+00 -0.22839869532E+03  0.22839869532E+03  0.00000000000E+00 0.  1.
         25    2    1    2    0    0 -0.67172711421E+02 -0.94676449604E+02  0.58606148805E+02  0.18037454969E+03  0.12499797689E+03 0.  0.
         25    2    1    2    0    0  0.67172711421E+02  0.94676449604E+02 -0.12408258568E+03  0.21094640407E+03  0.12500437613E+03 0.  0.
          5    1    3    3  501    0 -0.22155054545E+02  0.97011458827E+01  0.61831836706E+02  0.66559933171E+02  0.47000000000E+01 0.  1.
         -5    1    3    3    0  501 -0.45017656876E+02 -0.10437759549E+03 -0.32256879010E+01  0.11381461652E+03  0.47000000000E+01 0.  1.
          5    1    4    4  502    0  0.58103014973E+01  0.76112797556E+02 -0.12513673941E+03  0.14665677995E+03  0.47000000000E+01 0. -1.
         -5    1    4    4    0  502  0.61362409924E+02  0.18563652047E+02  0.10541537315E+01  0.64289624117E+02  0.47000000000E+01 0. -1.
<mgrwt>
<rscale>  0 0.38580426E+03</rscale>
<asrwt>0</asrwt>
<pdfrwt beam="1">  1       21 0.25064963E-01 0.38580426E+03</pdfrwt>
<pdfrwt beam="2">  1       21 0.35138261E-01 0.38580426E+03</pdfrwt>
<totfact> 0.11141464E+05</totfact>
</mgrwt>
</event>
<event>
 8    1  0.9691636E-006  0.3118780E+03  0.7546771E-02  0.1079449E+00
         21   -1    0    0  504  503  0.00000000000E+00  0.00000000000E+00  0.56888417474E+03  0.56888417474E+03  0.00000000000E+00 0.  1.
         21   -1    0    0  503  504 -0.00000000000E+00 -0.00000000000E+00 -0.42745044448E+02  0.42745044448E+02  0.00000000000E+00 0.  1.
         25    2    1    2    0    0  0.13548761518E+02 -0.27834912598E+02  0.90723081343E+02  0.15756217311E+03  0.12504722951E+03 0.  0.
         25    2    1    2    0    0 -0.13548761518E+02  0.27834912598E+02  0.43541604894E+03  0.45406704608E+03  0.12502557881E+03 0.  0.
          5    1    3    3  501    0 -0.80500377385E+01 -0.72855233011E+02  0.31401061717E+02  0.79879939670E+02  0.47000000000E+01 0.  1.
         -5    1    3    3    0  501  0.21598799256E+02  0.45020320413E+02  0.59322019626E+02  0.77682233438E+02  0.47000000000E+01 0.  1.
          5    1    4    4  502    0 -0.82370668793E+01  0.16969499850E+02  0.43990708217E+03  0.44033639884E+03  0.47000000000E+01 0.  1.
         -5    1    4    4    0  502 -0.53116946384E+01  0.10865412748E+02 -0.44910332282E+01  0.13730647238E+02  0.47000000000E+01 0.  1.
<mgrwt>
<rscale>  0 0.31187805E+03</rscale>
<asrwt>0</asrwt>
<pdfrwt beam="1">  1       21 0.87520637E-01 0.31187805E+03</pdfrwt>
<pdfrwt beam="2">  1       21 0.65761611E-02 0.31187805E+03</pdfrwt>
<totfact> 0.18229517E+05</totfact>
</mgrwt>
</event>
<event>
 8    1  0.9691636E-006  0.2704180E+03  0.7546771E-02  0.1101041E+00
         21   -1    0    0  504  503  0.00000000000E+00  0.00000000000E+00  0.26493700754E+03  0.26493700754E+03  0.00000000000E+00 0. -1.
         21   -1    0    0  503  504 -0.00000000000E+00 -0.00000000000E+00 -0.69003110483E+02  0.69003110483E+02  0.00000000000E+00 0. -1.
         25    2    1    2    0    0  0.16398671417E+02  0.47134233131E+02  0.82037584452E+02  0.15762289745E+03  0.12499704069E+03 0.  0.
         25    2    1    2    0    0 -0.16398671417E+02 -0.47134233131E+02  0.11389631260E+03  0.17631722057E+03  0.12499935955E+03 0.  0.
          5    1    3    3  501    0 -0.28347056414E+02  0.44034528244E+02 -0.11462054262E+02  0.53815090569E+02  0.47000000000E+01 0.  1.
         -5    1    3    3    0  501  0.44745727831E+02  0.30997048871E+01  0.93499638714E+02  0.10380780688E+03  0.47000000000E+01 0.  1.
          5    1    4    4  502    0 -0.63019719048E+02 -0.56201981804E+02  0.56677211719E+02  0.10180640489E+03  0.47000000000E+01 0. -1.
         -5    1    4    4    0  502  0.46621047631E+02  0.90677486724E+01  0.57219100883E+02  0.74510815685E+02  0.47000000000E+01 0. -1.
<mgrwt>
<rscale>  0 0.27041803E+03</rscale>
<asrwt>0</asrwt>
<pdfrwt beam="1">  1       21 0.40759539E-01 0.27041803E+03</pdfrwt>
<pdfrwt beam="2">  1       21 0.10615863E-01 0.27041803E+03</pdfrwt>
<totfact> 0.41638088E+05</totfact>
</mgrwt>
</event>
<event>
 8    1  0.9691636E-006  0.2597559E+03  0.7546771E-02  0.1107290E+00
         21   -1    0    0  504  503  0.00000000000E+00  0.00000000000E+00  0.34474381528E+02  0.34474381528E+02  0.00000000000E+00 0. -1.
         21   -1    0    0  503  504 -0.00000000000E+00 -0.00000000000E+00 -0.48929918188E+03  0.48929918188E+03  0.00000000000E+00 0. -1.
         25    2    1    2    0    0  0.15289028621E+02 -0.18912719620E+02 -0.27888852754E+03  0.30658601176E+03  0.12499890580E+03 0.  0.
         25    2    1    2    0    0 -0.15289028621E+02  0.18912719620E+02 -0.17593627280E+03  0.21718755164E+03  0.12500166055E+03 0.  0.
          5    1    3    3  501    0 -0.64516163308E+01  0.30258975802E+02 -0.23486099360E+03  0.23693671155E+03  0.47000000000E+01 0.  1.
         -5    1    3    3    0  501  0.21740644952E+02 -0.49171695422E+02 -0.44027533949E+02  0.69649300207E+02  0.47000000000E+01 0.  1.
          5    1    4    4  502    0  0.26160654887E+02  0.91853062552E+01 -0.17187565669E+03  0.17416107797E+03  0.47000000000E+01 0. -1.
         -5    1    4    4    0  502 -0.41449683508E+02  0.97274133652E+01 -0.40606161112E+01  0.43026473675E+02  0.47000000000E+01 0. -1.
<mgrwt>
<rscale>  0 0.25975594E+03</rscale>
<asrwt>0</asrwt>
<pdfrwt beam="1">  1       21 0.53037514E-02 0.25975594E+03</pdfrwt>
<pdfrwt beam="2">  1       21 0.75276792E-01 0.25975594E+03</pdfrwt>
<totfact> 0.37756666E+05</totfact>
</mgrwt>
</event>
<event>
 8    1  0.9691636E-006  0.2705913E+03  0.7546771E-02  0.1100942E+00
         21   -1    0    0  504  503  0.00000000000E+00  0.00000000000E+00  0.12459989830E+03  0.12459989830E+03  0.00000000000E+00 0.  1.
         21   -1    0    0  503  504 -0.00000000000E+00 -0.00000000000E+00 -0.14690956662E+03  0.14690956662E+03  0.00000000000E+00 0.  1.
         25    2    1    2    0    0 -0.16701580262E+02  0.48398959552E+02 -0.18867027932E+02  0.13638654656E+03  0.12499569301E+03 0.  0.
         25    2    1    2    0    0  0.16701580262E+02 -0.48398959552E+02 -0.34426403887E+01  0.13512291836E+03  0.12499979690E+03 0.  0.
          5    1    3    3  501    0 -0.56282741085E+02  0.67582096137E+02  0.55211702745E+00  0.88076566098E+02  0.47000000000E+01 0.  1.
         -5    1    3    3    0  501  0.39581160824E+02 -0.19183136585E+02 -0.19419144960E+02  0.48309980463E+02  0.47000000000E+01 0.  1.
          5    1    4    4  502    0 -0.45070255973E+01 -0.16095400304E+02  0.59020959745E+02  0.61521856928E+02  0.47000000000E+01 0. -1.
         -5    1    4    4    0  502  0.21208605859E+02 -0.32303559248E+02 -0.62463600134E+02  0.73601061434E+02  0.47000000000E+01 0. -1.
<mgrwt>
<rscale>  0 0.27059133E+03</rscale>
<asrwt>0</asrwt>
<pdfrwt beam="1">  1       21 0.19169215E-01 0.27059133E+03</pdfrwt>
<pdfrwt beam="2">  1       21 0.22601472E-01 0.27059133E+03</pdfrwt>
<totfact> 0.45125037E+05</totfact>
</mgrwt>
</event>
<event>
 8    1  0.9691636E-006  0.2668551E+03  0.7546771E-02  0.1103093E+00
         21   -1    0    0  504  503  0.00000000000E+00  0.00000000000E+00  0.55407151877E+02  0.55407151877E+02  0.00000000000E+00 0.  1.
         21   -1    0    0  503  504 -0.00000000000E+00 -0.00000000000E+00 -0.32131072515E+03  0.32131072515E+03  0.00000000000E+00 0.  1.
         25    2    1    2    0    0 -0.46032235990E+02  0.33377492442E+01 -0.12322299916E+03  0.18149010848E+03  0.12499857852E+03 0.  0.
         25    2    1    2    0    0  0.46032235990E+02 -0.33377492442E+01 -0.14268057411E+03  0.19522776855E+03  0.12500411219E+03 0.  0.
          5    1    3    3  501    0 -0.85809565116E+02  0.18769328598E+02 -0.66069168763E+02  0.11001270028E+03  0.47000000000E+01 0. -1.
         -5    1    3    3    0  501  0.39777329126E+02 -0.15431579353E+02 -0.57153830397E+02  0.71477408198E+02  0.47000000000E+01 0. -1.
          5    1    4    4  502    0  0.40867722059E+02  0.14522045768E+02  0.71221254490E+01  0.44202660446E+02  0.47000000000E+01 0.  1.
         -5    1    4    4    0  502  0.51645139308E+01 -0.17859795012E+02 -0.14980269956E+03  0.15102510810E+03  0.47000000000E+01 0.  1.
<mgrwt>
<rscale>  0 0.26685511E+03</rscale>
<asrwt>0</asrwt>
<pdfrwt beam="1">  1       21 0.85241772E-02 0.26685511E+03</pdfrwt>
<pdfrwt beam="2">  1       21 0.49432419E-01 0.26685511E+03</pdfrwt>
<totfact> 0.41249268E+05</totfact>
</mgrwt>
</event>
<event>
 8    1  0.9691636E-006  0.2596708E+03  0.7546771E-02  0.1107341E+00
         21   -1    0    0  504  503  0.00000000000E+00  0.00000000000E+00  0.31649307132E+03  0.31649307132E+03  0.00000000000E+00 0.  1.
         21   -1    0    0  503  504 -0.00000000000E+00 -0.00000000000E+00 -0.53262579621E+02  0.53262579621E+02  0.00000000000E+00 0.  1.
         25    2    1    2    0    0 -0.20995063631E+02  0.28137795061E+02  0.13084180952E+03  0.18432988258E+03  0.12500159313E+03 0.  0.
         25    2    1    2    0    0  0.20995063631E+02 -0.28137795061E+02  0.13238868218E+03  0.18542576836E+03  0.12499369663E+03 0.  0.
          5    1    3    3  501    0 -0.36695988177E+02 -0.31468889592E+02  0.10801309946E+03  0.11843059662E+03  0.47000000000E+01 0.  1.
         -5    1    3    3    0  501  0.15700924546E+02  0.59606684653E+02  0.22828710065E+02  0.65899285961E+02  0.47000000000E+01 0.  1.
          5    1    4    4  502    0  0.12787626165E+02  0.46699342476E+02  0.26439028009E+02  0.55366634110E+02  0.47000000000E+01 0.  1.
         -5    1    4    4    0  502  0.82074374661E+01 -0.74837137536E+02  0.10594965417E+03  0.13005913425E+03  0.47000000000E+01 0.  1.
<mgrwt>
<rscale>  0 0.25967085E+03</rscale>
<asrwt>0</asrwt>
<pdfrwt beam="1">  1       21 0.48691240E-01 0.25967085E+03</pdfrwt>
<pdfrwt beam="2">  1       21 0.81942432E-02 0.25967085E+03</pdfrwt>
<totfact> 0.45696927E+05</totfact>
</mgrwt>
</event>
<event>
 8    1  0.9691636E-006  0.4547273E+03  0.7546771E-02  0.1026322E+00
         21   -1    0    0  504  503  0.00000000000E+00  0.00000000000E+00  0.15684896650E+03  0.15684896650E+03  0.00000000000E+00 0. -1.
         21   -1    0    0  503  504 -0.00000000000E+00 -0.00000000000E+00 -0.32957962816E+03  0.32957962816E+03  0.00000000000E+00 0. -1.
         25    2    1    2    0    0  0.26997465310E+02 -0.15611361975E+03  0.25671880533E+02  0.20343064528E+03  0.12499862632E+03 0.  0.
         25    2    1    2    0    0 -0.26997465310E+02  0.15611361975E+03 -0.19840254219E+03  0.28299794939E+03  0.12499578075E+03 0.  0.
          5    1    3    3  501    0  0.72491329068E+02 -0.11853531954E+03  0.28976365524E+00  0.13902441776E+03  0.47000000000E+01 0.  1.
         -5    1    3    3    0  501 -0.45493863759E+02 -0.37578300208E+02  0.25382116878E+02  0.64406227521E+02  0.47000000000E+01 0.  1.
          5    1    4    4  502    0 -0.42182365813E+02  0.18816875428E+02 -0.70655157350E+01  0.46962094279E+02  0.47000000000E+01 0. -1.
         -5    1    4    4    0  502  0.15184900503E+02  0.13729674432E+03 -0.19133702645E+03  0.23603585511E+03  0.47000000000E+01 0. -1.
<mgrwt>
<rscale>  0 0.45472728E+03</rscale>
<asrwt>0</asrwt>
<pdfrwt beam="1">  1       21 0.24130610E-01 0.45472728E+03</pdfrwt>
<pdfrwt beam="2">  1       21 0.50704558E-01 0.45472728E+03</pdfrwt>
<totfact> 0.55268157E+04</totfact>
</mgrwt>
</event>
<event>
 8    1  0.9691636E-006  0.3591688E+03  0.7546771E-02  0.1058913E+00
         21   -1    0    0  504  503  0.00000000000E+00  0.00000000000E+00  0.12303442215E+03  0.12303442215E+03  0.00000000000E+00 0. -1.
         21   -1    0    0  503  504 -0.00000000000E+00 -0.00000000000E+00 -0.26212633220E+03  0.26212633220E+03  0.00000000000E+00 0. -1.
         25    2    1    2    0    0 -0.83635855564E+02  0.11443108216E+02  0.34966572126E+02  0.15484032684E+03  0.12500785811E+03 0.  0.
         25    2    1    2    0    0  0.83635855564E+02 -0.11443108216E+02 -0.17405848218E+03  0.23032042751E+03  0.12500097220E+03 0.  0.
          5    1    3    3  501    0 -0.50318872201E+02  0.82144696688E+01  0.82149506507E+02  0.96799265653E+02  0.47000000000E+01 0. -1.
         -5    1    3    3    0  501 -0.33316983363E+02  0.32286385469E+01 -0.47182934381E+02  0.58041061190E+02  0.47000000000E+01 0. -1.
          5    1    4    4  502    0  0.10189581374E+03  0.28692643903E+02 -0.13124490870E+03  0.16868118073E+03  0.47000000000E+01 0. -1.
         -5    1    4    4    0  502 -0.18259958173E+02 -0.40135752119E+02 -0.42813573477E+02  0.61639246787E+02  0.47000000000E+01 0. -1.
<mgrwt>
<rscale>  0 0.35916883E+03</rscale>
<asrwt>0</asrwt>
<pdfrwt beam="1">  1       21 0.18928373E-01 0.35916883E+03</pdfrwt>
<pdfrwt beam="2">  1       21 0.40327127E-01 0.35916883E+03</pdfrwt>
<totfact> 0.14481132E+05</totfact>
</mgrwt>
</event>
<event>
 8    1  0.9691636E-006  0.2979013E+03  0.7546771E-02  0.1086294E+00
         21   -1    0    0  504  503  0.00000000000E+00  0.00000000000E+00  0.48700247793E+02  0.48700247793E+02  0.00000000000E+00 0. -1.
         21   -1    0    0  503  504 -0.00000000000E+00 -0.00000000000E+00 -0.45556853807E+03  0.45556853807E+03  0.00000000000E+00 0. -1.
         25    2    1    2    0    0 -0.43961900915E+02  0.66641221853E+02 -0.22658124491E+03  0.27080961901E+03  0.12500035208E+03 0.  0.
         25    2    1    2    0    0  0.43961900915E+02 -0.66641221853E+02 -0.18028704537E+03  0.23345916685E+03  0.12500425064E+03 0.  0.
          5    1    3    3  501    0 -0.78838643699E+02  0.75997279033E+02 -0.14766548077E+03  0.18389753226E+03  0.47000000000E+01 0. -1.
         -5    1    3    3    0  501  0.34876742785E+02 -0.93560571796E+01 -0.78915764139E+02  0.86912086748E+02  0.47000000000E+01 0. -1.
          5    1    4    4  502    0  0.63143179345E+02 -0.87412789794E+02 -0.17296071345E+03  0.20387632358E+03  0.47000000000E+01 0. -1.
         -5    1    4    4    0  502 -0.19181278431E+02  0.20771567941E+02 -0.73263319169E+01  0.29582843277E+02  0.47000000000E+01 0. -1.
<mgrwt>
<rscale>  0 0.29790133E+03</rscale>
<asrwt>0</asrwt>
<pdfrwt beam="1">  1       21 0.74923455E-02 0.29790133E+03</pdfrwt>
<pdfrwt beam="2">  1       21 0.70087470E-01 0.29790133E+03</pdfrwt>
<totfact> 0.24166896E+05</totfact>
</mgrwt>
</event>
<event>
 8    1  0.9691636E-006  0.3346376E+03  0.7546771E-02  0.1069103E+00
         21   -1    0    0  504  503  0.00000000000E+00  0.00000000000E+00  0.36272949913E+02  0.36272949913E+02  0.00000000000E+00 0. -1.
         21   -1    0    0  503  504 -0.00000000000E+00 -0.00000000000E+00 -0.77180323424E+03  0.77180323424E+03  0.00000000000E+00 0. -1.
         25    2    1    2    0    0  0.11814537902E+02  0.51314368861E+02 -0.60435886827E+03  0.61939265183E+03  0.12499947091E+03 0.  0.
         25    2    1    2    0    0 -0.11814537902E+02 -0.51314368861E+02 -0.13117141606E+03  0.18868353233E+03  0.12499114857E+03 0.  0.
          5    1    3    3  501    0  0.40885303541E+02  0.81625822957E+02 -0.45903103345E+03  0.46804482978E+03  0.47000000000E+01 0.  1.
         -5    1    3    3    0  501 -0.29070765640E+02 -0.30311454096E+02 -0.14532783482E+03  0.15134782204E+03  0.47000000000E+01 0.  1.
          5    1    4    4  502    0 -0.77299434316E+01 -0.77750784914E+02 -0.29831509987E+02  0.83767210579E+02  0.47000000000E+01 0.  1.
         -5    1    4    4    0  502 -0.40845944701E+01  0.26436416053E+02 -0.10133990607E+03  0.10491632175E+03  0.47000000000E+01 0.  1.
<mgrwt>
<rscale>  0 0.33463760E+03</rscale>
<asrwt>0</asrwt>
<pdfrwt beam="1">  1       21 0.55804542E-02 0.33463760E+03</pdfrwt>
<pdfrwt beam="2">  1       21 0.11873895E+00 0.33463760E+03</pdfrwt>
<totfact> 0.11523358E+05</totfact>
</mgrwt>
</event>
<event>
 8    1  0.9691636E-006  0.2596972E+03  0.7546771E-02  0.1107325E+00
         21   -1    0    0  504  503  0.00000000000E+00  0.00000000000E+00  0.44720981006E+03  0.44720981006E+03  0.00000000000E+00 0. -1.
         21   -1    0    0  503  504 -0.00000000000E+00 -0.00000000000E+00 -0.37701899816E+02  0.37701899816E+02  0.00000000000E+00 0. -1.
         25    2    1    2    0    0 -0.76501330369E+01 -0.33261768711E+02  0.18913314976E+03  0.22926590065E+03  0.12500654010E+03 0.  0.
         25    2    1    2    0    0  0.76501330369E+01  0.33261768711E+02  0.22037476048E+03  0.25564580923E+03  0.12499949971E+03 0.  0.
          5    1    3    3  501    0  0.37938028320E+02 -0.60703394697E+02  0.13688888614E+03  0.15454725254E+03  0.47000000000E+01 0. -1.
         -5    1    3    3    0  501 -0.45588161357E+02  0.27441625986E+02  0.52244263625E+02  0.74718648103E+02  0.47000000000E+01 0. -1.
          5    1    4    4  502    0  0.46654051758E+02  0.26838507450E+02  0.20656040160E+03  0.21350923993E+03  0.47000000000E+01 0.  1.
         -5    1    4    4    0  502 -0.39003918721E+02  0.64232612611E+01  0.13814358879E+02  0.42136569296E+02  0.47000000000E+01 0.  1.
<mgrwt>
<rscale>  0 0.25969720E+03</rscale>
<asrwt>0</asrwt>
<pdfrwt beam="1">  1       21 0.68801505E-01 0.25969720E+03</pdfrwt>
<pdfrwt beam="2">  1       21 0.58002926E-02 0.25969720E+03</pdfrwt>
<totfact> 0.39587833E+05</totfact>
</mgrwt>
</event>
<event>
 8    1  0.9691636E-006  0.3040553E+03  0.7546771E-02  0.1083231E+00
         21   -1    0    0  504  503  0.00000000000E+00  0.00000000000E+00  0.33668145262E+03  0.33668145262E+03  0.00000000000E+00 0.  1.
         21   -1    0    0  503  504 -0.00000000000E+00 -0.00000000000E+00 -0.68647680288E+02  0.68647680288E+02  0.00000000000E+00 0.  1.
         25    2    1    2    0    0  0.37163608443E+02  0.80943038594E+01  0.30410731991E+02  0.13415315542E+03  0.12500241974E+03 0.  0.
         25    2    1    2    0    0 -0.37163608443E+02 -0.80943038594E+01  0.23762304034E+03  0.27117597749E+03  0.12500019968E+03 0.  0.
          5    1    3    3  501    0  0.80910957953E+02 -0.59863666836E+00  0.36505327291E+02  0.88891340429E+02  0.47000000000E+01 0.  1.
         -5    1    3    3    0  501 -0.43747349510E+02  0.86929405278E+01 -0.60945953001E+01  0.45261814988E+02  0.47000000000E+01 0.  1.
          5    1    4    4  502    0 -0.15871628789E+01  0.31197111920E+02  0.20777725744E+03  0.21016483433E+03  0.47000000000E+01 0.  1.
         -5    1    4    4    0  502 -0.35576445564E+02 -0.39291415779E+02  0.29845782898E+02  0.61011143160E+02  0.47000000000E+01 0.  1.
<mgrwt>
<rscale>  0 0.30405526E+03</rscale>
<asrwt>0</asrwt>
<pdfrwt beam="1">  1       21 0.51797145E-01 0.30405526E+03</pdfrwt>
<pdfrwt beam="2">  1       21 0.10561182E-01 0.30405526E+03</pdfrwt>
<totfact> 0.25358209E+05</totfact>
</mgrwt>
</event>
<event>
 8    1  0.9691636E-006  0.3100151E+03  0.7546771E-02  0.1080339E+00
         21   -1    0    0  504  503  0.00000000000E+00  0.00000000000E+00  0.83954585735E+02  0.83954585735E+02  0.00000000000E+00 0. -1.
         21   -1    0    0  503  504 -0.00000000000E+00 -0.00000000000E+00 -0.28619440870E+03  0.28619440870E+03  0.00000000000E+00 0. -1.
         25    2    1    2    0    0  0.64743501734E+02 -0.20877844893E+02 -0.27756071798E+02  0.14499358374E+03  0.12500053752E+03 0.  0.
         25    2    1    2    0    0 -0.64743501734E+02  0.20877844893E+02 -0.17448375117E+03  0.22515541070E+03  0.12499109617E+03 0.  0.
          5    1    3    3  501    0  0.44575784784E+02  0.37873752608E+02  0.24590644665E+02  0.63625557214E+02  0.47000000000E+01 0. -1.
         -5    1    3    3    0  501  0.20167716949E+02 -0.58751597501E+02 -0.52346716463E+02  0.81368026524E+02  0.47000000000E+01 0. -1.
          5    1    4    4  502    0 -0.58410695802E+02  0.65391811562E+02 -0.73478435985E+02  0.11449484250E+03  0.47000000000E+01 0.  1.
         -5    1    4    4    0  502 -0.63328059318E+01 -0.44513966669E+02 -0.10100531518E+03  0.11066056820E+03  0.47000000000E+01 0.  1.
<mgrwt>
<rscale>  0 0.31001505E+03</rscale>
<asrwt>0</asrwt>
<pdfrwt beam="1">  1       21 0.12916090E-01 0.31001505E+03</pdfrwt>
<pdfrwt beam="2">  1       21 0.44029909E-01 0.31001505E+03</pdfrwt>
<totfact> 0.24754849E+05</totfact>
</mgrwt>
</event>
<event>
 8    1  0.9691636E-006  0.3239771E+03  0.7546771E-02  0.1073833E+00
         21   -1    0    0  504  503  0.00000000000E+00  0.00000000000E+00  0.11459290428E+03  0.11459290428E+03  0.00000000000E+00 0.  1.
         21   -1    0    0  503  504 -0.00000000000E+00 -0.00000000000E+00 -0.22898705716E+03  0.22898705716E+03  0.00000000000E+00 0.  1.
         25    2    1    2    0    0 -0.26035181593E+02  0.77220188326E+02 -0.12404982516E+03  0.19405025408E+03  0.12500541517E+03 0.  0.
         25    2    1    2    0    0  0.26035181593E+02 -0.77220188326E+02  0.96556722778E+01  0.14952970735E+03  0.12500045283E+03 0.  0.
          5    1    3    3  501    0 -0.75753872209E+02  0.39485602619E+02 -0.82972963640E+02  0.11918206519E+03  0.47000000000E+01 0.  1.
         -5    1    3    3    0  501  0.49718690616E+02  0.37734585707E+02 -0.41076861520E+02  0.74868188888E+02  0.47000000000E+01 0.  1.
          5    1    4    4  502    0 -0.49135811125E+02 -0.43227985178E+02  0.12742273924E+02  0.66838927147E+02  0.47000000000E+01 0.  1.
         -5    1    4    4    0  502  0.75170992718E+02 -0.33992203148E+02 -0.30866016462E+01  0.82690780204E+02  0.47000000000E+01 0.  1.
<mgrwt>
<rscale>  0 0.32397711E+03</rscale>
<asrwt>0</asrwt>
<pdfrwt beam="1">  1       21 0.17629678E-01 0.32397711E+03</pdfrwt>
<pdfrwt beam="2">  1       21 0.35228778E-01 0.32397711E+03</pdfrwt>
<totfact> 0.21930478E+05</totfact>
</mgrwt>
</event>
<event>
 8    1  0.9691636E-006  0.2949517E+03  0.7546771E-02  0.1087792E+00
         21   -1    0    0  504  503  0.00000000000E+00  0.00000000000E+00  0.55920998805E+03  0.55920998805E+03  0.00000000000E+00 0. -1.
         21   -1    0    0  503  504 -0.00000000000E+00 -0.00000000000E+00 -0.38892584888E+02  0.38892584888E+02  0.00000000000E+00 0. -1.
         25    2    1    2    0    0  0.70399261346E+02  0.12069951625E+02  0.19533123688E+03  0.24265570543E+03  0.12500303814E+03 0.  0.
         25    2    1    2    0    0 -0.70399261346E+02 -0.12069951625E+02  0.32498616628E+03  0.35544686751E+03  0.12499891047E+03 0.  0.
          5    1    3    3  501    0  0.46393046982E+02  0.24701561452E+02  0.80712294196E+01  0.53382737760E+02  0.47000000000E+01 0. -1.
         -5    1    3    3    0  501  0.24006214364E+02 -0.12631609827E+02  0.18726000746E+03  0.18927296767E+03  0.47000000000E+01 0. -1.
          5    1    4    4  502    0 -0.37946753029E+02  0.21096378986E+02  0.29876871341E+03  0.30194345064E+03  0.47000000000E+01 0. -1.
         -5    1    4    4    0  502 -0.32452508317E+02 -0.33166330611E+02  0.26217452877E+02  0.53503416878E+02  0.47000000000E+01 0. -1.
<mgrwt>
<rscale>  0 0.29495167E+03</rscale>
<asrwt>0</asrwt>
<pdfrwt beam="1">  1       21 0.86032300E-01 0.29495167E+03</pdfrwt>
<pdfrwt beam="2">  1       21 0.59834750E-02 0.29495167E+03</pdfrwt>
<totfact> 0.22435686E+05</totfact>
</mgrwt>
</event>
<event>
 8    1  0.9691636E-006  0.2538405E+03  0.7546771E-02  0.1110901E+00
         21   -1    0    0  504  503  0.00000000000E+00  0.00000000000E+00  0.10582357306E+03  0.10582357306E+03  0.00000000000E+00 0.  1.
         21   -1    0    0  503  504 -0.00000000000E+00 -0.00000000000E+00 -0.15222273988E+03  0.15222273988E+03  0.00000000000E+00 0.  1.
         25    2    1    2    0    0  0.19700315782E+02  0.78322672500E+01 -0.29076940233E+02  0.13008466169E+03  0.12500841533E+03 0.  0.
         25    2    1    2    0    0 -0.19700315782E+02 -0.78322672500E+01 -0.17322226587E+02  0.12796165125E+03  0.12499871122E+03 0.  0.
          5    1    3    3  501    0 -0.16962819563E+02  0.57797886180E+02 -0.30991219512E+02  0.67903450437E+02  0.47000000000E+01 0.  1.
         -5    1    3    3    0  501  0.36663135344E+02 -0.49965618930E+02  0.19142792790E+01  0.62181211258E+02  0.47000000000E+01 0.  1.
          5    1    4    4  502    0  0.52975436316E+02 -0.11822882175E+01 -0.12661679101E+02  0.54682746602E+02  0.47000000000E+01 0.  1.
         -5    1    4    4    0  502 -0.72675752098E+02 -0.66499790324E+01 -0.46605474859E+01  0.73278904652E+02  0.47000000000E+01 0.  1.
<mgrwt>
<rscale>  0 0.25384053E+03</rscale>
<asrwt>0</asrwt>
<pdfrwt beam="1">  1       21 0.16280550E-01 0.25384053E+03</pdfrwt>
<pdfrwt beam="2">  1       21 0.23418883E-01 0.25384053E+03</pdfrwt>
<totfact> 0.57296020E+05</totfact>
</mgrwt>
</event>
<event>
 8    1  0.9691636E-006  0.2667688E+03  0.7546771E-02  0.1103143E+00
         21   -1    0    0  504  503  0.00000000000E+00  0.00000000000E+00  0.59337302800E+02  0.59337302800E+02  0.00000000000E+00 0. -1.
         21   -1    0    0  503  504 -0.00000000000E+00 -0.00000000000E+00 -0.29983491463E+03  0.29983491463E+03  0.00000000000E+00 0. -1.
         25    2    1    2    0    0 -0.37533597604E+02  0.12251928141E+01 -0.83215240199E+02  0.15478792954E+03  0.12499701950E+03 0.  0.
         25    2    1    2    0    0  0.37533597604E+02 -0.12251928141E+01 -0.15728237163E+03  0.20438428789E+03  0.12499968265E+03 0.  0.
          5    1    3    3  501    0 -0.33138511092E+02  0.60857697908E+02 -0.34678596761E+02  0.77630634322E+02  0.47000000000E+01 0.  1.
         -5    1    3    3    0  501 -0.43950865119E+01 -0.59632505093E+02 -0.48536643438E+02  0.77157295219E+02  0.47000000000E+01 0.  1.
          5    1    4    4  502    0 -0.46132947931E+02 -0.39064358686E+01 -0.51627689892E+02  0.69505521289E+02  0.47000000000E+01 0. -1.
         -5    1    4    4    0  502  0.83666545535E+02  0.26812430545E+01 -0.10565468173E+03  0.13487876660E+03  0.47000000000E+01 0. -1.
<mgrwt>
<rscale>  0 0.26676878E+03</rscale>
<asrwt>0</asrwt>
<pdfrwt beam="1">  1       21 0.91288160E-02 0.26676878E+03</pdfrwt>
<pdfrwt beam="2">  1       21 0.46128447E-01 0.26676878E+03</pdfrwt>
<totfact> 0.42231178E+05</totfact>
</mgrwt>
</event>
<event>
 8    1  0.9691636E-006  0.2754851E+03  0.7546771E-02  0.1098181E+00
         21   -1    0    0  504  503  0.00000000000E+00  0.00000000000E+00  0.14408347166E+03  0.14408347166E+03  0.00000000000E+00 0. -1.
         21   -1    0    0  503  504 -0.00000000000E+00 -0.00000000000E+00 -0.13168067266E+03  0.13168067266E+03  0.00000000000E+00 0. -1.
         25    2    1    2    0    0 -0.23641385723E+02  0.34293264573E+02 -0.33987759285E+02  0.13606949840E+03  0.12499919000E+03 0.  0.
         25    2    1    2    0    0  0.23641385723E+02 -0.34293264573E+02  0.46390558284E+02  0.13969464592E+03  0.12501026792E+03 0.  0.
          5    1    3    3  501    0  0.76762164683E+01 -0.42592261156E+02  0.57483563399E+01  0.43910802888E+02  0.47000000000E+01 0.  1.
         -5    1    3    3    0  501 -0.31317602191E+02  0.76885525729E+02 -0.39736115625E+02  0.92158695512E+02  0.47000000000E+01 0.  1.
          5    1    4    4  502    0 -0.49101889929E+02 -0.16482489074E+02  0.37528571657E+02  0.64133857917E+02  0.47000000000E+01 0. -1.
         -5    1    4    4    0  502  0.72743275652E+02 -0.17810775499E+02  0.88619866269E+01  0.75560788002E+02  0.47000000000E+01 0. -1.
<mgrwt>
<rscale>  0 0.27548509E+03</rscale>
<asrwt>0</asrwt>
<pdfrwt beam="1">  1       21 0.22166688E-01 0.27548509E+03</pdfrwt>
<pdfrwt beam="2">  1       21 0.20258565E-01 0.27548509E+03</pdfrwt>
<totfact> 0.42165791E+05</totfact>
</mgrwt>
</event>
<event>
 8    1  0.9691636E-006  0.2654302E+03  0.7546771E-02  0.1103924E+00
         21   -1    0    0  504  503  0.00000000000E+00  0.00000000000E+00  0.21427790757E+03  0.21427790757E+03  0.00000000000E+00 0.  1.
         21   -1    0    0  503  504 -0.00000000000E+00 -0.00000000000E+00 -0.82198406528E+02  0.82198406528E+02  0.00000000000E+00 0.  1.
         25    2    1    2    0    0 -0.41144259251E+02  0.13606463478E+02  0.54320123074E+02  0.14301651720E+03  0.12500025001E+03 0.  0.
         25    2    1    2    0    0  0.41144259251E+02 -0.13606463478E+02  0.77759377969E+02  0.15345979690E+03  0.12500160993E+03 0.  0.
          5    1    3    3  501    0 -0.85198284421E+02  0.19554996885E+02  0.37946637681E+02  0.95410601522E+02  0.47000000000E+01 0.  1.
         -5    1    3    3    0  501  0.44054025170E+02 -0.59485334069E+01  0.16373485392E+02  0.47605915675E+02  0.47000000000E+01 0.  1.
          5    1    4    4  502    0 -0.16360671171E+02 -0.16532704404E+02  0.91124170627E+02  0.94163189987E+02  0.47000000000E+01 0.  1.
         -5    1    4    4    0  502  0.57504930422E+02  0.29262409264E+01 -0.13364792658E+02  0.59296606915E+02  0.47000000000E+01 0.  1.
<mgrwt>
<rscale>  0 0.26543024E+03</rscale>
<asrwt>0</asrwt>
<pdfrwt beam="1">  1       21 0.32965832E-01 0.26543024E+03</pdfrwt>
<pdfrwt beam="2">  1       21 0.12645909E-01 0.26543024E+03</pdfrwt>
<totfact> 0.46639033E+05</totfact>
</mgrwt>
</event>
<event>
 8    1  0.9691636E-006  0.3177356E+03  0.7546771E-02  0.1076696E+00
         21   -1    0    0  504  503  0.00000000000E+00  0.00000000000E+00  0.49121647969E+03  0.49121647969E+03  0.00000000000E+00 0. -1.
         21   -1    0    0  503  504 -0.00000000000E+00 -0.00000000000E+00 -0.51380561043E+02  0.51380561043E+02  0.00000000000E+00 0. -1.
         25    2    1    2    0    0  0.14235483370E+02 -0.87443055041E+02  0.29166000277E+03  0.32945504007E+03  0.12500451732E+03 0.  0.
         25    2    1    2    0    0 -0.14235483370E+02  0.87443055041E+02  0.14817591588E+03  0.21314200066E+03  0.12499789414E+03 0.  0.
          5    1    3    3  501    0 -0.48843506474E+02 -0.66011149543E+02  0.12213464877E+03  0.14724850566E+03  0.47000000000E+01 0.  1.
         -5    1    3    3    0  501  0.63078989844E+02 -0.21431905498E+02  0.16952535400E+03  0.18220653441E+03  0.47000000000E+01 0.  1.
          5    1    4    4  502    0 -0.54577211081E+02  0.10129518336E+02  0.22451920848E+02  0.60062116686E+02  0.47000000000E+01 0. -1.
         -5    1    4    4    0  502  0.40341727711E+02  0.77313536705E+02  0.12572399503E+03  0.15307988398E+03  0.47000000000E+01 0. -1.
<mgrwt>
<rscale>  0 0.31773560E+03</rscale>
<asrwt>0</asrwt>
<pdfrwt beam="1">  1       21 0.75571763E-01 0.31773560E+03</pdfrwt>
<pdfrwt beam="2">  1       21 0.79047020E-02 0.31773560E+03</pdfrwt>
<totfact> 0.18489509E+05</totfact>
</mgrwt>
</event>
<event>
 8    1  0.9691636E-006  0.4736239E+03  0.7546771E-02  0.1020902E+00
         21   -1    0    0  504  503  0.00000000000E+00  0.00000000000E+00  0.64975063584E+02  0.64975063584E+02  0.00000000000E+00 0.  1.
         21   -1    0    0  503  504 -0.00000000000E+00 -0.00000000000E+00 -0.86309883993E+03  0.86309883993E+03  0.00000000000E+00 0.  1.
         25    2    1    2    0    0 -0.14708908269E+03  0.47020606766E+02 -0.65159550454E+03  0.68121072268E+03  0.12500084576E+03 0.  0.
         25    2    1    2    0    0  0.14708908269E+03 -0.47020606766E+02 -0.14652827180E+03  0.24686318084E+03  0.12499903963E+03 0.  0.
          5    1    3    3  501    0 -0.39602642489E+02  0.75248552792E+02 -0.33455027911E+03  0.34521977528E+03  0.47000000000E+01 0. -1.
         -5    1    3    3    0  501 -0.10748644020E+03 -0.28227946027E+02 -0.31704522543E+03  0.33599094740E+03  0.47000000000E+01 0. -1.
          5    1    4    4  502    0  0.96270422178E+02  0.89308429898E+01 -0.19151999473E+02  0.98674430461E+02  0.47000000000E+01 0. -1.
         -5    1    4    4    0  502  0.50818660512E+02 -0.55951449755E+02 -0.12737627233E+03  0.14818875038E+03  0.47000000000E+01 0. -1.
<mgrwt>
<rscale>  0 0.47362391E+03</rscale>
<asrwt>0</asrwt>
<pdfrwt beam="1">  1       21 0.99961641E-02 0.47362391E+03</pdfrwt>
<pdfrwt beam="2">  1       21 0.13278443E+00 0.47362391E+03</pdfrwt>
<totfact> 0.29878901E+04</totfact>
</mgrwt>
</event>
<event>
 8    1  0.9691636E-006  0.4623425E+03  0.7546771E-02  0.1024104E+00
         21   -1    0    0  504  503  0.00000000000E+00  0.00000000000E+00  0.45120199742E+03  0.45120199742E+03  0.00000000000E+00 0. -1.
         21   -1    0    0  503  504 -0.00000000000E+00 -0.00000000000E+00 -0.11843954215E+03  0.11843954215E+03  0.00000000000E+00 0. -1.
         25    2    1    2    0    0 -0.91205744685E+02 -0.13817982176E+03  0.29204488969E+03  0.35822934716E+03  0.12500358624E+03 0.  0.
         25    2    1    2    0    0  0.91205744685E+02  0.13817982176E+03  0.40717565585E+02  0.21141219240E+03  0.12500017577E+03 0.  0.
          5    1    3    3  501    0 -0.45029795581E+02 -0.82848628620E+02  0.52485529080E+02  0.10802036159E+03  0.47000000000E+01 0. -1.
         -5    1    3    3    0  501 -0.46175949104E+02 -0.55331193143E+02  0.23955936061E+03  0.25020898558E+03  0.47000000000E+01 0. -1.
          5    1    4    4  502    0  0.90557361153E+02  0.77170629896E+02  0.75532993425E+02  0.14100803124E+03  0.47000000000E+01 0. -1.
         -5    1    4    4    0  502  0.64838353237E+00  0.61009191866E+02 -0.34815427840E+02  0.70404161163E+02  0.47000000000E+01 0. -1.
<mgrwt>
<rscale>  0 0.46234255E+03</rscale>
<asrwt>0</asrwt>
<pdfrwt beam="1">  1       21 0.69415691E-01 0.46234255E+03</pdfrwt>
<pdfrwt beam="2">  1       21 0.18221468E-01 0.46234255E+03</pdfrwt>
<totfact> 0.47482348E+04</totfact>
</mgrwt>
</event>
<event>
 8    1  0.9691636E-006  0.2672166E+03  0.7546771E-02  0.1102883E+00
         21   -1    0    0  504  503  0.00000000000E+00  0.00000000000E+00  0.16103268744E+03  0.16103268744E+03  0.00000000000E+00 0.  1.
         21   -1    0    0  503  504 -0.00000000000E+00 -0.00000000000E+00 -0.11085440511E+03  0.11085440511E+03  0.00000000000E+00 0.  1.
         25    2    1    2    0    0  0.46305889339E+02  0.78022095728E+01  0.29696801147E+02  0.13679713061E+03  0.12500578020E+03 0.  0.
         25    2    1    2    0    0 -0.46305889339E+02 -0.78022095728E+01  0.20481481183E+02  0.13508996193E+03  0.12499878752E+03 0.  0.
          5    1    3    3  501    0  0.63792129601E+02  0.51457505996E+02  0.22094661665E+01  0.82123580433E+02  0.47000000000E+01 0.  1.
         -5    1    3    3    0  501 -0.17486240262E+02 -0.43655296424E+02  0.27487334981E+02  0.54673550175E+02  0.47000000000E+01 0.  1.
          5    1    4    4  502    0 -0.69325329208E+02 -0.17782659520E+02  0.56247719359E+02  0.91148890188E+02  0.47000000000E+01 0.  1.
         -5    1    4    4    0  502  0.23019439869E+02  0.99804499470E+01 -0.35766238176E+02  0.43941071747E+02  0.47000000000E+01 0.  1.
<mgrwt>
<rscale>  0 0.26721664E+03</rscale>
<asrwt>0</asrwt>
<pdfrwt beam="1">  1       21 0.24774260E-01 0.26721664E+03</pdfrwt>
<pdfrwt beam="2">  1       21 0.17054524E-01 0.26721664E+03</pdfrwt>
<totfact> 0.47101421E+05</totfact>
</mgrwt>
</event>
<event>
 8    1  0.9691636E-006  0.2686872E+03  0.7546771E-02  0.1102033E+00
         21   -1    0    0  504  503  0.00000000000E+00  0.00000000000E+00  0.15518133155E+03  0.15518133155E+03  0.00000000000E+00 0.  1.
         21   -1    0    0  503  504 -0.00000000000E+00 -0.00000000000E+00 -0.11630396665E+03  0.11630396665E+03  0.00000000000E+00 0.  1.
         25    2    1    2    0    0  0.46772889602E+02 -0.13861803623E+02  0.26144968656E+02  0.13670214765E+03  0.12499625989E+03 0.  0.
         25    2    1    2    0    0 -0.46772889602E+02  0.13861803623E+02  0.12732396247E+02  0.13478315054E+03  0.12499812380E+03 0.  0.
          5    1    3    3  501    0 -0.19608911452E+01 -0.60609097726E+02  0.32052749791E+02  0.68751557003E+02  0.47000000000E+01 0.  1.
         -5    1    3    3    0  501  0.48733780748E+02  0.46747294103E+02 -0.59077811344E+01  0.67950590651E+02  0.47000000000E+01 0.  1.
          5    1    4    4  502    0 -0.72759973988E+02 -0.28720647370E+02  0.26662677483E+02  0.82776070037E+02  0.47000000000E+01 0.  1.
         -5    1    4    4    0  502  0.25987084386E+02  0.42582450994E+02 -0.13930281236E+02  0.52007080507E+02  0.47000000000E+01 0.  1.
<mgrwt>
<rscale>  0 0.26868721E+03</rscale>
<asrwt>0</asrwt>
<pdfrwt beam="1">  1       21 0.23874051E-01 0.26868721E+03</pdfrwt>
<pdfrwt beam="2">  1       21 0.17892918E-01 0.26868721E+03</pdfrwt>
<totfact> 0.46241877E+05</totfact>
</mgrwt>
</event>
<event>
 8    1  0.9691636E-006  0.2684094E+03  0.7546771E-02  0.1102193E+00
         21   -1    0    0  504  503  0.00000000000E+00  0.00000000000E+00  0.19333439630E+02  0.19333439630E+02  0.00000000000E+00 0. -1.
         21   -1    0    0  503  504 -0.00000000000E+00 -0.00000000000E+00 -0.93159297146E+03  0.93159297146E+03  0.00000000000E+00 0. -1.
         25    2    1    2    0    0 -0.30507775514E+02 -0.36993767138E+02 -0.42291941621E+03  0.44360609847E+03  0.12500509917E+03 0.  0.
         25    2    1    2    0    0  0.30507775514E+02  0.36993767138E+02 -0.48934011562E+03  0.50732031262E+03  0.12498354959E+03 0.  0.
          5    1    3    3  501    0 -0.32814857714E+02  0.33262712162E+02 -0.73984373015E+02  0.87629905612E+02  0.47000000000E+01 0. -1.
         -5    1    3    3    0  501  0.23070822004E+01 -0.70256479300E+02 -0.34893504320E+03  0.35597619286E+03  0.47000000000E+01 0. -1.
          5    1    4    4  502    0  0.60888251929E+00  0.66464331461E+02 -0.42603653807E+03  0.43121583907E+03  0.47000000000E+01 0. -1.
         -5    1    4    4    0  502  0.29898892994E+02 -0.29470564323E+02 -0.63303577554E+02  0.76104473554E+02  0.47000000000E+01 0. -1.
<mgrwt>
<rscale>  0 0.26840936E+03</rscale>
<asrwt>0</asrwt>
<pdfrwt beam="1">  1       21 0.29743754E-02 0.26840936E+03</pdfrwt>
<pdfrwt beam="2">  1       21 0.14332199E+00 0.26840936E+03</pdfrwt>
<totfact> 0.21035445E+05</totfact>
</mgrwt>
</event>
<event>
 8    1  0.9691636E-006  0.2717787E+03  0.7546771E-02  0.1100266E+00
         21   -1    0    0  504  503  0.00000000000E+00  0.00000000000E+00  0.31190648989E+03  0.31190648989E+03  0.00000000000E+00 0. -1.
         21   -1    0    0  503  504 -0.00000000000E+00 -0.00000000000E+00 -0.59203366776E+02  0.59203366776E+02  0.00000000000E+00 0. -1.
         25    2    1    2    0    0 -0.23520756466E+02  0.16248264608E+02  0.64874393244E+02  0.14370285400E+03  0.12499836504E+03 0.  0.
         25    2    1    2    0    0  0.23520756466E+02 -0.16248264608E+02  0.18782872987E+03  0.22740700266E+03  0.12496832001E+03 0.  0.
          5    1    3    3  501    0  0.13622738297E+02 -0.21257951077E+01 -0.33675821485E+02  0.36691265394E+02  0.47000000000E+01 0.  1.
         -5    1    3    3    0  501 -0.37143494763E+02  0.18374059716E+02  0.98550214729E+02  0.10701158861E+03  0.47000000000E+01 0.  1.
          5    1    4    4  502    0  0.33581790173E+02  0.50140742404E+02  0.97401414113E+02  0.11467761835E+03  0.47000000000E+01 0. -1.
         -5    1    4    4    0  502 -0.10061033707E+02 -0.66389007012E+02  0.90427315757E+02  0.11272938431E+03  0.47000000000E+01 0. -1.
<mgrwt>
<rscale>  0 0.27177869E+03</rscale>
<asrwt>0</asrwt>
<pdfrwt beam="1">  1       21 0.47985613E-01 0.27177869E+03</pdfrwt>
<pdfrwt beam="2">  1       21 0.91082104E-02 0.27177869E+03</pdfrwt>
<totfact> 0.39015373E+05</totfact>
</mgrwt>
</event>
<event>
 8    1  0.9691636E-006  0.4095652E+03  0.7546771E-02  0.1040517E+00
         21   -1    0    0  504  503  0.00000000000E+00  0.00000000000E+00  0.25189063229E+03  0.25189063229E+03  0.00000000000E+00 0.  1.
         21   -1    0    0  503  504 -0.00000000000E+00 -0.00000000000E+00 -0.16648458284E+03  0.16648458284E+03  0.00000000000E+00 0.  1.
         25    2    1    2    0    0 -0.10590253139E+03  0.10700379342E+03  0.10438010911E+03  0.22177879313E+03  0.12500187175E+03 0.  0.
         25    2    1    2    0    0  0.10590253139E+03 -0.10700379342E+03 -0.18974059653E+02  0.19659642201E+03  0.12499992097E+03 0.  0.
          5    1    3    3  501    0  0.12868763297E+02  0.60374121315E+02  0.61040238631E+02  0.86940441254E+02  0.47000000000E+01 0. -1.
         -5    1    3    3    0  501 -0.11877129469E+03  0.46629672110E+02  0.43339870478E+02  0.13483835187E+03  0.47000000000E+01 0. -1.
          5    1    4    4  502    0  0.61617284727E+02 -0.12521283359E+03  0.10745652583E+02  0.14004464475E+03  0.47000000000E+01 0.  1.
         -5    1    4    4    0  502  0.44285246665E+02  0.18209040164E+02 -0.29719712236E+02  0.56551777260E+02  0.47000000000E+01 0.  1.
<mgrwt>
<rscale>  0 0.40956517E+03</rscale>
<asrwt>0</asrwt>
<pdfrwt beam="1">  1       21 0.38752405E-01 0.40956517E+03</pdfrwt>
<pdfrwt beam="2">  1       21 0.25613013E-01 0.40956517E+03</pdfrwt>
<totfact> 0.87124396E+04</totfact>
</mgrwt>
</event>
<event>
 8    1  0.9691636E-006  0.3928232E+03  0.7546771E-02  0.1046293E+00
         21   -1    0    0  504  503  0.00000000000E+00  0.00000000000E+00  0.96420765384E+02  0.96420765384E+02  0.00000000000E+00 0.  1.
         21   -1    0    0  503  504 -0.00000000000E+00 -0.00000000000E+00 -0.40009551045E+03  0.40009551045E+03  0.00000000000E+00 0.  1.
         25    2    1    2    0    0  0.10011347657E+03 -0.83749000478E+02 -0.24904627370E+03  0.30771093215E+03  0.12500147220E+03 0.  0.
         25    2    1    2    0    0 -0.10011347657E+03  0.83749000478E+02 -0.54628471368E+02  0.18880534368E+03  0.12500633843E+03 0.  0.
          5    1    3    3  501    0  0.57204706602E+00  0.39988028316E+01  0.12745219236E+02  0.14172094951E+02  0.47000000000E+01 0.  1.
         -5    1    3    3    0  501  0.99541429501E+02 -0.87747803310E+02 -0.26179149294E+03  0.29353883720E+03  0.47000000000E+01 0.  1.
          5    1    4    4  502    0  0.25879631211E+02  0.37006817278E+02 -0.21927426389E+02  0.50419855857E+02  0.47000000000E+01 0.  1.
         -5    1    4    4    0  502 -0.12599310778E+03  0.46742183200E+02 -0.32701044979E+02  0.13838548783E+03  0.47000000000E+01 0.  1.
<mgrwt>
<rscale>  0 0.39282319E+03</rscale>
<asrwt>0</asrwt>
<pdfrwt beam="1">  1       21 0.14833964E-01 0.39282319E+03</pdfrwt>
<pdfrwt beam="2">  1       21 0.61553155E-01 0.39282319E+03</pdfrwt>
<totfact> 0.92445971E+04</totfact>
</mgrwt>
</event>
<event>
 8    1  0.9691636E-006  0.3583753E+03  0.7546771E-02  0.1059229E+00
         21   -1    0    0  504  503  0.00000000000E+00  0.00000000000E+00  0.57081059769E+03  0.57081059769E+03  0.00000000000E+00 0.  1.
         21   -1    0    0  503  504 -0.00000000000E+00 -0.00000000000E+00 -0.56250191184E+02  0.56250191184E+02  0.00000000000E+00 0.  1.
         25    2    1    2    0    0 -0.29128068188E+02  0.12347207139E+03  0.29180141223E+03  0.34185854453E+03  0.12500161408E+03 0.  0.
         25    2    1    2    0    0  0.29128068188E+02 -0.12347207139E+03  0.22275899428E+03  0.28520224434E+03  0.12499981550E+03 0.  0.
          5    1    3    3  501    0 -0.34148539494E+02  0.27637586949E+02  0.11654439551E+02  0.45693269999E+02  0.47000000000E+01 0. -1.
         -5    1    3    3    0  501  0.50204713061E+01  0.95834484443E+02  0.28014697268E+03  0.29616527454E+03  0.47000000000E+01 0. -1.
          5    1    4    4  502    0 -0.45311014713E+02 -0.56000000324E+02  0.12834662590E+03  0.14725499812E+03  0.47000000000E+01 0. -1.
         -5    1    4    4    0  502  0.74439082901E+02 -0.67472071069E+02  0.94412368375E+02  0.13794724622E+03  0.47000000000E+01 0. -1.
<mgrwt>
<rscale>  0 0.35837525E+03</rscale>
<asrwt>0</asrwt>
<pdfrwt beam="1">  1       21 0.87817011E-01 0.35837525E+03</pdfrwt>
<pdfrwt beam="2">  1       21 0.86538760E-02 0.35837525E+03</pdfrwt>
<totfact> 0.11045647E+05</totfact>
</mgrwt>
</event>
<event>
 8    1  0.9691636E-006  0.3042417E+03  0.7546771E-02  0.1083139E+00
         21   -1    0    0  504  503  0.00000000000E+00  0.00000000000E+00  0.11512460997E+03  0.11512460997E+03  0.00000000000E+00 0.  1.
         21   -1    0    0  503  504 -0.00000000000E+00 -0.00000000000E+00 -0.20100619017E+03  0.20100619017E+03  0.00000000000E+00 0.  1.
         25    2    1    2    0    0  0.40715920198E+02 -0.38966937194E+01  0.36483069719E+02  0.13648848819E+03  0.12500049061E+03 0.  0.
         25    2    1    2    0    0 -0.40715920198E+02  0.38966937194E+01 -0.12236464991E+03  0.17964231195E+03  0.12500112926E+03 0.  0.
          5    1    3    3  501    0  0.25439880187E+02  0.56911874454E+02  0.38789698042E+02  0.73572274886E+02  0.47000000000E+01 0.  1.
         -5    1    3    3    0  501  0.15276040011E+02 -0.60808568173E+02 -0.23066283227E+01  0.62916213299E+02  0.47000000000E+01 0.  1.
          5    1    4    4  502    0 -0.36851878605E+02  0.35182498880E+02  0.20530475627E+01  0.51207169307E+02  0.47000000000E+01 0.  1.
         -5    1    4    4    0  502 -0.38640415930E+01 -0.31285805160E+02 -0.12441769747E+03  0.12843514265E+03  0.47000000000E+01 0.  1.
<mgrwt>
<rscale>  0 0.30424174E+03</rscale>
<asrwt>0</asrwt>
<pdfrwt beam="1">  1       21 0.17711479E-01 0.30424174E+03</pdfrwt>
<pdfrwt beam="2">  1       21 0.30924029E-01 0.30424174E+03</pdfrwt>
<totfact> 0.28303385E+05</totfact>
</mgrwt>
</event>
<event>
 8    1  0.9691636E-006  0.3111128E+03  0.7546771E-02  0.1079814E+00
         21   -1    0    0  504  503  0.00000000000E+00  0.00000000000E+00  0.74623271418E+02  0.74623271418E+02  0.00000000000E+00 0. -1.
         21   -1    0    0  503  504 -0.00000000000E+00 -0.00000000000E+00 -0.32426613552E+03  0.32426613552E+03  0.00000000000E+00 0. -1.
         25    2    1    2    0    0 -0.69016412740E+02  0.52733314333E+02 -0.16594397392E+03  0.22518052835E+03  0.12499920080E+03 0.  0.
         25    2    1    2    0    0  0.69016412740E+02 -0.52733314333E+02 -0.83698890182E+02  0.17370887859E+03  0.12500081045E+03 0.  0.
          5    1    3    3  501    0 -0.38519798365E+02  0.38062161501E+02  0.14099612473E+01  0.54374451674E+02  0.47000000000E+01 0. -1.
         -5    1    3    3    0  501 -0.30496614376E+02  0.14671152832E+02 -0.16735393517E+03  0.17080607667E+03  0.47000000000E+01 0. -1.
          5    1    4    4  502    0  0.18616559668E+02  0.37782144992E+02 -0.47991626066E+02  0.64026189536E+02  0.47000000000E+01 0.  1.
         -5    1    4    4    0  502  0.50399853072E+02 -0.90515459325E+02 -0.35707264116E+02  0.10968268905E+03  0.47000000000E+01 0.  1.
<mgrwt>
<rscale>  0 0.31111284E+03</rscale>
<asrwt>0</asrwt>
<pdfrwt beam="1">  1       21 0.11480503E-01 0.31111284E+03</pdfrwt>
<pdfrwt beam="2">  1       21 0.49887098E-01 0.31111284E+03</pdfrwt>
<totfact> 0.23596557E+05</totfact>
</mgrwt>
</event>
<event>
 8    1  0.9691636E-006  0.2755427E+03  0.7546771E-02  0.1098149E+00
         21   -1    0    0  504  503  0.00000000000E+00  0.00000000000E+00  0.70165165326E+02  0.70165165326E+02  0.00000000000E+00 0.  1.
         21   -1    0    0  503  504 -0.00000000000E+00 -0.00000000000E+00 -0.27051799255E+03  0.27051799255E+03  0.00000000000E+00 0.  1.
         25    2    1    2    0    0  0.46006812478E+00  0.18203957121E+02 -0.32133718200E+02  0.13034191669E+03  0.12499937473E+03 0.  0.
         25    2    1    2    0    0 -0.46006812478E+00 -0.18203957121E+02 -0.16821910902E+03  0.21034124118E+03  0.12495668604E+03 0.  0.
          5    1    3    3  501    0  0.26289630897E+00 -0.24563373135E+02  0.39516439082E+02  0.46766092118E+02  0.47000000000E+01 0.  1.
         -5    1    3    3    0  501  0.19717181582E+00  0.42767330256E+02 -0.71650157282E+02  0.83575824570E+02  0.47000000000E+01 0.  1.
          5    1    4    4  502    0  0.18737739965E+02 -0.14404353915E+02  0.13425615001E+02  0.27584877177E+02  0.47000000000E+01 0.  1.
         -5    1    4    4    0  502 -0.19197808090E+02 -0.37996032059E+01 -0.18164472402E+03  0.18275636401E+03  0.47000000000E+01 0.  1.
<mgrwt>
<rscale>  0 0.27554266E+03</rscale>
<asrwt>0</asrwt>
<pdfrwt beam="1">  1       21 0.10794641E-01 0.27554266E+03</pdfrwt>
<pdfrwt beam="2">  1       21 0.41618152E-01 0.27554266E+03</pdfrwt>
<totfact> 0.38688239E+05</totfact>
</mgrwt>
</event>
<event>
 8    1  0.9691636E-006  0.2881951E+03  0.7546771E-02  0.1091295E+00
         21   -1    0    0  504  503  0.00000000000E+00  0.00000000000E+00  0.46049694220E+02  0.46049694220E+02  0.00000000000E+00 0.  1.
         21   -1    0    0  503  504 -0.00000000000E+00 -0.00000000000E+00 -0.45090658205E+03  0.45090658205E+03  0.00000000000E+00 0.  1.
         25    2    1    2    0    0 -0.31807832336E+02  0.58112164227E+02 -0.15532126298E+03  0.21009172604E+03  0.12500030715E+03 0.  0.
         25    2    1    2    0    0  0.31807832336E+02 -0.58112164227E+02 -0.24953562485E+03  0.28686455023E+03  0.12503791538E+03 0.  0.
          5    1    3    3  501    0 -0.34493630539E+02  0.79803882998E+02 -0.16434413499E+03  0.18598267391E+03  0.47000000000E+01 0.  1.
         -5    1    3    3    0  501  0.26857982034E+01 -0.21691718771E+02  0.90228720095E+01  0.24109052128E+02  0.47000000000E+01 0.  1.
          5    1    4    4  502    0  0.71967661943E+02 -0.29302004574E+01 -0.14433096525E+03  0.16137362848E+03  0.47000000000E+01 0.  1.
         -5    1    4    4    0  502 -0.40159829608E+02 -0.55181963769E+02 -0.10520465960E+03  0.12549092175E+03  0.47000000000E+01 0.  1.
<mgrwt>
<rscale>  0 0.28819514E+03</rscale>
<asrwt>0</asrwt>
<pdfrwt beam="1">  1       21 0.70845684E-02 0.28819514E+03</pdfrwt>
<pdfrwt beam="2">  1       21 0.69370243E-01 0.28819514E+03</pdfrwt>
<totfact> 0.27324918E+05</totfact>
</mgrwt>
</event>
<event>
 8    1  0.9691636E-006  0.3362815E+03  0.7546771E-02  0.1068391E+00
         21   -1    0    0  504  503  0.00000000000E+00  0.00000000000E+00  0.36090255938E+03  0.36090255938E+03  0.00000000000E+00 0. -1.
         21   -1    0    0  503  504 -0.00000000000E+00 -0.00000000000E+00 -0.78335018156E+02  0.78335018156E+02  0.00000000000E+00 0. -1.
         25    2    1    2    0    0  0.63571366113E+02  0.33317361562E+02  0.25436210896E+03  0.29236312150E+03  0.12499898868E+03 0.  0.
         25    2    1    2    0    0 -0.63571366113E+02 -0.33317361562E+02  0.28205432266E+02  0.14687445603E+03  0.12500077701E+03 0.  0.
          5    1    3    3  501    0  0.62941692710E+02  0.74169499553E+02  0.21211163596E+03  0.23340138700E+03  0.47000000000E+01 0. -1.
         -5    1    3    3    0  501  0.62967340333E+00 -0.40852137991E+02  0.42250472998E+02  0.58961734503E+02  0.47000000000E+01 0. -1.
          5    1    4    4  502    0  0.36072166254E+02 -0.22637752572E+02  0.71446935248E+00  0.42851715091E+02  0.47000000000E+01 0.  1.
         -5    1    4    4    0  502 -0.99643532367E+02 -0.10679608989E+02  0.27490962914E+02  0.10402274094E+03  0.47000000000E+01 0.  1.
<mgrwt>
<rscale>  0 0.33628148E+03</rscale>
<asrwt>0</asrwt>
<pdfrwt beam="1">  1       21 0.55523470E-01 0.33628148E+03</pdfrwt>
<pdfrwt beam="2">  1       21 0.12051541E-01 0.33628148E+03</pdfrwt>
<totfact> 0.17120527E+05</totfact>
</mgrwt>
</event>
<event>
 8    1  0.9691636E-006  0.3159446E+03  0.7546771E-02  0.1077531E+00
         21   -1    0    0  504  503  0.00000000000E+00  0.00000000000E+00  0.51263333589E+02  0.51263333589E+02  0.00000000000E+00 0. -1.
         21   -1    0    0  503  504 -0.00000000000E+00 -0.00000000000E+00 -0.48680514053E+03  0.48680514053E+03  0.00000000000E+00 0. -1.
         25    2    1    2    0    0 -0.31275971377E+02 -0.79619574136E+02 -0.29416341262E+03  0.33087032120E+03  0.12500237260E+03 0.  0.
         25    2    1    2    0    0  0.31275971377E+02  0.79619574136E+02 -0.14137839432E+03  0.20719815292E+03  0.12500304485E+03 0.  0.
          5    1    3    3  501    0  0.23547339007E+02 -0.66343637084E+02 -0.24796401246E+03  0.25780651045E+03  0.47000000000E+01 0. -1.
         -5    1    3    3    0  501 -0.54823310384E+02 -0.13275937052E+02 -0.46199400163E+02  0.73063810751E+02  0.47000000000E+01 0. -1.
          5    1    4    4  502    0  0.12113379991E+02 -0.22475841115E+02  0.61750808174E+01  0.26685558487E+02  0.47000000000E+01 0. -1.
         -5    1    4    4    0  502  0.19162591386E+02  0.10209541525E+03 -0.14755347514E+03  0.18051259444E+03  0.47000000000E+01 0. -1.
<mgrwt>
<rscale>  0 0.31594464E+03</rscale>
<asrwt>0</asrwt>
<pdfrwt beam="1">  1       21 0.78866670E-02 0.31594464E+03</pdfrwt>
<pdfrwt beam="2">  1       21 0.74893096E-01 0.31594464E+03</pdfrwt>
<totfact> 0.18954525E+05</totfact>
</mgrwt>
</event>
<event>
 8    1  0.9691636E-006  0.4283955E+03  0.7546771E-02  0.1034368E+00
         21   -1    0    0  504  503  0.00000000000E+00  0.00000000000E+00  0.11821651044E+04  0.11821651044E+04  0.00000000000E+00 0. -1.
         21   -1    0    0  503  504 -0.00000000000E+00 -0.00000000000E+00 -0.38810724020E+02  0.38810724020E+02  0.00000000000E+00 0. -1.
         25    2    1    2    0    0  0.63818951618E+02 -0.11313652958E+02  0.11161604550E+03  0.17967385480E+03  0.12499478051E+03 0.  0.
         25    2    1    2    0    0 -0.63818951618E+02  0.11313652958E+02  0.10317383349E+04  0.10413019736E+04  0.12499980515E+03 0.  0.
          5    1    3    3  501    0  0.13975326893E+02 -0.18666917734E+02  0.12507155728E+03  0.12731358144E+03  0.47000000000E+01 0. -1.
         -5    1    3    3    0  501  0.49843624725E+02  0.73532647760E+01 -0.13455511776E+02  0.52360273354E+02  0.47000000000E+01 0. -1.
          5    1    4    4  502    0 -0.91991334780E+02 -0.44092303211E+00  0.94003279572E+03  0.94453498989E+03  0.47000000000E+01 0.  1.
         -5    1    4    4    0  502  0.28172383162E+02  0.11754575990E+02  0.91705539157E+02  0.96766983738E+02  0.47000000000E+01 0.  1.
<mgrwt>
<rscale>  0 0.42839554E+03</rscale>
<asrwt>0</asrwt>
<pdfrwt beam="1">  1       21 0.18187153E+00 0.42839554E+03</pdfrwt>
<pdfrwt beam="2">  1       21 0.59708815E-02 0.42839554E+03</pdfrwt>
<totfact> 0.31603334E+04</totfact>
</mgrwt>
</event>
<event>
 8    1  0.9691636E-006  0.5815405E+03  0.7546771E-02  0.9944461E-01
         21   -1    0    0  504  503  0.00000000000E+00  0.00000000000E+00  0.25604940148E+03  0.25604940148E+03  0.00000000000E+00 0.  1.
         21   -1    0    0  503  504 -0.00000000000E+00 -0.00000000000E+00 -0.33019930824E+03  0.33019930824E+03  0.00000000000E+00 0.  1.
         25    2    1    2    0    0  0.18039501612E+03 -0.18373809616E+03  0.14522188637E+02  0.28659892315E+03  0.12500399580E+03 0.  0.
         25    2    1    2    0    0 -0.18039501612E+03  0.18373809616E+03 -0.88672095401E+02  0.29964978657E+03  0.12500081707E+03 0.  0.
          5    1    3    3  501    0  0.84067057693E+02 -0.56634967019E+02 -0.51659836652E+02  0.11386666940E+03  0.47000000000E+01 0. -1.
         -5    1    3    3    0  501  0.96327958425E+02 -0.12710312915E+03  0.66182025289E+02  0.17273225375E+03  0.47000000000E+01 0. -1.
          5    1    4    4  502    0 -0.71812136621E+01 -0.14173308292E+02  0.92388341017E+01  0.18970992414E+02  0.47000000000E+01 0. -1.
         -5    1    4    4    0  502 -0.17321380246E+03  0.19791140446E+03 -0.97910929503E+02  0.28067879416E+03  0.47000000000E+01 0. -1.
<mgrwt>
<rscale>  0 0.58154049E+03</rscale>
<asrwt>0</asrwt>
<pdfrwt beam="1">  1       21 0.39392216E-01 0.58154049E+03</pdfrwt>
<pdfrwt beam="2">  1       21 0.50799893E-01 0.58154049E+03</pdfrwt>
<totfact> 0.20129476E+04</totfact>
</mgrwt>
</event>
<event>
 8    1  0.9691636E-006  0.3431208E+03  0.7546771E-02  0.1065474E+00
         21   -1    0    0  504  503  0.00000000000E+00  0.00000000000E+00  0.18583956144E+02  0.18583956144E+02  0.00000000000E+00 0.  1.
         21   -1    0    0  503  504 -0.00000000000E+00 -0.00000000000E+00 -0.15837841013E+04  0.15837841013E+04  0.00000000000E+00 0.  1.
         25    2    1    2    0    0  0.40307860388E+02  0.81016470250E+02 -0.11326736790E+04  0.11431374667E+04  0.12500085012E+03 0.  0.
         25    2    1    2    0    0 -0.40307860388E+02 -0.81016470250E+02 -0.43252646617E+03  0.45923059080E+03  0.12500079809E+03 0.  0.
          5    1    3    3  501    0  0.70299872559E+02  0.13198261894E+02 -0.37200075180E+03  0.37884418372E+03  0.47000000000E+01 0. -1.
         -5    1    3    3    0  501 -0.29992012172E+02  0.67818208355E+02 -0.76067292720E+03  0.76429328295E+03  0.47000000000E+01 0. -1.
          5    1    4    4  502    0 -0.13003560767E+02  0.33390983784E+02 -0.11734937907E+03  0.12278850581E+03  0.47000000000E+01 0.  1.
         -5    1    4    4    0  502 -0.27304299621E+02 -0.11440745403E+03 -0.31517708710E+03  0.33644208498E+03  0.47000000000E+01 0.  1.
<mgrwt>
<rscale>  0 0.34312082E+03</rscale>
<asrwt>0</asrwt>
<pdfrwt beam="1">  1       21 0.28590691E-02 0.34312082E+03</pdfrwt>
<pdfrwt beam="2">  1       21 0.24365918E+00 0.34312082E+03</pdfrwt>
<totfact> 0.45518686E+04</totfact>
</mgrwt>
</event>
<event>
 8    1  0.9691636E-006  0.2585172E+03  0.7546771E-02  0.1108037E+00
         21   -1    0    0  504  503  0.00000000000E+00  0.00000000000E+00  0.43611731995E+02  0.43611731995E+02  0.00000000000E+00 0. -1.
         21   -1    0    0  503  504 -0.00000000000E+00 -0.00000000000E+00 -0.38310290196E+03  0.38310290196E+03  0.00000000000E+00 0. -1.
         25    2    1    2    0    0 -0.16636079860E+02  0.12982281205E+02 -0.12807399959E+03  0.18020453268E+03  0.12500170178E+03 0.  0.
         25    2    1    2    0    0  0.16636079860E+02 -0.12982281205E+02 -0.21141717038E+03  0.24651010128E+03  0.12499884529E+03 0.  0.
          5    1    3    3  501    0 -0.57517174908E+02  0.56906682605E+01 -0.12559951520E+03  0.13833993397E+03  0.47000000000E+01 0. -1.
         -5    1    3    3    0  501  0.40881095048E+02  0.72916129442E+01 -0.24744843942E+01  0.41864598704E+02  0.47000000000E+01 0. -1.
          5    1    4    4  502    0  0.47649704762E+02  0.37401922522E+02 -0.14624063969E+03  0.15835975774E+03  0.47000000000E+01 0.  1.
         -5    1    4    4    0  502 -0.31013624902E+02 -0.50384203727E+02 -0.65176530685E+02  0.88150343544E+02  0.47000000000E+01 0.  1.
<mgrwt>
<rscale>  0 0.25851716E+03</rscale>
<asrwt>0</asrwt>
<pdfrwt beam="1">  1       21 0.67094969E-02 0.25851716E+03</pdfrwt>
<pdfrwt beam="2">  1       21 0.58938911E-01 0.25851716E+03</pdfrwt>
<totfact> 0.43182992E+05</totfact>
</mgrwt>
</event>
<event>
 8    1  0.9691636E-006  0.2931331E+03  0.7546771E-02  0.1088725E+00
         21   -1    0    0  504  503  0.00000000000E+00  0.00000000000E+00  0.33310984985E+02  0.33310984985E+02  0.00000000000E+00 0.  1.
         21   -1    0    0  503  504 -0.00000000000E+00 -0.00000000000E+00 -0.64488501075E+03  0.64488501075E+03  0.00000000000E+00 0.  1.
         25    2    1    2    0    0 -0.35370777507E+01  0.10847820455E+02 -0.13070055881E+03  0.18121172178E+03  0.12499946364E+03 0.  0.
         25    2    1    2    0    0  0.35370777507E+01 -0.10847820455E+02 -0.48087346696E+03  0.49698427395E+03  0.12499556475E+03 0.  0.
          5    1    3    3  501    0 -0.50792669856E+02  0.30111606141E+02 -0.11192581683E+03  0.12663365512E+03  0.47000000000E+01 0. -1.
         -5    1    3    3    0  501  0.47255592106E+02 -0.19263785686E+02 -0.18774741977E+02  0.54578066662E+02  0.47000000000E+01 0. -1.
          5    1    4    4  502    0 -0.15389119366E+02  0.28609430890E+02 -0.31609267863E+02  0.45569291695E+02  0.47000000000E+01 0. -1.
         -5    1    4    4    0  502  0.18926197117E+02 -0.39457251345E+02 -0.44926419909E+03  0.45141498226E+03  0.47000000000E+01 0. -1.
<mgrwt>
<rscale>  0 0.29313311E+03</rscale>
<asrwt>0</asrwt>
<pdfrwt beam="1">  1       21 0.51247671E-02 0.29313311E+03</pdfrwt>
<pdfrwt beam="2">  1       21 0.99213074E-01 0.29313311E+03</pdfrwt>
<totfact> 0.20941667E+05</totfact>
</mgrwt>
</event>
<event>
 8    1  0.9691636E-006  0.3044013E+03  0.7546771E-02  0.1083061E+00
         21   -1    0    0  504  503  0.00000000000E+00  0.00000000000E+00  0.15309147825E+02  0.15309147825E+02  0.00000000000E+00 0. -1.
         21   -1    0    0  503  504 -0.00000000000E+00 -0.00000000000E+00 -0.15131499211E+04  0.15131499211E+04  0.00000000000E+00 0. -1.
         25    2    1    2    0    0 -0.50638411570E+02  0.59877273029E+02 -0.93613035946E+03  0.94768926275E+03  0.12500140911E+03 0.  0.
         25    2    1    2    0    0  0.50638411570E+02 -0.59877273029E+02 -0.56171041381E+03  0.58076980617E+03  0.12500176888E+03 0.  0.
          5    1    3    3  501    0  0.38399444212E+02 -0.18777108885E+01 -0.21781690214E+03  0.22123366826E+03  0.47000000000E+01 0.  1.
         -5    1    3    3    0  501 -0.89037855782E+02  0.61754983917E+02 -0.71831345731E+03  0.72645559449E+03  0.47000000000E+01 0.  1.
          5    1    4    4  502    0 -0.48880102175E+01  0.28063806749E+02 -0.43530346217E+02  0.52234576048E+02  0.47000000000E+01 0. -1.
         -5    1    4    4    0  502  0.55526421788E+02 -0.87941079778E+02 -0.51818006760E+03  0.52853523012E+03  0.47000000000E+01 0. -1.
<mgrwt>
<rscale>  0 0.30440129E+03</rscale>
<asrwt>0</asrwt>
<pdfrwt beam="1">  1       21 0.23552522E-02 0.30440129E+03</pdfrwt>
<pdfrwt beam="2">  1       21 0.23279243E+00 0.30440129E+03</pdfrwt>
<totfact> 0.74504388E+04</totfact>
</mgrwt>
</event>
<event>
 8    1  0.9691636E-006  0.4246769E+03  0.7546771E-02  0.1035555E+00
         21   -1    0    0  504  503  0.00000000000E+00  0.00000000000E+00  0.24776627322E+03  0.24776627322E+03  0.00000000000E+00 0. -1.
         21   -1    0    0  503  504 -0.00000000000E+00 -0.00000000000E+00 -0.18197640282E+03  0.18197640282E+03  0.00000000000E+00 0. -1.
         25    2    1    2    0    0 -0.13384805488E+03  0.72173205381E+02 -0.47673858933E+02  0.20253593166E+03  0.12499493356E+03 0.  0.
         25    2    1    2    0    0  0.13384805488E+03 -0.72173205381E+02  0.11346372933E+03  0.22720674439E+03  0.12499845379E+03 0.  0.
          5    1    3    3  501    0 -0.15112769236E+03  0.76873391135E+02 -0.22233024671E+02  0.17107160796E+03  0.47000000000E+01 0. -1.
         -5    1    3    3    0  501  0.17279637483E+02 -0.47001857534E+01 -0.25440834262E+02  0.31464323695E+02  0.47000000000E+01 0. -1.
          5    1    4    4  502    0  0.63066654357E+02 -0.65211748585E+01 -0.16079154799E+02  0.65578638537E+02  0.47000000000E+01 0. -1.
         -5    1    4    4    0  502  0.70781400525E+02 -0.65652030523E+02  0.12954288413E+03  0.16162810585E+03  0.47000000000E+01 0. -1.
<mgrwt>
<rscale>  0 0.42467689E+03</rscale>
<asrwt>0</asrwt>
<pdfrwt beam="1">  1       21 0.38117888E-01 0.42467689E+03</pdfrwt>
<pdfrwt beam="2">  1       21 0.27996370E-01 0.42467689E+03</pdfrwt>
<totfact> 0.75472744E+04</totfact>
</mgrwt>
</event>
<event>
 8    1  0.9691636E-006  0.3536991E+03  0.7546771E-02  0.1061107E+00
         21   -1    0    0  504  503  0.00000000000E+00  0.00000000000E+00  0.68461745897E+02  0.68461745897E+02  0.00000000000E+00 0. -1.
         21   -1    0    0  503  504 -0.00000000000E+00 -0.00000000000E+00 -0.45683573046E+03  0.45683573046E+03  0.00000000000E+00 0. -1.
         25    2    1    2    0    0  0.10200370308E+03  0.72266265906E+02 -0.20156739730E+03  0.26810054765E+03  0.12498527659E+03 0.  0.
         25    2    1    2    0    0 -0.10200370308E+03 -0.72266265906E+02 -0.18680658726E+03  0.25719692871E+03  0.12500556173E+03 0.  0.
          5    1    3    3  501    0  0.27372994241E+02 -0.35059725951E+02 -0.38223157680E+02  0.58835065909E+02  0.47000000000E+01 0.  1.
         -5    1    3    3    0  501  0.74630708835E+02  0.10732599186E+03 -0.16334423962E+03  0.20926548174E+03  0.47000000000E+01 0.  1.
          5    1    4    4  502    0 -0.10833579991E+03 -0.53588074515E+02 -0.19948034764E+03  0.23328700428E+03  0.47000000000E+01 0.  1.
         -5    1    4    4    0  502  0.63320968323E+01 -0.18678191392E+02  0.12673760380E+02  0.23909924428E+02  0.47000000000E+01 0.  1.
<mgrwt>
<rscale>  0 0.35369915E+03</rscale>
<asrwt>0</asrwt>
<pdfrwt beam="1">  1       21 0.10532576E-01 0.35369915E+03</pdfrwt>
<pdfrwt beam="2">  1       21 0.70282421E-01 0.35369915E+03</pdfrwt>
<totfact> 0.12967251E+05</totfact>
</mgrwt>
</event>
<event>
 8    1  0.9691636E-006  0.2964600E+03  0.7546771E-02  0.1087024E+00
         21   -1    0    0  504  503  0.00000000000E+00  0.00000000000E+00  0.19199935209E+02  0.19199935209E+02  0.00000000000E+00 0. -1.
         21   -1    0    0  503  504 -0.00000000000E+00 -0.00000000000E+00 -0.11443856516E+04  0.11443856516E+04  0.00000000000E+00 0. -1.
         25    2    1    2    0    0 -0.39211808772E+02 -0.58256845939E+02 -0.41495283758E+03  0.43902444616E+03  0.12500072345E+03 0.  0.
         25    2    1    2    0    0  0.39211808772E+02  0.58256845939E+02 -0.71023287886E+03  0.72456114069E+03  0.12500671322E+03 0.  0.
          5    1    3    3  501    0 -0.80322783282E+02 -0.31653652457E+02 -0.18988757382E+03  0.20864583369E+03  0.47000000000E+01 0.  1.
         -5    1    3    3    0  501  0.41110974510E+02 -0.26603193482E+02 -0.22506526376E+03  0.23037861246E+03  0.47000000000E+01 0.  1.
          5    1    4    4  502    0  0.50268125790E+02  0.63759143910E+02 -0.22668073033E+03  0.24082847923E+03  0.47000000000E+01 0. -1.
         -5    1    4    4    0  502 -0.11056317018E+02 -0.55022979702E+01 -0.48355214852E+03  0.48373266147E+03  0.47000000000E+01 0. -1.
<mgrwt>
<rscale>  0 0.29645998E+03</rscale>
<asrwt>0</asrwt>
<pdfrwt beam="1">  1       21 0.29538362E-02 0.29645998E+03</pdfrwt>
<pdfrwt beam="2">  1       21 0.17605933E+00 0.29645998E+03</pdfrwt>
<totfact> 0.12021428E+05</totfact>
</mgrwt>
</event>
<event>
 8    1  0.9691636E-006  0.2570278E+03  0.7546771E-02  0.1108942E+00
         21   -1    0    0  504  503  0.00000000000E+00  0.00000000000E+00  0.65066438841E+02  0.65066438841E+02  0.00000000000E+00 0. -1.
         21   -1    0    0  503  504 -0.00000000000E+00 -0.00000000000E+00 -0.25383020325E+03  0.25383020325E+03  0.00000000000E+00 0. -1.
         25    2    1    2    0    0  0.23056045755E+01 -0.10034584046E+02 -0.12912595081E+03  0.18001390348E+03  0.12500194232E+03 0.  0.
         25    2    1    2    0    0 -0.23056045755E+01  0.10034584046E+02 -0.59637813605E+02  0.13888273862E+03  0.12500295030E+03 0.  0.
          5    1    3    3  501    0  0.25045789449E+02  0.34048001522E+02 -0.12259644156E+03  0.12976338259E+03  0.47000000000E+01 0.  1.
         -5    1    3    3    0  501 -0.22740184873E+02 -0.44082585568E+02 -0.65295092409E+01  0.50250520886E+02  0.47000000000E+01 0.  1.
          5    1    4    4  502    0 -0.19269331259E+02  0.62575206007E+02 -0.50280460328E+02  0.82687231328E+02  0.47000000000E+01 0. -1.
         -5    1    4    4    0  502  0.16963726683E+02 -0.52540621961E+02 -0.93573532764E+01  0.56195507288E+02  0.47000000000E+01 0. -1.
<mgrwt>
<rscale>  0 0.25702784E+03</rscale>
<asrwt>0</asrwt>
<pdfrwt beam="1">  1       21 0.10010221E-01 0.25702784E+03</pdfrwt>
<pdfrwt beam="2">  1       21 0.39050801E-01 0.25702784E+03</pdfrwt>
<totfact> 0.50568221E+05</totfact>
</mgrwt>
</event>
<event>
 8    1  0.9691636E-006  0.2585721E+03  0.7546771E-02  0.1108004E+00
         21   -1    0    0  504  503  0.00000000000E+00  0.00000000000E+00  0.93183962201E+03  0.93183962201E+03  0.00000000000E+00 0. -1.
         21   -1    0    0  503  504 -0.00000000000E+00 -0.00000000000E+00 -0.17937504154E+02  0.17937504154E+02  0.00000000000E+00 0. -1.
         25    2    1    2    0    0  0.15977969810E+02 -0.11054129599E+02  0.55502937621E+03  0.56926361854E+03  0.12500387850E+03 0.  0.
         25    2    1    2    0    0 -0.15977969810E+02  0.11054129599E+02  0.35887274164E+03  0.38051350762E+03  0.12499358178E+03 0.  0.
          5    1    3    3  501    0  0.15523735707E+02  0.17301724195E+02  0.53173583724E+03  0.53226443300E+03  0.47000000000E+01 0.  1.
         -5    1    3    3    0  501  0.45423410277E+00 -0.28355853795E+02  0.23293538966E+02  0.36999185540E+02  0.47000000000E+01 0.  1.
          5    1    4    4  502    0  0.32483281723E+01  0.46690447375E+02  0.48825451401E+02  0.67797966168E+02  0.47000000000E+01 0. -1.
         -5    1    4    4    0  502 -0.19226297982E+02 -0.35636317776E+02  0.31004729024E+03  0.31271554145E+03  0.47000000000E+01 0. -1.
<mgrwt>
<rscale>  0 0.25857206E+03</rscale>
<asrwt>0</asrwt>
<pdfrwt beam="1">  1       21 0.14335990E+00 0.25857206E+03</pdfrwt>
<pdfrwt beam="2">  1       21 0.27596167E-02 0.25857206E+03</pdfrwt>
<totfact> 0.23882685E+05</totfact>
</mgrwt>
</event>
<event>
 8    1  0.9691636E-006  0.2526201E+03  0.7546771E-02  0.1111660E+00
         21   -1    0    0  504  503  0.00000000000E+00  0.00000000000E+00  0.70957355527E+02  0.70957355527E+02  0.00000000000E+00 0. -1.
         21   -1    0    0  503  504 -0.00000000000E+00 -0.00000000000E+00 -0.22484254408E+03  0.22484254408E+03  0.00000000000E+00 0. -1.
         25    2    1    2    0    0 -0.50090990437E+01  0.10808867574E+02 -0.61266996263E+02  0.13974999131E+03  0.12503796443E+03 0.  0.
         25    2    1    2    0    0  0.50090990437E+01 -0.10808867574E+02 -0.92618192294E+02  0.15604990830E+03  0.12502608385E+03 0.  0.
          5    1    3    3  501    0  0.52640375984E+02  0.29555880453E+02 -0.12555148914E+02  0.61840771482E+02  0.47000000000E+01 0. -1.
         -5    1    3    3    0  501 -0.57649475028E+02 -0.18747012879E+02 -0.48711847348E+02  0.77909219833E+02  0.47000000000E+01 0. -1.
          5    1    4    4  502    0 -0.62577634734E+01  0.56225905949E+02 -0.34022893910E+02  0.66182772785E+02  0.47000000000E+01 0.  1.
         -5    1    4    4    0  502  0.11266862517E+02 -0.67034773523E+02 -0.58595298384E+02  0.89867135511E+02  0.47000000000E+01 0.  1.
<mgrwt>
<rscale>  0 0.25262013E+03</rscale>
<asrwt>0</asrwt>
<pdfrwt beam="1">  1       21 0.10916516E-01 0.25262013E+03</pdfrwt>
<pdfrwt beam="2">  1       21 0.34591160E-01 0.25262013E+03</pdfrwt>
<totfact> 0.55332220E+05</totfact>
</mgrwt>
</event>
<event>
 8    1  0.9691636E-006  0.3073765E+03  0.7546771E-02  0.1081610E+00
         21   -1    0    0  504  503  0.00000000000E+00  0.00000000000E+00  0.17522802923E+04  0.17522802923E+04  0.00000000000E+00 0. -1.
         21   -1    0    0  503  504 -0.00000000000E+00 -0.00000000000E+00 -0.13479620681E+02  0.13479620681E+02  0.00000000000E+00 0. -1.
         25    2    1    2    0    0  0.26193608229E+02 -0.74333096593E+02  0.62689112821E+03  0.64407248265E+03  0.12500144767E+03 0.  0.
         25    2    1    2    0    0 -0.26193608229E+02  0.74333096593E+02  0.11119095434E+04  0.11216874303E+04  0.12501337637E+03 0.  0.
          5    1    3    3  501    0  0.56483313653E+02  0.10433262493E+02  0.24683149639E+03  0.25347010731E+03  0.47000000000E+01 0.  1.
         -5    1    3    3    0  501 -0.30289705424E+02 -0.84766359086E+02  0.38005963182E+03  0.39060237535E+03  0.47000000000E+01 0.  1.
          5    1    4    4  502    0 -0.55461229623E+02 -0.35437518347E+01  0.27229739515E+03  0.27795047684E+03  0.47000000000E+01 0.  1.
         -5    1    4    4    0  502  0.29267621394E+02  0.77876848428E+02  0.83961214823E+03  0.84373695347E+03  0.47000000000E+01 0.  1.
<mgrwt>
<rscale>  0 0.30737647E+03</rscale>
<asrwt>0</asrwt>
<pdfrwt beam="1">  1       21 0.26958140E+00 0.30737647E+03</pdfrwt>
<pdfrwt beam="2">  1       21 0.20737892E-02 0.30737647E+03</pdfrwt>
<totfact> 0.55073998E+04</totfact>
</mgrwt>
</event>
<event>
 8    1  0.9691636E-006  0.2582309E+03  0.7546771E-02  0.1108211E+00
         21   -1    0    0  504  503  0.00000000000E+00  0.00000000000E+00  0.17414313829E+02  0.17414313829E+02  0.00000000000E+00 0. -1.
         21   -1    0    0  503  504 -0.00000000000E+00 -0.00000000000E+00 -0.95730415360E+03  0.95730415360E+03  0.00000000000E+00 0. -1.
         25    2    1    2    0    0  0.31493558855E+02  0.70969604392E+01 -0.47405240941E+03  0.49131678229E+03  0.12499713036E+03 0.  0.
         25    2    1    2    0    0 -0.31493558855E+02 -0.70969604392E+01 -0.46583743036E+03  0.48340168513E+03  0.12502186436E+03 0.  0.
          5    1    3    3  501    0  0.45763398401E+02  0.54307744745E+02 -0.18832048319E+03  0.20132142003E+03  0.47000000000E+01 0.  1.
         -5    1    3    3    0  501 -0.14269839546E+02 -0.47210784306E+02 -0.28573192621E+03  0.28999536226E+03  0.47000000000E+01 0.  1.
          5    1    4    4  502    0  0.16597228874E+02  0.46167221024E+02 -0.11253142234E+03  0.12285068709E+03  0.47000000000E+01 0.  1.
         -5    1    4    4    0  502 -0.48090787729E+02 -0.53264181463E+02 -0.35330600802E+03  0.36055099805E+03  0.47000000000E+01 0.  1.
<mgrwt>
<rscale>  0 0.25823087E+03</rscale>
<asrwt>0</asrwt>
<pdfrwt beam="1">  1       21 0.26791251E-02 0.25823087E+03</pdfrwt>
<pdfrwt beam="2">  1       21 0.14727757E+00 0.25823087E+03</pdfrwt>
<totfact> 0.23364021E+05</totfact>
</mgrwt>
</event>
<event>
 8    1  0.9691636E-006  0.2512280E+03  0.7546771E-02  0.1112531E+00
         21   -1    0    0  504  503  0.00000000000E+00  0.00000000000E+00  0.18845614792E+02  0.18845614792E+02  0.00000000000E+00 0. -1.
         21   -1    0    0  503  504 -0.00000000000E+00 -0.00000000000E+00 -0.83727044349E+03  0.83727044349E+03  0.00000000000E+00 0. -1.
         25    2    1    2    0    0  0.31820264435E+01  0.35487699261E+01 -0.44860476348E+03  0.46571776348E+03  0.12499632933E+03 0.  0.
         25    2    1    2    0    0 -0.31820264435E+01 -0.35487699261E+01 -0.36982006522E+03  0.39039829480E+03  0.12498491462E+03 0.  0.
          5    1    3    3  501    0 -0.55979288435E+02  0.43000356356E+01 -0.13079709524E+03  0.14241538246E+03  0.47000000000E+01 0.  1.
         -5    1    3    3    0  501  0.59161314879E+02 -0.75126570947E+00 -0.31780766824E+03  0.32330238102E+03  0.47000000000E+01 0.  1.
          5    1    4    4  502    0 -0.21161760072E+02 -0.36888102626E+02 -0.33802291837E+03  0.34072002517E+03  0.47000000000E+01 0. -1.
         -5    1    4    4    0  502  0.17979733628E+02  0.33339332699E+02 -0.31797146852E+02  0.49678269637E+02  0.47000000000E+01 0. -1.
<mgrwt>
<rscale>  0 0.25122799E+03</rscale>
<asrwt>0</asrwt>
<pdfrwt beam="1">  1       21 0.28993254E-02 0.25122799E+03</pdfrwt>
<pdfrwt beam="2">  1       21 0.12881084E+00 0.25122799E+03</pdfrwt>
<totfact> 0.29069287E+05</totfact>
</mgrwt>
</event>
<event>
 8    1  0.9691636E-006  0.2753406E+03  0.7546771E-02  0.1098261E+00
         21   -1    0    0  504  503  0.00000000000E+00  0.00000000000E+00  0.87554719585E+03  0.87554719585E+03  0.00000000000E+00 0. -1.
         21   -1    0    0  503  504 -0.00000000000E+00 -0.00000000000E+00 -0.21647161381E+02  0.21647161381E+02  0.00000000000E+00 0. -1.
         25    2    1    2    0    0  0.56899053739E+02 -0.63065090895E+01  0.40400932291E+03  0.42676109483E+03  0.12499689872E+03 0.  0.
         25    2    1    2    0    0 -0.56899053739E+02  0.63065090895E+01  0.44989071156E+03  0.47043326241E+03  0.12501410982E+03 0.  0.
          5    1    3    3  501    0 -0.91083730627E+01  0.49402440622E+02  0.16724614970E+03  0.17469095051E+03  0.47000000000E+01 0. -1.
         -5    1    3    3    0  501  0.66007426802E+02 -0.55708949712E+02  0.23676317321E+03  0.25207014432E+03  0.47000000000E+01 0. -1.
          5    1    4    4  502    0 -0.35153229268E+02  0.41953740593E+01  0.21971188470E+02  0.41930583281E+02  0.47000000000E+01 0. -1.
         -5    1    4    4    0  502 -0.21745824471E+02  0.21111350302E+01  0.42791952309E+03  0.42850267913E+03  0.47000000000E+01 0. -1.
<mgrwt>
<rscale>  0 0.27534060E+03</rscale>
<asrwt>0</asrwt>
<pdfrwt beam="1">  1       21 0.13469954E+00 0.27534060E+03</pdfrwt>
<pdfrwt beam="2">  1       21 0.33303332E-02 0.27534060E+03</pdfrwt>
<totfact> 0.20430847E+05</totfact>
</mgrwt>
</event>
<event>
 8    1  0.9691636E-006  0.2611263E+03  0.7546771E-02  0.1106468E+00
         21   -1    0    0  504  503  0.00000000000E+00  0.00000000000E+00  0.13101142600E+03  0.13101142600E+03  0.00000000000E+00 0. -1.
         21   -1    0    0  503  504 -0.00000000000E+00 -0.00000000000E+00 -0.13011636875E+03  0.13011636875E+03  0.00000000000E+00 0. -1.
         25    2    1    2    0    0  0.96836175226E+01  0.24884755816E+02  0.27092957394E+02  0.13064799205E+03  0.12498738323E+03 0.  0.
         25    2    1    2    0    0 -0.96836175226E+01 -0.24884755816E+02 -0.26197900143E+02  0.13047980270E+03  0.12500250166E+03 0.  0.
          5    1    3    3  501    0  0.51331970408E+02  0.27374204657E+02  0.55029763096E+02  0.80216476443E+02  0.47000000000E+01 0. -1.
         -5    1    3    3    0  501 -0.41648352885E+02 -0.24894488415E+01 -0.27936805702E+02  0.50431515607E+02  0.47000000000E+01 0. -1.
          5    1    4    4  502    0  0.33892427123E+02 -0.58531616086E+02  0.32322389733E+01  0.67876240812E+02  0.47000000000E+01 0.  1.
         -5    1    4    4    0  502 -0.43576044646E+02  0.33646860271E+02 -0.29430139116E+02  0.62603561891E+02  0.47000000000E+01 0.  1.
<mgrwt>
<rscale>  0 0.26112626E+03</rscale>
<asrwt>0</asrwt>
<pdfrwt beam="1">  1       21 0.20155604E-01 0.26112626E+03</pdfrwt>
<pdfrwt beam="2">  1       21 0.20017903E-01 0.26112626E+03</pdfrwt>
<totfact> 0.51757778E+05</totfact>
</mgrwt>
</event>
<event>
 8    1  0.9691636E-006  0.2547536E+03  0.7546771E-02  0.1110337E+00
         21   -1    0    0  504  503  0.00000000000E+00  0.00000000000E+00  0.14788751069E+03  0.14788751069E+03  0.00000000000E+00 0. -1.
         21   -1    0    0  503  504 -0.00000000000E+00 -0.00000000000E+00 -0.10971077552E+03  0.10971077552E+03  0.00000000000E+00 0. -1.
         25    2    1    2    0    0 -0.23722014951E+02 -0.38562948753E+01  0.14341201985E+02  0.12809214307E+03  0.12499728813E+03 0.  0.
         25    2    1    2    0    0  0.23722014951E+02  0.38562948753E+01  0.23835533183E+02  0.12950614313E+03  0.12500441377E+03 0.  0.
          5    1    3    3  501    0 -0.21416216920E+02  0.59434244106E+02  0.18988254170E+01  0.63378066061E+02  0.47000000000E+01 0. -1.
         -5    1    3    3    0  501 -0.23057980311E+01 -0.63290538981E+02  0.12442376568E+02  0.64714077014E+02  0.47000000000E+01 0. -1.
          5    1    4    4  502    0  0.30727993248E+02 -0.32218557422E+02  0.61896890892E+02  0.76390837890E+02  0.47000000000E+01 0. -1.
         -5    1    4    4    0  502 -0.70059782964E+01  0.36074852298E+02 -0.38061357709E+02  0.53115305241E+02  0.47000000000E+01 0. -1.
<mgrwt>
<rscale>  0 0.25475363E+03</rscale>
<asrwt>0</asrwt>
<pdfrwt beam="1">  1       21 0.22751925E-01 0.25475363E+03</pdfrwt>
<pdfrwt beam="2">  1       21 0.16878581E-01 0.25475363E+03</pdfrwt>
<totfact> 0.56627881E+05</totfact>
</mgrwt>
</event>
<event>
 8    1  0.9691636E-006  0.3827449E+03  0.7546771E-02  0.1049924E+00
         21   -1    0    0  504  503  0.00000000000E+00  0.00000000000E+00  0.99740024605E+03  0.99740024605E+03  0.00000000000E+00 0.  1.
         21   -1    0    0  503  504 -0.00000000000E+00 -0.00000000000E+00 -0.36718868018E+02  0.36718868018E+02  0.00000000000E+00 0.  1.
         25    2    1    2    0    0  0.53513594405E+02 -0.57815978699E+02  0.15172967751E+03  0.21178405694E+03  0.12499679819E+03 0.  0.
         25    2    1    2    0    0 -0.53513594405E+02  0.57815978699E+02  0.80895170053E+03  0.82233505713E+03  0.12500280084E+03 0.  0.
          5    1    3    3  501    0  0.44847258375E+02 -0.82085467808E+02  0.48866401931E+02  0.10563766301E+03  0.47000000000E+01 0.  1.
         -5    1    3    3    0  501  0.86663360301E+01  0.24269489109E+02  0.10286327558E+03  0.10614639393E+03  0.47000000000E+01 0.  1.
          5    1    4    4  502    0  0.15874314491E+02  0.57418367075E+02  0.18249486823E+03  0.19202950208E+03  0.47000000000E+01 0. -1.
         -5    1    4    4    0  502 -0.69387908896E+02  0.39761162411E+00  0.62645683229E+03  0.63030555505E+03  0.47000000000E+01 0. -1.
<mgrwt>
<rscale>  0 0.38274487E+03</rscale>
<asrwt>0</asrwt>
<pdfrwt beam="1">  1       21 0.15344617E+00 0.38274487E+03</pdfrwt>
<pdfrwt beam="2">  1       21 0.56490574E-02 0.38274487E+03</pdfrwt>
<totfact> 0.56986912E+04</totfact>
</mgrwt>
</event>
<event>
 8    1  0.9691636E-006  0.3199185E+03  0.7546771E-02  0.1075687E+00
         21   -1    0    0  504  503  0.00000000000E+00  0.00000000000E+00  0.64301005352E+02  0.64301005352E+02  0.00000000000E+00 0.  1.
         21   -1    0    0  503  504 -0.00000000000E+00 -0.00000000000E+00 -0.39792483799E+03  0.39792483799E+03  0.00000000000E+00 0.  1.
         25    2    1    2    0    0  0.44366113014E+02  0.69393441801E+02 -0.85438373682E+02  0.17239020319E+03  0.12503945261E+03 0.  0.
         25    2    1    2    0    0 -0.44366113014E+02 -0.69393441801E+02 -0.24818545895E+03  0.28983564015E+03  0.12499949806E+03 0.  0.
          5    1    3    3  501    0  0.32874456422E+02  0.46890520111E+02  0.22295617617E+02  0.61633070070E+02  0.47000000000E+01 0. -1.
         -5    1    3    3    0  501  0.11491656591E+02  0.22502921690E+02 -0.10773399130E+03  0.11075713312E+03  0.47000000000E+01 0. -1.
          5    1    4    4  502    0 -0.24983432609E+01  0.35333833351E+02 -0.45715143181E+02  0.58023148953E+02  0.47000000000E+01 0.  1.
         -5    1    4    4    0  502 -0.41867769753E+02 -0.10472727515E+03 -0.20247031577E+03  0.23181249119E+03  0.47000000000E+01 0.  1.
<mgrwt>
<rscale>  0 0.31991853E+03</rscale>
<asrwt>0</asrwt>
<pdfrwt beam="1">  1       21 0.98924625E-02 0.31991853E+03</pdfrwt>
<pdfrwt beam="2">  1       21 0.61219205E-01 0.31991853E+03</pdfrwt>
<totfact> 0.19834324E+05</totfact>
</mgrwt>
</event>
<event>
 8    1  0.9691636E-006  0.2531286E+03  0.7546771E-02  0.1111343E+00
         21   -1    0    0  504  503  0.00000000000E+00  0.00000000000E+00  0.96456330054E+02  0.96456330054E+02  0.00000000000E+00 0. -1.
         21   -1    0    0  503  504 -0.00000000000E+00 -0.00000000000E+00 -0.16607020484E+03  0.16607020484E+03  0.00000000000E+00 0. -1.
         25    2    1    2    0    0 -0.16891707857E+02  0.85737356139E+01 -0.40120858700E+02  0.13270880071E+03  0.12507239402E+03 0.  0.
         25    2    1    2    0    0  0.16891707857E+02 -0.85737356139E+01 -0.29493016091E+02  0.12981773419E+03  0.12499586943E+03 0.  0.
          5    1    3    3  501    0  0.30980246445E+02  0.58030569311E+01 -0.69372990217E+02  0.76342340226E+02  0.47000000000E+01 0.  1.
         -5    1    3    3    0  501 -0.47871954301E+02  0.27706786828E+01  0.29252131517E+02  0.56366460482E+02  0.47000000000E+01 0.  1.
          5    1    4    4  502    0 -0.14808415768E+01 -0.64851499213E+02 -0.39137288078E+01  0.65156098065E+02  0.47000000000E+01 0.  1.
         -5    1    4    4    0  502  0.18372549433E+02  0.56277763599E+02 -0.25579287283E+02  0.64661636124E+02  0.47000000000E+01 0.  1.
<mgrwt>
<rscale>  0 0.25312860E+03</rscale>
<asrwt>0</asrwt>
<pdfrwt beam="1">  1       21 0.14839436E-01 0.25312860E+03</pdfrwt>
<pdfrwt beam="2">  1       21 0.25549262E-01 0.25312860E+03</pdfrwt>
<totfact> 0.57498087E+05</totfact>
</mgrwt>
</event>
<event>
 8    1  0.9691636E-006  0.3204017E+03  0.7546771E-02  0.1075465E+00
         21   -1    0    0  504  503  0.00000000000E+00  0.00000000000E+00  0.19544966039E+03  0.19544966039E+03  0.00000000000E+00 0.  1.
         21   -1    0    0  503  504 -0.00000000000E+00 -0.00000000000E+00 -0.13130908944E+03  0.13130908944E+03  0.00000000000E+00 0.  1.
         25    2    1    2    0    0  0.47050630648E+01  0.50575587819E+02  0.12015405594E+03  0.18067424312E+03  0.12500462898E+03 0.  0.
         25    2    1    2    0    0 -0.47050630648E+01 -0.50575587819E+02 -0.56013484988E+02  0.14608450671E+03  0.12499257937E+03 0.  0.
          5    1    3    3  501    0  0.42208458277E+02  0.25209318162E+01 -0.35447417845E+01  0.42691500813E+02  0.47000000000E+01 0.  1.
         -5    1    3    3    0  501 -0.37503395212E+02  0.48054656002E+02  0.12369879773E+03  0.13798274231E+03  0.47000000000E+01 0.  1.
          5    1    4    4  502    0  0.30908104507E+02 -0.76761481465E+02 -0.58677028821E+02  0.10155156164E+03  0.47000000000E+01 0. -1.
         -5    1    4    4    0  502 -0.35613167572E+02  0.26185893647E+02  0.26635438321E+01  0.44532945067E+02  0.47000000000E+01 0. -1.
<mgrwt>
<rscale>  0 0.32040173E+03</rscale>
<asrwt>0</asrwt>
<pdfrwt beam="1">  1       21 0.30069178E-01 0.32040173E+03</pdfrwt>
<pdfrwt beam="2">  1       21 0.20201398E-01 0.32040173E+03</pdfrwt>
<totfact> 0.23290964E+05</totfact>
</mgrwt>
</event>
<event>
 8    1  0.9691636E-006  0.2597254E+03  0.7546771E-02  0.1107308E+00
         21   -1    0    0  504  503  0.00000000000E+00  0.00000000000E+00  0.14818264136E+02  0.14818264136E+02  0.00000000000E+00 0.  1.
         21   -1    0    0  503  504 -0.00000000000E+00 -0.00000000000E+00 -0.11380767390E+04  0.11380767390E+04  0.00000000000E+00 0.  1.
         25    2    1    2    0    0 -0.16594956923E+02  0.30913289664E+02 -0.57614325310E+03  0.59058865668E+03  0.12499155665E+03 0.  0.
         25    2    1    2    0    0  0.16594956923E+02 -0.30913289664E+02 -0.54711522175E+03  0.56230634645E+03  0.12498934877E+03 0.  0.
          5    1    3    3  501    0 -0.21439107633E+02 -0.29189527322E+02 -0.44123332190E+03  0.44274213510E+03  0.47000000000E+01 0. -1.
         -5    1    3    3    0  501  0.48441507094E+01  0.60102816987E+02 -0.13490993121E+03  0.14784652158E+03  0.47000000000E+01 0. -1.
          5    1    4    4  502    0 -0.39843817538E+02 -0.39703918250E+02 -0.13649100536E+03  0.14770177881E+03  0.47000000000E+01 0.  1.
         -5    1    4    4    0  502  0.56438774461E+02  0.87906285856E+01 -0.41062421639E+03  0.41460456763E+03  0.47000000000E+01 0.  1.
<mgrwt>
<rscale>  0 0.25972541E+03</rscale>
<asrwt>0</asrwt>
<pdfrwt beam="1">  1       21 0.22797326E-02 0.25972541E+03</pdfrwt>
<pdfrwt beam="2">  1       21 0.17508875E+00 0.25972541E+03</pdfrwt>
<totfact> 0.19009108E+05</totfact>
</mgrwt>
</event>
<event>
 8    1  0.9691636E-006  0.2964450E+03  0.7546771E-02  0.1087031E+00
         21   -1    0    0  504  503  0.00000000000E+00  0.00000000000E+00  0.13940162282E+03  0.13940162282E+03  0.00000000000E+00 0. -1.
         21   -1    0    0  503  504 -0.00000000000E+00 -0.00000000000E+00 -0.15760158478E+03  0.15760158478E+03  0.00000000000E+00 0. -1.
         25    2    1    2    0    0  0.50271231366E+02 -0.53956249101E+02  0.21176778347E+02  0.14662123646E+03  0.12494341728E+03 0.  0.
         25    2    1    2    0    0 -0.50271231366E+02  0.53956249101E+02 -0.39376740308E+02  0.15038197114E+03  0.12500294415E+03 0.  0.
          5    1    3    3  501    0  0.14537134505E+02 -0.85214166528E+02  0.39957882605E+02  0.95349383002E+02  0.47000000000E+01 0. -1.
         -5    1    3    3    0  501  0.35734096861E+02  0.31257917427E+02 -0.18781104258E+02  0.51271853462E+02  0.47000000000E+01 0. -1.
          5    1    4    4  502    0 -0.34914964739E+02 -0.16372261857E+02  0.30923951163E+02  0.49653665289E+02  0.47000000000E+01 0.  1.
         -5    1    4    4    0  502 -0.15356266627E+02  0.70328510959E+02 -0.70300691471E+02  0.10072830585E+03  0.47000000000E+01 0.  1.
<mgrwt>
<rscale>  0 0.29644505E+03</rscale>
<asrwt>0</asrwt>
<pdfrwt beam="1">  1       21 0.21446403E-01 0.29644505E+03</pdfrwt>
<pdfrwt beam="2">  1       21 0.24246398E-01 0.29644505E+03</pdfrwt>
<totfact> 0.31766688E+05</totfact>
</mgrwt>
</event>
<event>
 8    1  0.9691636E-006  0.3340445E+03  0.7546771E-02  0.1069361E+00
         21   -1    0    0  504  503  0.00000000000E+00  0.00000000000E+00  0.91755774354E+02  0.91755774354E+02  0.00000000000E+00 0. -1.
         21   -1    0    0  503  504 -0.00000000000E+00 -0.00000000000E+00 -0.30402910579E+03  0.30402910579E+03  0.00000000000E+00 0. -1.
         25    2    1    2    0    0 -0.68348809438E+02  0.12416973040E+02 -0.20833521945E+03  0.25269328450E+03  0.12499836558E+03 0.  0.
         25    2    1    2    0    0  0.68348809438E+02 -0.12416973040E+02 -0.39381119830E+01  0.14309159564E+03  0.12503581505E+03 0.  0.
          5    1    3    3  501    0 -0.80387855047E+02 -0.36259427738E+02 -0.16072171512E+03  0.18338624008E+03  0.47000000000E+01 0.  1.
         -5    1    3    3    0  501  0.12039045609E+02  0.48676400778E+02 -0.47613504324E+02  0.69307044418E+02  0.47000000000E+01 0.  1.
          5    1    4    4  502    0  0.60097212254E+02  0.25976816504E+02 -0.49901383545E+02  0.82454278216E+02  0.47000000000E+01 0. -1.
         -5    1    4    4    0  502  0.82515971846E+01 -0.38393789544E+02  0.45963271562E+02  0.60637317424E+02  0.47000000000E+01 0. -1.
<mgrwt>
<rscale>  0 0.33404446E+03</rscale>
<asrwt>0</asrwt>
<pdfrwt beam="1">  1       21 0.14116273E-01 0.33404446E+03</pdfrwt>
<pdfrwt beam="2">  1       21 0.46773708E-01 0.33404446E+03</pdfrwt>
<totfact> 0.18465550E+05</totfact>
</mgrwt>
</event>
<event>
 8    1  0.9691636E-006  0.2704002E+03  0.7546771E-02  0.1101051E+00
         21   -1    0    0  504  503  0.00000000000E+00  0.00000000000E+00  0.38287819203E+03  0.38287819203E+03  0.00000000000E+00 0.  1.
         21   -1    0    0  503  504 -0.00000000000E+00 -0.00000000000E+00 -0.47741189920E+02  0.47741189920E+02  0.00000000000E+00 0.  1.
         25    2    1    2    0    0 -0.44534360606E+02 -0.23591408483E+02  0.15057133812E+03  0.20208123328E+03  0.12500093260E+03 0.  0.
         25    2    1    2    0    0  0.44534360606E+02  0.23591408483E+02  0.18456566399E+03  0.22853814867E+03  0.12500134898E+03 0.  0.
          5    1    3    3  501    0 -0.67397586109E+02 -0.46584938935E+02  0.14798267968E+03  0.16921452253E+03  0.47000000000E+01 0.  1.
         -5    1    3    3    0  501  0.22863225502E+02  0.22993530452E+02  0.25886584415E+01  0.32866710750E+02  0.47000000000E+01 0.  1.
          5    1    4    4  502    0 -0.22290402438E+02  0.46635663679E+02  0.33743665565E+02  0.61906963529E+02  0.47000000000E+01 0. -1.
         -5    1    4    4    0  502  0.66824763045E+02 -0.23044255197E+02  0.15082199842E+03  0.16663118514E+03  0.47000000000E+01 0. -1.
<mgrwt>
<rscale>  0 0.27040015E+03</rscale>
<asrwt>0</asrwt>
<pdfrwt beam="1">  1       21 0.58904335E-01 0.27040015E+03</pdfrwt>
<pdfrwt beam="2">  1       21 0.73447987E-02 0.27040015E+03</pdfrwt>
<totfact> 0.36853857E+05</totfact>
</mgrwt>
</event>
<event>
 8    1  0.9691636E-006  0.2816187E+03  0.7546771E-02  0.1094808E+00
         21   -1    0    0  504  503  0.00000000000E+00  0.00000000000E+00  0.20461369405E+03  0.20461369405E+03  0.00000000000E+00 0. -1.
         21   -1    0    0  503  504 -0.00000000000E+00 -0.00000000000E+00 -0.96900998990E+02  0.96900998990E+02  0.00000000000E+00 0. -1.
         25    2    1    2    0    0  0.18424488411E+02  0.23092165558E+01  0.12035059098E+03  0.17451197405E+03  0.12500148032E+03 0.  0.
         25    2    1    2    0    0 -0.18424488411E+02 -0.23092165558E+01 -0.12637895918E+02  0.12700271899E+03  0.12500071985E+03 0.  0.
          5    1    3    3  501    0 -0.24040428557E+02  0.49797275210E+02  0.84976222131E+02  0.10149265565E+03  0.47000000000E+01 0. -1.
         -5    1    3    3    0  501  0.42464916968E+02 -0.47488058654E+02  0.35374368849E+02  0.73019318398E+02  0.47000000000E+01 0. -1.
          5    1    4    4  502    0  0.37485258055E+02  0.20398986279E+02  0.30509076819E+02  0.52670266574E+02  0.47000000000E+01 0. -1.
         -5    1    4    4    0  502 -0.55909746466E+02 -0.22708202835E+02 -0.43146972737E+02  0.74332452417E+02  0.47000000000E+01 0. -1.
<mgrwt>
<rscale>  0 0.28161869E+03</rscale>
<asrwt>0</asrwt>
<pdfrwt beam="1">  1       21 0.31479030E-01 0.28161869E+03</pdfrwt>
<pdfrwt beam="2">  1       21 0.14907846E-01 0.28161869E+03</pdfrwt>
<totfact> 0.37751879E+05</totfact>
</mgrwt>
</event>
<event>
 8    1  0.9691636E-006  0.3079577E+03  0.7546771E-02  0.1081329E+00
         21   -1    0    0  504  503  0.00000000000E+00  0.00000000000E+00  0.71096258428E+03  0.71096258428E+03  0.00000000000E+00 0.  1.
         21   -1    0    0  503  504 -0.00000000000E+00 -0.00000000000E+00 -0.33348432940E+02  0.33348432940E+02  0.00000000000E+00 0.  1.
         25    2    1    2    0    0 -0.34369851531E+02  0.78134470532E+02  0.40731301643E+03  0.43451587239E+03  0.12495546338E+03 0.  0.
         25    2    1    2    0    0  0.34369851531E+02 -0.78134470532E+02  0.27030113491E+03  0.30979514482E+03  0.12499618412E+03 0.  0.
          5    1    3    3  501    0  0.13308364576E+02 -0.27842449122E+02  0.13208653385E+03  0.13572493126E+03  0.47000000000E+01 0. -1.
         -5    1    3    3    0  501 -0.47678216107E+02  0.10597691965E+03  0.27522648258E+03  0.29879094113E+03  0.47000000000E+01 0. -1.
          5    1    4    4  502    0 -0.43519402578E+02 -0.54066743447E+02  0.11775583105E+03  0.13676869852E+03  0.47000000000E+01 0. -1.
         -5    1    4    4    0  502  0.77889254109E+02 -0.24067727085E+02  0.15254530386E+03  0.17302644631E+03  0.47000000000E+01 0. -1.
<mgrwt>
<rscale>  0 0.30795771E+03</rscale>
<asrwt>0</asrwt>
<pdfrwt beam="1">  1       21 0.10937885E+00 0.30795771E+03</pdfrwt>
<pdfrwt beam="2">  1       21 0.51305287E-02 0.30795771E+03</pdfrwt>
<totfact> 0.16431059E+05</totfact>
</mgrwt>
</event>
<event>
 8    1  0.9691636E-006  0.3882412E+03  0.7546771E-02  0.1047929E+00
         21   -1    0    0  504  503  0.00000000000E+00  0.00000000000E+00  0.12145272426E+03  0.12145272426E+03  0.00000000000E+00 0.  1.
         21   -1    0    0  503  504 -0.00000000000E+00 -0.00000000000E+00 -0.31026722210E+03  0.31026722210E+03  0.00000000000E+00 0.  1.
         25    2    1    2    0    0 -0.59244055412E+02  0.13606817863E+03 -0.10077184343E+03  0.21864332499E+03  0.12500212717E+03 0.  0.
         25    2    1    2    0    0  0.59244055412E+02 -0.13606817863E+03 -0.88042654409E+02  0.21307662138E+03  0.12500292094E+03 0.  0.
          5    1    3    3  501    0 -0.55310983173E+02  0.12866297475E+02 -0.72282755762E+02  0.92042018941E+02  0.47000000000E+01 0. -1.
         -5    1    3    3    0  501 -0.39330722385E+01  0.12320188115E+03 -0.28489087666E+02  0.12660130605E+03  0.47000000000E+01 0. -1.
          5    1    4    4  502    0  0.41111207317E+01 -0.10831903280E+03 -0.38370783039E+01  0.10856669540E+03  0.47000000000E+01 0.  1.
         -5    1    4    4    0  502  0.55132934680E+02 -0.27749145832E+02 -0.84205576105E+02  0.10450992598E+03  0.47000000000E+01 0.  1.
<mgrwt>
<rscale>  0 0.38824116E+03</rscale>
<asrwt>0</asrwt>
<pdfrwt beam="1">  1       21 0.18685034E-01 0.38824116E+03</pdfrwt>
<pdfrwt beam="2">  1       21 0.47733419E-01 0.38824116E+03</pdfrwt>
<totfact> 0.10387508E+05</totfact>
</mgrwt>
</event>
<event>
 8    1  0.9691636E-006  0.2927986E+03  0.7546771E-02  0.1088897E+00
         21   -1    0    0  504  503  0.00000000000E+00  0.00000000000E+00  0.48290747536E+02  0.48290747536E+02  0.00000000000E+00 0.  1.
         21   -1    0    0  503  504 -0.00000000000E+00 -0.00000000000E+00 -0.44382744860E+03  0.44382744860E+03  0.00000000000E+00 0.  1.
         25    2    1    2    0    0 -0.22522551578E+02 -0.22467132861E+02 -0.81349829002E+02  0.15248492027E+03  0.12498727472E+03 0.  0.
         25    2    1    2    0    0  0.22522551578E+02  0.22467132861E+02 -0.31418687206E+03  0.33963327587E+03  0.12500133645E+03 0.  0.
          5    1    3    3  501    0 -0.68019076047E+02 -0.21151750556E+02 -0.79275602222E+02  0.10668037479E+03  0.47000000000E+01 0. -1.
         -5    1    3    3    0  501  0.45496524469E+02 -0.13153823044E+01 -0.20742267799E+01  0.45804545474E+02  0.47000000000E+01 0. -1.
          5    1    4    4  502    0 -0.15950734064E+02  0.43644268727E+02 -0.27976483980E+03  0.28363656975E+03  0.47000000000E+01 0.  1.
         -5    1    4    4    0  502  0.38473285641E+02 -0.21177135866E+02 -0.34422032261E+02  0.55996706122E+02  0.47000000000E+01 0.  1.
<mgrwt>
<rscale>  0 0.29279863E+03</rscale>
<asrwt>0</asrwt>
<pdfrwt beam="1">  1       21 0.74293463E-02 0.29279863E+03</pdfrwt>
<pdfrwt beam="2">  1       21 0.68281141E-01 0.29279863E+03</pdfrwt>
<totfact> 0.26022518E+05</totfact>
</mgrwt>
</event>
<event>
 8    1  0.9691636E-006  0.4382329E+03  0.7546771E-02  0.1031290E+00
         21   -1    0    0  504  503  0.00000000000E+00  0.00000000000E+00  0.26728978496E+03  0.26728978496E+03  0.00000000000E+00 0. -1.
         21   -1    0    0  503  504 -0.00000000000E+00 -0.00000000000E+00 -0.17962537498E+03  0.17962537498E+03  0.00000000000E+00 0. -1.
         25    2    1    2    0    0  0.79214248843E+02  0.81794396458E+02 -0.98290884192E+02  0.19558032606E+03  0.12500138205E+03 0.  0.
         25    2    1    2    0    0 -0.79214248843E+02 -0.81794396458E+02  0.18595529417E+03  0.25133483388E+03  0.12499842711E+03 0.  0.
          5    1    3    3  501    0  0.75706187741E+02  0.69306468115E+02 -0.12722027585E+03  0.16352951407E+03  0.47000000000E+01 0. -1.
         -5    1    3    3    0  501  0.35080611020E+01  0.12487928343E+02  0.28929391662E+02  0.32050811986E+02  0.47000000000E+01 0. -1.
          5    1    4    4  502    0  0.12875602756E+02 -0.41747591176E+02  0.12791768054E+03  0.13525407761E+03  0.47000000000E+01 0.  1.
         -5    1    4    4    0  502 -0.92089851599E+02 -0.40046805282E+02  0.58037613628E+02  0.11608075627E+03  0.47000000000E+01 0.  1.
<mgrwt>
<rscale>  0 0.43823294E+03</rscale>
<asrwt>0</asrwt>
<pdfrwt beam="1">  1       21 0.41121505E-01 0.43823294E+03</pdfrwt>
<pdfrwt beam="2">  1       21 0.27634673E-01 0.43823294E+03</pdfrwt>
<totfact> 0.66066032E+04</totfact>
</mgrwt>
</event>
<event>
 8    1  0.9691636E-006  0.2572301E+03  0.7546771E-02  0.1108819E+00
         21   -1    0    0  504  503  0.00000000000E+00  0.00000000000E+00  0.14365759543E+02  0.14365759543E+02  0.00000000000E+00 0. -1.
         21   -1    0    0  503  504 -0.00000000000E+00 -0.00000000000E+00 -0.11514764103E+04  0.11514764103E+04  0.00000000000E+00 0. -1.
         25    2    1    2    0    0  0.18423359667E+02 -0.84862861933E+01 -0.46675885723E+03  0.48363192867E+03  0.12499829757E+03 0.  0.
         25    2    1    2    0    0 -0.18423359667E+02  0.84862861933E+01 -0.67035179355E+03  0.68221024119E+03  0.12501139483E+03 0.  0.
          5    1    3    3  501    0 -0.52512658381E+02 -0.15816384150E+02 -0.19265675441E+03  0.20036579628E+03  0.47000000000E+01 0. -1.
         -5    1    3    3    0  501  0.70936018048E+02  0.73300979563E+01 -0.27410210282E+03  0.28326613239E+03  0.47000000000E+01 0. -1.
          5    1    4    4  502    0 -0.45472027299E+02  0.48715210998E+02 -0.24043590404E+03  0.24954436679E+03  0.47000000000E+01 0.  1.
         -5    1    4    4    0  502  0.27048667632E+02 -0.40228924804E+02 -0.42991588951E+03  0.43266587439E+03  0.47000000000E+01 0.  1.
<mgrwt>
<rscale>  0 0.25723012E+03</rscale>
<asrwt>0</asrwt>
<pdfrwt beam="1">  1       21 0.22101164E-02 0.25723012E+03</pdfrwt>
<pdfrwt beam="2">  1       21 0.17715026E+00 0.25723012E+03</pdfrwt>
<totfact> 0.19369615E+05</totfact>
</mgrwt>
</event>
<event>
 8    1  0.9691636E-006  0.5113998E+03  0.7546771E-02  0.1010845E+00
         21   -1    0    0  504  503  0.00000000000E+00  0.00000000000E+00  0.35293649900E+03  0.35293649900E+03  0.00000000000E+00 0. -1.
         21   -1    0    0  503  504 -0.00000000000E+00 -0.00000000000E+00 -0.18525270444E+03  0.18525270444E+03  0.00000000000E+00 0. -1.
         25    2    1    2    0    0  0.10527159815E+03  0.19621174456E+03  0.97753767843E+02  0.27343008913E+03  0.12500822547E+03 0.  0.
         25    2    1    2    0    0 -0.10527159815E+03 -0.19621174456E+03  0.69930026713E+02  0.26475911432E+03  0.12500408753E+03 0.  0.
          5    1    3    3  501    0  0.40695779018E+01  0.71977672643E+02  0.86539708550E+02  0.11273224019E+03  0.47000000000E+01 0.  1.
         -5    1    3    3    0  501  0.10120202024E+03  0.12423407191E+03  0.11214059294E+02  0.16069784893E+03  0.47000000000E+01 0.  1.
          5    1    4    4  502    0 -0.13346088006E+03 -0.16203906629E+03  0.49410185237E+02  0.21571259100E+03  0.47000000000E+01 0.  1.
         -5    1    4    4    0  502  0.28189281918E+02 -0.34172678267E+02  0.20519841476E+02  0.49046523314E+02  0.47000000000E+01 0.  1.
<mgrwt>
<rscale>  0 0.51139981E+03</rscale>
<asrwt>0</asrwt>
<pdfrwt beam="1">  1       21 0.54297923E-01 0.51139981E+03</pdfrwt>
<pdfrwt beam="2">  1       21 0.28500416E-01 0.51139981E+03</pdfrwt>
<totfact> 0.34034543E+04</totfact>
</mgrwt>
</event>
<event>
 8    1  0.9691636E-006  0.3412478E+03  0.7546771E-02  0.1066266E+00
         21   -1    0    0  504  503  0.00000000000E+00  0.00000000000E+00  0.89803710527E+02  0.89803710527E+02  0.00000000000E+00 0.  1.
         21   -1    0    0  503  504 -0.00000000000E+00 -0.00000000000E+00 -0.32417945348E+03  0.32417945348E+03  0.00000000000E+00 0.  1.
         25    2    1    2    0    0  0.76476951827E+02 -0.85557481837E+02 -0.95413823866E+02  0.19467176950E+03  0.12499797277E+03 0.  0.
         25    2    1    2    0    0 -0.76476951827E+02  0.85557481837E+02 -0.13896191908E+03  0.21931139450E+03  0.12497306088E+03 0.  0.
          5    1    3    3  501    0 -0.13044466450E+02  0.15515359355E+02  0.10215065035E+02  0.23180207819E+02  0.47000000000E+01 0.  1.
         -5    1    3    3    0  501  0.89521418277E+02 -0.10107284119E+03 -0.10562888890E+03  0.17149156168E+03  0.47000000000E+01 0.  1.
          5    1    4    4  502    0 -0.46154169587E+02  0.11111896150E+03 -0.69080297175E+02  0.13882293915E+03  0.47000000000E+01 0. -1.
         -5    1    4    4    0  502 -0.30322782240E+02 -0.25561479664E+02 -0.69881621909E+02  0.80488455358E+02  0.47000000000E+01 0. -1.
<mgrwt>
<rscale>  0 0.34124781E+03</rscale>
<asrwt>0</asrwt>
<pdfrwt beam="1">  1       21 0.13815955E-01 0.34124781E+03</pdfrwt>
<pdfrwt beam="2">  1       21 0.49873762E-01 0.34124781E+03</pdfrwt>
<totfact> 0.16758056E+05</totfact>
</mgrwt>
</event>
<event>
 8    1  0.9691636E-006  0.2827657E+03  0.7546771E-02  0.1094188E+00
         21   -1    0    0  504  503  0.00000000000E+00  0.00000000000E+00  0.13116475702E+03  0.13116475702E+03  0.00000000000E+00 0.  1.
         21   -1    0    0  503  504 -0.00000000000E+00 -0.00000000000E+00 -0.15239698651E+03  0.15239698651E+03  0.00000000000E+00 0.  1.
         25    2    1    2    0    0  0.20059188791E+02  0.62907234739E+02 -0.12483626733E+02  0.14192199693E+03  0.12500528404E+03 0.  0.
         25    2    1    2    0    0 -0.20059188791E+02 -0.62907234739E+02 -0.87486027503E+01  0.14163974660E+03  0.12500235410E+03 0.  0.
          5    1    3    3  501    0 -0.37850947173E+02  0.22967389146E+02 -0.45859334216E+02  0.63916849898E+02  0.47000000000E+01 0. -1.
         -5    1    3    3    0  501  0.57910135964E+02  0.39939845593E+02  0.33375707483E+02  0.78005147031E+02  0.47000000000E+01 0. -1.
          5    1    4    4  502    0  0.25377764917E+02 -0.52312942858E+02  0.42501592642E+02  0.72174443675E+02  0.47000000000E+01 0.  1.
         -5    1    4    4    0  502 -0.45436953708E+02 -0.10594291881E+02 -0.51250195393E+02  0.69465302925E+02  0.47000000000E+01 0.  1.
<mgrwt>
<rscale>  0 0.28276572E+03</rscale>
<asrwt>0</asrwt>
<pdfrwt beam="1">  1       21 0.20179193E-01 0.28276572E+03</pdfrwt>
<pdfrwt beam="2">  1       21 0.23445690E-01 0.28276572E+03</pdfrwt>
<totfact> 0.38117564E+05</totfact>
</mgrwt>
</event>
<event>
 8    1  0.9691636E-006  0.3383722E+03  0.7546771E-02  0.1067491E+00
         21   -1    0    0  504  503  0.00000000000E+00  0.00000000000E+00  0.25499172562E+03  0.25499172562E+03  0.00000000000E+00 0. -1.
         21   -1    0    0  503  504 -0.00000000000E+00 -0.00000000000E+00 -0.11225436778E+03  0.11225436778E+03  0.00000000000E+00 0. -1.
         25    2    1    2    0    0 -0.88582661541E+02 -0.57407963180E+02  0.24726541933E+02  0.16551923000E+03  0.12507058591E+03 0.  0.
         25    2    1    2    0    0  0.88582661541E+02  0.57407963180E+02  0.11801081590E+03  0.20172686340E+03  0.12499845034E+03 0.  0.
          5    1    3    3  501    0 -0.81372112711E+02 -0.33566702611E+02  0.70714910563E+02  0.11300810956E+03  0.47000000000E+01 0. -1.
         -5    1    3    3    0  501 -0.72105488297E+01 -0.23841260569E+02 -0.45988368630E+02  0.52511120434E+02  0.47000000000E+01 0. -1.
          5    1    4    4  502    0  0.54552944699E+02  0.87416706654E+02  0.38575434193E+02  0.11012655675E+03  0.47000000000E+01 0.  1.
         -5    1    4    4    0  502  0.34029716842E+02 -0.30008743474E+02  0.79435381705E+02  0.91600306658E+02  0.47000000000E+01 0.  1.
<mgrwt>
<rscale>  0 0.33837219E+03</rscale>
<asrwt>0</asrwt>
<pdfrwt beam="1">  1       21 0.39229496E-01 0.33837219E+03</pdfrwt>
<pdfrwt beam="2">  1       21 0.17269903E-01 0.33837219E+03</pdfrwt>
<totfact> 0.18275436E+05</totfact>
</mgrwt>
</event>
<event>
 8    1  0.9691636E-006  0.4670332E+03  0.7546771E-02  0.1022761E+00
         21   -1    0    0  504  503  0.00000000000E+00  0.00000000000E+00  0.91206176162E+02  0.91206176162E+02  0.00000000000E+00 0.  1.
         21   -1    0    0  503  504 -0.00000000000E+00 -0.00000000000E+00 -0.59787618909E+03  0.59787618909E+03  0.00000000000E+00 0.  1.
         25    2    1    2    0    0 -0.96024079709E+02 -0.22873369816E+02 -0.13681673407E+01  0.15928018511E+03  0.12499796221E+03 0.  0.
         25    2    1    2    0    0  0.96024079709E+02  0.22873369816E+02 -0.50530184559E+03  0.52980218015E+03  0.12496631546E+03 0.  0.
          5    1    3    3  501    0 -0.45125979346E+02 -0.30981782143E+02 -0.59812523072E+02  0.81214855495E+02  0.47000000000E+01 0.  1.
         -5    1    3    3    0  501 -0.50898100362E+02  0.81084123278E+01  0.58444355732E+02  0.78065329615E+02  0.47000000000E+01 0.  1.
          5    1    4    4  502    0  0.14040114824E+02 -0.43080657950E+02 -0.24136321524E+03  0.24562442790E+03  0.47000000000E+01 0.  1.
         -5    1    4    4    0  502  0.81983964885E+02  0.65954027765E+02 -0.26393863035E+03  0.28417775224E+03  0.47000000000E+01 0.  1.
<mgrwt>
<rscale>  0 0.46703319E+03</rscale>
<asrwt>0</asrwt>
<pdfrwt beam="1">  1       21 0.14031719E-01 0.46703319E+03</pdfrwt>
<pdfrwt beam="2">  1       21 0.91980955E-01 0.46703319E+03</pdfrwt>
<totfact> 0.40280735E+04</totfact>
</mgrwt>
</event>
<event>
 8    1  0.9691636E-006  0.7437368E+03  0.7546771E-02  0.9645228E-01
         21   -1    0    0  504  503  0.00000000000E+00  0.00000000000E+00  0.29313717625E+03  0.29313717625E+03  0.00000000000E+00 0.  1.
         21   -1    0    0  503  504 -0.00000000000E+00 -0.00000000000E+00 -0.47174540670E+03  0.47174540670E+03  0.00000000000E+00 0.  1.
         25    2    1    2    0    0 -0.53253014732E+02  0.14464187437E+03 -0.41272292290E+03  0.45795367349E+03  0.12499680228E+03 0.  0.
         25    2    1    2    0    0  0.53253014732E+02 -0.14464187437E+03  0.23411469245E+03  0.30692890946E+03  0.12505403168E+03 0.  0.
          5    1    3    3  501    0 -0.57186866671E+02  0.16092974691E+03 -0.40366754570E+03  0.43833582857E+03  0.47000000000E+01 0. -1.
         -5    1    3    3    0  501  0.39338519384E+01 -0.16287872543E+02 -0.90553772002E+01  0.19617844920E+02  0.47000000000E+01 0. -1.
          5    1    4    4  502    0  0.85812555989E+02 -0.13821426798E+03  0.17509468824E+03  0.23905484411E+03  0.47000000000E+01 0. -1.
         -5    1    4    4    0  502 -0.32559541257E+02 -0.64276063856E+01  0.59020004205E+02  0.67874065350E+02  0.47000000000E+01 0. -1.
<mgrwt>
<rscale>  0 0.74373683E+03</rscale>
<asrwt>0</asrwt>
<pdfrwt beam="1">  1       21 0.45098027E-01 0.74373683E+03</pdfrwt>
<pdfrwt beam="2">  1       21 0.72576216E-01 0.74373683E+03</pdfrwt>
<totfact> 0.66716160E+03</totfact>
</mgrwt>
</event>
<event>
 8    1  0.9691636E-006  0.3156980E+03  0.7546771E-02  0.1077646E+00
         21   -1    0    0  504  503  0.00000000000E+00  0.00000000000E+00  0.10810982974E+03  0.10810982974E+03  0.00000000000E+00 0.  1.
         21   -1    0    0  503  504 -0.00000000000E+00 -0.00000000000E+00 -0.23047219551E+03  0.23047219551E+03  0.00000000000E+00 0.  1.
         25    2    1    2    0    0  0.69791123823E+02 -0.13258985688E+02 -0.13107575960E+03  0.19455905116E+03  0.12500307184E+03 0.  0.
         25    2    1    2    0    0 -0.69791123823E+02  0.13258985688E+02  0.87133938273E+01  0.14402297409E+03  0.12498036713E+03 0.  0.
          5    1    3    3  501    0  0.99963681996E+02 -0.34445830878E+02 -0.87803175827E+02  0.13751632873E+03  0.47000000000E+01 0. -1.
         -5    1    3    3    0  501 -0.30172558172E+02  0.21186845190E+02 -0.43272583773E+02  0.57042722429E+02  0.47000000000E+01 0. -1.
          5    1    4    4  502    0 -0.23692719424E+02 -0.55680291054E+02  0.34874358037E+01  0.60793848159E+02  0.47000000000E+01 0.  1.
         -5    1    4    4    0  502 -0.46098404400E+02  0.68939276742E+02  0.52259580236E+01  0.83229125931E+02  0.47000000000E+01 0.  1.
<mgrwt>
<rscale>  0 0.31569802E+03</rscale>
<asrwt>0</asrwt>
<pdfrwt beam="1">  1       21 0.16632282E-01 0.31569802E+03</pdfrwt>
<pdfrwt beam="2">  1       21 0.35457261E-01 0.31569802E+03</pdfrwt>
<totfact> 0.24166956E+05</totfact>
</mgrwt>
</event>
<event>
 8    1  0.9691636E-006  0.4628954E+03  0.7546771E-02  0.1023945E+00
         21   -1    0    0  504  503  0.00000000000E+00  0.00000000000E+00  0.19324476041E+03  0.19324476041E+03  0.00000000000E+00 0.  1.
         21   -1    0    0  503  504 -0.00000000000E+00 -0.00000000000E+00 -0.27720307482E+03  0.27720307482E+03  0.00000000000E+00 0.  1.
         25    2    1    2    0    0 -0.12844901587E+03 -0.12282225960E+03 -0.12301994610E+03  0.24968508339E+03  0.12499710635E+03 0.  0.
         25    2    1    2    0    0  0.12844901587E+03  0.12282225960E+03  0.39061631688E+02  0.22076275184E+03  0.12500369754E+03 0.  0.
          5    1    3    3  501    0 -0.36445490953E+02 -0.11891388788E+03 -0.61394103392E+02  0.13878080729E+03  0.47000000000E+01 0.  1.
         -5    1    3    3    0  501 -0.92003524917E+02 -0.39083717266E+01 -0.61625842709E+02  0.11090427610E+03  0.47000000000E+01 0.  1.
          5    1    4    4  502    0  0.52092311263E+02  0.11207176006E+03 -0.17648961890E+02  0.12492903647E+03  0.47000000000E+01 0.  1.
         -5    1    4    4    0  502  0.76356704607E+02  0.10750499541E+02  0.56710593577E+02  0.95833715376E+02  0.47000000000E+01 0.  1.
<mgrwt>
<rscale>  0 0.46289542E+03</rscale>
<asrwt>0</asrwt>
<pdfrwt beam="1">  1       21 0.29729963E-01 0.46289542E+03</pdfrwt>
<pdfrwt beam="2">  1       21 0.42646627E-01 0.46289542E+03</pdfrwt>
<totfact> 0.52748255E+04</totfact>
</mgrwt>
</event>
<event>
 8    1  0.9691636E-006  0.5983787E+03  0.7546771E-02  0.9908775E-01
         21   -1    0    0  504  503  0.00000000000E+00  0.00000000000E+00  0.53856072600E+02  0.53856072600E+02  0.00000000000E+00 0. -1.
         21   -1    0    0  503  504 -0.00000000000E+00 -0.00000000000E+00 -0.16621017558E+04  0.16621017558E+04  0.00000000000E+00 0. -1.
         25    2    1    2    0    0  0.15792857858E+03  0.21868630358E+03 -0.90031295830E+03  0.94813163116E+03  0.12500012725E+03 0.  0.
         25    2    1    2    0    0 -0.15792857858E+03 -0.21868630358E+03 -0.70793272487E+03  0.76782619721E+03  0.12499276332E+03 0.  0.
          5    1    3    3  501    0  0.20890580630E+02  0.13334954072E+03 -0.44355254479E+03  0.46365878225E+03  0.47000000000E+01 0. -1.
         -5    1    3    3    0  501  0.13703799795E+03  0.85336762859E+02 -0.45676041351E+03  0.48447284891E+03  0.47000000000E+01 0. -1.
          5    1    4    4  502    0 -0.13195786680E+03 -0.22995022406E+03 -0.59694103666E+03  0.65318502387E+03  0.47000000000E+01 0.  1.
         -5    1    4    4    0  502 -0.25970711774E+02  0.11263920480E+02 -0.11099168820E+03  0.11464117334E+03  0.47000000000E+01 0.  1.
<mgrwt>
<rscale>  0 0.59837872E+03</rscale>
<asrwt>0</asrwt>
<pdfrwt beam="1">  1       21 0.82855497E-02 0.59837872E+03</pdfrwt>
<pdfrwt beam="2">  1       21 0.25570796E+00 0.59837872E+03</pdfrwt>
<totfact> 0.55760690E+03</totfact>
</mgrwt>
</event>
<event>
 8    1  0.9691636E-006  0.4515202E+03  0.7546771E-02  0.1027270E+00
         21   -1    0    0  504  503  0.00000000000E+00  0.00000000000E+00  0.61517728696E+02  0.61517728696E+02  0.00000000000E+00 0.  1.
         21   -1    0    0  503  504 -0.00000000000E+00 -0.00000000000E+00 -0.82850291199E+03  0.82850291199E+03  0.00000000000E+00 0.  1.
         25    2    1    2    0    0  0.32792707785E+02 -0.16770219036E+03 -0.53798871779E+03  0.57814896359E+03  0.12499990921E+03 0.  0.
         25    2    1    2    0    0 -0.32792707785E+02  0.16770219036E+03 -0.22899646550E+03  0.31187167709E+03  0.12500070169E+03 0.  0.
          5    1    3    3  501    0 -0.10318079798E+02  0.12695809561E+02 -0.13237766793E+02  0.21563274816E+02  0.47000000000E+01 0.  1.
         -5    1    3    3    0  501  0.43110787583E+02 -0.18039799992E+03 -0.52475095099E+03  0.55658568878E+03  0.47000000000E+01 0.  1.
          5    1    4    4  502    0 -0.33779349210E+02  0.17986917055E+03 -0.16469389341E+03  0.24625217049E+03  0.47000000000E+01 0. -1.
         -5    1    4    4    0  502  0.98664142480E+00 -0.12166980188E+02 -0.64302572093E+02  0.65619506596E+02  0.47000000000E+01 0. -1.
<mgrwt>
<rscale>  0 0.45152018E+03</rscale>
<asrwt>0</asrwt>
<pdfrwt beam="1">  1       21 0.94642667E-02 0.45152018E+03</pdfrwt>
<pdfrwt beam="2">  1       21 0.12746198E+00 0.45152018E+03</pdfrwt>
<totfact> 0.36863509E+04</totfact>
</mgrwt>
</event>
<event>
 8    1  0.9691636E-006  0.3142303E+03  0.7546771E-02  0.1078336E+00
         21   -1    0    0  504  503  0.00000000000E+00  0.00000000000E+00  0.44384657534E+02  0.44384657534E+02  0.00000000000E+00 0.  1.
         21   -1    0    0  503  504 -0.00000000000E+00 -0.00000000000E+00 -0.55616443637E+03  0.55616443637E+03  0.00000000000E+00 0.  1.
         25    2    1    2    0    0  0.80925443022E+02 -0.44980767235E+02 -0.21363869516E+03  0.26426886357E+03  0.12499737371E+03 0.  0.
         25    2    1    2    0    0 -0.80925443022E+02  0.44980767235E+02 -0.29814108367E+03  0.33628023033E+03  0.12499636310E+03 0.  0.
          5    1    3    3  501    0 -0.30744882880E+02 -0.20982126466E+02 -0.80314008378E+02  0.88644951329E+02  0.47000000000E+01 0.  1.
         -5    1    3    3    0  501  0.11167032590E+03 -0.23998640769E+02 -0.13332468679E+03  0.17562391224E+03  0.47000000000E+01 0.  1.
          5    1    4    4  502    0 -0.85320031225E+02  0.66313821728E+02 -0.29445857208E+03  0.31369566677E+03  0.47000000000E+01 0. -1.
         -5    1    4    4    0  502  0.43945882029E+01 -0.21333054493E+02 -0.36825115905E+01  0.22584563557E+02  0.47000000000E+01 0. -1.
<mgrwt>
<rscale>  0 0.31423029E+03</rscale>
<asrwt>0</asrwt>
<pdfrwt beam="1">  1       21 0.68284093E-02 0.31423029E+03</pdfrwt>
<pdfrwt beam="2">  1       21 0.85563754E-01 0.31423029E+03</pdfrwt>
<totfact> 0.17985457E+05</totfact>
</mgrwt>
</event>
<event>
 8    1  0.9691636E-006  0.2760079E+03  0.7546771E-02  0.1097890E+00
         21   -1    0    0  504  503  0.00000000000E+00  0.00000000000E+00  0.31331105406E+02  0.31331105406E+02  0.00000000000E+00 0.  1.
         21   -1    0    0  503  504 -0.00000000000E+00 -0.00000000000E+00 -0.60786512091E+03  0.60786512091E+03  0.00000000000E+00 0.  1.
         25    2    1    2    0    0 -0.33369029535E+02  0.18952685648E+02 -0.18604811181E+03  0.22740135919E+03  0.12499912732E+03 0.  0.
         25    2    1    2    0    0  0.33369029535E+02 -0.18952685648E+02 -0.39048590370E+03  0.41179486712E+03  0.12499230047E+03 0.  0.
          5    1    3    3  501    0 -0.27843598374E+02 -0.18692091974E+02 -0.18600659741E+03  0.18906402236E+03  0.47000000000E+01 0. -1.
         -5    1    3    3    0  501 -0.55254311614E+01  0.37644777622E+02 -0.41514398991E-01  0.38337336829E+02  0.47000000000E+01 0. -1.
          5    1    4    4  502    0 -0.36500237146E+02  0.13979276471E+02 -0.23324139865E+03  0.23654032960E+03  0.47000000000E+01 0. -1.
         -5    1    4    4    0  502  0.69869266681E+02 -0.32931962119E+02 -0.15724450505E+03  0.17525453753E+03  0.47000000000E+01 0. -1.
<mgrwt>
<rscale>  0 0.27600787E+03</rscale>
<asrwt>0</asrwt>
<pdfrwt beam="1">  1       21 0.48201702E-02 0.27600787E+03</pdfrwt>
<pdfrwt beam="2">  1       21 0.93517708E-01 0.27600787E+03</pdfrwt>
<totfact> 0.26871468E+05</totfact>
</mgrwt>
</event>
<event>
 8    1  0.9691636E-006  0.2626689E+03  0.7546771E-02  0.1105550E+00
         21   -1    0    0  504  503  0.00000000000E+00  0.00000000000E+00  0.28987597627E+03  0.28987597627E+03  0.00000000000E+00 0.  1.
         21   -1    0    0  503  504 -0.00000000000E+00 -0.00000000000E+00 -0.59503845050E+02  0.59503845050E+02  0.00000000000E+00 0.  1.
         25    2    1    2    0    0  0.32431975976E+02  0.23369895442E+02  0.10840649402E+03  0.17022168667E+03  0.12500187835E+03 0.  0.
         25    2    1    2    0    0 -0.32431975976E+02 -0.23369895442E+02  0.12196563721E+03  0.17915813465E+03  0.12499614183E+03 0.  0.
          5    1    3    3  501    0  0.26921335980E+02 -0.18037132125E+02 -0.17750339514E+02  0.37245953057E+02  0.47000000000E+01 0. -1.
         -5    1    3    3    0  501  0.55106399967E+01  0.41407027567E+02  0.12615683353E+03  0.13297573362E+03  0.47000000000E+01 0. -1.
          5    1    4    4  502    0 -0.30885042042E+01  0.20328252592E+02  0.12447854501E+03  0.12625282128E+03  0.47000000000E+01 0.  1.
         -5    1    4    4    0  502 -0.29343471772E+02 -0.43698148034E+02 -0.25129078056E+01  0.52905313371E+02  0.47000000000E+01 0.  1.
<mgrwt>
<rscale>  0 0.26266888E+03</rscale>
<asrwt>0</asrwt>
<pdfrwt beam="1">  1       21 0.44596303E-01 0.26266888E+03</pdfrwt>
<pdfrwt beam="2">  1       21 0.91544379E-02 0.26266888E+03</pdfrwt>
<totfact> 0.45103320E+05</totfact>
</mgrwt>
</event>
<event>
 8    1  0.9691636E-006  0.2691879E+03  0.7546771E-02  0.1101745E+00
         21   -1    0    0  504  503  0.00000000000E+00  0.00000000000E+00  0.11872631967E+02  0.11872631967E+02  0.00000000000E+00 0. -1.
         21   -1    0    0  503  504 -0.00000000000E+00 -0.00000000000E+00 -0.15258222014E+04  0.15258222014E+04  0.00000000000E+00 0. -1.
         25    2    1    2    0    0  0.22210378263E+02  0.17431602410E+02 -0.52193376666E+03  0.53743555881E+03  0.12499984571E+03 0.  0.
         25    2    1    2    0    0 -0.22210378263E+02 -0.17431602410E+02 -0.99201580279E+03  0.10002592746E+04  0.12500440681E+03 0.  0.
          5    1    3    3  501    0  0.58437296551E+02  0.48429193214E+02 -0.24983454303E+03  0.26115070988E+03  0.47000000000E+01 0.  1.
         -5    1    3    3    0  501 -0.36226918288E+02 -0.30997590804E+02 -0.27209922364E+03  0.27628484893E+03  0.47000000000E+01 0.  1.
          5    1    4    4  502    0  0.41485120840E+01  0.13220753645E+02 -0.89412686656E+03  0.89424657784E+03  0.47000000000E+01 0. -1.
         -5    1    4    4    0  502 -0.26358890347E+02 -0.30652356055E+02 -0.97888936238E+02  0.10601269674E+03  0.47000000000E+01 0. -1.
<mgrwt>
<rscale>  0 0.26918786E+03</rscale>
<asrwt>0</asrwt>
<pdfrwt beam="1">  1       21 0.18265606E-02 0.26918786E+03</pdfrwt>
<pdfrwt beam="2">  1       21 0.23474164E+00 0.26918786E+03</pdfrwt>
<totfact> 0.11188104E+05</totfact>
</mgrwt>
</event>
<event>
 8    1  0.9691636E-006  0.2730342E+03  0.7546771E-02  0.1099556E+00
         21   -1    0    0  504  503  0.00000000000E+00  0.00000000000E+00  0.20836710401E+02  0.20836710401E+02  0.00000000000E+00 0. -1.
         21   -1    0    0  503  504 -0.00000000000E+00 -0.00000000000E+00 -0.89442701724E+03  0.89442701724E+03  0.00000000000E+00 0. -1.
         25    2    1    2    0    0  0.35522439900E+02 -0.38710631242E+02 -0.48997462319E+03  0.50838978395E+03  0.12499873738E+03 0.  0.
         25    2    1    2    0    0 -0.35522439900E+02  0.38710631242E+02 -0.38361568365E+03  0.40687394369E+03  0.12500022642E+03 0.  0.
          5    1    3    3  501    0  0.72421706302E+02  0.10485969872E+02 -0.24239648359E+03  0.25324494933E+03  0.47000000000E+01 0.  1.
         -5    1    3    3    0  501 -0.36899266402E+02 -0.49196601114E+02 -0.24757813961E+03  0.25514483462E+03  0.47000000000E+01 0.  1.
          5    1    4    4  502    0  0.81670776644E+01  0.75924182647E+02 -0.24820104190E+03  0.25972491191E+03  0.47000000000E+01 0.  1.
         -5    1    4    4    0  502 -0.43689517564E+02 -0.37213551405E+02 -0.13541464175E+03  0.14714903177E+03  0.47000000000E+01 0.  1.
<mgrwt>
<rscale>  0 0.27303419E+03</rscale>
<asrwt>0</asrwt>
<pdfrwt beam="1">  1       21 0.32056474E-02 0.27303419E+03</pdfrwt>
<pdfrwt beam="2">  1       21 0.13760417E+00 0.27303419E+03</pdfrwt>
<totfact> 0.20623408E+05</totfact>
</mgrwt>
</event>
<event>
 8    1  0.9691636E-006  0.2516368E+03  0.7546771E-02  0.1112275E+00
         21   -1    0    0  504  503  0.00000000000E+00  0.00000000000E+00  0.87696967103E+01  0.87696967103E+01  0.00000000000E+00 0. -1.
         21   -1    0    0  503  504 -0.00000000000E+00 -0.00000000000E+00 -0.18051107769E+04  0.18051107769E+04  0.00000000000E+00 0. -1.
         25    2    1    2    0    0  0.97418208692E+01  0.92234493021E+01 -0.93829951861E+03  0.94668433816E+03  0.12500109762E+03 0.  0.
         25    2    1    2    0    0 -0.97418208692E+01 -0.92234493021E+01 -0.85804156155E+03  0.86719613542E+03  0.12495535542E+03 0.  0.
          5    1    3    3  501    0  0.56519819180E+02  0.85815628790E+01 -0.23825276460E+03  0.24506040688E+03  0.47000000000E+01 0.  1.
         -5    1    3    3    0  501 -0.46777998311E+02  0.64188642307E+00 -0.70004675401E+03  0.70162393128E+03  0.47000000000E+01 0.  1.
          5    1    4    4  502    0  0.23273474033E+02  0.24953765924E+02 -0.72546486205E+03  0.72628210848E+03  0.47000000000E+01 0.  1.
         -5    1    4    4    0  502 -0.33015294902E+02 -0.34177215226E+02 -0.13257669949E+03  0.14091402694E+03  0.47000000000E+01 0.  1.
<mgrwt>
<rscale>  0 0.25163683E+03</rscale>
<asrwt>0</asrwt>
<pdfrwt beam="1">  1       21 0.13491826E-02 0.25163683E+03</pdfrwt>
<pdfrwt beam="2">  1       21 0.27770966E+00 0.25163683E+03</pdfrwt>
<totfact> 0.10247195E+05</totfact>
</mgrwt>
</event>
<event>
 8    1  0.9691636E-006  0.3050920E+03  0.7546771E-02  0.1082723E+00
         21   -1    0    0  504  503  0.00000000000E+00  0.00000000000E+00  0.12753131430E+03  0.12753131430E+03  0.00000000000E+00 0.  1.
         21   -1    0    0  503  504 -0.00000000000E+00 -0.00000000000E+00 -0.18246721546E+03  0.18246721546E+03  0.00000000000E+00 0.  1.
         25    2    1    2    0    0  0.84143959171E+02 -0.77752922466E+01 -0.50248746638E+02  0.15903342278E+03  0.12500412788E+03 0.  0.
         25    2    1    2    0    0 -0.84143959171E+02  0.77752922466E+01 -0.46871545202E+01  0.15096510699E+03  0.12501133179E+03 0.  0.
          5    1    3    3  501    0  0.83355532027E+02 -0.54714448834E+02 -0.16858763374E+02  0.10123301602E+03  0.47000000000E+01 0.  1.
         -5    1    3    3    0  501  0.78842714453E+00  0.46939156587E+02 -0.33389983264E+02  0.57800406753E+02  0.47000000000E+01 0.  1.
          5    1    4    4  502    0 -0.16815832393E+02  0.20027571249E+02  0.54327926348E+02  0.60477180907E+02  0.47000000000E+01 0. -1.
         -5    1    4    4    0  502 -0.67328126779E+02 -0.12252279003E+02 -0.59015080868E+02  0.90487926080E+02  0.47000000000E+01 0. -1.
<mgrwt>
<rscale>  0 0.30509201E+03</rscale>
<asrwt>0</asrwt>
<pdfrwt beam="1">  1       21 0.19620202E-01 0.30509201E+03</pdfrwt>
<pdfrwt beam="2">  1       21 0.28071879E-01 0.30509201E+03</pdfrwt>
<totfact> 0.28252462E+05</totfact>
</mgrwt>
</event>
<event>
 8    1  0.9691636E-006  0.2996642E+03  0.7546771E-02  0.1085409E+00
         21   -1    0    0  504  503  0.00000000000E+00  0.00000000000E+00  0.32942293395E+03  0.32942293395E+03  0.00000000000E+00 0.  1.
         21   -1    0    0  503  504 -0.00000000000E+00 -0.00000000000E+00 -0.68148455576E+02  0.68148455576E+02  0.00000000000E+00 0.  1.
         25    2    1    2    0    0  0.61301608732E+02 -0.41489889126E+02  0.17931454499E+03  0.23076955745E+03  0.12498633712E+03 0.  0.
         25    2    1    2    0    0 -0.61301608732E+02  0.41489889126E+02  0.81959933388E+02  0.16680183208E+03  0.12500448941E+03 0.  0.
          5    1    3    3  501    0  0.45769175278E+02 -0.14606036533E+02  0.19119538340E+03  0.19719512758E+03  0.47000000000E+01 0.  1.
         -5    1    3    3    0  501  0.15532433454E+02 -0.26883852592E+02 -0.11880838413E+02  0.33574429863E+02  0.47000000000E+01 0.  1.
          5    1    4    4  502    0  0.10964747842E+02 -0.28153109190E+02 -0.83620744546E+01  0.31699172568E+02  0.47000000000E+01 0.  1.
         -5    1    4    4    0  502 -0.72266356574E+02  0.69642998315E+02  0.90322007843E+02  0.13510265951E+03  0.47000000000E+01 0.  1.
<mgrwt>
<rscale>  0 0.29966424E+03</rscale>
<asrwt>0</asrwt>
<pdfrwt beam="1">  1       21 0.50680450E-01 0.29966424E+03</pdfrwt>
<pdfrwt beam="2">  1       21 0.10484378E-01 0.29966424E+03</pdfrwt>
<totfact> 0.26928636E+05</totfact>
</mgrwt>
</event>
<event>
 8    1  0.9691636E-006  0.3321740E+03  0.7546771E-02  0.1070179E+00
         21   -1    0    0  504  503  0.00000000000E+00  0.00000000000E+00  0.28933955926E+03  0.28933955926E+03  0.00000000000E+00 0. -1.
         21   -1    0    0  503  504 -0.00000000000E+00 -0.00000000000E+00 -0.95337448515E+02  0.95337448515E+02  0.00000000000E+00 0. -1.
         25    2    1    2    0    0 -0.27923219064E+02 -0.56848445764E+02 -0.62438454845E+01  0.14026960555E+03  0.12500049874E+03 0.  0.
         25    2    1    2    0    0  0.27923219064E+02  0.56848445764E+02  0.20024595623E+03  0.24440740222E+03  0.12500033331E+03 0.  0.
          5    1    3    3  501    0 -0.23407044202E+02 -0.39364761952E+02  0.57609603105E+02  0.73745715616E+02  0.47000000000E+01 0. -1.
         -5    1    3    3    0  501 -0.45161748617E+01 -0.17483683812E+02 -0.63853448590E+02  0.66523889933E+02  0.47000000000E+01 0. -1.
          5    1    4    4  502    0  0.11466465756E+02  0.57979352305E+02  0.18865869418E+02  0.62218133688E+02  0.47000000000E+01 0. -1.
         -5    1    4    4    0  502  0.16456753308E+02 -0.11309065410E+01  0.18138008681E+03  0.18218926853E+03  0.47000000000E+01 0. -1.
<mgrwt>
<rscale>  0 0.33217402E+03</rscale>
<asrwt>0</asrwt>
<pdfrwt beam="1">  1       21 0.44513778E-01 0.33217402E+03</pdfrwt>
<pdfrwt beam="2">  1       21 0.14667300E-01 0.33217402E+03</pdfrwt>
<totfact> 0.19090448E+05</totfact>
</mgrwt>
</event>
<event>
 8    1  0.9691636E-006  0.2902590E+03  0.7546771E-02  0.1090214E+00
         21   -1    0    0  504  503  0.00000000000E+00  0.00000000000E+00  0.24253288294E+02  0.24253288294E+02  0.00000000000E+00 0.  1.
         21   -1    0    0  503  504 -0.00000000000E+00 -0.00000000000E+00 -0.86844189404E+03  0.86844189404E+03  0.00000000000E+00 0.  1.
         25    2    1    2    0    0 -0.52676957291E+02 -0.51440556102E+02 -0.43465943816E+03  0.45822896844E+03  0.12499587070E+03 0.  0.
         25    2    1    2    0    0  0.52676957291E+02  0.51440556102E+02 -0.40952916758E+03  0.43446621389E+03  0.12500303705E+03 0.  0.
          5    1    3    3  501    0 -0.61841579785E+02 -0.52521700342E+02 -0.12947252392E+03  0.15286639411E+03  0.47000000000E+01 0.  1.
         -5    1    3    3    0  501  0.91646224933E+01  0.10811442399E+01 -0.30518691424E+03  0.30536257433E+03  0.47000000000E+01 0.  1.
          5    1    4    4  502    0 -0.20733750120E+02  0.86852746413E+01 -0.27046575315E+03  0.27143900976E+03  0.47000000000E+01 0.  1.
         -5    1    4    4    0  502  0.73410707411E+02  0.42755281460E+02 -0.13906341443E+03  0.16302720414E+03  0.47000000000E+01 0.  1.
<mgrwt>
<rscale>  0 0.29025900E+03</rscale>
<asrwt>0</asrwt>
<pdfrwt beam="1">  1       21 0.37312756E-02 0.29025900E+03</pdfrwt>
<pdfrwt beam="2">  1       21 0.13360643E+00 0.29025900E+03</pdfrwt>
<totfact> 0.17160935E+05</totfact>
</mgrwt>
</event>
<event>
 8    1  0.9691636E-006  0.3596989E+03  0.7546771E-02  0.1058703E+00
         21   -1    0    0  504  503  0.00000000000E+00  0.00000000000E+00  0.73567777981E+03  0.73567777981E+03  0.00000000000E+00 0.  1.
         21   -1    0    0  503  504 -0.00000000000E+00 -0.00000000000E+00 -0.43967368454E+02  0.43967368454E+02  0.00000000000E+00 0.  1.
         25    2    1    2    0    0  0.82621590020E+02  0.60254973288E+01  0.56105785381E+03  0.58075300697E+03  0.12500202409E+03 0.  0.
         25    2    1    2    0    0 -0.82621590020E+02 -0.60254973288E+01  0.13065255755E+03  0.19889214129E+03  0.12500143727E+03 0.  0.
          5    1    3    3  501    0  0.69427559315E+02 -0.47958317798E+02  0.23010418850E+03  0.24513305326E+03  0.47000000000E+01 0. -1.
         -5    1    3    3    0  501  0.13194030705E+02  0.53983815127E+02  0.33095366531E+03  0.33561995371E+03  0.47000000000E+01 0. -1.
          5    1    4    4  502    0  0.63023298140E+01  0.30582572433E+02 -0.55857158395E+01  0.32067168867E+02  0.47000000000E+01 0.  1.
         -5    1    4    4    0  502 -0.88923919834E+02 -0.36608069761E+02  0.13623827338E+03  0.16682497243E+03  0.47000000000E+01 0.  1.
<mgrwt>
<rscale>  0 0.35969885E+03</rscale>
<asrwt>0</asrwt>
<pdfrwt beam="1">  1       21 0.11318119E+00 0.35969885E+03</pdfrwt>
<pdfrwt beam="2">  1       21 0.67642111E-02 0.35969885E+03</pdfrwt>
<totfact> 0.92360823E+04</totfact>
</mgrwt>
</event>
<event>
 8    1  0.9691636E-006  0.3390372E+03  0.7546771E-02  0.1067207E+00
         21   -1    0    0  504  503  0.00000000000E+00  0.00000000000E+00  0.33690556748E+03  0.33690556748E+03  0.00000000000E+00 0.  1.
         21   -1    0    0  503  504 -0.00000000000E+00 -0.00000000000E+00 -0.85295572999E+02  0.85295572999E+02  0.00000000000E+00 0.  1.
         25    2    1    2    0    0 -0.10928861329E+03 -0.32429770619E+02  0.11217172986E+03  0.20298244036E+03  0.12499473228E+03 0.  0.
         25    2    1    2    0    0  0.10928861329E+03  0.32429770619E+02  0.13943826462E+03  0.21921870011E+03  0.12497246826E+03 0.  0.
          5    1    3    3  501    0  0.19191845507E+02  0.21989016254E+02  0.19876034112E+02  0.35622892946E+02  0.47000000000E+01 0.  1.
         -5    1    3    3    0  501 -0.12848045880E+03 -0.54418786873E+02  0.92295695751E+02  0.16735954742E+03  0.47000000000E+01 0.  1.
          5    1    4    4  502    0  0.60554062665E+02 -0.31606089735E+02  0.11697356931E+03  0.13553835373E+03  0.47000000000E+01 0. -1.
         -5    1    4    4    0  502  0.48734550627E+02  0.64035860354E+02  0.22464695304E+02  0.83680346385E+02  0.47000000000E+01 0. -1.
<mgrwt>
<rscale>  0 0.33903719E+03</rscale>
<asrwt>0</asrwt>
<pdfrwt beam="1">  1       21 0.51831625E-01 0.33903719E+03</pdfrwt>
<pdfrwt beam="2">  1       21 0.13122396E-01 0.33903719E+03</pdfrwt>
<totfact> 0.16978154E+05</totfact>
</mgrwt>
</event>
<event>
 8    1  0.9691636E-006  0.3633110E+03  0.7546771E-02  0.1057280E+00
         21   -1    0    0  504  503  0.00000000000E+00  0.00000000000E+00  0.83495150265E+02  0.83495150265E+02  0.00000000000E+00 0. -1.
         21   -1    0    0  503  504 -0.00000000000E+00 -0.00000000000E+00 -0.39521729317E+03  0.39521729317E+03  0.00000000000E+00 0. -1.
         25    2    1    2    0    0 -0.90459114392E+02  0.53130140785E+02 -0.50717196855E+02  0.17089036339E+03  0.12500247600E+03 0.  0.
         25    2    1    2    0    0  0.90459114392E+02 -0.53130140785E+02 -0.26100494605E+03  0.30782208005E+03  0.12500075146E+03 0.  0.
          5    1    3    3  501    0 -0.15995967231E+02  0.72007459055E+02  0.76381209964E+01  0.74305962208E+02  0.47000000000E+01 0.  1.
         -5    1    3    3    0  501 -0.74463147160E+02 -0.18877318270E+02 -0.58355317852E+02  0.96584401182E+02  0.47000000000E+01 0.  1.
          5    1    4    4  502    0  0.10046155499E+03 -0.33355151112E+02 -0.26446879650E+03  0.28490511484E+03  0.47000000000E+01 0. -1.
         -5    1    4    4    0  502 -0.10002440597E+02 -0.19774989673E+02  0.34638504522E+01  0.22916965209E+02  0.47000000000E+01 0. -1.
<mgrwt>
<rscale>  0 0.36331104E+03</rscale>
<asrwt>0</asrwt>
<pdfrwt beam="1">  1       21 0.12845408E-01 0.36331104E+03</pdfrwt>
<pdfrwt beam="2">  1       21 0.60802661E-01 0.36331104E+03</pdfrwt>
<totfact> 0.12449217E+05</totfact>
</mgrwt>
</event>
<event>
 8    1  0.9691636E-006  0.2990604E+03  0.7546771E-02  0.1085711E+00
         21   -1    0    0  504  503  0.00000000000E+00  0.00000000000E+00  0.76367803935E+02  0.76367803935E+02  0.00000000000E+00 0.  1.
         21   -1    0    0  503  504 -0.00000000000E+00 -0.00000000000E+00 -0.29278408694E+03  0.29278408694E+03  0.00000000000E+00 0.  1.
         25    2    1    2    0    0  0.75576442982E+02 -0.31556339235E+02 -0.11340879077E+03  0.18760218815E+03  0.12500170357E+03 0.  0.
         25    2    1    2    0    0 -0.75576442982E+02  0.31556339235E+02 -0.10300749223E+03  0.18154970272E+03  0.12506858047E+03 0.  0.
          5    1    3    3  501    0 -0.31879865590E+02 -0.21639075318E+02 -0.46380310357E+02  0.60479737098E+02  0.47000000000E+01 0. -1.
         -5    1    3    3    0  501  0.10745630857E+03 -0.99172639169E+01 -0.67028480409E+02  0.12712245105E+03  0.47000000000E+01 0. -1.
          5    1    4    4  502    0 -0.36242927637E+02  0.60056912616E+02 -0.31121530850E+01  0.70371571345E+02  0.47000000000E+01 0.  1.
         -5    1    4    4    0  502 -0.39333515345E+02 -0.28500573382E+02 -0.99895339149E+02  0.11117813138E+03  0.47000000000E+01 0.  1.
<mgrwt>
<rscale>  0 0.29906038E+03</rscale>
<asrwt>0</asrwt>
<pdfrwt beam="1">  1       21 0.11748893E-01 0.29906038E+03</pdfrwt>
<pdfrwt beam="2">  1       21 0.45043707E-01 0.29906038E+03</pdfrwt>
<totfact> 0.28094169E+05</totfact>
</mgrwt>
</event>
<event>
 8    1  0.9691636E-006  0.3079307E+03  0.7546771E-02  0.1081342E+00
         21   -1    0    0  504  503  0.00000000000E+00  0.00000000000E+00  0.23978526487E+03  0.23978526487E+03  0.00000000000E+00 0. -1.
         21   -1    0    0  503  504 -0.00000000000E+00 -0.00000000000E+00 -0.98860670351E+02  0.98860670351E+02  0.00000000000E+00 0. -1.
         25    2    1    2    0    0  0.84281299770E+02  0.26389057991E+02  0.88886578361E+02  0.17699146767E+03  0.12500174376E+03 0.  0.
         25    2    1    2    0    0 -0.84281299770E+02 -0.26389057991E+02  0.52038016153E+02  0.16165446755E+03  0.12499796750E+03 0.  0.
          5    1    3    3  501    0  0.79131914274E+02 -0.34310778922E+02  0.74860184676E+02  0.11430322242E+03  0.47000000000E+01 0.  1.
         -5    1    3    3    0  501  0.51493854960E+01  0.60699836913E+02  0.14026393684E+02  0.62688245246E+02  0.47000000000E+01 0.  1.
          5    1    4    4  502    0 -0.46883402492E+02 -0.40557173974E+01 -0.38559295334E+02  0.61019763434E+02  0.47000000000E+01 0. -1.
         -5    1    4    4    0  502 -0.37397897278E+02 -0.22333340593E+02  0.90597311488E+02  0.10063470411E+03  0.47000000000E+01 0. -1.
<mgrwt>
<rscale>  0 0.30793072E+03</rscale>
<asrwt>0</asrwt>
<pdfrwt beam="1">  1       21 0.36890040E-01 0.30793072E+03</pdfrwt>
<pdfrwt beam="2">  1       21 0.15209334E-01 0.30793072E+03</pdfrwt>
<totfact> 0.26366931E+05</totfact>
</mgrwt>
</event>
<event>
 8    1  0.9691636E-006  0.3084372E+03  0.7546771E-02  0.1081097E+00
         21   -1    0    0  504  503  0.00000000000E+00  0.00000000000E+00  0.27372279293E+03  0.27372279293E+03  0.00000000000E+00 0. -1.
         21   -1    0    0  503  504 -0.00000000000E+00 -0.00000000000E+00 -0.86888576502E+02  0.86888576502E+02  0.00000000000E+00 0. -1.
         25    2    1    2    0    0  0.20738228192E+02  0.86785465205E+02  0.10984022109E+03  0.18881435139E+03  0.12499677613E+03 0.  0.
         25    2    1    2    0    0 -0.20738228192E+02 -0.86785465205E+02  0.76993995332E+02  0.17179701804E+03  0.12499739601E+03 0.  0.
          5    1    3    3  501    0  0.28816380955E+02  0.11757699505E+03  0.91079324056E+02  0.15156604781E+03  0.47000000000E+01 0. -1.
         -5    1    3    3    0  501 -0.80781527630E+01 -0.30791529849E+02  0.18760897038E+02  0.37248303588E+02  0.47000000000E+01 0. -1.
          5    1    4    4  502    0 -0.57601339424E+02 -0.17085003460E+02  0.70195889702E+02  0.92516834023E+02  0.47000000000E+01 0.  1.
         -5    1    4    4    0  502  0.36863111232E+02 -0.69700461745E+02  0.67981056298E+01  0.79280184014E+02  0.47000000000E+01 0.  1.
<mgrwt>
<rscale>  0 0.30843725E+03</rscale>
<asrwt>0</asrwt>
<pdfrwt beam="1">  1       21 0.42111199E-01 0.30843725E+03</pdfrwt>
<pdfrwt beam="2">  1       21 0.13367473E-01 0.30843725E+03</pdfrwt>
<totfact> 0.25501892E+05</totfact>
</mgrwt>
</event>
<event>
 8    1  0.9691636E-006  0.4565742E+03  0.7546771E-02  0.1025779E+00
         21   -1    0    0  504  503  0.00000000000E+00  0.00000000000E+00  0.75095693439E+02  0.75095693439E+02  0.00000000000E+00 0.  1.
         21   -1    0    0  503  504 -0.00000000000E+00 -0.00000000000E+00 -0.69398127786E+03  0.69398127786E+03  0.00000000000E+00 0.  1.
         25    2    1    2    0    0  0.19669607836E+02  0.18501478637E+03 -0.23655450818E+03  0.32588535972E+03  0.12500347073E+03 0.  0.
         25    2    1    2    0    0 -0.19669607836E+02 -0.18501478637E+03 -0.38233107624E+03  0.44319161157E+03  0.12499755224E+03 0.  0.
          5    1    3    3  501    0 -0.54104569249E+01  0.55868314945E+02 -0.13447706004E+01  0.56342169526E+02  0.47000000000E+01 0.  1.
         -5    1    3    3    0  501  0.25080064761E+02  0.12914647142E+03 -0.23520973758E+03  0.26954319020E+03  0.47000000000E+01 0.  1.
          5    1    4    4  502    0  0.51400580688E+02 -0.86918840786E+02 -0.14597861005E+03  0.17756336663E+03  0.47000000000E+01 0.  1.
         -5    1    4    4    0  502 -0.71070188524E+02 -0.98095945580E+02 -0.23635246619E+03  0.26562824494E+03  0.47000000000E+01 0.  1.
<mgrwt>
<rscale>  0 0.45657422E+03</rscale>
<asrwt>0</asrwt>
<pdfrwt beam="1">  1       21 0.11553183E-01 0.45657422E+03</pdfrwt>
<pdfrwt beam="2">  1       21 0.10676635E+00 0.45657422E+03</pdfrwt>
<totfact> 0.40152057E+04</totfact>
</mgrwt>
</event>
<event>
 8    1  0.9691636E-006  0.2554296E+03  0.7546771E-02  0.1109921E+00
         21   -1    0    0  504  503  0.00000000000E+00  0.00000000000E+00  0.29154102427E+03  0.29154102427E+03  0.00000000000E+00 0. -1.
         21   -1    0    0  503  504 -0.00000000000E+00 -0.00000000000E+00 -0.55947764071E+02  0.55947764071E+02  0.00000000000E+00 0. -1.
         25    2    1    2    0    0 -0.22510632715E+02  0.12027519541E+02  0.12590376495E+03  0.17923833935E+03  0.12499293761E+03 0.  0.
         25    2    1    2    0    0  0.22510632715E+02 -0.12027519541E+02  0.10968949525E+03  0.16825044899E+03  0.12500015362E+03 0.  0.
          5    1    3    3  501    0 -0.31708268139E+02  0.25784586927E+02  0.14663654601E+03  0.15229781948E+03  0.47000000000E+01 0.  1.
         -5    1    3    3    0  501  0.91976354232E+01 -0.13757067386E+02 -0.20732781063E+02  0.26940519873E+02  0.47000000000E+01 0.  1.
          5    1    4    4  502    0  0.18704082103E+02  0.49601745292E+02  0.15325211114E+02  0.55381656882E+02  0.47000000000E+01 0. -1.
         -5    1    4    4    0  502  0.38065506121E+01 -0.61629264833E+02  0.94364284133E+02  0.11286879210E+03  0.47000000000E+01 0. -1.
<mgrwt>
<rscale>  0 0.25542959E+03</rscale>
<asrwt>0</asrwt>
<pdfrwt beam="1">  1       21 0.44852464E-01 0.25542959E+03</pdfrwt>
<pdfrwt beam="2">  1       21 0.86073485E-02 0.25542959E+03</pdfrwt>
<totfact> 0.49757128E+05</totfact>
</mgrwt>
</event>
<event>
 8    1  0.9691636E-006  0.5281755E+03  0.7546771E-02  0.1006676E+00
         21   -1    0    0  504  503  0.00000000000E+00  0.00000000000E+00  0.17417569998E+04  0.17417569998E+04  0.00000000000E+00 0. -1.
         21   -1    0    0  503  504 -0.00000000000E+00 -0.00000000000E+00 -0.40041368885E+02  0.40041368885E+02  0.00000000000E+00 0. -1.
         25    2    1    2    0    0 -0.93210884298E+02 -0.20475027677E+03  0.65101789603E+03  0.70004303393E+03  0.12500001445E+03 0.  0.
         25    2    1    2    0    0  0.93210884298E+02  0.20475027677E+03  0.10506977349E+04  0.10817553347E+04  0.12497171436E+03 0.  0.
          5    1    3    3  501    0 -0.10209467526E+03 -0.99282668215E+02  0.46060586855E+03  0.48214129368E+03  0.47000000000E+01 0.  1.
         -5    1    3    3    0  501  0.88837909628E+01 -0.10546760855E+03  0.19041202748E+03  0.21790174025E+03  0.47000000000E+01 0.  1.
          5    1    4    4  502    0 -0.14707455459E+02  0.77289987842E+02  0.20329551829E+03  0.21803946712E+03  0.47000000000E+01 0. -1.
         -5    1    4    4    0  502  0.10791833976E+03  0.12746028893E+03  0.84740221658E+03  0.86371586762E+03  0.47000000000E+01 0. -1.
<mgrwt>
<rscale>  0 0.52817548E+03</rscale>
<asrwt>0</asrwt>
<pdfrwt beam="1">  1       21 0.26796256E+00 0.52817548E+03</pdfrwt>
<pdfrwt beam="2">  1       21 0.61602120E-02 0.52817548E+03</pdfrwt>
<totfact> 0.81061737E+03</totfact>
</mgrwt>
</event>
<event>
 8    1  0.9691636E-006  0.2689866E+03  0.7546771E-02  0.1101861E+00
         21   -1    0    0  504  503  0.00000000000E+00  0.00000000000E+00  0.16287351544E+03  0.16287351544E+03  0.00000000000E+00 0.  1.
         21   -1    0    0  503  504 -0.00000000000E+00 -0.00000000000E+00 -0.11105821097E+03  0.11105821097E+03  0.00000000000E+00 0.  1.
         25    2    1    2    0    0 -0.95595855044E+01  0.47576975333E+02  0.36515402670E+02  0.13897213573E+03  0.12499970248E+03 0.  0.
         25    2    1    2    0    0  0.95595855044E+01 -0.47576975333E+02  0.15299901807E+02  0.13495959068E+03  0.12500019946E+03 0.  0.
          5    1    3    3  501    0 -0.37309884177E+02  0.67249160735E+02 -0.13580643846E+02  0.78236826138E+02  0.47000000000E+01 0.  1.
         -5    1    3    3    0  501  0.27750298673E+02 -0.19672185402E+02  0.50096046516E+02  0.60735309594E+02  0.47000000000E+01 0.  1.
          5    1    4    4  502    0 -0.26259468557E+02 -0.52014141593E+02  0.55586609670E+02  0.80665927064E+02  0.47000000000E+01 0.  1.
         -5    1    4    4    0  502  0.35819054062E+02  0.44371662597E+01 -0.40286707862E+02  0.54293663614E+02  0.47000000000E+01 0.  1.
<mgrwt>
<rscale>  0 0.26898655E+03</rscale>
<asrwt>0</asrwt>
<pdfrwt beam="1">  1       21 0.25057464E-01 0.26898655E+03</pdfrwt>
<pdfrwt beam="2">  1       21 0.17085879E-01 0.26898655E+03</pdfrwt>
<totfact> 0.45912052E+05</totfact>
</mgrwt>
</event>
<event>
 8    1  0.9691636E-006  0.2765994E+03  0.7546771E-02  0.1097561E+00
         21   -1    0    0  504  503  0.00000000000E+00  0.00000000000E+00  0.25978299198E+03  0.25978299198E+03  0.00000000000E+00 0.  1.
         21   -1    0    0  503  504 -0.00000000000E+00 -0.00000000000E+00 -0.73626106274E+02  0.73626106274E+02  0.00000000000E+00 0.  1.
         25    2    1    2    0    0 -0.22823930327E+02  0.23867162502E+02  0.15226274550E+03  0.19974690884E+03  0.12499724270E+03 0.  0.
         25    2    1    2    0    0  0.22823930327E+02 -0.23867162502E+02  0.33894140202E+02  0.13366218941E+03  0.12500477949E+03 0.  0.
          5    1    3    3  501    0 -0.40202982271E+02 -0.85886133198E+01 -0.16614910717E+01  0.41411286080E+02  0.47000000000E+01 0. -1.
         -5    1    3    3    0  501  0.17379051944E+02  0.32455775822E+02  0.15392423657E+03  0.15833562276E+03  0.47000000000E+01 0. -1.
          5    1    4    4  502    0 -0.35846647270E+02 -0.52166202736E+02  0.22668772092E+02  0.67396276281E+02  0.47000000000E+01 0.  1.
         -5    1    4    4    0  502  0.58670577597E+02  0.28299040233E+02  0.11225368110E+02  0.66265913130E+02  0.47000000000E+01 0.  1.
<mgrwt>
<rscale>  0 0.27659942E+03</rscale>
<asrwt>0</asrwt>
<pdfrwt beam="1">  1       21 0.39966614E-01 0.27659942E+03</pdfrwt>
<pdfrwt beam="2">  1       21 0.11327093E-01 0.27659942E+03</pdfrwt>
<totfact> 0.38542116E+05</totfact>
</mgrwt>
</event>
<event>
 8    1  0.9691636E-006  0.2670937E+03  0.7546771E-02  0.1102955E+00
         21   -1    0    0  504  503  0.00000000000E+00  0.00000000000E+00  0.50598816510E+02  0.50598816510E+02  0.00000000000E+00 0. -1.
         21   -1    0    0  503  504 -0.00000000000E+00 -0.00000000000E+00 -0.35247376724E+03  0.35247376724E+03  0.00000000000E+00 0. -1.
         25    2    1    2    0    0 -0.14891304281E+02  0.16924136390E+02 -0.21320065161E+03  0.24816908846E+03  0.12500080513E+03 0.  0.
         25    2    1    2    0    0  0.14891304281E+02 -0.16924136390E+02 -0.88674299122E+02  0.15490349529E+03  0.12499513668E+03 0.  0.
          5    1    3    3  501    0 -0.57811867703E+02 -0.17326526991E+02 -0.16201090276E+03  0.17295098496E+03  0.47000000000E+01 0.  1.
         -5    1    3    3    0  501  0.42920563421E+02  0.34250663382E+02 -0.51189748845E+02  0.75218103495E+02  0.47000000000E+01 0.  1.
          5    1    4    4  502    0  0.34709681703E+02  0.71721632245E+01  0.20532958256E+02  0.41229774484E+02  0.47000000000E+01 0. -1.
         -5    1    4    4    0  502 -0.19818377422E+02 -0.24096299615E+02 -0.10920725738E+03  0.11367372081E+03  0.47000000000E+01 0. -1.
<mgrwt>
<rscale>  0 0.26709366E+03</rscale>
<asrwt>0</asrwt>
<pdfrwt beam="1">  1       21 0.77844333E-02 0.26709366E+03</pdfrwt>
<pdfrwt beam="2">  1       21 0.54226734E-01 0.26709366E+03</pdfrwt>
<totfact> 0.39779000E+05</totfact>
</mgrwt>
</event>
<event>
 8    1  0.9691636E-006  0.4450279E+03  0.7546771E-02  0.1029215E+00
         21   -1    0    0  504  503  0.00000000000E+00  0.00000000000E+00  0.31822601701E+03  0.31822601701E+03  0.00000000000E+00 0. -1.
         21   -1    0    0  503  504 -0.00000000000E+00 -0.00000000000E+00 -0.15558898206E+03  0.15558898206E+03  0.00000000000E+00 0. -1.
         25    2    1    2    0    0  0.24575951682E+02  0.14293682346E+03 -0.39382943630E+02  0.19548180267E+03  0.12500882379E+03 0.  0.
         25    2    1    2    0    0 -0.24575951682E+02 -0.14293682346E+03  0.20201997858E+03  0.27833319640E+03  0.12498953385E+03 0.  0.
          5    1    3    3  501    0  0.11919359811E+02  0.13494673410E+03 -0.76170547157E+02  0.15548869553E+03  0.47000000000E+01 0.  1.
         -5    1    3    3    0  501  0.12656591871E+02  0.79900893588E+01  0.36787603527E+02  0.39993107144E+02  0.47000000000E+01 0.  1.
          5    1    4    4  502    0 -0.16776678216E+02 -0.11529553129E+03  0.21644202774E+03  0.24585312249E+03  0.47000000000E+01 0.  1.
         -5    1    4    4    0  502 -0.77992734664E+01 -0.27641292170E+02 -0.14422049156E+02  0.32480073911E+02  0.47000000000E+01 0.  1.
<mgrwt>
<rscale>  0 0.44502792E+03</rscale>
<asrwt>0</asrwt>
<pdfrwt beam="1">  1       21 0.48957849E-01 0.44502792E+03</pdfrwt>
<pdfrwt beam="2">  1       21 0.23936767E-01 0.44502792E+03</pdfrwt>
<totfact> 0.60606233E+04</totfact>
</mgrwt>
</event>
<event>
 8    1  0.9691636E-006  0.2823025E+03  0.7546771E-02  0.1094438E+00
         21   -1    0    0  504  503  0.00000000000E+00  0.00000000000E+00  0.44420355582E+03  0.44420355582E+03  0.00000000000E+00 0. -1.
         21   -1    0    0  503  504 -0.00000000000E+00 -0.00000000000E+00 -0.44852582466E+02  0.44852582466E+02  0.00000000000E+00 0. -1.
         25    2    1    2    0    0  0.11333974319E+02 -0.49621365377E+02  0.12806579323E+03  0.18605561185E+03  0.12500041772E+03 0.  0.
         25    2    1    2    0    0 -0.11333974319E+02  0.49621365377E+02  0.27128518012E+03  0.30300052643E+03  0.12499172448E+03 0.  0.
          5    1    3    3  501    0  0.23851606525E+02 -0.20582533212E+02  0.14597621596E+03  0.14941112888E+03  0.47000000000E+01 0.  1.
         -5    1    3    3    0  501 -0.12517632206E+02 -0.29038832166E+02 -0.17910422734E+02  0.36644482970E+02  0.47000000000E+01 0.  1.
          5    1    4    4  502    0 -0.39820404122E+02 -0.23611652030E+02  0.50829947440E+02  0.68912613162E+02  0.47000000000E+01 0. -1.
         -5    1    4    4    0  502  0.28486429803E+02  0.73233017408E+02  0.22045523268E+03  0.23408791327E+03  0.47000000000E+01 0. -1.
<mgrwt>
<rscale>  0 0.28230251E+03</rscale>
<asrwt>0</asrwt>
<pdfrwt beam="1">  1       21 0.68339005E-01 0.28230251E+03</pdfrwt>
<pdfrwt beam="2">  1       21 0.69003976E-02 0.28230251E+03</pdfrwt>
<totfact> 0.29613282E+05</totfact>
</mgrwt>
</event>
<event>
 8    1  0.9691636E-006  0.2871886E+03  0.7546771E-02  0.1091826E+00
         21   -1    0    0  504  503  0.00000000000E+00  0.00000000000E+00  0.59853316667E+02  0.59853316667E+02  0.00000000000E+00 0. -1.
         21   -1    0    0  503  504 -0.00000000000E+00 -0.00000000000E+00 -0.34449754061E+03  0.34449754061E+03  0.00000000000E+00 0. -1.
         25    2    1    2    0    0  0.29173326382E+02 -0.63830318668E+01 -0.52165048983E+02  0.13871180427E+03  0.12501178441E+03 0.  0.
         25    2    1    2    0    0 -0.29173326382E+02  0.63830318668E+01 -0.23247917496E+03  0.26563905300E+03  0.12500285447E+03 0.  0.
          5    1    3    3  501    0  0.14022027135E+02 -0.22762838721E+02 -0.90293257445E+02  0.94285345689E+02  0.47000000000E+01 0. -1.
         -5    1    3    3    0  501  0.15151299247E+02  0.16379806854E+02  0.38128208462E+02  0.44426458580E+02  0.47000000000E+01 0. -1.
          5    1    4    4  502    0  0.11056674551E+01 -0.17612396892E+02 -0.22533005299E+03  0.22606888730E+03  0.47000000000E+01 0. -1.
         -5    1    4    4    0  502 -0.30278993837E+02  0.23995428758E+02 -0.71491219689E+01  0.39570165706E+02  0.47000000000E+01 0. -1.
<mgrwt>
<rscale>  0 0.28718858E+03</rscale>
<asrwt>0</asrwt>
<pdfrwt beam="1">  1       21 0.92082025E-02 0.28718858E+03</pdfrwt>
<pdfrwt beam="2">  1       21 0.52999622E-01 0.28718858E+03</pdfrwt>
<totfact> 0.30943388E+05</totfact>
</mgrwt>
</event>
<event>
 8    1  0.9691636E-006  0.3460819E+03  0.7546771E-02  0.1064235E+00
         21   -1    0    0  504  503  0.00000000000E+00  0.00000000000E+00  0.24760810203E+02  0.24760810203E+02  0.00000000000E+00 0.  1.
         21   -1    0    0  503  504 -0.00000000000E+00 -0.00000000000E+00 -0.12092967421E+04  0.12092967421E+04  0.00000000000E+00 0.  1.
         25    2    1    2    0    0  0.10468385077E+03  0.25198945274E+02 -0.77838233307E+03  0.79567425619E+03  0.12499908027E+03 0.  0.
         25    2    1    2    0    0 -0.10468385077E+03 -0.25198945274E+02 -0.40615359888E+03  0.43838329617E+03  0.12500189207E+03 0.  0.
          5    1    3    3  501    0  0.12552414252E+03  0.19221167374E+01 -0.69965062782E+03  0.71083971182E+03  0.47000000000E+01 0. -1.
         -5    1    3    3    0  501 -0.20840291745E+02  0.23276828537E+02 -0.78731705246E+02  0.84834544366E+02  0.47000000000E+01 0. -1.
          5    1    4    4  502    0  0.17653274492E+02  0.26050163189E+02 -0.91919231670E+02  0.97270161166E+02  0.47000000000E+01 0. -1.
         -5    1    4    4    0  502 -0.12233712526E+03 -0.51249108464E+02 -0.31423436721E+03  0.34111313500E+03  0.47000000000E+01 0. -1.
<mgrwt>
<rscale>  0 0.34608188E+03</rscale>
<asrwt>0</asrwt>
<pdfrwt beam="1">  1       21 0.38093549E-02 0.34608188E+03</pdfrwt>
<pdfrwt beam="2">  1       21 0.18604568E+00 0.34608188E+03</pdfrwt>
<totfact> 0.65684503E+04</totfact>
</mgrwt>
</event>
<event>
 8    1  0.9691636E-006  0.2559451E+03  0.7546771E-02  0.1109604E+00
         21   -1    0    0  504  503  0.00000000000E+00  0.00000000000E+00  0.23903907600E+03  0.23903907600E+03  0.00000000000E+00 0.  1.
         21   -1    0    0  503  504 -0.00000000000E+00 -0.00000000000E+00 -0.68511691101E+02  0.68511691101E+02  0.00000000000E+00 0.  1.
         25    2    1    2    0    0 -0.66071776651E+01  0.10817464861E+02  0.56046775252E+02  0.13757772836E+03  0.12500287189E+03 0.  0.
         25    2    1    2    0    0  0.66071776651E+01 -0.10817464861E+02  0.11448060965E+03  0.16997303874E+03  0.12499740626E+03 0.  0.
          5    1    3    3  501    0 -0.10462473444E+02  0.66335290919E+02  0.17002503929E+02  0.69433488403E+02  0.47000000000E+01 0. -1.
         -5    1    3    3    0  501  0.38552957787E+01 -0.55517826058E+02  0.39044271323E+02  0.68144239954E+02  0.47000000000E+01 0. -1.
          5    1    4    4  502    0  0.32477493494E+02 -0.22593445234E+01  0.13279383565E+03  0.13680710876E+03  0.47000000000E+01 0. -1.
         -5    1    4    4    0  502 -0.25870315828E+02 -0.85581203375E+01 -0.18313226004E+02  0.33165929980E+02  0.47000000000E+01 0. -1.
<mgrwt>
<rscale>  0 0.25594508E+03</rscale>
<asrwt>0</asrwt>
<pdfrwt beam="1">  1       21 0.36775242E-01 0.25594508E+03</pdfrwt>
<pdfrwt beam="2">  1       21 0.10540260E-01 0.25594508E+03</pdfrwt>
<totfact> 0.52081239E+05</totfact>
</mgrwt>
</event>
<event>
 8    1  0.9691636E-006  0.4385010E+03  0.7546771E-02  0.1031208E+00
         21   -1    0    0  504  503  0.00000000000E+00  0.00000000000E+00  0.20309497361E+03  0.20309497361E+03  0.00000000000E+00 0.  1.
         21   -1    0    0  503  504 -0.00000000000E+00 -0.00000000000E+00 -0.23669114672E+03  0.23669114672E+03  0.00000000000E+00 0.  1.
         25    2    1    2    0    0  0.38307564516E+01 -0.18006022110E+03 -0.19717053355E+02  0.22011635659E+03  0.12500436123E+03 0.  0.
         25    2    1    2    0    0 -0.38307564516E+01  0.18006022110E+03 -0.13879119753E+02  0.21966976374E+03  0.12500326884E+03 0.  0.
          5    1    3    3  501    0 -0.12573508708E+02  0.16783630990E+02  0.54400189515E+00  0.21498123837E+02  0.47000000000E+01 0.  1.
         -5    1    3    3    0  501  0.16404265159E+02 -0.19684385209E+03 -0.20261055250E+02  0.19861823275E+03  0.47000000000E+01 0.  1.
          5    1    4    4  502    0  0.44162866945E+02  0.15956108944E+03 -0.20350930683E+02  0.16687225791E+03  0.47000000000E+01 0. -1.
         -5    1    4    4    0  502 -0.47993623396E+02  0.20499131656E+02  0.64718109302E+01  0.52797505832E+02  0.47000000000E+01 0. -1.
<mgrwt>
<rscale>  0 0.43850100E+03</rscale>
<asrwt>0</asrwt>
<pdfrwt beam="1">  1       21 0.31245381E-01 0.43850100E+03</pdfrwt>
<pdfrwt beam="2">  1       21 0.36414022E-01 0.43850100E+03</pdfrwt>
<totfact> 0.66451203E+04</totfact>
</mgrwt>
</event>
<event>
 8    1  0.9691636E-006  0.3395295E+03  0.7546771E-02  0.1066996E+00
         21   -1    0    0  504  503  0.00000000000E+00  0.00000000000E+00  0.19565897583E+03  0.19565897583E+03  0.00000000000E+00 0. -1.
         21   -1    0    0  503  504 -0.00000000000E+00 -0.00000000000E+00 -0.14729749998E+03  0.14729749998E+03  0.00000000000E+00 0. -1.
         25    2    1    2    0    0  0.51364156932E+02  0.94253182112E+02 -0.17133348370E+02  0.16565683210E+03  0.12500678158E+03 0.  0.
         25    2    1    2    0    0 -0.51364156932E+02 -0.94253182112E+02  0.65494824217E+02  0.17729964371E+03  0.12499461070E+03 0.  0.
          5    1    3    3  501    0  0.83397179641E+02  0.33705538218E+02  0.12383584691E+02  0.90920822964E+02  0.47000000000E+01 0. -1.
         -5    1    3    3    0  501 -0.32033022708E+02  0.60547643894E+02 -0.29516933061E+02  0.74736009141E+02  0.47000000000E+01 0. -1.
          5    1    4    4  502    0 -0.79846694879E+02 -0.65718525777E+02  0.39763665434E+01  0.10359691503E+03  0.47000000000E+01 0. -1.
         -5    1    4    4    0  502  0.28482537947E+02 -0.28534656336E+02  0.61518457674E+02  0.73702728678E+02  0.47000000000E+01 0. -1.
<mgrwt>
<rscale>  0 0.33952955E+03</rscale>
<asrwt>0</asrwt>
<pdfrwt beam="1">  1       21 0.30101381E-01 0.33952955E+03</pdfrwt>
<pdfrwt beam="2">  1       21 0.22661154E-01 0.33952955E+03</pdfrwt>
<totfact> 0.18605144E+05</totfact>
</mgrwt>
</event>
<event>
 8    1  0.9691636E-006  0.3200587E+03  0.7546771E-02  0.1075622E+00
         21   -1    0    0  504  503  0.00000000000E+00  0.00000000000E+00  0.89388718977E+03  0.89388718977E+03  0.00000000000E+00 0. -1.
         21   -1    0    0  503  504 -0.00000000000E+00 -0.00000000000E+00 -0.28649466759E+02  0.28649466759E+02  0.00000000000E+00 0. -1.
         25    2    1    2    0    0  0.92305840053E+02  0.37258571159E+02  0.40988395985E+03  0.43995519552E+03  0.12508854581E+03 0.  0.
         25    2    1    2    0    0 -0.92305840053E+02 -0.37258571159E+02  0.45535376316E+03  0.48258146101E+03  0.12501698944E+03 0.  0.
          5    1    3    3  501    0  0.59433456332E+01  0.33661972795E+02  0.18576402414E+02  0.39187045008E+02  0.47000000000E+01 0. -1.
         -5    1    3    3    0  501  0.86362494419E+02  0.35965983645E+01  0.39130755743E+03  0.40076815051E+03  0.47000000000E+01 0. -1.
          5    1    4    4  502    0 -0.83526468642E+02  0.30179821182E+02  0.21296971077E+03  0.23079358803E+03  0.47000000000E+01 0. -1.
         -5    1    4    4    0  502 -0.87793714112E+01 -0.67438392341E+02  0.24238405240E+03  0.25178787298E+03  0.47000000000E+01 0. -1.
<mgrwt>
<rscale>  0 0.32005869E+03</rscale>
<asrwt>0</asrwt>
<pdfrwt beam="1">  1       21 0.13752108E+00 0.32005869E+03</pdfrwt>
<pdfrwt beam="2">  1       21 0.44076110E-02 0.32005869E+03</pdfrwt>
<totfact> 0.11904740E+05</totfact>
</mgrwt>
</event>
<event>
 8    1  0.9691636E-006  0.2610029E+03  0.7546771E-02  0.1106542E+00
         21   -1    0    0  504  503  0.00000000000E+00  0.00000000000E+00  0.17236525926E+03  0.17236525926E+03  0.00000000000E+00 0.  1.
         21   -1    0    0  503  504 -0.00000000000E+00 -0.00000000000E+00 -0.98805421311E+02  0.98805421311E+02  0.00000000000E+00 0.  1.
         25    2    1    2    0    0  0.23191500394E+02 -0.47483515347E+01  0.66980027417E+02  0.14377983419E+03  0.12500369641E+03 0.  0.
         25    2    1    2    0    0 -0.23191500394E+02  0.47483515347E+01  0.65798105349E+01  0.12739084638E+03  0.12499896520E+03 0.  0.
          5    1    3    3  501    0 -0.29909447791E+02  0.43986763744E+02  0.17363233229E+02  0.56151423134E+02  0.47000000000E+01 0.  1.
         -5    1    3    3    0  501  0.53100948185E+02 -0.48735115278E+02  0.49616794187E+02  0.87628411059E+02  0.47000000000E+01 0.  1.
          5    1    4    4  502    0  0.35889416912E+02  0.36266368790E+02 -0.20257764102E+02  0.55097792677E+02  0.47000000000E+01 0. -1.
         -5    1    4    4    0  502 -0.59080917306E+02 -0.31518017255E+02  0.26837574637E+02  0.72293053703E+02  0.47000000000E+01 0. -1.
<mgrwt>
<rscale>  0 0.26100285E+03</rscale>
<asrwt>0</asrwt>
<pdfrwt beam="1">  1       21 0.26517732E-01 0.26100285E+03</pdfrwt>
<pdfrwt beam="2">  1       21 0.15200834E-01 0.26100285E+03</pdfrwt>
<totfact> 0.51136710E+05</totfact>
</mgrwt>
</event>
<event>
 8    1  0.9691636E-006  0.2692827E+03  0.7546771E-02  0.1101691E+00
         21   -1    0    0  504  503  0.00000000000E+00  0.00000000000E+00  0.10049855138E+04  0.10049855138E+04  0.00000000000E+00 0. -1.
         21   -1    0    0  503  504 -0.00000000000E+00 -0.00000000000E+00 -0.18038360765E+02  0.18038360765E+02  0.00000000000E+00 0. -1.
         25    2    1    2    0    0  0.94021263292E+01  0.19096503604E+01  0.68002771490E+03  0.69148806135E+03  0.12500399683E+03 0.  0.
         25    2    1    2    0    0 -0.94021263292E+01 -0.19096503604E+01  0.30691943812E+03  0.33153581319E+03  0.12499762874E+03 0.  0.
          5    1    3    3  501    0 -0.39210579227E+02  0.29363904895E+02  0.51213014293E+03  0.51448914637E+03  0.47000000000E+01 0.  1.
         -5    1    3    3    0  501  0.48612705556E+02 -0.27454254534E+02  0.16789757196E+03  0.17699891498E+03  0.47000000000E+01 0.  1.
          5    1    4    4  502    0  0.27033082458E+02 -0.49109775236E+02  0.21205338669E+03  0.21938843720E+03  0.47000000000E+01 0. -1.
         -5    1    4    4    0  502 -0.36435208788E+02  0.47200124876E+02  0.94866051425E+02  0.11214737599E+03  0.47000000000E+01 0. -1.
<mgrwt>
<rscale>  0 0.26928269E+03</rscale>
<asrwt>0</asrwt>
<pdfrwt beam="1">  1       21 0.15461311E+00 0.26928269E+03</pdfrwt>
<pdfrwt beam="2">  1       21 0.27751332E-02 0.26928269E+03</pdfrwt>
<totfact> 0.19288459E+05</totfact>
</mgrwt>
</event>
<event>
 8    1  0.9691636E-006  0.3520595E+03  0.7546771E-02  0.1061773E+00
         21   -1    0    0  504  503  0.00000000000E+00  0.00000000000E+00  0.13870566369E+04  0.13870566369E+04  0.00000000000E+00 0. -1.
         21   -1    0    0  503  504 -0.00000000000E+00 -0.00000000000E+00 -0.22339728077E+02  0.22339728077E+02  0.00000000000E+00 0. -1.
         25    2    1    2    0    0  0.19716199839E+02  0.85414179996E+02  0.33158612039E+03  0.36504568263E+03  0.12499873796E+03 0.  0.
         25    2    1    2    0    0 -0.19716199839E+02 -0.85414179996E+02  0.10331307885E+04  0.10443506824E+04  0.12499924412E+03 0.  0.
          5    1    3    3  501    0  0.31667052604E+02 -0.11094899081E+02  0.19134882496E+03  0.19432540189E+03  0.47000000000E+01 0. -1.
         -5    1    3    3    0  501 -0.11950852765E+02  0.96509079077E+02  0.14023729543E+03  0.17072028074E+03  0.47000000000E+01 0. -1.
          5    1    4    4  502    0  0.48106616153E+01  0.10363029427E+02  0.86068801462E+01  0.15056667292E+02  0.47000000000E+01 0. -1.
         -5    1    4    4    0  502 -0.24526861454E+02 -0.95777209423E+02  0.10245239083E+04  0.10292940151E+04  0.47000000000E+01 0. -1.
<mgrwt>
<rscale>  0 0.35205947E+03</rscale>
<asrwt>0</asrwt>
<pdfrwt beam="1">  1       21 0.21339326E+00 0.35205947E+03</pdfrwt>
<pdfrwt beam="2">  1       21 0.34368823E-02 0.35205947E+03</pdfrwt>
<totfact> 0.51437426E+04</totfact>
</mgrwt>
</event>
<event>
 8    1  0.9691636E-006  0.2506481E+03  0.7546771E-02  0.1112896E+00
         21   -1    0    0  504  503  0.00000000000E+00  0.00000000000E+00  0.16981147422E+03  0.16981147422E+03  0.00000000000E+00 0.  1.
         21   -1    0    0  503  504 -0.00000000000E+00 -0.00000000000E+00 -0.92491465429E+02  0.92491465429E+02  0.00000000000E+00 0.  1.
         25    2    1    2    0    0  0.46002100495E+00  0.26679918270E+01  0.47465072732E+02  0.13373265176E+03  0.12499663683E+03 0.  0.
         25    2    1    2    0    0 -0.46002100495E+00 -0.26679918270E+01  0.29854936057E+02  0.12857028788E+03  0.12502668483E+03 0.  0.
          5    1    3    3  501    0 -0.50339200348E+02 -0.28141567465E+02  0.46328378569E+02  0.74124163212E+02  0.47000000000E+01 0.  1.
         -5    1    3    3    0  501  0.50799221353E+02  0.30809559292E+02  0.11366941630E+01  0.59608488552E+02  0.47000000000E+01 0.  1.
          5    1    4    4  502    0  0.56811233693E+02 -0.24580044830E+02  0.24847729443E+02  0.66866991378E+02  0.47000000000E+01 0. -1.
         -5    1    4    4    0  502 -0.57271254698E+02  0.21912053003E+02  0.50072066137E+01  0.61703296504E+02  0.47000000000E+01 0. -1.
<mgrwt>
<rscale>  0 0.25064806E+03</rscale>
<asrwt>0</asrwt>
<pdfrwt beam="1">  1       21 0.26124842E-01 0.25064806E+03</pdfrwt>
<pdfrwt beam="2">  1       21 0.14229456E-01 0.25064806E+03</pdfrwt>
<totfact> 0.59496692E+05</totfact>
</mgrwt>
</event>
<event>
 8    1  0.9691636E-006  0.2781494E+03  0.7546771E-02  0.1096704E+00
         21   -1    0    0  504  503  0.00000000000E+00  0.00000000000E+00  0.35947604394E+02  0.35947604394E+02  0.00000000000E+00 0. -1.
         21   -1    0    0  503  504 -0.00000000000E+00 -0.00000000000E+00 -0.53805459281E+03  0.53805459281E+03  0.00000000000E+00 0. -1.
         25    2    1    2    0    0  0.32129667322E+02 -0.51376825081E+02 -0.23726679250E+03  0.27494121778E+03  0.12500099493E+03 0.  0.
         25    2    1    2    0    0 -0.32129667322E+02  0.51376825081E+02 -0.26484019591E+03  0.29906097942E+03  0.12500098544E+03 0.  0.
          5    1    3    3  501    0 -0.45033828279E+02 -0.18709490811E+02 -0.12876046544E+03  0.13776588183E+03  0.47000000000E+01 0.  1.
         -5    1    3    3    0  501  0.77163495601E+02 -0.32667334270E+02 -0.10850632706E+03  0.13717533595E+03  0.47000000000E+01 0.  1.
          5    1    4    4  502    0  0.37179641399E+02 -0.11708185127E+02 -0.43207161314E+02  0.58381128135E+02  0.47000000000E+01 0. -1.
         -5    1    4    4    0  502 -0.69309308721E+02  0.63085010208E+02 -0.22163303460E+03  0.24067985128E+03  0.47000000000E+01 0. -1.
<mgrwt>
<rscale>  0 0.27814941E+03</rscale>
<asrwt>0</asrwt>
<pdfrwt beam="1">  1       21 0.55304010E-02 0.27814941E+03</pdfrwt>
<pdfrwt beam="2">  1       21 0.82777625E-01 0.27814941E+03</pdfrwt>
<totfact> 0.28197794E+05</totfact>
</mgrwt>
</event>
<event>
 8    1  0.9691636E-006  0.2775081E+03  0.7546771E-02  0.1097058E+00
         21   -1    0    0  504  503  0.00000000000E+00  0.00000000000E+00  0.15964287478E+02  0.15964287478E+02  0.00000000000E+00 0.  1.
         21   -1    0    0  503  504 -0.00000000000E+00 -0.00000000000E+00 -0.12059847083E+04  0.12059847083E+04  0.00000000000E+00 0.  1.
         25    2    1    2    0    0 -0.11215363021E+01  0.57846929376E+02 -0.66874165221E+03  0.68277957530E+03  0.12500010388E+03 0.  0.
         25    2    1    2    0    0  0.11215363021E+01 -0.57846929376E+02 -0.52127876859E+03  0.53916942045E+03  0.12499833713E+03 0.  0.
          5    1    3    3  501    0 -0.44442835398E+02  0.76547944891E+02 -0.48397891265E+03  0.49202889282E+03  0.47000000000E+01 0. -1.
         -5    1    3    3    0  501  0.43321299096E+02 -0.18701015515E+02 -0.18476273956E+03  0.19075068248E+03  0.47000000000E+01 0. -1.
          5    1    4    4  502    0  0.49448182662E+02 -0.59019193068E+02 -0.41777254864E+03  0.42483453287E+03  0.47000000000E+01 0. -1.
         -5    1    4    4    0  502 -0.48326646360E+02  0.11722636920E+01 -0.10350621994E+03  0.11433488758E+03  0.47000000000E+01 0. -1.
<mgrwt>
<rscale>  0 0.27750810E+03</rscale>
<asrwt>0</asrwt>
<pdfrwt beam="1">  1       21 0.24560439E-02 0.27750810E+03</pdfrwt>
<pdfrwt beam="2">  1       21 0.18553613E+00 0.27750810E+03</pdfrwt>
<totfact> 0.14144835E+05</totfact>
</mgrwt>
</event>
<event>
 8    1  0.9691636E-006  0.3274226E+03  0.7546771E-02  0.1072283E+00
         21   -1    0    0  504  503  0.00000000000E+00  0.00000000000E+00  0.40432040871E+02  0.40432040871E+02  0.00000000000E+00 0.  1.
         21   -1    0    0  503  504 -0.00000000000E+00 -0.00000000000E+00 -0.66287492728E+03  0.66287492728E+03  0.00000000000E+00 0.  1.
         25    2    1    2    0    0  0.29786894166E+02 -0.16535514345E+02 -0.52619367662E+03  0.54190973682E+03  0.12500278099E+03 0.  0.
         25    2    1    2    0    0 -0.29786894166E+02  0.16535514345E+02 -0.96249209793E+02  0.16139723133E+03  0.12499789436E+03 0.  0.
          5    1    3    3  501    0  0.59269435107E+02  0.24187202244E+02 -0.16233449978E+03  0.17456364601E+03  0.47000000000E+01 0.  1.
         -5    1    3    3    0  501 -0.29482540941E+02 -0.40722716589E+02 -0.36385917684E+03  0.36734609081E+03  0.47000000000E+01 0.  1.
          5    1    4    4  502    0 -0.41754557284E+02  0.65103878042E+02 -0.44887089223E+02  0.89548304110E+02  0.47000000000E+01 0.  1.
         -5    1    4    4    0  502  0.11967663118E+02 -0.48568363697E+02 -0.51362120571E+02  0.71848927217E+02  0.47000000000E+01 0.  1.
<mgrwt>
<rscale>  0 0.32742258E+03</rscale>
<asrwt>0</asrwt>
<pdfrwt beam="1">  1       21 0.62203143E-02 0.32742258E+03</pdfrwt>
<pdfrwt beam="2">  1       21 0.10198075E+00 0.32742258E+03</pdfrwt>
<totfact> 0.13913439E+05</totfact>
</mgrwt>
</event>
<event>
 8    1  0.9691636E-006  0.2639577E+03  0.7546771E-02  0.1104788E+00
         21   -1    0    0  504  503  0.00000000000E+00  0.00000000000E+00  0.10603381653E+03  0.10603381653E+03  0.00000000000E+00 0. -1.
         21   -1    0    0  503  504 -0.00000000000E+00 -0.00000000000E+00 -0.16427222449E+03  0.16427222449E+03  0.00000000000E+00 0. -1.
         25    2    1    2    0    0  0.11705586469E+02 -0.39876267347E+02 -0.20773459117E+02  0.13335077884E+03  0.12499502454E+03 0.  0.
         25    2    1    2    0    0 -0.11705586469E+02  0.39876267347E+02 -0.37464948843E+02  0.13695526219E+03  0.12500393593E+03 0.  0.
          5    1    3    3  501    0 -0.31699734444E+02 -0.70027312186E+02 -0.18983579216E+01  0.77035000997E+02  0.47000000000E+01 0.  1.
         -5    1    3    3    0  501  0.43405320913E+02  0.30151044838E+02 -0.18875101196E+02  0.56315777839E+02  0.47000000000E+01 0.  1.
          5    1    4    4  502    0 -0.70296251796E+01  0.79183138171E+02  0.36133536145E+01  0.79715314244E+02  0.47000000000E+01 0.  1.
         -5    1    4    4    0  502 -0.46759612896E+01 -0.39306870823E+02 -0.41078302457E+02  0.57239947945E+02  0.47000000000E+01 0.  1.
<mgrwt>
<rscale>  0 0.26395766E+03</rscale>
<asrwt>0</asrwt>
<pdfrwt beam="1">  1       21 0.16312895E-01 0.26395766E+03</pdfrwt>
<pdfrwt beam="2">  1       21 0.25272650E-01 0.26395766E+03</pdfrwt>
<totfact> 0.49245620E+05</totfact>
</mgrwt>
</event>
<event>
 8    1  0.9691636E-006  0.2672364E+03  0.7546771E-02  0.1102872E+00
         21   -1    0    0  504  503  0.00000000000E+00  0.00000000000E+00  0.12062618561E+02  0.12062618561E+02  0.00000000000E+00 0.  1.
         21   -1    0    0  503  504 -0.00000000000E+00 -0.00000000000E+00 -0.14800951510E+04  0.14800951510E+04  0.00000000000E+00 0.  1.
         25    2    1    2    0    0  0.39161036147E+02  0.12108640778E+02 -0.60284696292E+03  0.61703289996E+03  0.12499973202E+03 0.  0.
         25    2    1    2    0    0 -0.39161036147E+02 -0.12108640778E+02 -0.86518556949E+03  0.87512486956E+03  0.12496904315E+03 0.  0.
          5    1    3    3  501    0  0.18064998021E+02 -0.49318534919E+02 -0.13953158973E+03  0.14916372405E+03  0.47000000000E+01 0. -1.
         -5    1    3    3    0  501  0.21096038126E+02  0.61427175697E+02 -0.46331537318E+03  0.46786917591E+03  0.47000000000E+01 0. -1.
          5    1    4    4  502    0  0.45410331407E+02 -0.85630586361E+01 -0.33481795122E+03  0.33802451779E+03  0.47000000000E+01 0. -1.
         -5    1    4    4    0  502 -0.84571367554E+02 -0.35455821419E+01 -0.53036761827E+03  0.53710035177E+03  0.47000000000E+01 0. -1.
<mgrwt>
<rscale>  0 0.26723640E+03</rscale>
<asrwt>0</asrwt>
<pdfrwt beam="1">  1       21 0.18557880E-02 0.26723640E+03</pdfrwt>
<pdfrwt beam="2">  1       21 0.22770688E+00 0.26723640E+03</pdfrwt>
<totfact> 0.12050971E+05</totfact>
</mgrwt>
</event>
<event>
 8    1  0.9691636E-006  0.3235969E+03  0.7546771E-02  0.1074006E+00
         21   -1    0    0  504  503  0.00000000000E+00  0.00000000000E+00  0.55669273102E+02  0.55669273102E+02  0.00000000000E+00 0. -1.
         21   -1    0    0  503  504 -0.00000000000E+00 -0.00000000000E+00 -0.47025460843E+03  0.47025460843E+03  0.00000000000E+00 0. -1.
         25    2    1    2    0    0  0.90283627651E+02  0.11842362192E+02 -0.28473933431E+03  0.32399140794E+03  0.12491024358E+03 0.  0.
         25    2    1    2    0    0 -0.90283627651E+02 -0.11842362192E+02 -0.12984600101E+03  0.20193247359E+03  0.12500145978E+03 0.  0.
          5    1    3    3  501    0  0.94231644711E+02  0.56147898310E+02 -0.20622718611E+03  0.23363204326E+03  0.47000000000E+01 0.  1.
         -5    1    3    3    0  501 -0.39480170600E+01 -0.44305536118E+02 -0.78512148204E+02  0.90359364678E+02  0.47000000000E+01 0.  1.
          5    1    4    4  502    0  0.47838911996E+01  0.14624084810E+02 -0.96244470984E+02  0.97579904010E+02  0.47000000000E+01 0. -1.
         -5    1    4    4    0  502 -0.95067518851E+02 -0.26466447002E+02 -0.33601530031E+02  0.10435256958E+03  0.47000000000E+01 0. -1.
<mgrwt>
<rscale>  0 0.32359686E+03</rscale>
<asrwt>0</asrwt>
<pdfrwt beam="1">  1       21 0.85645036E-02 0.32359686E+03</pdfrwt>
<pdfrwt beam="2">  1       21 0.72346862E-01 0.32359686E+03</pdfrwt>
<totfact> 0.17688613E+05</totfact>
</mgrwt>
</event>
<event>
 8    1  0.9691636E-006  0.2669976E+03  0.7546771E-02  0.1103010E+00
         21   -1    0    0  504  503  0.00000000000E+00  0.00000000000E+00  0.62159572610E+03  0.62159572610E+03  0.00000000000E+00 0. -1.
         21   -1    0    0  503  504 -0.00000000000E+00 -0.00000000000E+00 -0.28671252385E+02  0.28671252385E+02  0.00000000000E+00 0. -1.
         25    2    1    2    0    0 -0.37701546223E+02  0.14122265664E+02  0.23789994976E+03  0.27173791660E+03  0.12499705694E+03 0.  0.
         25    2    1    2    0    0  0.37701546223E+02 -0.14122265664E+02  0.35502452396E+03  0.37852906189E+03  0.12498397142E+03 0.  0.
          5    1    3    3  501    0  0.30545233069E+02  0.35809934038E+02  0.15516910967E+03  0.16221869570E+03  0.47000000000E+01 0.  1.
         -5    1    3    3    0  501 -0.68246779292E+02 -0.21687668374E+02  0.82730840086E+02  0.10951922089E+03  0.47000000000E+01 0.  1.
          5    1    4    4  502    0 -0.25022331802E+02 -0.22893248646E+02  0.24860683972E+02  0.42312663942E+02  0.47000000000E+01 0.  1.
         -5    1    4    4    0  502  0.62723878024E+02  0.87709829812E+01  0.33016383999E+03  0.33621639795E+03  0.47000000000E+01 0.  1.
<mgrwt>
<rscale>  0 0.26699759E+03</rscale>
<asrwt>0</asrwt>
<pdfrwt beam="1">  1       21 0.95630101E-01 0.26699759E+03</pdfrwt>
<pdfrwt beam="2">  1       21 0.44109624E-02 0.26699759E+03</pdfrwt>
<totfact> 0.29707704E+05</totfact>
</mgrwt>
</event>
<event>
 8    1  0.9691636E-006  0.3644355E+03  0.7546771E-02  0.1056841E+00
         21   -1    0    0  504  503  0.00000000000E+00  0.00000000000E+00  0.21653101500E+03  0.21653101500E+03  0.00000000000E+00 0.  1.
         21   -1    0    0  503  504 -0.00000000000E+00 -0.00000000000E+00 -0.15334202824E+03  0.15334202824E+03  0.00000000000E+00 0.  1.
         25    2    1    2    0    0  0.16859268076E+02 -0.10005895015E+03 -0.55013996017E+02  0.17014065826E+03  0.12500110163E+03 0.  0.
         25    2    1    2    0    0 -0.16859268076E+02  0.10005895015E+03  0.11820298278E+03  0.19973238499E+03  0.12500020820E+03 0.  0.
          5    1    3    3  501    0  0.24406145037E+02 -0.89892633758E+02  0.18766094645E+02  0.95134651036E+02  0.47000000000E+01 0. -1.
         -5    1    3    3    0  501 -0.75468769609E+01 -0.10166316390E+02 -0.73780090662E+02  0.75006007219E+02  0.47000000000E+01 0. -1.
          5    1    4    4  502    0 -0.11030964589E+02  0.11301605741E+03  0.13550540761E+03  0.17685620403E+03  0.47000000000E+01 0. -1.
         -5    1    4    4    0  502 -0.58283034871E+01 -0.12957107259E+02 -0.17302424833E+02  0.22876180957E+02  0.47000000000E+01 0. -1.
<mgrwt>
<rscale>  0 0.36443548E+03</rscale>
<asrwt>0</asrwt>
<pdfrwt beam="1">  1       21 0.33312464E-01 0.36443548E+03</pdfrwt>
<pdfrwt beam="2">  1       21 0.23591081E-01 0.36443548E+03</pdfrwt>
<totfact> 0.14006193E+05</totfact>
</mgrwt>
</event>
<event>
 8    1  0.9691636E-006  0.3459444E+03  0.7546771E-02  0.1064292E+00
         21   -1    0    0  504  503  0.00000000000E+00  0.00000000000E+00  0.19828133061E+02  0.19828133061E+02  0.00000000000E+00 0. -1.
         21   -1    0    0  503  504 -0.00000000000E+00 -0.00000000000E+00 -0.15089355968E+04  0.15089355968E+04  0.00000000000E+00 0. -1.
         25    2    1    2    0    0  0.90116847416E+02 -0.14342757248E+02 -0.10859616551E+04  0.10969323231E+04  0.12498417588E+03 0.  0.
         25    2    1    2    0    0 -0.90116847416E+02  0.14342757248E+02 -0.40314580861E+03  0.43183140675E+03  0.12500023990E+03 0.  0.
          5    1    3    3  501    0  0.29224403966E+02 -0.61825702954E+02 -0.33135627565E+03  0.33837191779E+03  0.47000000000E+01 0. -1.
         -5    1    3    3    0  501  0.60892443451E+02  0.47482945706E+02 -0.75460537946E+03  0.75856040532E+03  0.47000000000E+01 0. -1.
          5    1    4    4  502    0 -0.38962575054E+02  0.61798986471E+02 -0.28758458164E+03  0.29675609274E+03  0.47000000000E+01 0. -1.
         -5    1    4    4    0  502 -0.51154272362E+02 -0.47456229223E+02 -0.11556122698E+03  0.13507531400E+03  0.47000000000E+01 0. -1.
<mgrwt>
<rscale>  0 0.34594436E+03</rscale>
<asrwt>0</asrwt>
<pdfrwt beam="1">  1       21 0.30504819E-02 0.34594436E+03</pdfrwt>
<pdfrwt beam="2">  1       21 0.23214395E+00 0.34594436E+03</pdfrwt>
<totfact> 0.48014180E+04</totfact>
</mgrwt>
</event>
<event>
 8    1  0.9691636E-006  0.3289875E+03  0.7546771E-02  0.1071586E+00
         21   -1    0    0  504  503  0.00000000000E+00  0.00000000000E+00  0.30998877256E+03  0.30998877256E+03  0.00000000000E+00 0.  1.
         21   -1    0    0  503  504 -0.00000000000E+00 -0.00000000000E+00 -0.87287645266E+02  0.87287645266E+02  0.00000000000E+00 0.  1.
         25    2    1    2    0    0  0.17138794065E+02  0.35887371918E+02  0.23120730430E+03  0.26582484168E+03  0.12499754866E+03 0.  0.
         25    2    1    2    0    0 -0.17138794065E+02 -0.35887371918E+02 -0.85061770032E+01  0.13145157614E+03  0.12500208037E+03 0.  0.
          5    1    3    3  501    0 -0.24344231677E+02  0.65807704885E+02  0.82002812101E+02  0.10802706527E+03  0.47000000000E+01 0. -1.
         -5    1    3    3    0  501  0.41483025742E+02 -0.29920332967E+02  0.14920449219E+03  0.15779777641E+03  0.47000000000E+01 0. -1.
          5    1    4    4  502    0 -0.67020296473E+02  0.24888625565E+01  0.30109565297E+01  0.67298368742E+02  0.47000000000E+01 0.  1.
         -5    1    4    4    0  502  0.49881502408E+02 -0.38376234475E+02 -0.11517133533E+02  0.64153207401E+02  0.47000000000E+01 0.  1.
<mgrwt>
<rscale>  0 0.32898748E+03</rscale>
<asrwt>0</asrwt>
<pdfrwt beam="1">  1       21 0.47690580E-01 0.32898748E+03</pdfrwt>
<pdfrwt beam="2">  1       21 0.13428869E-01 0.32898748E+03</pdfrwt>
<totfact> 0.19446917E+05</totfact>
</mgrwt>
</event>
<event>
 8    1  0.9691636E-006  0.2842179E+03  0.7546771E-02  0.1093407E+00
         21   -1    0    0  504  503  0.00000000000E+00  0.00000000000E+00  0.16598653054E+02  0.16598653054E+02  0.00000000000E+00 0.  1.
         21   -1    0    0  503  504 -0.00000000000E+00 -0.00000000000E+00 -0.12166625595E+04  0.12166625595E+04  0.00000000000E+00 0.  1.
         25    2    1    2    0    0  0.13270382630E+02  0.66242440550E+02 -0.60850705223E+03  0.62487709260E+03  0.12500553693E+03 0.  0.
         25    2    1    2    0    0 -0.13270382630E+02 -0.66242440550E+02 -0.59155685426E+03  0.60838411999E+03  0.12501024619E+03 0.  0.
          5    1    3    3  501    0  0.10164043701E+02 -0.27891069582E+02 -0.49033530219E+02  0.57511708656E+02  0.47000000000E+01 0. -1.
         -5    1    3    3    0  501  0.31063389287E+01  0.94133510132E+02 -0.55947352201E+03  0.56736538394E+03  0.47000000000E+01 0. -1.
          5    1    4    4  502    0 -0.68860466991E+02 -0.43274889395E+02 -0.32009952419E+03  0.33030330811E+03  0.47000000000E+01 0.  1.
         -5    1    4    4    0  502  0.55590084361E+02 -0.22967551155E+02 -0.27145733007E+03  0.27808081188E+03  0.47000000000E+01 0.  1.
<mgrwt>
<rscale>  0 0.28421794E+03</rscale>
<asrwt>0</asrwt>
<pdfrwt beam="1">  1       21 0.25536382E-02 0.28421794E+03</pdfrwt>
<pdfrwt beam="2">  1       21 0.18717891E+00 0.28421794E+03</pdfrwt>
<totfact> 0.12892929E+05</totfact>
</mgrwt>
</event>
<event>
 8    1  0.9691636E-006  0.3109144E+03  0.7546771E-02  0.1079908E+00
         21   -1    0    0  504  503  0.00000000000E+00  0.00000000000E+00  0.28950363048E+03  0.28950363048E+03  0.00000000000E+00 0.  1.
         21   -1    0    0  503  504 -0.00000000000E+00 -0.00000000000E+00 -0.83477165838E+02  0.83477165838E+02  0.00000000000E+00 0.  1.
         25    2    1    2    0    0 -0.44256390535E+01 -0.36514177642E+02  0.20472867175E+03  0.24267625735E+03  0.12500026158E+03 0.  0.
         25    2    1    2    0    0  0.44256390535E+01  0.36514177642E+02  0.12977928978E+01  0.13030453897E+03  0.12499886864E+03 0.  0.
          5    1    3    3  501    0  0.14035334194E+02 -0.60672157971E+01  0.20611433025E+03  0.20673415017E+03  0.47000000000E+01 0. -1.
         -5    1    3    3    0  501 -0.18460973247E+02 -0.30446961845E+02 -0.13856585020E+01  0.35942107177E+02  0.47000000000E+01 0. -1.
          5    1    4    4  502    0  0.72743288152E+00  0.24290001683E+02 -0.61371521008E+02  0.66174669861E+02  0.47000000000E+01 0. -1.
         -5    1    4    4    0  502  0.36982061719E+01  0.12224175960E+02  0.62669313906E+02  0.64129869111E+02  0.47000000000E+01 0. -1.
<mgrwt>
<rscale>  0 0.31091441E+03</rscale>
<asrwt>0</asrwt>
<pdfrwt beam="1">  1       21 0.44539020E-01 0.31091441E+03</pdfrwt>
<pdfrwt beam="2">  1       21 0.12842641E-01 0.31091441E+03</pdfrwt>
<totfact> 0.24419357E+05</totfact>
</mgrwt>
</event>
<event>
 8    1  0.9691636E-006  0.5346779E+03  0.7546771E-02  0.1005104E+00
         21   -1    0    0  504  503  0.00000000000E+00  0.00000000000E+00  0.11725739055E+04  0.11725739055E+04  0.00000000000E+00 0. -1.
         21   -1    0    0  503  504 -0.00000000000E+00 -0.00000000000E+00 -0.60951472965E+02  0.60951472965E+02  0.00000000000E+00 0. -1.
         25    2    1    2    0    0 -0.21790837759E+03 -0.90485205519E+02  0.52544325174E+03  0.58939640278E+03  0.12500350144E+03 0.  0.
         25    2    1    2    0    0  0.21790837759E+03  0.90485205519E+02  0.58617918077E+03  0.64412897566E+03  0.12499788749E+03 0.  0.
          5    1    3    3  501    0 -0.11976805162E+03 -0.10646792079E+03  0.25493704504E+03  0.30115575917E+03  0.47000000000E+01 0.  1.
         -5    1    3    3    0  501 -0.98140325969E+02  0.15982715267E+02  0.27050620669E+03  0.28824064361E+03  0.47000000000E+01 0.  1.
          5    1    4    4  502    0  0.11481064676E+03  0.36711036593E+02  0.44556014343E+03  0.46160060250E+03  0.47000000000E+01 0.  1.
         -5    1    4    4    0  502  0.10309773083E+03  0.53774168926E+02  0.14061903734E+03  0.18252837316E+03  0.47000000000E+01 0.  1.
<mgrwt>
<rscale>  0 0.53467787E+03</rscale>
<asrwt>0</asrwt>
<pdfrwt beam="1">  1       21 0.18039597E+00 0.53467787E+03</pdfrwt>
<pdfrwt beam="2">  1       21 0.93771506E-02 0.53467787E+03</pdfrwt>
<totfact> 0.14133921E+04</totfact>
</mgrwt>
</event>
<event>
 8    1  0.9691636E-006  0.2510078E+03  0.7546771E-02  0.1112670E+00
         21   -1    0    0  504  503  0.00000000000E+00  0.00000000000E+00  0.18984368682E+02  0.18984368682E+02  0.00000000000E+00 0.  1.
         21   -1    0    0  503  504 -0.00000000000E+00 -0.00000000000E+00 -0.82969447533E+03  0.82969447533E+03  0.00000000000E+00 0.  1.
         25    2    1    2    0    0  0.83146919679E+01  0.44769293185E+01 -0.38319671446E+03  0.40316546939E+03  0.12495397848E+03 0.  0.
         25    2    1    2    0    0 -0.83146919679E+01 -0.44769293185E+01 -0.42751339219E+03  0.44551337462E+03  0.12500115787E+03 0.  0.
          5    1    3    3  501    0 -0.10420032429E+02 -0.46974623093E+02 -0.29720871493E+03  0.30111509846E+03  0.47000000000E+01 0. -1.
         -5    1    3    3    0  501  0.18734724397E+02  0.51451552411E+02 -0.85987999532E+02  0.10205037093E+03  0.47000000000E+01 0. -1.
          5    1    4    4  502    0 -0.55009462690E+02  0.11893798412E+02 -0.10530343230E+03  0.11949228544E+03  0.47000000000E+01 0. -1.
         -5    1    4    4    0  502  0.46694770722E+02 -0.16370727731E+02 -0.32220995989E+03  0.32602108918E+03  0.47000000000E+01 0. -1.
<mgrwt>
<rscale>  0 0.25100778E+03</rscale>
<asrwt>0</asrwt>
<pdfrwt beam="1">  1       21 0.29206718E-02 0.25100778E+03</pdfrwt>
<pdfrwt beam="2">  1       21 0.12764532E+00 0.25100778E+03</pdfrwt>
<totfact> 0.29389283E+05</totfact>
</mgrwt>
</event>
<event>
 8    1  0.9691636E-006  0.3539636E+03  0.7546771E-02  0.1061000E+00
         21   -1    0    0  504  503  0.00000000000E+00  0.00000000000E+00  0.12074346910E+04  0.12074346910E+04  0.00000000000E+00 0.  1.
         21   -1    0    0  503  504 -0.00000000000E+00 -0.00000000000E+00 -0.25941406662E+02  0.25941406662E+02  0.00000000000E+00 0.  1.
         25    2    1    2    0    0  0.21311760661E+02  0.11679269157E+03  0.45124094891E+03  0.48305098182E+03  0.12500053248E+03 0.  0.
         25    2    1    2    0    0 -0.21311760661E+02 -0.11679269157E+03  0.73025233540E+03  0.75032511581E+03  0.12499832844E+03 0.  0.
          5    1    3    3  501    0 -0.23028398857E+02 -0.12831669803E+02  0.30723143664E+02  0.40754882658E+02  0.47000000000E+01 0. -1.
         -5    1    3    3    0  501  0.44340159518E+02  0.12962436138E+03  0.42051780525E+03  0.44229609917E+03  0.47000000000E+01 0. -1.
          5    1    4    4  502    0  0.45055725012E+02 -0.33270178964E+02  0.38068316492E+03  0.38480993389E+03  0.47000000000E+01 0.  1.
         -5    1    4    4    0  502 -0.66367485673E+02 -0.83522512608E+02  0.34956917047E+03  0.36551518192E+03  0.47000000000E+01 0.  1.
<mgrwt>
<rscale>  0 0.35396358E+03</rscale>
<asrwt>0</asrwt>
<pdfrwt beam="1">  1       21 0.18575914E+00 0.35396358E+03</pdfrwt>
<pdfrwt beam="2">  1       21 0.39909866E-02 0.35396358E+03</pdfrwt>
<totfact> 0.60809089E+04</totfact>
</mgrwt>
</event>
<event>
 8    1  0.9691636E-006  0.2905096E+03  0.7546771E-02  0.1090083E+00
         21   -1    0    0  504  503  0.00000000000E+00  0.00000000000E+00  0.15293191358E+02  0.15293191358E+02  0.00000000000E+00 0. -1.
         21   -1    0    0  503  504 -0.00000000000E+00 -0.00000000000E+00 -0.13796311914E+04  0.13796311914E+04  0.00000000000E+00 0. -1.
         25    2    1    2    0    0  0.69376703240E+02  0.57050915970E+01 -0.56202201690E+03  0.57995143370E+03  0.12501697063E+03 0.  0.
         25    2    1    2    0    0 -0.69376703240E+02 -0.57050915970E+01 -0.80231598313E+03  0.81497294904E+03  0.12499718346E+03 0.  0.
          5    1    3    3  501    0 -0.10191196391E+02 -0.12155691502E+02 -0.54520619106E+01  0.17419423034E+02  0.47000000000E+01 0. -1.
         -5    1    3    3    0  501  0.79567899631E+02  0.17860783099E+02 -0.55656995499E+03  0.56253201066E+03  0.47000000000E+01 0. -1.
          5    1    4    4  502    0  0.16346023802E+02  0.23919567445E+02 -0.45609923694E+03  0.45704260430E+03  0.47000000000E+01 0. -1.
         -5    1    4    4    0  502 -0.85722727042E+02 -0.29624659042E+02 -0.34621674618E+03  0.35793034475E+03  0.47000000000E+01 0. -1.
<mgrwt>
<rscale>  0 0.29050965E+03</rscale>
<asrwt>0</asrwt>
<pdfrwt beam="1">  1       21 0.23527998E-02 0.29050965E+03</pdfrwt>
<pdfrwt beam="2">  1       21 0.21225085E+00 0.29050965E+03</pdfrwt>
<totfact> 0.10090111E+05</totfact>
</mgrwt>
</event>
<event>
 8    1  0.9691636E-006  0.2756123E+03  0.7546771E-02  0.1098110E+00
         21   -1    0    0  504  503  0.00000000000E+00  0.00000000000E+00  0.17229270827E+03  0.17229270827E+03  0.00000000000E+00 0.  1.
         21   -1    0    0  503  504 -0.00000000000E+00 -0.00000000000E+00 -0.11022254539E+03  0.11022254539E+03  0.00000000000E+00 0.  1.
         25    2    1    2    0    0 -0.29255932898E+02 -0.48069709721E+02  0.16584542312E+02  0.13808248123E+03  0.12500047191E+03 0.  0.
         25    2    1    2    0    0  0.29255932898E+02  0.48069709721E+02  0.45485620576E+02  0.14443277243E+03  0.12500110987E+03 0.  0.
          5    1    3    3  501    0 -0.50043225228E+02 -0.81246842038E+02  0.22650575659E+02  0.98186110576E+02  0.47000000000E+01 0. -1.
         -5    1    3    3    0  501  0.20787292329E+02  0.33177132317E+02 -0.60660333470E+01  0.39896370658E+02  0.47000000000E+01 0. -1.
          5    1    4    4  502    0 -0.55787291814E+01 -0.17456528271E+01 -0.39296082138E+02  0.40005519550E+02  0.47000000000E+01 0. -1.
         -5    1    4    4    0  502  0.34834662080E+02  0.49815362549E+02  0.84781702715E+02  0.10442725288E+03  0.47000000000E+01 0. -1.
<mgrwt>
<rscale>  0 0.27561234E+03</rscale>
<asrwt>0</asrwt>
<pdfrwt beam="1">  1       21 0.26506570E-01 0.27561234E+03</pdfrwt>
<pdfrwt beam="2">  1       21 0.16957315E-01 0.27561234E+03</pdfrwt>
<totfact> 0.41721471E+05</totfact>
</mgrwt>
</event>
<event>
 8    1  0.9691636E-006  0.2551246E+03  0.7546771E-02  0.1110108E+00
         21   -1    0    0  504  503  0.00000000000E+00  0.00000000000E+00  0.29432926902E+03  0.29432926902E+03  0.00000000000E+00 0.  1.
         21   -1    0    0  503  504 -0.00000000000E+00 -0.00000000000E+00 -0.55285504264E+02  0.55285504264E+02  0.00000000000E+00 0.  1.
         25    2    1    2    0    0 -0.19577362930E+02  0.16323466903E+02  0.11890991240E+03  0.17439570176E+03  0.12499825925E+03 0.  0.
         25    2    1    2    0    0  0.19577362930E+02 -0.16323466903E+02  0.12013385235E+03  0.17521907152E+03  0.12497940563E+03 0.  0.
          5    1    3    3  501    0 -0.30993849309E+02  0.33902561225E+02  0.13808519649E+03  0.14560087171E+03  0.47000000000E+01 0.  1.
         -5    1    3    3    0  501  0.11416486379E+02 -0.17579094322E+02 -0.19175284083E+02  0.28794830058E+02  0.47000000000E+01 0.  1.
          5    1    4    4  502    0  0.37677573968E+02  0.25632857242E+02 -0.83797950847E+00  0.45819593627E+02  0.47000000000E+01 0. -1.
         -5    1    4    4    0  502 -0.18100211038E+02 -0.41956324145E+02  0.12097183186E+03  0.12939947790E+03  0.47000000000E+01 0. -1.
<mgrwt>
<rscale>  0 0.25512461E+03</rscale>
<asrwt>0</asrwt>
<pdfrwt beam="1">  1       21 0.45281425E-01 0.25512461E+03</pdfrwt>
<pdfrwt beam="2">  1       21 0.85054624E-02 0.25512461E+03</pdfrwt>
<totfact> 0.49822570E+05</totfact>
</mgrwt>
</event>
<event>
 8    1  0.9691636E-006  0.3144961E+03  0.7546771E-02  0.1078211E+00
         21   -1    0    0  504  503  0.00000000000E+00  0.00000000000E+00  0.36461612244E+03  0.36461612244E+03  0.00000000000E+00 0.  1.
         21   -1    0    0  503  504 -0.00000000000E+00 -0.00000000000E+00 -0.67816381968E+02  0.67816381968E+02  0.00000000000E+00 0.  1.
         25    2    1    2    0    0 -0.91064654271E+02 -0.31063194577E+01  0.10954961877E+03  0.18955475833E+03  0.12500986743E+03 0.  0.
         25    2    1    2    0    0  0.91064654271E+02  0.31063194577E+01  0.18725012170E+03  0.24287774607E+03  0.12499828393E+03 0.  0.
          5    1    3    3  501    0 -0.87759485216E+00 -0.69746814509E+01 -0.25601255065E+02  0.26961650820E+02  0.47000000000E+01 0. -1.
         -5    1    3    3    0  501 -0.90187059419E+02  0.38683619931E+01  0.13515087384E+03  0.16259310751E+03  0.47000000000E+01 0. -1.
          5    1    4    4  502    0  0.71203924301E+02  0.34627761469E+02  0.18932521769E+03  0.20526862584E+03  0.47000000000E+01 0.  1.
         -5    1    4    4    0  502  0.19860729970E+02 -0.31521442011E+02 -0.20750959944E+01  0.37609120234E+02  0.47000000000E+01 0.  1.
<mgrwt>
<rscale>  0 0.31449608E+03</rscale>
<asrwt>0</asrwt>
<pdfrwt beam="1">  1       21 0.56094787E-01 0.31449608E+03</pdfrwt>
<pdfrwt beam="2">  1       21 0.10433290E-01 0.31449608E+03</pdfrwt>
<totfact> 0.21816644E+05</totfact>
</mgrwt>
</event>
<event>
 8    1  0.9691636E-006  0.2963844E+03  0.7546771E-02  0.1087062E+00
         21   -1    0    0  504  503  0.00000000000E+00  0.00000000000E+00  0.26214342966E+03  0.26214342966E+03  0.00000000000E+00 0. -1.
         21   -1    0    0  503  504 -0.00000000000E+00 -0.00000000000E+00 -0.83774478461E+02  0.83774478461E+02  0.00000000000E+00 0. -1.
         25    2    1    2    0    0  0.34759493449E+01 -0.76795748539E+02  0.11324269299E+03  0.18536680921E+03  0.12500910856E+03 0.  0.
         25    2    1    2    0    0 -0.34759493449E+01  0.76795748539E+02  0.65126258205E+02  0.16055109891E+03  0.12500222652E+03 0.  0.
          5    1    3    3  501    0  0.24373948918E+02  0.22286784105E+02  0.65088190532E+02  0.73139269058E+02  0.47000000000E+01 0. -1.
         -5    1    3    3    0  501 -0.20897999573E+02 -0.99082532644E+02  0.48154502461E+02  0.11222754015E+03  0.47000000000E+01 0. -1.
          5    1    4    4  502    0 -0.60962679823E+02  0.18405133683E+02  0.36953300605E+02  0.73775563046E+02  0.47000000000E+01 0. -1.
         -5    1    4    4    0  502  0.57486730479E+02  0.58390614857E+02  0.28172957600E+02  0.86775535863E+02  0.47000000000E+01 0. -1.
<mgrwt>
<rscale>  0 0.29638441E+03</rscale>
<asrwt>0</asrwt>
<pdfrwt beam="1">  1       21 0.40329758E-01 0.29638441E+03</pdfrwt>
<pdfrwt beam="2">  1       21 0.12888381E-01 0.29638441E+03</pdfrwt>
<totfact> 0.29851832E+05</totfact>
</mgrwt>
</event>
<event>
 8    1  0.9691636E-006  0.2666866E+03  0.7546771E-02  0.1103191E+00
         21   -1    0    0  504  503  0.00000000000E+00  0.00000000000E+00  0.39291682607E+03  0.39291682607E+03  0.00000000000E+00 0.  1.
         21   -1    0    0  503  504 -0.00000000000E+00 -0.00000000000E+00 -0.45252424939E+02  0.45252424939E+02  0.00000000000E+00 0.  1.
         25    2    1    2    0    0  0.21170291911E+02 -0.38994873370E+02  0.15136936874E+03  0.20126176864E+03  0.12499932926E+03 0.  0.
         25    2    1    2    0    0 -0.21170291911E+02  0.38994873370E+02  0.19629503239E+03  0.23690748237E+03  0.12499853620E+03 0.  0.
          5    1    3    3  501    0 -0.21034228186E+02 -0.41794310295E+02  0.15157692083E+03  0.15870367374E+03  0.47000000000E+01 0.  1.
         -5    1    3    3    0  501  0.42204520097E+02  0.27994369255E+01 -0.20755209728E+00  0.42558094901E+02  0.47000000000E+01 0.  1.
          5    1    4    4  502    0 -0.31329806597E+00  0.29551970540E+02  0.20843362674E+03  0.21057085238E+03  0.47000000000E+01 0.  1.
         -5    1    4    4    0  502 -0.20856993846E+02  0.94429028303E+01 -0.12138594347E+02  0.26336629983E+02  0.47000000000E+01 0.  1.
<mgrwt>
<rscale>  0 0.26668663E+03</rscale>
<asrwt>0</asrwt>
<pdfrwt beam="1">  1       21 0.60448740E-01 0.26668663E+03</pdfrwt>
<pdfrwt beam="2">  1       21 0.69619118E-02 0.26668663E+03</pdfrwt>
<totfact> 0.38282231E+05</totfact>
</mgrwt>
</event>
<event>
 8    1  0.9691636E-006  0.3376822E+03  0.7546771E-02  0.1067787E+00
         21   -1    0    0  504  503  0.00000000000E+00  0.00000000000E+00  0.91812814590E+02  0.91812814590E+02  0.00000000000E+00 0.  1.
         21   -1    0    0  503  504 -0.00000000000E+00 -0.00000000000E+00 -0.31049392866E+03  0.31049392866E+03  0.00000000000E+00 0.  1.
         25    2    1    2    0    0 -0.18511117277E+02 -0.82944988030E+02 -0.19715998127E+02  0.15243386793E+03  0.12499932402E+03 0.  0.
         25    2    1    2    0    0  0.18511117277E+02  0.82944988030E+02 -0.19896511594E+03  0.24987287532E+03  0.12500721562E+03 0.  0.
          5    1    3    3  501    0  0.53742083570E+02 -0.35805962470E+02 -0.77503021583E+01  0.65210702177E+02  0.47000000000E+01 0.  1.
         -5    1    3    3    0  501 -0.72253200847E+02 -0.47139025560E+02 -0.11965695969E+02  0.87223165750E+02  0.47000000000E+01 0.  1.
          5    1    4    4  502    0  0.31930321618E+02  0.10711887800E+03 -0.11121249501E+03  0.15774761016E+03  0.47000000000E+01 0. -1.
         -5    1    4    4    0  502 -0.13419204340E+02 -0.24173889974E+02 -0.87752620935E+02  0.92125265170E+02  0.47000000000E+01 0. -1.
<mgrwt>
<rscale>  0 0.33768223E+03</rscale>
<asrwt>0</asrwt>
<pdfrwt beam="1">  1       21 0.14125049E-01 0.33768223E+03</pdfrwt>
<pdfrwt beam="2">  1       21 0.47768296E-01 0.33768223E+03</pdfrwt>
<totfact> 0.17635363E+05</totfact>
</mgrwt>
</event>
<event>
 8    1  0.9691636E-006  0.3061705E+03  0.7546771E-02  0.1082196E+00
         21   -1    0    0  504  503  0.00000000000E+00  0.00000000000E+00  0.21048286908E+03  0.21048286908E+03  0.00000000000E+00 0. -1.
         21   -1    0    0  503  504 -0.00000000000E+00 -0.00000000000E+00 -0.11133969955E+03  0.11133969955E+03  0.00000000000E+00 0. -1.
         25    2    1    2    0    0 -0.21076544080E+02 -0.84198557130E+02  0.32164213941E+02  0.15554675018E+03  0.12500654822E+03 0.  0.
         25    2    1    2    0    0  0.21076544080E+02  0.84198557130E+02  0.66978955591E+02  0.16627581845E+03  0.12501139779E+03 0.  0.
          5    1    3    3  501    0  0.48190110388E+02 -0.62464252048E+02  0.22401547498E+02  0.82146143265E+02  0.47000000000E+01 0.  1.
         -5    1    3    3    0  501 -0.69266654468E+02 -0.21734305083E+02  0.97626664434E+01  0.73400606910E+02  0.47000000000E+01 0.  1.
          5    1    4    4  502    0  0.45186589926E+02  0.10194411411E+03  0.75560377381E+02  0.13478089976E+03  0.47000000000E+01 0.  1.
         -5    1    4    4    0  502 -0.24110045846E+02 -0.17745556980E+02 -0.85814217907E+01  0.31494918688E+02  0.47000000000E+01 0.  1.
<mgrwt>
<rscale>  0 0.30617054E+03</rscale>
<asrwt>0</asrwt>
<pdfrwt beam="1">  1       21 0.32381980E-01 0.30617054E+03</pdfrwt>
<pdfrwt beam="2">  1       21 0.17129185E-01 0.30617054E+03</pdfrwt>
<totfact> 0.27482736E+05</totfact>
</mgrwt>
</event>
<event>
 8    1  0.9691636E-006  0.3148367E+03  0.7546771E-02  0.1078050E+00
         21   -1    0    0  504  503  0.00000000000E+00  0.00000000000E+00  0.96422661923E+03  0.96422661923E+03  0.00000000000E+00 0.  1.
         21   -1    0    0  503  504 -0.00000000000E+00 -0.00000000000E+00 -0.25699908692E+02  0.25699908692E+02  0.00000000000E+00 0.  1.
         25    2    1    2    0    0 -0.77718989659E+02 -0.51310975914E+02  0.53815767091E+03  0.56027741331E+03  0.12499617396E+03 0.  0.
         25    2    1    2    0    0  0.77718989659E+02  0.51310975914E+02  0.40036903963E+03  0.42964911461E+03  0.12501974320E+03 0.  0.
          5    1    3    3  501    0 -0.85648263287E+00 -0.47892520622E+02  0.39287882224E+03  0.39581597500E+03  0.47000000000E+01 0. -1.
         -5    1    3    3    0  501 -0.76862507026E+02 -0.34184552922E+01  0.14527884867E+03  0.16446143831E+03  0.47000000000E+01 0. -1.
          5    1    4    4  502    0  0.30283970415E+02  0.20918843204E+02  0.14784288989E+02  0.39942234113E+02  0.47000000000E+01 0. -1.
         -5    1    4    4    0  502  0.47435019244E+02  0.30392132710E+02  0.38558475064E+03  0.38970688050E+03  0.47000000000E+01 0. -1.
<mgrwt>
<rscale>  0 0.31483669E+03</rscale>
<asrwt>0</asrwt>
<pdfrwt beam="1">  1       21 0.14834253E+00 0.31483669E+03</pdfrwt>
<pdfrwt beam="2">  1       21 0.39538329E-02 0.31483669E+03</pdfrwt>
<totfact> 0.11734777E+05</totfact>
</mgrwt>
</event>
<event>
 8    1  0.9691636E-006  0.3551750E+03  0.7546771E-02  0.1060511E+00
         21   -1    0    0  504  503  0.00000000000E+00  0.00000000000E+00  0.81017910261E+03  0.81017910261E+03  0.00000000000E+00 0.  1.
         21   -1    0    0  503  504 -0.00000000000E+00 -0.00000000000E+00 -0.38926356039E+02  0.38926356039E+02  0.00000000000E+00 0.  1.
         25    2    1    2    0    0 -0.10816049631E+03  0.26272131024E+02  0.52754987470E+03  0.55346248264E+03  0.12499172594E+03 0.  0.
         25    2    1    2    0    0  0.10816049631E+03 -0.26272131024E+02  0.24370287186E+03  0.29564297601E+03  0.12499904672E+03 0.  0.
          5    1    3    3  501    0  0.41809339048E+00 -0.15044464577E+02  0.28346000214E+01  0.16019852489E+02  0.47000000000E+01 0. -1.
         -5    1    3    3    0  501 -0.10857858970E+03  0.41316595601E+02  0.52471527468E+03  0.53744263015E+03  0.47000000000E+01 0. -1.
          5    1    4    4  502    0  0.33729567135E+02 -0.96413681768E+01  0.20855291424E+03  0.21153497989E+03  0.47000000000E+01 0.  1.
         -5    1    4    4    0  502  0.74430929170E+02 -0.16630762847E+02  0.35149957620E+02  0.84107996116E+02  0.47000000000E+01 0.  1.
<mgrwt>
<rscale>  0 0.35517500E+03</rscale>
<asrwt>0</asrwt>
<pdfrwt beam="1">  1       21 0.12464293E+00 0.35517500E+03</pdfrwt>
<pdfrwt beam="2">  1       21 0.59886708E-02 0.35517500E+03</pdfrwt>
<totfact> 0.89688155E+04</totfact>
</mgrwt>
</event>
<event>
 8    1  0.9691636E-006  0.3298598E+03  0.7546771E-02  0.1071199E+00
         21   -1    0    0  504  503  0.00000000000E+00  0.00000000000E+00  0.71029999104E+03  0.71029999104E+03  0.00000000000E+00 0. -1.
         21   -1    0    0  503  504 -0.00000000000E+00 -0.00000000000E+00 -0.38296304888E+02  0.38296304888E+02  0.00000000000E+00 0. -1.
         25    2    1    2    0    0  0.74837381243E+02 -0.47802451267E+02  0.19811549374E+03  0.25051946544E+03  0.12499818288E+03 0.  0.
         25    2    1    2    0    0 -0.74837381243E+02  0.47802451267E+02  0.47388819241E+03  0.49807683049E+03  0.12499920875E+03 0.  0.
          5    1    3    3  501    0  0.92383397865E+02 -0.75937772483E+02  0.14993725213E+03  0.19184500793E+03  0.47000000000E+01 0. -1.
         -5    1    3    3    0  501 -0.17546016623E+02  0.28135321215E+02  0.48178241609E+02  0.58674457507E+02  0.47000000000E+01 0. -1.
          5    1    4    4  502    0 -0.50771519486E+02 -0.37816078358E+02  0.22250343936E+03  0.23138209416E+03  0.47000000000E+01 0.  1.
         -5    1    4    4    0  502 -0.24065861757E+02  0.85618529626E+02  0.25138475305E+03  0.26669473633E+03  0.47000000000E+01 0.  1.
<mgrwt>
<rscale>  0 0.32985976E+03</rscale>
<asrwt>0</asrwt>
<pdfrwt beam="1">  1       21 0.10927691E+00 0.32985976E+03</pdfrwt>
<pdfrwt beam="2">  1       21 0.58917397E-02 0.32985976E+03</pdfrwt>
<totfact> 0.12903686E+05</totfact>
</mgrwt>
</event>
<event>
 8    1  0.9691636E-006  0.3768402E+03  0.7546771E-02  0.1052108E+00
         21   -1    0    0  504  503  0.00000000000E+00  0.00000000000E+00  0.28430198305E+02  0.28430198305E+02  0.00000000000E+00 0. -1.
         21   -1    0    0  503  504 -0.00000000000E+00 -0.00000000000E+00 -0.12487471305E+04  0.12487471305E+04  0.00000000000E+00 0. -1.
         25    2    1    2    0    0 -0.93739806442E+02 -0.93026607899E+02 -0.44293627596E+03  0.47881051184E+03  0.12500344235E+03 0.  0.
         25    2    1    2    0    0  0.93739806442E+02  0.93026607899E+02 -0.77738065621E+03  0.79836681694E+03  0.12501115411E+03 0.  0.
          5    1    3    3  501    0  0.61711880723E+01 -0.14147473671E+02  0.17594676504E+01  0.16230227969E+02  0.47000000000E+01 0. -1.
         -5    1    3    3    0  501 -0.99910994514E+02 -0.78879134227E+02 -0.44469574361E+03  0.46258028387E+03  0.47000000000E+01 0. -1.
          5    1    4    4  502    0  0.14473858118E+01 -0.27056249736E+02 -0.76462380524E+02  0.81257130215E+02  0.47000000000E+01 0.  1.
         -5    1    4    4    0  502  0.92292420630E+02  0.12008285763E+03 -0.70091827569E+03  0.71710968673E+03  0.47000000000E+01 0.  1.
<mgrwt>
<rscale>  0 0.37684017E+03</rscale>
<asrwt>0</asrwt>
<pdfrwt beam="1">  1       21 0.43738761E-02 0.37684017E+03</pdfrwt>
<pdfrwt beam="2">  1       21 0.19211497E+00 0.37684017E+03</pdfrwt>
<totfact> 0.46734158E+04</totfact>
</mgrwt>
</event>
<event>
 8    1  0.9691636E-006  0.3053326E+03  0.7546771E-02  0.1082605E+00
         21   -1    0    0  504  503  0.00000000000E+00  0.00000000000E+00  0.39950348453E+03  0.39950348453E+03  0.00000000000E+00 0. -1.
         21   -1    0    0  503  504 -0.00000000000E+00 -0.00000000000E+00 -0.58339903308E+02  0.58339903308E+02  0.00000000000E+00 0. -1.
         25    2    1    2    0    0  0.35741248853E+02  0.63629523402E+02  0.97646938154E+02  0.17455313566E+03  0.12493085895E+03 0.  0.
         25    2    1    2    0    0 -0.35741248853E+02 -0.63629523402E+02  0.24351664307E+03  0.28329025218E+03  0.12500743342E+03 0.  0.
          5    1    3    3  501    0 -0.46680015818E+01  0.91704769861E+01  0.10551791078E+03  0.10612260543E+03  0.47000000000E+01 0. -1.
         -5    1    3    3    0  501  0.40409250435E+02  0.54459046416E+02 -0.78709726300E+01  0.68430530228E+02  0.47000000000E+01 0. -1.
          5    1    4    4  502    0  0.23206124007E+02 -0.70431022501E+02  0.79556045801E+02  0.10885911788E+03  0.47000000000E+01 0. -1.
         -5    1    4    4    0  502 -0.58947372860E+02  0.68014990995E+01  0.16396059727E+03  0.17443113430E+03  0.47000000000E+01 0. -1.
<mgrwt>
<rscale>  0 0.30533257E+03</rscale>
<asrwt>0</asrwt>
<pdfrwt beam="1">  1       21 0.61462073E-01 0.30533257E+03</pdfrwt>
<pdfrwt beam="2">  1       21 0.89753700E-02 0.30533257E+03</pdfrwt>
<totfact> 0.23452207E+05</totfact>
</mgrwt>
</event>
<event>
 8    1  0.9691636E-006  0.2683330E+03  0.7546771E-02  0.1102237E+00
         21   -1    0    0  504  503  0.00000000000E+00  0.00000000000E+00  0.19274725132E+03  0.19274725132E+03  0.00000000000E+00 0. -1.
         21   -1    0    0  503  504 -0.00000000000E+00 -0.00000000000E+00 -0.93389928764E+02  0.93389928764E+02  0.00000000000E+00 0. -1.
         25    2    1    2    0    0 -0.50284188309E+01 -0.26946410151E+01 -0.19351884826E+01  0.12514582087E+03  0.12500074176E+03 0.  0.
         25    2    1    2    0    0  0.50284188309E+01  0.26946410151E+01  0.10129251104E+03  0.16099135922E+03  0.12500199544E+03 0.  0.
          5    1    3    3  501    0  0.40734990543E+02  0.14439062140E+02  0.41126924601E+02  0.59844297115E+02  0.47000000000E+01 0. -1.
         -5    1    3    3    0  501 -0.45763409374E+02 -0.17133703155E+02 -0.43062113084E+02  0.65301523754E+02  0.47000000000E+01 0. -1.
          5    1    4    4  502    0 -0.48705656297E+02  0.31199438295E+02  0.24697202577E+02  0.63068912472E+02  0.47000000000E+01 0. -1.
         -5    1    4    4    0  502  0.53734075128E+02 -0.28504797280E+02  0.76595308465E+02  0.97922446746E+02  0.47000000000E+01 0. -1.
<mgrwt>
<rscale>  0 0.26833302E+03</rscale>
<asrwt>0</asrwt>
<pdfrwt beam="1">  1       21 0.29653423E-01 0.26833302E+03</pdfrwt>
<pdfrwt beam="2">  1       21 0.14367681E-01 0.26833302E+03</pdfrwt>
<totfact> 0.45546022E+05</totfact>
</mgrwt>
</event>
<event>
 8    1  0.9691636E-006  0.2534725E+03  0.7546771E-02  0.1111130E+00
         21   -1    0    0  504  503  0.00000000000E+00  0.00000000000E+00  0.55943192844E+03  0.55943192844E+03  0.00000000000E+00 0.  1.
         21   -1    0    0  503  504 -0.00000000000E+00 -0.00000000000E+00 -0.28711401592E+02  0.28711401592E+02  0.00000000000E+00 0.  1.
         25    2    1    2    0    0 -0.14932246747E+01  0.20021394951E+02  0.27833695968E+03  0.30578257514E+03  0.12501373588E+03 0.  0.
         25    2    1    2    0    0  0.14932246747E+01 -0.20021394951E+02  0.25238356716E+03  0.28236075489E+03  0.12500817954E+03 0.  0.
          5    1    3    3  501    0  0.47696599562E+01  0.24312502618E+01  0.28523948825E+03  0.28532843583E+03  0.47000000000E+01 0. -1.
         -5    1    3    3    0  501 -0.62628846309E+01  0.17590144689E+02 -0.69025285739E+01  0.20454139307E+02  0.47000000000E+01 0. -1.
          5    1    4    4  502    0 -0.48121981673E+02 -0.19507344613E+00  0.20553410750E+03  0.21114479042E+03  0.47000000000E+01 0. -1.
         -5    1    4    4    0  502  0.49615206348E+02 -0.19826321504E+02  0.46849459662E+02  0.71215964474E+02  0.47000000000E+01 0. -1.
<mgrwt>
<rscale>  0 0.25347248E+03</rscale>
<asrwt>0</asrwt>
<pdfrwt beam="1">  1       21 0.86066443E-01 0.25347248E+03</pdfrwt>
<pdfrwt beam="2">  1       21 0.44171391E-02 0.25347248E+03</pdfrwt>
<totfact> 0.38038559E+05</totfact>
</mgrwt>
</event>
<event>
 8    1  0.9691636E-006  0.2954994E+03  0.7546771E-02  0.1087512E+00
         21   -1    0    0  504  503  0.00000000000E+00  0.00000000000E+00  0.84326569231E+03  0.84326569231E+03  0.00000000000E+00 0.  1.
         21   -1    0    0  503  504 -0.00000000000E+00 -0.00000000000E+00 -0.25887418623E+02  0.25887418623E+02  0.00000000000E+00 0.  1.
         25    2    1    2    0    0  0.28619965404E+02  0.44886229792E+02  0.23790306306E+03  0.27396437366E+03  0.12499893829E+03 0.  0.
         25    2    1    2    0    0 -0.28619965404E+02 -0.44886229792E+02  0.57947521062E+03  0.59518873727E+03  0.12499694879E+03 0.  0.
          5    1    3    3  501    0 -0.22855498679E+00  0.72398012058E+02  0.68181400338E+02  0.99560623438E+02  0.47000000000E+01 0.  1.
         -5    1    3    3    0  501  0.28848520391E+02 -0.27511782265E+02  0.16972166272E+03  0.17440375022E+03  0.47000000000E+01 0.  1.
          5    1    4    4  502    0  0.25235229627E+02  0.15114869452E+02  0.36162663323E+03  0.36285146817E+03  0.47000000000E+01 0.  1.
         -5    1    4    4    0  502 -0.53855195031E+02 -0.60001099244E+02  0.21784857739E+03  0.23233726910E+03  0.47000000000E+01 0.  1.
<mgrwt>
<rscale>  0 0.29549939E+03</rscale>
<asrwt>0</asrwt>
<pdfrwt beam="1">  1       21 0.12973316E+00 0.29549939E+03</pdfrwt>
<pdfrwt beam="2">  1       21 0.39826804E-02 0.29549939E+03</pdfrwt>
<totfact> 0.16552607E+05</totfact>
</mgrwt>
</event>
<event>
 8    1  0.9691636E-006  0.3196148E+03  0.7546771E-02  0.1075827E+00
         21   -1    0    0  504  503  0.00000000000E+00  0.00000000000E+00  0.96296591912E+03  0.96296591912E+03  0.00000000000E+00 0.  1.
         21   -1    0    0  503  504 -0.00000000000E+00 -0.00000000000E+00 -0.26520569962E+02  0.26520569962E+02  0.00000000000E+00 0.  1.
         25    2    1    2    0    0  0.15963963129E+02  0.97950193141E+02  0.49297373058E+03  0.51816695072E+03  0.12499920530E+03 0.  0.
         25    2    1    2    0    0 -0.15963963129E+02 -0.97950193141E+02  0.44347161858E+03  0.47131953836E+03  0.12500376914E+03 0.  0.
          5    1    3    3  501    0 -0.49869126207E+02  0.45210689173E+02  0.30025334980E+03  0.30774193772E+03  0.47000000000E+01 0.  1.
         -5    1    3    3    0  501  0.65833089336E+02  0.52739503968E+02  0.19272038078E+03  0.21042501300E+03  0.47000000000E+01 0.  1.
          5    1    4    4  502    0  0.47805068491E+02 -0.93033508546E+01  0.16720360505E+03  0.17421541967E+03  0.47000000000E+01 0. -1.
         -5    1    4    4    0  502 -0.63769031619E+02 -0.88646842286E+02  0.27626801353E+03  0.29710411869E+03  0.47000000000E+01 0. -1.
<mgrwt>
<rscale>  0 0.31961480E+03</rscale>
<asrwt>0</asrwt>
<pdfrwt beam="1">  1       21 0.14814858E+00 0.31961480E+03</pdfrwt>
<pdfrwt beam="2">  1       21 0.40800884E-02 0.31961480E+03</pdfrwt>
<totfact> 0.11148740E+05</totfact>
</mgrwt>
</event>
<event>
 8    1  0.9691636E-006  0.2789959E+03  0.7546771E-02  0.1096239E+00
         21   -1    0    0  504  503  0.00000000000E+00  0.00000000000E+00  0.24958234548E+03  0.24958234548E+03  0.00000000000E+00 0.  1.
         21   -1    0    0  503  504 -0.00000000000E+00 -0.00000000000E+00 -0.77968968752E+02  0.77968968752E+02  0.00000000000E+00 0.  1.
         25    2    1    2    0    0  0.54390689557E+02  0.24389450678E+02  0.10549515029E+03  0.17408932617E+03  0.12499869734E+03 0.  0.
         25    2    1    2    0    0 -0.54390689557E+02 -0.24389450678E+02  0.66118226439E+02  0.15346198806E+03  0.12500307795E+03 0.  0.
          5    1    3    3  501    0  0.74922565599E+01 -0.17948700503E+02  0.10882105235E+03  0.11064538487E+03  0.47000000000E+01 0.  1.
         -5    1    3    3    0  501  0.46898432997E+02  0.42338151181E+02 -0.33259020621E+01  0.63443941299E+02  0.47000000000E+01 0.  1.
          5    1    4    4  502    0 -0.37573401349E+02 -0.10963604274E+02 -0.33318054969E+02  0.51615345534E+02  0.47000000000E+01 0. -1.
         -5    1    4    4    0  502 -0.16817288208E+02 -0.13425846404E+02  0.99436281408E+02  0.10184664253E+03  0.47000000000E+01 0. -1.
<mgrwt>
<rscale>  0 0.27899590E+03</rscale>
<asrwt>0</asrwt>
<pdfrwt beam="1">  1       21 0.38397284E-01 0.27899590E+03</pdfrwt>
<pdfrwt beam="2">  1       21 0.11995226E-01 0.27899590E+03</pdfrwt>
<totfact> 0.37694834E+05</totfact>
</mgrwt>
</event>
<event>
 8    1  0.9691636E-006  0.3392425E+03  0.7546771E-02  0.1067119E+00
         21   -1    0    0  504  503  0.00000000000E+00  0.00000000000E+00  0.35688891472E+03  0.35688891472E+03  0.00000000000E+00 0.  1.
         21   -1    0    0  503  504 -0.00000000000E+00 -0.00000000000E+00 -0.80617133428E+02  0.80617133428E+02  0.00000000000E+00 0.  1.
         25    2    1    2    0    0  0.68468443449E+02 -0.78552997342E+02  0.76355079725E+02  0.17972507686E+03  0.12495000566E+03 0.  0.
         25    2    1    2    0    0 -0.68468443449E+02  0.78552997342E+02  0.19991670157E+03  0.25778097129E+03  0.12500336176E+03 0.  0.
          5    1    3    3  501    0  0.36240660892E+02  0.27817137407E+02  0.20999660059E+01  0.45974759299E+02  0.47000000000E+01 0. -1.
         -5    1    3    3    0  501  0.32227782556E+02 -0.10637013475E+03  0.74255113719E+02  0.13375031756E+03  0.47000000000E+01 0. -1.
          5    1    4    4  502    0  0.29300110923E+02  0.50791372403E+02  0.94199335153E+02  0.11105793422E+03  0.47000000000E+01 0. -1.
         -5    1    4    4    0  502 -0.97768554372E+02  0.27761624940E+02  0.10571736642E+03  0.14672303707E+03  0.47000000000E+01 0. -1.
<mgrwt>
<rscale>  0 0.33924246E+03</rscale>
<asrwt>0</asrwt>
<pdfrwt beam="1">  1       21 0.54905986E-01 0.33924246E+03</pdfrwt>
<pdfrwt beam="2">  1       21 0.12402636E-01 0.33924246E+03</pdfrwt>
<totfact> 0.16635749E+05</totfact>
</mgrwt>
</event>
<event>
 8    1  0.9691636E-006  0.3075617E+03  0.7546771E-02  0.1081520E+00
         21   -1    0    0  504  503  0.00000000000E+00  0.00000000000E+00  0.21131511052E+02  0.21131511052E+02  0.00000000000E+00 0. -1.
         21   -1    0    0  503  504 -0.00000000000E+00 -0.00000000000E+00 -0.11191133661E+04  0.11191133661E+04  0.00000000000E+00 0. -1.
         25    2    1    2    0    0  0.22282077827E+02 -0.55301008184E+02 -0.79680666255E+03  0.80875255383E+03  0.12500057337E+03 0.  0.
         25    2    1    2    0    0 -0.22282077827E+02  0.55301008184E+02 -0.30117519254E+03  0.33149232336E+03  0.12500388534E+03 0.  0.
          5    1    3    3  501    0 -0.85898599811E+01 -0.40608860872E+02 -0.74694722304E+03  0.74811436912E+03  0.47000000000E+01 0. -1.
         -5    1    3    3    0  501  0.30871937808E+02 -0.14692147312E+02 -0.49859439512E+02  0.60638184711E+02  0.47000000000E+01 0. -1.
          5    1    4    4  502    0  0.29595821699E+02  0.72147013445E+02 -0.22105795970E+03  0.23445642614E+03  0.47000000000E+01 0.  1.
         -5    1    4    4    0  502 -0.51877899526E+02 -0.16846005261E+02 -0.80117232834E+02  0.97035897221E+02  0.47000000000E+01 0.  1.
<mgrwt>
<rscale>  0 0.30756174E+03</rscale>
<asrwt>0</asrwt>
<pdfrwt beam="1">  1       21 0.32510017E-02 0.30756174E+03</pdfrwt>
<pdfrwt beam="2">  1       21 0.17217129E+00 0.30756174E+03</pdfrwt>
<totfact> 0.10867549E+05</totfact>
</mgrwt>
</event>
<event>
 8    1  0.9691636E-006  0.2508045E+03  0.7546771E-02  0.1112797E+00
         21   -1    0    0  504  503  0.00000000000E+00  0.00000000000E+00  0.48285643585E+02  0.48285643585E+02  0.00000000000E+00 0. -1.
         21   -1    0    0  503  504 -0.00000000000E+00 -0.00000000000E+00 -0.32568122176E+03  0.32568122176E+03  0.00000000000E+00 0. -1.
         25    2    1    2    0    0 -0.87466326052E+01  0.39366453415E+01 -0.13471025317E+03  0.18403051916E+03  0.12501351492E+03 0.  0.
         25    2    1    2    0    0  0.87466326052E+01 -0.39366453415E+01 -0.14268532501E+03  0.18993634619E+03  0.12499885149E+03 0.  0.
          5    1    3    3  501    0 -0.64438584277E+02 -0.13225992243E+02 -0.59966855511E+02  0.89136814921E+02  0.47000000000E+01 0.  1.
         -5    1    3    3    0  501  0.55691951672E+02  0.17162637585E+02 -0.74743397659E+02  0.94893704235E+02  0.47000000000E+01 0.  1.
          5    1    4    4  502    0  0.66753558058E+01 -0.47691567379E+01  0.22636978090E+02  0.24532183110E+02  0.47000000000E+01 0.  1.
         -5    1    4    4    0  502  0.20712767994E+01  0.83251139642E+00 -0.16532230310E+03  0.16540416308E+03  0.47000000000E+01 0.  1.
<mgrwt>
<rscale>  0 0.25080452E+03</rscale>
<asrwt>0</asrwt>
<pdfrwt beam="1">  1       21 0.74285605E-02 0.25080452E+03</pdfrwt>
<pdfrwt beam="2">  1       21 0.50104804E-01 0.25080452E+03</pdfrwt>
<totfact> 0.51176877E+05</totfact>
</mgrwt>
</event>
<event>
 8    1  0.9691636E-006  0.3762449E+03  0.7546771E-02  0.1052330E+00
         21   -1    0    0  504  503  0.00000000000E+00  0.00000000000E+00  0.46834142135E+03  0.46834142135E+03  0.00000000000E+00 0. -1.
         21   -1    0    0  503  504 -0.00000000000E+00 -0.00000000000E+00 -0.75564646693E+02  0.75564646693E+02  0.00000000000E+00 0. -1.
         25    2    1    2    0    0  0.10858886997E+03  0.80039393800E+02  0.25359926922E+03  0.31326605533E+03  0.12500073932E+03 0.  0.
         25    2    1    2    0    0 -0.10858886997E+03 -0.80039393800E+02  0.13917750543E+03  0.23064001271E+03  0.12500636066E+03 0.  0.
          5    1    3    3  501    0  0.10065873498E+03  0.49658591349E+02  0.25782595966E+03  0.28123739456E+03  0.47000000000E+01 0. -1.
         -5    1    3    3    0  501  0.79301349909E+01  0.30380802451E+02 -0.42266904422E+01  0.32028660768E+02  0.47000000000E+01 0. -1.
          5    1    4    4  502    0  0.20360735157E+02 -0.43664682111E+02  0.24674768337E+02  0.54333214450E+02  0.47000000000E+01 0.  1.
         -5    1    4    4    0  502 -0.12894960512E+03 -0.36374711689E+02  0.11450273710E+03  0.17630679826E+03  0.47000000000E+01 0.  1.
<mgrwt>
<rscale>  0 0.37624489E+03</rscale>
<asrwt>0</asrwt>
<pdfrwt beam="1">  1       21 0.72052525E-01 0.37624489E+03</pdfrwt>
<pdfrwt beam="2">  1       21 0.11625331E-01 0.37624489E+03</pdfrwt>
<totfact> 0.10210141E+05</totfact>
</mgrwt>
</event>
<event>
 8    1  0.9691636E-006  0.3220803E+03  0.7546771E-02  0.1074696E+00
         21   -1    0    0  504  503  0.00000000000E+00  0.00000000000E+00  0.28680776930E+03  0.28680776930E+03  0.00000000000E+00 0.  1.
         21   -1    0    0  503  504 -0.00000000000E+00 -0.00000000000E+00 -0.90422704954E+02  0.90422704954E+02  0.00000000000E+00 0.  1.
         25    2    1    2    0    0 -0.60771742014E+02 -0.19777128033E+01  0.29026768819E+01  0.13899032530E+03  0.12495106650E+03 0.  0.
         25    2    1    2    0    0  0.60771742014E+02  0.19777128033E+01  0.19348238746E+03  0.23824014895E+03  0.12500327331E+03 0.  0.
          5    1    3    3  501    0 -0.61321259821E+02 -0.24337037419E+02 -0.48976228363E+02  0.82300359909E+02  0.47000000000E+01 0. -1.
         -5    1    3    3    0  501  0.54951780717E+00  0.22359324616E+02  0.51878905245E+02  0.56689965395E+02  0.47000000000E+01 0. -1.
          5    1    4    4  502    0  0.24466324361E+02  0.14456872750E+02 -0.10473513884E+02  0.30649415827E+02  0.47000000000E+01 0.  1.
         -5    1    4    4    0  502  0.36305417653E+02 -0.12479159947E+02  0.20395590135E+03  0.20759073312E+03  0.47000000000E+01 0.  1.
<mgrwt>
<rscale>  0 0.32208033E+03</rscale>
<asrwt>0</asrwt>
<pdfrwt beam="1">  1       21 0.44124272E-01 0.32208033E+03</pdfrwt>
<pdfrwt beam="2">  1       21 0.13911186E-01 0.32208033E+03</pdfrwt>
<totfact> 0.21470117E+05</totfact>
</mgrwt>
</event>
<event>
 8    1  0.9691636E-006  0.2756308E+03  0.7546771E-02  0.1098100E+00
         21   -1    0    0  504  503  0.00000000000E+00  0.00000000000E+00  0.35857371373E+02  0.35857371373E+02  0.00000000000E+00 0. -1.
         21   -1    0    0  503  504 -0.00000000000E+00 -0.00000000000E+00 -0.52968420664E+03  0.52968420664E+03  0.00000000000E+00 0. -1.
         25    2    1    2    0    0 -0.20293833863E+00  0.39457272936E+02 -0.15955607478E+03  0.20648992357E+03  0.12499211960E+03 0.  0.
         25    2    1    2    0    0  0.20293833863E+00 -0.39457272936E+02 -0.33427076048E+03  0.35905165444E+03  0.12499692666E+03 0.  0.
          5    1    3    3  501    0 -0.54925890724E+02  0.76736275594E+01 -0.32458591872E+02  0.64431267395E+02  0.47000000000E+01 0. -1.
         -5    1    3    3    0  501  0.54722952386E+02  0.31783645376E+02 -0.12709748291E+03  0.14205865617E+03  0.47000000000E+01 0. -1.
          5    1    4    4  502    0 -0.13222570480E+02  0.31561039289E+01  0.61761044271E+01  0.15653486130E+02  0.47000000000E+01 0. -1.
         -5    1    4    4    0  502  0.13425508819E+02 -0.42613376865E+02 -0.34044686491E+03  0.34339816831E+03  0.47000000000E+01 0. -1.
<mgrwt>
<rscale>  0 0.27563079E+03</rscale>
<asrwt>0</asrwt>
<pdfrwt beam="1">  1       21 0.55165184E-02 0.27563079E+03</pdfrwt>
<pdfrwt beam="2">  1       21 0.81489882E-01 0.27563079E+03</pdfrwt>
<totfact> 0.29373920E+05</totfact>
</mgrwt>
</event>
<event>
 8    1  0.9691636E-006  0.3148691E+03  0.7546771E-02  0.1078035E+00
         21   -1    0    0  504  503  0.00000000000E+00  0.00000000000E+00  0.10499087822E+03  0.10499087822E+03  0.00000000000E+00 0.  1.
         21   -1    0    0  503  504 -0.00000000000E+00 -0.00000000000E+00 -0.23607420838E+03  0.23607420838E+03  0.00000000000E+00 0.  1.
         25    2    1    2    0    0 -0.20803193812E+02 -0.35411779515E+02  0.28102900716E+02  0.13454127389E+03  0.12499925740E+03 0.  0.
         25    2    1    2    0    0  0.20803193812E+02  0.35411779515E+02 -0.15918623088E+03  0.20652381270E+03  0.12500024844E+03 0.  0.
          5    1    3    3  501    0  0.43439305756E+02 -0.86389786030E+01 -0.20994367140E+02  0.49238792506E+02  0.47000000000E+01 0. -1.
         -5    1    3    3    0  501 -0.64242499568E+02 -0.26772800912E+02  0.49097267856E+02  0.85302481384E+02  0.47000000000E+01 0. -1.
          5    1    4    4  502    0 -0.28073228444E+02 -0.18980960275E+01 -0.13860682746E+03  0.14151201907E+03  0.47000000000E+01 0. -1.
         -5    1    4    4    0  502  0.48876422256E+02  0.37309875543E+02 -0.20579403415E+02  0.65011793626E+02  0.47000000000E+01 0. -1.
<mgrwt>
<rscale>  0 0.31486911E+03</rscale>
<asrwt>0</asrwt>
<pdfrwt beam="1">  1       21 0.16152443E-01 0.31486911E+03</pdfrwt>
<pdfrwt beam="2">  1       21 0.36319108E-01 0.31486911E+03</pdfrwt>
<totfact> 0.24314514E+05</totfact>
</mgrwt>
</event>
<event>
 8    1  0.9691636E-006  0.3704251E+03  0.7546771E-02  0.1054531E+00
         21   -1    0    0  504  503  0.00000000000E+00  0.00000000000E+00  0.59955238668E+02  0.59955238668E+02  0.00000000000E+00 0.  1.
         21   -1    0    0  503  504 -0.00000000000E+00 -0.00000000000E+00 -0.57215504661E+03  0.57215504661E+03  0.00000000000E+00 0.  1.
         25    2    1    2    0    0 -0.27978572010E+02 -0.13105945842E+03 -0.21032629797E+03  0.27896606013E+03  0.12500211579E+03 0.  0.
         25    2    1    2    0    0  0.27978572010E+02  0.13105945842E+03 -0.30187350997E+03  0.35314422515E+03  0.12499538233E+03 0.  0.
          5    1    3    3  501    0  0.41662482466E+02 -0.24936275229E+02 -0.26473116013E+02  0.55502217424E+02  0.47000000000E+01 0.  1.
         -5    1    3    3    0  501 -0.69641054476E+02 -0.10612318319E+03 -0.18385318196E+03  0.22346384270E+03  0.47000000000E+01 0.  1.
          5    1    4    4  502    0 -0.71876380756E+01  0.76744570358E+02 -0.27006750118E+03  0.28089132492E+03  0.47000000000E+01 0. -1.
         -5    1    4    4    0  502  0.35166210086E+02  0.54314888062E+02 -0.31806008790E+02  0.72252900234E+02  0.47000000000E+01 0. -1.
<mgrwt>
<rscale>  0 0.37042512E+03</rscale>
<asrwt>0</asrwt>
<pdfrwt beam="1">  1       21 0.92238829E-02 0.37042512E+03</pdfrwt>
<pdfrwt beam="2">  1       21 0.88023853E-01 0.37042512E+03</pdfrwt>
<totfact> 0.97794054E+04</totfact>
</mgrwt>
</event>
<event>
 8    1  0.9691636E-006  0.2690268E+03  0.7546771E-02  0.1101838E+00
         21   -1    0    0  504  503  0.00000000000E+00  0.00000000000E+00  0.43717416822E+03  0.43717416822E+03  0.00000000000E+00 0.  1.
         21   -1    0    0  503  504 -0.00000000000E+00 -0.00000000000E+00 -0.41388202632E+02  0.41388202632E+02  0.00000000000E+00 0.  1.
         25    2    1    2    0    0  0.22992408223E+02 -0.26483837929E+01  0.27609040806E+03  0.30395094381E+03  0.12499839216E+03 0.  0.
         25    2    1    2    0    0 -0.22992408223E+02  0.26483837929E+01  0.11969555753E+03  0.17461142705E+03  0.12500583663E+03 0.  0.
          5    1    3    3  501    0  0.64871393547E+02 -0.35089298537E+02  0.15688257913E+03  0.17341796391E+03  0.47000000000E+01 0. -1.
         -5    1    3    3    0  501 -0.41878985324E+02  0.32440914744E+02  0.11920782893E+03  0.13053297989E+03  0.47000000000E+01 0. -1.
          5    1    4    4  502    0 -0.45086962901E+02 -0.30601677228E+02  0.12266358878E+03  0.13430466442E+03  0.47000000000E+01 0. -1.
         -5    1    4    4    0  502  0.22094554679E+02  0.33250061021E+02 -0.29680312490E+01  0.40306762632E+02  0.47000000000E+01 0. -1.
<mgrwt>
<rscale>  0 0.26902679E+03</rscale>
<asrwt>0</asrwt>
<pdfrwt beam="1">  1       21 0.67257561E-01 0.26902679E+03</pdfrwt>
<pdfrwt beam="2">  1       21 0.63674161E-02 0.26902679E+03</pdfrwt>
<totfact> 0.35369481E+05</totfact>
</mgrwt>
</event>
<event>
 8    1  0.9691636E-006  0.3487186E+03  0.7546771E-02  0.1063142E+00
         21   -1    0    0  504  503  0.00000000000E+00  0.00000000000E+00  0.16468686733E+02  0.16468686733E+02  0.00000000000E+00 0. -1.
         21   -1    0    0  503  504 -0.00000000000E+00 -0.00000000000E+00 -0.18459984818E+04  0.18459984818E+04  0.00000000000E+00 0. -1.
         25    2    1    2    0    0 -0.57183637493E+02  0.10515877029E+03 -0.10280055347E+04  0.10424715722E+04  0.12499305635E+03 0.  0.
         25    2    1    2    0    0  0.57183637493E+02 -0.10515877029E+03 -0.80152426037E+03  0.81999559633E+03  0.12499321045E+03 0.  0.
          5    1    3    3  501    0 -0.69597103826E+02  0.50408566316E+02 -0.29482120204E+03  0.30712605163E+03  0.47000000000E+01 0. -1.
         -5    1    3    3    0  501  0.12413466334E+02  0.54750203975E+02 -0.73318433265E+03  0.73534552057E+03  0.47000000000E+01 0. -1.
          5    1    4    4  502    0  0.95614090405E+02 -0.89509059349E+02 -0.58845173440E+03  0.60286935542E+03  0.47000000000E+01 0. -1.
         -5    1    4    4    0  502 -0.38430452912E+02 -0.15649710942E+02 -0.21307252598E+03  0.21712624091E+03  0.47000000000E+01 0. -1.
<mgrwt>
<rscale>  0 0.34871863E+03</rscale>
<asrwt>0</asrwt>
<pdfrwt beam="1">  1       21 0.25336440E-02 0.34871863E+03</pdfrwt>
<pdfrwt beam="2">  1       21 0.28399978E+00 0.34871863E+03</pdfrwt>
<totfact> 0.31785644E+04</totfact>
</mgrwt>
</event>
<event>
 8    1  0.9691636E-006  0.5124555E+03  0.7546771E-02  0.1010578E+00
         21   -1    0    0  504  503  0.00000000000E+00  0.00000000000E+00  0.16120588997E+03  0.16120588997E+03  0.00000000000E+00 0. -1.
         21   -1    0    0  503  504 -0.00000000000E+00 -0.00000000000E+00 -0.40725974808E+03  0.40725974808E+03  0.00000000000E+00 0. -1.
         25    2    1    2    0    0  0.10333583299E+03 -0.19516073972E+03 -0.16248186894E+03  0.30131679429E+03  0.12500177632E+03 0.  0.
         25    2    1    2    0    0 -0.10333583299E+03  0.19516073972E+03 -0.83571989174E+02  0.26714884375E+03  0.12497287161E+03 0.  0.
          5    1    3    3  501    0  0.11445406896E+03 -0.19388049800E+03 -0.17400020856E+03  0.28458310559E+03  0.47000000000E+01 0.  1.
         -5    1    3    3    0  501 -0.11118235974E+02 -0.12802417192E+01  0.11518339622E+02  0.16733688706E+02  0.47000000000E+01 0.  1.
          5    1    4    4  502    0 -0.29546141425E+02  0.95419069977E+02  0.24036232312E+02  0.10284747859E+03  0.47000000000E+01 0.  1.
         -5    1    4    4    0  502 -0.73789691561E+02  0.99741669743E+02 -0.10760822149E+03  0.16430136517E+03  0.47000000000E+01 0.  1.
<mgrwt>
<rscale>  0 0.51245554E+03</rscale>
<asrwt>0</asrwt>
<pdfrwt beam="1">  1       21 0.24800907E-01 0.51245554E+03</pdfrwt>
<pdfrwt beam="2">  1       21 0.62655344E-01 0.51245554E+03</pdfrwt>
<totfact> 0.32693079E+04</totfact>
</mgrwt>
</event>
<event>
 8    1  0.9691636E-006  0.2585361E+03  0.7546771E-02  0.1108026E+00
         21   -1    0    0  504  503  0.00000000000E+00  0.00000000000E+00  0.29540256239E+02  0.29540256239E+02  0.00000000000E+00 0. -1.
         21   -1    0    0  503  504 -0.00000000000E+00 -0.00000000000E+00 -0.56567652224E+03  0.56567652224E+03  0.00000000000E+00 0. -1.
         25    2    1    2    0    0 -0.15673125452E+02  0.27297502419E+02 -0.24511163518E+03  0.27692121059E+03  0.12495936409E+03 0.  0.
         25    2    1    2    0    0  0.15673125452E+02 -0.27297502419E+02 -0.29102463081E+03  0.31829556788E+03  0.12500372912E+03 0.  0.
          5    1    3    3  501    0  0.38580615256E+02 -0.17999157755E+02 -0.16274101875E+03  0.16828298410E+03  0.47000000000E+01 0. -1.
         -5    1    3    3    0  501 -0.54253740708E+02  0.45296660174E+02 -0.82370616428E+02  0.10863822649E+03  0.47000000000E+01 0. -1.
          5    1    4    4  502    0  0.41811630446E+02  0.36020075965E+01 -0.26837905108E+03  0.27168104822E+03  0.47000000000E+01 0. -1.
         -5    1    4    4    0  502 -0.26138504994E+02 -0.30899510015E+02 -0.22645579732E+02  0.46614519668E+02  0.47000000000E+01 0. -1.
<mgrwt>
<rscale>  0 0.25853611E+03</rscale>
<asrwt>0</asrwt>
<pdfrwt beam="1">  1       21 0.45446552E-02 0.25853611E+03</pdfrwt>
<pdfrwt beam="2">  1       21 0.87027150E-01 0.25853611E+03</pdfrwt>
<totfact> 0.35285485E+05</totfact>
</mgrwt>
</event>
<event>
 8    1  0.9691636E-006  0.2780490E+03  0.7546771E-02  0.1096759E+00
         21   -1    0    0  504  503  0.00000000000E+00  0.00000000000E+00  0.99176794219E+02  0.99176794219E+02  0.00000000000E+00 0.  1.
         21   -1    0    0  503  504 -0.00000000000E+00 -0.00000000000E+00 -0.19488239140E+03  0.19488239140E+03  0.00000000000E+00 0.  1.
         25    2    1    2    0    0  0.23749313833E+02 -0.54808385795E+02 -0.60138466569E+02  0.15102352198E+03  0.12499391972E+03 0.  0.
         25    2    1    2    0    0 -0.23749313833E+02  0.54808385795E+02 -0.35567130611E+02  0.14303566364E+03  0.12500476484E+03 0.  0.
          5    1    3    3  501    0  0.27347950874E+02  0.37151211275E+02 -0.21108731266E+02  0.50948910213E+02  0.47000000000E+01 0. -1.
         -5    1    3    3    0  501 -0.35986370403E+01 -0.91959597071E+02 -0.39029735303E+02  0.10007461176E+03  0.47000000000E+01 0. -1.
          5    1    4    4  502    0 -0.60686231107E+02  0.50219308330E+02  0.14744413592E+02  0.80276306015E+02  0.47000000000E+01 0. -1.
         -5    1    4    4    0  502  0.36936917274E+02  0.45890774651E+01 -0.50311544203E+02  0.62759357627E+02  0.47000000000E+01 0. -1.
<mgrwt>
<rscale>  0 0.27804899E+03</rscale>
<asrwt>0</asrwt>
<pdfrwt beam="1">  1       21 0.15257969E-01 0.27804899E+03</pdfrwt>
<pdfrwt beam="2">  1       21 0.29981906E-01 0.27804899E+03</pdfrwt>
<totfact> 0.39849632E+05</totfact>
</mgrwt>
</event>
<event>
 8    1  0.9691636E-006  0.3401814E+03  0.7546771E-02  0.1066719E+00
         21   -1    0    0  504  503  0.00000000000E+00  0.00000000000E+00  0.30820574489E+02  0.30820574489E+02  0.00000000000E+00 0.  1.
         21   -1    0    0  503  504 -0.00000000000E+00 -0.00000000000E+00 -0.93868604707E+03  0.93868604707E+03  0.00000000000E+00 0.  1.
         25    2    1    2    0    0  0.43468900328E+02  0.10297428621E+02 -0.15083755081E+03  0.20092799861E+03  0.12499804622E+03 0.  0.
         25    2    1    2    0    0 -0.43468900328E+02 -0.10297428621E+02 -0.75702792177E+03  0.76857862295E+03  0.12500497181E+03 0.  0.
          5    1    3    3  501    0  0.74065431375E+02 -0.54323415666E+00 -0.15086208789E+03  0.16812924431E+03  0.47000000000E+01 0. -1.
         -5    1    3    3    0  501 -0.30596531047E+02  0.10840662778E+02  0.24537086658E-01  0.32798754300E+02  0.47000000000E+01 0. -1.
          5    1    4    4  502    0 -0.57672491065E+02  0.41508378650E+02 -0.29781416371E+03  0.30620977748E+03  0.47000000000E+01 0. -1.
         -5    1    4    4    0  502  0.14203590737E+02 -0.51805807271E+02 -0.45921375807E+03  0.46236884546E+03  0.47000000000E+01 0. -1.
<mgrwt>
<rscale>  0 0.34018138E+03</rscale>
<asrwt>0</asrwt>
<pdfrwt beam="1">  1       21 0.47416265E-02 0.34018138E+03</pdfrwt>
<pdfrwt beam="2">  1       21 0.14441325E+00 0.34018138E+03</pdfrwt>
<totfact> 0.91815008E+04</totfact>
</mgrwt>
</event>
<event>
 8    1  0.9691636E-006  0.2601169E+03  0.7546771E-02  0.1107073E+00
         21   -1    0    0  504  503  0.00000000000E+00  0.00000000000E+00  0.71419170551E+03  0.71419170551E+03  0.00000000000E+00 0. -1.
         21   -1    0    0  503  504 -0.00000000000E+00 -0.00000000000E+00 -0.23684403864E+02  0.23684403864E+02  0.00000000000E+00 0. -1.
         25    2    1    2    0    0 -0.13577642165E+00 -0.21200971304E+02  0.26308907706E+03  0.29204614577E+03  0.12500235666E+03 0.  0.
         25    2    1    2    0    0  0.13577642165E+00  0.21200971304E+02  0.42741822459E+03  0.44582996361E+03  0.12501407169E+03 0.  0.
          5    1    3    3  501    0 -0.10993520547E+02 -0.34543771834E+02  0.27033659216E+03  0.27279679750E+03  0.47000000000E+01 0. -1.
         -5    1    3    3    0  501  0.10857744125E+02  0.13342800529E+02 -0.72475151013E+01  0.19249348264E+02  0.47000000000E+01 0. -1.
          5    1    4    4  502    0  0.56149433681E+02 -0.16156972938E+02  0.22199937023E+03  0.22960752831E+03  0.47000000000E+01 0. -1.
         -5    1    4    4    0  502 -0.56013657259E+02  0.37357944243E+02  0.20541885436E+03  0.21622243530E+03  0.47000000000E+01 0. -1.
<mgrwt>
<rscale>  0 0.26011693E+03</rscale>
<asrwt>0</asrwt>
<pdfrwt beam="1">  1       21 0.10987563E+00 0.26011693E+03</pdfrwt>
<pdfrwt beam="2">  1       21 0.36437550E-02 0.26011693E+03</pdfrwt>
<totfact> 0.29408546E+05</totfact>
</mgrwt>
</event>
<event>
 8    1  0.9691636E-006  0.2992963E+03  0.7546771E-02  0.1085593E+00
         21   -1    0    0  504  503  0.00000000000E+00  0.00000000000E+00  0.80649613493E+03  0.80649613493E+03  0.00000000000E+00 0.  1.
         21   -1    0    0  503  504 -0.00000000000E+00 -0.00000000000E+00 -0.27767735799E+02  0.27767735799E+02  0.00000000000E+00 0.  1.
         25    2    1    2    0    0  0.40141869836E+02 -0.68873679159E+02  0.33325755629E+03  0.36474783951E+03  0.12500173680E+03 0.  0.
         25    2    1    2    0    0 -0.40141869836E+02  0.68873679159E+02  0.44547084284E+03  0.46951603122E+03  0.12508428502E+03 0.  0.
          5    1    3    3  501    0  0.74631409153E+01 -0.10109206786E+03  0.21271703442E+03  0.23568184357E+03  0.47000000000E+01 0. -1.
         -5    1    3    3    0  501  0.32678728921E+02  0.32218388696E+02  0.12054052187E+03  0.12906599594E+03  0.47000000000E+01 0. -1.
          5    1    4    4  502    0 -0.26466294318E+02 -0.32362174831E+02  0.85323357908E+02  0.95131175224E+02  0.47000000000E+01 0.  1.
         -5    1    4    4    0  502 -0.13675575518E+02  0.10123585399E+03  0.36014748493E+03  0.37438485600E+03  0.47000000000E+01 0.  1.
<mgrwt>
<rscale>  0 0.29929632E+03</rscale>
<asrwt>0</asrwt>
<pdfrwt beam="1">  1       21 0.12407631E+00 0.29929632E+03</pdfrwt>
<pdfrwt beam="2">  1       21 0.42719600E-02 0.29929632E+03</pdfrwt>
<totfact> 0.16448382E+05</totfact>
</mgrwt>
</event>
<event>
 8    1  0.9691636E-006  0.2653519E+03  0.7546771E-02  0.1103970E+00
         21   -1    0    0  504  503  0.00000000000E+00  0.00000000000E+00  0.13863183254E+03  0.13863183254E+03  0.00000000000E+00 0.  1.
         21   -1    0    0  503  504 -0.00000000000E+00 -0.00000000000E+00 -0.12697596696E+03  0.12697596696E+03  0.00000000000E+00 0.  1.
         25    2    1    2    0    0  0.13360534702E+01 -0.28190684624E+02 -0.28546630650E+02  0.13129435194E+03  0.12500718776E+03 0.  0.
         25    2    1    2    0    0 -0.13360534702E+01  0.28190684624E+02  0.40202496232E+02  0.13431344756E+03  0.12500944666E+03 0.  0.
          5    1    3    3  501    0 -0.32224981268E+02 -0.68237141617E+02 -0.19168055287E+02  0.78001674709E+02  0.47000000000E+01 0.  1.
         -5    1    3    3    0  501  0.33561034739E+02  0.40046456993E+02 -0.93785753625E+01  0.53292677229E+02  0.47000000000E+01 0.  1.
          5    1    4    4  502    0  0.23217080482E+02 -0.28194361816E+02 -0.25040048088E+02  0.44531436902E+02  0.47000000000E+01 0.  1.
         -5    1    4    4    0  502 -0.24553133952E+02  0.56385046441E+02  0.65242544319E+02  0.89782010660E+02  0.47000000000E+01 0.  1.
<mgrwt>
<rscale>  0 0.26535192E+03</rscale>
<asrwt>0</asrwt>
<pdfrwt beam="1">  1       21 0.21327974E-01 0.26535192E+03</pdfrwt>
<pdfrwt beam="2">  1       21 0.19534764E-01 0.26535192E+03</pdfrwt>
<totfact> 0.48668713E+05</totfact>
</mgrwt>
</event>
<event>
 8    1  0.9691636E-006  0.2758013E+03  0.7546771E-02  0.1098005E+00
         21   -1    0    0  504  503  0.00000000000E+00  0.00000000000E+00  0.47968634401E+02  0.47968634401E+02  0.00000000000E+00 0. -1.
         21   -1    0    0  503  504 -0.00000000000E+00 -0.00000000000E+00 -0.39643801004E+03  0.39643801004E+03  0.00000000000E+00 0. -1.
         25    2    1    2    0    0  0.84700009999E+01  0.54709396162E+02 -0.20335861695E+03  0.24503965593E+03  0.12499938777E+03 0.  0.
         25    2    1    2    0    0 -0.84700009999E+01 -0.54709396162E+02 -0.14511075868E+03  0.19936698851E+03  0.12500081950E+03 0.  0.
          5    1    3    3  501    0  0.30838853898E+02 -0.68068637557E+01 -0.16698074059E+03  0.17000595881E+03  0.47000000000E+01 0. -1.
         -5    1    3    3    0  501 -0.22368852899E+02  0.61516259918E+02 -0.36377876365E+02  0.75033697117E+02  0.47000000000E+01 0. -1.
          5    1    4    4  502    0 -0.16278481146E+02 -0.88336539707E+02 -0.13651288210E+03  0.16348146737E+03  0.47000000000E+01 0. -1.
         -5    1    4    4    0  502  0.78084801465E+01  0.33627143545E+02 -0.85978765800E+01  0.35885521132E+02  0.47000000000E+01 0. -1.
<mgrwt>
<rscale>  0 0.27580131E+03</rscale>
<asrwt>0</asrwt>
<pdfrwt beam="1">  1       21 0.73797898E-02 0.27580131E+03</pdfrwt>
<pdfrwt beam="2">  1       21 0.60990464E-01 0.27580131E+03</pdfrwt>
<totfact> 0.33858216E+05</totfact>
</mgrwt>
</event>
<event>
 8    1  0.9691636E-006  0.4155602E+03  0.7546771E-02  0.1038521E+00
         21   -1    0    0  504  503  0.00000000000E+00  0.00000000000E+00  0.99246628468E+03  0.99246628468E+03  0.00000000000E+00 0.  1.
         21   -1    0    0  503  504 -0.00000000000E+00 -0.00000000000E+00 -0.43500287183E+02  0.43500287183E+02  0.00000000000E+00 0.  1.
         25    2    1    2    0    0 -0.53286309940E+02  0.11833641688E+03  0.73240822354E+03  0.75424731543E+03  0.12499707413E+03 0.  0.
         25    2    1    2    0    0  0.53286309940E+02 -0.11833641688E+03  0.21655777396E+03  0.28171925644E+03  0.12500212636E+03 0.  0.
          5    1    3    3  501    0 -0.59559233690E+02  0.13152360769E+03  0.47737678348E+03  0.49875489482E+03  0.47000000000E+01 0. -1.
         -5    1    3    3    0  501  0.62729237500E+01 -0.13187190807E+02  0.25503144005E+03  0.25549242061E+03  0.47000000000E+01 0. -1.
          5    1    4    4  502    0 -0.24029944692E+02  0.12493973033E+02  0.42414356622E+02  0.50543102910E+02  0.47000000000E+01 0.  1.
         -5    1    4    4    0  502  0.77316254632E+02 -0.13083038992E+03  0.17414341734E+03  0.23117615353E+03  0.47000000000E+01 0.  1.
<mgrwt>
<rscale>  0 0.41556019E+03</rscale>
<asrwt>0</asrwt>
<pdfrwt beam="1">  1       21 0.15268710E+00 0.41556019E+03</pdfrwt>
<pdfrwt beam="2">  1       21 0.66923526E-02 0.41556019E+03</pdfrwt>
<totfact> 0.42596911E+04</totfact>
</mgrwt>
</event>
<event>
 8    1  0.9691636E-006  0.2717683E+03  0.7546771E-02  0.1100272E+00
         21   -1    0    0  504  503  0.00000000000E+00  0.00000000000E+00  0.21179151247E+03  0.21179151247E+03  0.00000000000E+00 0.  1.
         21   -1    0    0  503  504 -0.00000000000E+00 -0.00000000000E+00 -0.87182465512E+02  0.87182465512E+02  0.00000000000E+00 0.  1.
         25    2    1    2    0    0  0.37780805015E+02 -0.31354114063E+02  0.39535075088E+02  0.13999284485E+03  0.12499801899E+03 0.  0.
         25    2    1    2    0    0 -0.37780805015E+02  0.31354114063E+02  0.85073971872E+02  0.15898113313E+03  0.12500780098E+03 0.  0.
          5    1    3    3  501    0  0.47265824459E+02 -0.71870995253E+02  0.60252761798E+01  0.86359087961E+02  0.47000000000E+01 0. -1.
         -5    1    3    3    0  501 -0.94850194442E+01  0.40516881190E+02  0.33509798908E+02  0.53633756889E+02  0.47000000000E+01 0. -1.
          5    1    4    4  502    0 -0.26107389873E+02 -0.57850532747E+01 -0.28179559938E+02  0.39131064970E+02  0.47000000000E+01 0.  1.
         -5    1    4    4    0  502 -0.11673415142E+02  0.37139167338E+02  0.11325353181E+03  0.11985006816E+03  0.47000000000E+01 0.  1.
<mgrwt>
<rscale>  0 0.27176833E+03</rscale>
<asrwt>0</asrwt>
<pdfrwt beam="1">  1       21 0.32583309E-01 0.27176833E+03</pdfrwt>
<pdfrwt beam="2">  1       21 0.13412687E-01 0.27176833E+03</pdfrwt>
<totfact> 0.42848603E+05</totfact>
</mgrwt>
</event>
<event>
 8    1  0.9691636E-006  0.2628897E+03  0.7546771E-02  0.1105419E+00
         21   -1    0    0  504  503  0.00000000000E+00  0.00000000000E+00  0.10922727375E+04  0.10922727375E+04  0.00000000000E+00 0.  1.
         21   -1    0    0  503  504 -0.00000000000E+00 -0.00000000000E+00 -0.15818162315E+02  0.15818162315E+02  0.00000000000E+00 0.  1.
         25    2    1    2    0    0  0.11499938711E+02 -0.32483191377E+02  0.44733426678E+03  0.46574762994E+03  0.12500200896E+03 0.  0.
         25    2    1    2    0    0 -0.11499938711E+02  0.32483191377E+02  0.62912030836E+03  0.64234326983E+03  0.12500043039E+03 0.  0.
          5    1    3    3  501    0  0.28965106463E+02 -0.76568059043E+02  0.27944470122E+03  0.29122684646E+03  0.47000000000E+01 0.  1.
         -5    1    3    3    0  501 -0.17465167752E+02  0.44084867666E+02  0.16788956556E+03  0.17452078348E+03  0.47000000000E+01 0.  1.
          5    1    4    4  502    0 -0.18431500061E+02  0.55761823791E+01  0.60478518106E+03  0.60510992327E+03  0.47000000000E+01 0.  1.
         -5    1    4    4    0  502  0.69315613496E+01  0.26907008998E+02  0.24335127296E+02  0.37233346566E+02  0.47000000000E+01 0.  1.
<mgrwt>
<rscale>  0 0.26288969E+03</rscale>
<asrwt>0</asrwt>
<pdfrwt beam="1">  1       21 0.16804190E+00 0.26288969E+03</pdfrwt>
<pdfrwt beam="2">  1       21 0.24335643E-02 0.26288969E+03</pdfrwt>
<totfact> 0.19126422E+05</totfact>
</mgrwt>
</event>
<event>
 8    1  0.9691636E-006  0.4624235E+03  0.7546771E-02  0.1024081E+00
         21   -1    0    0  504  503  0.00000000000E+00  0.00000000000E+00  0.53269000392E+02  0.53269000392E+02  0.00000000000E+00 0. -1.
         21   -1    0    0  503  504 -0.00000000000E+00 -0.00000000000E+00 -0.10035645720E+04  0.10035645720E+04  0.00000000000E+00 0. -1.
         25    2    1    2    0    0 -0.37105123980E+02  0.15158339101E+03 -0.20985368332E+03  0.28986185204E+03  0.12500804059E+03 0.  0.
         25    2    1    2    0    0  0.37105123980E+02 -0.15158339101E+03 -0.74044188829E+03  0.76697172035E+03  0.12504845152E+03 0.  0.
          5    1    3    3  501    0 -0.16813103820E+02  0.30854021987E+02 -0.14882674623E+03  0.15299065830E+03  0.47000000000E+01 0. -1.
         -5    1    3    3    0  501 -0.20292020160E+02  0.12072936902E+03 -0.61026937083E+02  0.13687119374E+03  0.47000000000E+01 0. -1.
          5    1    4    4  502    0  0.32100474398E+02 -0.16621116884E+03 -0.72536602195E+03  0.74487216950E+03  0.47000000000E+01 0.  1.
         -5    1    4    4    0  502  0.50046495817E+01  0.14627777831E+02 -0.15075866343E+02  0.22099550849E+02  0.47000000000E+01 0.  1.
<mgrwt>
<rscale>  0 0.46242354E+03</rscale>
<asrwt>0</asrwt>
<pdfrwt beam="1">  1       21 0.81952314E-02 0.46242354E+03</pdfrwt>
<pdfrwt beam="2">  1       21 0.15439454E+00 0.46242354E+03</pdfrwt>
<totfact> 0.28539021E+04</totfact>
</mgrwt>
</event>
<event>
 8    1  0.9691636E-006  0.4291275E+03  0.7546771E-02  0.1034136E+00
         21   -1    0    0  504  503  0.00000000000E+00  0.00000000000E+00  0.42164096486E+03  0.42164096486E+03  0.00000000000E+00 0.  1.
         21   -1    0    0  503  504 -0.00000000000E+00 -0.00000000000E+00 -0.10918673588E+03  0.10918673588E+03  0.00000000000E+00 0.  1.
         25    2    1    2    0    0  0.10483705622E+02  0.17313580031E+03  0.17854899203E+03  0.27855469246E+03  0.12500824254E+03 0.  0.
         25    2    1    2    0    0 -0.10483705622E+02 -0.17313580031E+03  0.13390523695E+03  0.25227300828E+03  0.12500057916E+03 0.  0.
          5    1    3    3  501    0  0.75551576036E+01  0.30230367131E+02 -0.17376770670E+02  0.35986075949E+02  0.47000000000E+01 0. -1.
         -5    1    3    3    0  501  0.29285480179E+01  0.14290543318E+03  0.19592576270E+03  0.24256861651E+03  0.47000000000E+01 0. -1.
          5    1    4    4  502    0 -0.17214957963E+02 -0.18914288467E+03  0.10196781230E+03  0.21561750937E+03  0.47000000000E+01 0.  1.
         -5    1    4    4    0  502  0.67312523411E+01  0.16007084357E+02  0.31937424645E+02  0.36655498914E+02  0.47000000000E+01 0.  1.
<mgrwt>
<rscale>  0 0.42912749E+03</rscale>
<asrwt>0</asrwt>
<pdfrwt beam="1">  1       21 0.64867840E-01 0.42912749E+03</pdfrwt>
<pdfrwt beam="2">  1       21 0.16797960E-01 0.42912749E+03</pdfrwt>
<totfact> 0.64830531E+04</totfact>
</mgrwt>
</event>
<event>
 8    1  0.9691636E-006  0.3350822E+03  0.7546771E-02  0.1068910E+00
         21   -1    0    0  504  503  0.00000000000E+00  0.00000000000E+00  0.18190033291E+03  0.18190033291E+03  0.00000000000E+00 0.  1.
         21   -1    0    0  503  504 -0.00000000000E+00 -0.00000000000E+00 -0.15431538312E+03  0.15431538312E+03  0.00000000000E+00 0.  1.
         25    2    1    2    0    0  0.21715588878E+02  0.86620156917E+02  0.80884765587E+02  0.17361387257E+03  0.12499925223E+03 0.  0.
         25    2    1    2    0    0 -0.21715588878E+02 -0.86620156917E+02 -0.53299815791E+02  0.16260184346E+03  0.12499548291E+03 0.  0.
          5    1    3    3  501    0 -0.28818987702E+02  0.76422868334E+02  0.89364154349E+02  0.12115705072E+03  0.47000000000E+01 0. -1.
         -5    1    3    3    0  501  0.50534576580E+02  0.10197288583E+02 -0.84793887621E+01  0.52456821848E+02  0.47000000000E+01 0. -1.
          5    1    4    4  502    0 -0.47261530746E+02 -0.10103897627E+02  0.20930939644E+02  0.52876604184E+02  0.47000000000E+01 0.  1.
         -5    1    4    4    0  502  0.25545941868E+02 -0.76516259291E+02 -0.74230755435E+02  0.10972523928E+03  0.47000000000E+01 0.  1.
<mgrwt>
<rscale>  0 0.33508220E+03</rscale>
<asrwt>0</asrwt>
<pdfrwt beam="1">  1       21 0.27984667E-01 0.33508220E+03</pdfrwt>
<pdfrwt beam="2">  1       21 0.23740828E-01 0.33508220E+03</pdfrwt>
<totfact> 0.19657183E+05</totfact>
</mgrwt>
</event>
<event>
 8    1  0.9691636E-006  0.3175611E+03  0.7546771E-02  0.1076777E+00
         21   -1    0    0  504  503  0.00000000000E+00  0.00000000000E+00  0.34566060167E+03  0.34566060167E+03  0.00000000000E+00 0. -1.
         21   -1    0    0  503  504 -0.00000000000E+00 -0.00000000000E+00 -0.72936462268E+02  0.72936462268E+02  0.00000000000E+00 0. -1.
         25    2    1    2    0    0  0.45378192518E+02  0.33460246400E+02  0.24187560657E+03  0.27804330749E+03  0.12500201334E+03 0.  0.
         25    2    1    2    0    0 -0.45378192518E+02 -0.33460246400E+02  0.30848532829E+02  0.14055375645E+03  0.12499983212E+03 0.  0.
          5    1    3    3  501    0  0.83679154732E+02  0.17343182604E+02  0.20552786552E+03  0.22263598187E+03  0.47000000000E+01 0.  1.
         -5    1    3    3    0  501 -0.38300962214E+02  0.16117063795E+02  0.36347741049E+02  0.55407325611E+02  0.47000000000E+01 0.  1.
          5    1    4    4  502    0 -0.45574554227E+02  0.41156085674E+02  0.65226269438E+01  0.61931397879E+02  0.47000000000E+01 0. -1.
         -5    1    4    4    0  502  0.19636170936E+00 -0.74616332074E+02  0.24325905885E+02  0.78622358571E+02  0.47000000000E+01 0. -1.
<mgrwt>
<rscale>  0 0.31756109E+03</rscale>
<asrwt>0</asrwt>
<pdfrwt beam="1">  1       21 0.53178553E-01 0.31756109E+03</pdfrwt>
<pdfrwt beam="2">  1       21 0.11220994E-01 0.31756109E+03</pdfrwt>
<totfact> 0.21445659E+05</totfact>
</mgrwt>
</event>
<event>
 8    1  0.9691636E-006  0.3134225E+03  0.7546771E-02  0.1078717E+00
         21   -1    0    0  504  503  0.00000000000E+00  0.00000000000E+00  0.95339541763E+02  0.95339541763E+02  0.00000000000E+00 0.  1.
         21   -1    0    0  503  504 -0.00000000000E+00 -0.00000000000E+00 -0.25758890793E+03  0.25758890793E+03  0.00000000000E+00 0.  1.
         25    2    1    2    0    0 -0.65336474543E+02 -0.59181339297E+02 -0.42734900704E+02  0.15881543493E+03  0.12499913922E+03 0.  0.
         25    2    1    2    0    0  0.65336474543E+02  0.59181339297E+02 -0.11951446546E+03  0.19411301477E+03  0.12499947688E+03 0.  0.
          5    1    3    3  501    0  0.20755458241E+02  0.32963877788E+01  0.24708474851E+02  0.32775813470E+02  0.47000000000E+01 0.  1.
         -5    1    3    3    0  501 -0.86091932783E+02 -0.62477727076E+02 -0.67443375555E+02  0.12603962146E+03  0.47000000000E+01 0.  1.
          5    1    4    4  502    0  0.97582400625E+01  0.83926714224E+02 -0.97839553665E+02  0.12935835833E+03  0.47000000000E+01 0. -1.
         -5    1    4    4    0  502  0.55578234480E+02 -0.24745374927E+02 -0.21674911797E+02  0.64754656432E+02  0.47000000000E+01 0. -1.
<mgrwt>
<rscale>  0 0.31342245E+03</rscale>
<asrwt>0</asrwt>
<pdfrwt beam="1">  1       21 0.14667622E-01 0.31342245E+03</pdfrwt>
<pdfrwt beam="2">  1       21 0.39629062E-01 0.31342245E+03</pdfrwt>
<totfact> 0.24345627E+05</totfact>
</mgrwt>
</event>
<event>
 8    1  0.9691636E-006  0.3175429E+03  0.7546771E-02  0.1076786E+00
         21   -1    0    0  504  503  0.00000000000E+00  0.00000000000E+00  0.16949215607E+03  0.16949215607E+03  0.00000000000E+00 0.  1.
         21   -1    0    0  503  504 -0.00000000000E+00 -0.00000000000E+00 -0.14872883978E+03  0.14872883978E+03  0.00000000000E+00 0.  1.
         25    2    1    2    0    0  0.49696340938E+02 -0.14663571654E+02 -0.72831901582E+02  0.15369112071E+03  0.12502690934E+03 0.  0.
         25    2    1    2    0    0 -0.49696340938E+02  0.14663571654E+02  0.93595217870E+02  0.16452987515E+03  0.12500107348E+03 0.  0.
          5    1    3    3  501    0  0.74666901129E+02  0.28705626046E+01 -0.91022833512E+02  0.11785852737E+03  0.47000000000E+01 0. -1.
         -5    1    3    3    0  501 -0.24970560191E+02 -0.17534134258E+02  0.18190931931E+02  0.35832593332E+02  0.47000000000E+01 0. -1.
          5    1    4    4  502    0  0.15405687233E+02  0.43689232692E+02  0.78876254863E+02  0.91594966202E+02  0.47000000000E+01 0.  1.
         -5    1    4    4    0  502 -0.65102028172E+02 -0.29025661039E+02  0.14718963008E+02  0.72934908945E+02  0.47000000000E+01 0.  1.
<mgrwt>
<rscale>  0 0.31754289E+03</rscale>
<asrwt>0</asrwt>
<pdfrwt beam="1">  1       21 0.26075716E-01 0.31754289E+03</pdfrwt>
<pdfrwt beam="2">  1       21 0.22881360E-01 0.31754289E+03</pdfrwt>
<totfact> 0.24297940E+05</totfact>
</mgrwt>
</event>
<event>
 8    1  0.9691636E-006  0.3115902E+03  0.7546771E-02  0.1079586E+00
         21   -1    0    0  504  503  0.00000000000E+00  0.00000000000E+00  0.69701022456E+02  0.69701022456E+02  0.00000000000E+00 0.  1.
         21   -1    0    0  503  504 -0.00000000000E+00 -0.00000000000E+00 -0.34823190968E+03  0.34823190968E+03  0.00000000000E+00 0.  1.
         25    2    1    2    0    0  0.74457594726E+02  0.29247721410E+02 -0.75681349635E+02  0.16658783201E+03  0.12499790587E+03 0.  0.
         25    2    1    2    0    0 -0.74457594726E+02 -0.29247721410E+02 -0.20284953759E+03  0.25134510012E+03  0.12500824708E+03 0.  0.
          5    1    3    3  501    0  0.50690982839E+02  0.75728299118E+02 -0.67580913938E+02  0.11355008127E+03  0.47000000000E+01 0. -1.
         -5    1    3    3    0  501  0.23766611887E+02 -0.46480577708E+02 -0.81004356974E+01  0.53037750736E+02  0.47000000000E+01 0. -1.
          5    1    4    4  502    0  0.34045187095E+02 -0.18494077666E+01 -0.31634701677E+02  0.46747614095E+02  0.47000000000E+01 0.  1.
         -5    1    4    4    0  502 -0.10850278182E+03 -0.27398313643E+02 -0.17121483591E+03  0.20459748603E+03  0.47000000000E+01 0.  1.
<mgrwt>
<rscale>  0 0.31159024E+03</rscale>
<asrwt>0</asrwt>
<pdfrwt beam="1">  1       21 0.10723234E-01 0.31159024E+03</pdfrwt>
<pdfrwt beam="2">  1       21 0.53574141E-01 0.31159024E+03</pdfrwt>
<totfact> 0.22931923E+05</totfact>
</mgrwt>
</event>
<event>
 8    1  0.9691636E-006  0.2940685E+03  0.7546771E-02  0.1088244E+00
         21   -1    0    0  504  503  0.00000000000E+00  0.00000000000E+00  0.18976151539E+03  0.18976151539E+03  0.00000000000E+00 0. -1.
         21   -1    0    0  503  504 -0.00000000000E+00 -0.00000000000E+00 -0.11392757542E+03  0.11392757542E+03  0.00000000000E+00 0. -1.
         25    2    1    2    0    0  0.33842895396E+02 -0.68687588950E+02  0.26084135774E+02  0.14889033872E+03  0.12499849752E+03 0.  0.
         25    2    1    2    0    0 -0.33842895396E+02  0.68687588950E+02  0.49749804194E+02  0.15479875208E+03  0.12499713670E+03 0.  0.
          5    1    3    3  501    0 -0.32907740562E+02 -0.20850309081E+02 -0.29948455328E+02  0.49362483266E+02  0.47000000000E+01 0.  1.
         -5    1    3    3    0  501  0.66750635958E+02 -0.47837279870E+02  0.56032591102E+02  0.99527855456E+02  0.47000000000E+01 0.  1.
          5    1    4    4  502    0 -0.17790494822E+02  0.51023753096E+02  0.91563690585E+02  0.10642332695E+03  0.47000000000E+01 0.  1.
         -5    1    4    4    0  502 -0.16052400574E+02  0.17663835855E+02 -0.41813886391E+02  0.48375425129E+02  0.47000000000E+01 0.  1.
<mgrwt>
<rscale>  0 0.29406849E+03</rscale>
<asrwt>0</asrwt>
<pdfrwt beam="1">  1       21 0.29194079E-01 0.29406849E+03</pdfrwt>
<pdfrwt beam="2">  1       21 0.17527319E-01 0.29406849E+03</pdfrwt>
<totfact> 0.32388915E+05</totfact>
</mgrwt>
</event>
<event>
 8    1  0.9691636E-006  0.2800296E+03  0.7546771E-02  0.1095673E+00
         21   -1    0    0  504  503  0.00000000000E+00  0.00000000000E+00  0.80110665684E+03  0.80110665684E+03  0.00000000000E+00 0. -1.
         21   -1    0    0  503  504 -0.00000000000E+00 -0.00000000000E+00 -0.24471329831E+02  0.24471329831E+02  0.00000000000E+00 0. -1.
         25    2    1    2    0    0  0.19146806418E+02 -0.90148008328E+01  0.21311052748E+03  0.24796928896E+03  0.12499921805E+03 0.  0.
         25    2    1    2    0    0 -0.19146806418E+02  0.90148008328E+01  0.56352479953E+03  0.57760869771E+03  0.12499496453E+03 0.  0.
          5    1    3    3  501    0  0.52042270883E+02 -0.25016904082E+02  0.20094988268E+03  0.20913437976E+03  0.47000000000E+01 0. -1.
         -5    1    3    3    0  501 -0.32895464465E+02  0.16002103249E+02  0.12160644805E+02  0.38834909203E+02  0.47000000000E+01 0. -1.
          5    1    4    4  502    0  0.37802086593E+02 -0.33922412056E+02  0.16429644124E+03  0.17203237601E+03  0.47000000000E+01 0.  1.
         -5    1    4    4    0  502 -0.56948893011E+02  0.42937212889E+02  0.39922835828E+03  0.40557632170E+03  0.47000000000E+01 0.  1.
<mgrwt>
<rscale>  0 0.28002961E+03</rscale>
<asrwt>0</asrwt>
<pdfrwt beam="1">  1       21 0.12324716E+00 0.28002961E+03</pdfrwt>
<pdfrwt beam="2">  1       21 0.37648206E-02 0.28002961E+03</pdfrwt>
<totfact> 0.20827002E+05</totfact>
</mgrwt>
</event>
<event>
 8    1  0.9691636E-006  0.3027173E+03  0.7546771E-02  0.1083890E+00
         21   -1    0    0  504  503  0.00000000000E+00  0.00000000000E+00  0.18641319468E+03  0.18641319468E+03  0.00000000000E+00 0.  1.
         21   -1    0    0  503  504 -0.00000000000E+00 -0.00000000000E+00 -0.12289606643E+03  0.12289606643E+03  0.00000000000E+00 0.  1.
         25    2    1    2    0    0 -0.27246932751E+02  0.80883852202E+02  0.31690814107E+02  0.15463772341E+03  0.12499569958E+03 0.  0.
         25    2    1    2    0    0  0.27246932751E+02 -0.80883852202E+02  0.31826314145E+02  0.15467153770E+03  0.12500310961E+03 0.  0.
          5    1    3    3  501    0 -0.50335263061E+02  0.98416745903E+02  0.48492511061E+02  0.12080193794E+03  0.47000000000E+01 0. -1.
         -5    1    3    3    0  501  0.23088330310E+02 -0.17532893701E+02 -0.16801696954E+02  0.33835785473E+02  0.47000000000E+01 0. -1.
          5    1    4    4  502    0  0.33488991756E+02 -0.10534895088E+03  0.51768551437E+02  0.12215558497E+03  0.47000000000E+01 0.  1.
         -5    1    4    4    0  502 -0.62420590048E+01  0.24465098679E+02 -0.19942237292E+02  0.32515952734E+02  0.47000000000E+01 0.  1.
<mgrwt>
<rscale>  0 0.30271735E+03</rscale>
<asrwt>0</asrwt>
<pdfrwt beam="1">  1       21 0.28678953E-01 0.30271735E+03</pdfrwt>
<pdfrwt beam="2">  1       21 0.18907087E-01 0.30271735E+03</pdfrwt>
<totfact> 0.29061076E+05</totfact>
</mgrwt>
</event>
<event>
 8    1  0.9691636E-006  0.3290004E+03  0.7546771E-02  0.1071580E+00
         21   -1    0    0  504  503  0.00000000000E+00  0.00000000000E+00  0.79657453961E+02  0.79657453961E+02  0.00000000000E+00 0.  1.
         21   -1    0    0  503  504 -0.00000000000E+00 -0.00000000000E+00 -0.33970852122E+03  0.33970852122E+03  0.00000000000E+00 0.  1.
         25    2    1    2    0    0 -0.75420755064E+02  0.31854929090E+02 -0.21775159564E+03  0.26406836658E+03  0.12495326335E+03 0.  0.
         25    2    1    2    0    0  0.75420755064E+02 -0.31854929090E+02 -0.42299471611E+02  0.15529760860E+03  0.12500030054E+03 0.  0.
          5    1    3    3  501    0 -0.44282483949E+02  0.76379725609E+02 -0.95158742556E+02  0.12989256004E+03  0.47000000000E+01 0. -1.
         -5    1    3    3    0  501 -0.31138271115E+02 -0.44524796519E+02 -0.12259285309E+03  0.13417580654E+03  0.47000000000E+01 0. -1.
          5    1    4    4  502    0  0.17223364414E+01  0.98103102527E+01 -0.66273482570E+02  0.67182386992E+02  0.47000000000E+01 0.  1.
         -5    1    4    4    0  502  0.73698418622E+02 -0.41665239342E+02  0.23974010958E+02  0.88115221604E+02  0.47000000000E+01 0.  1.
<mgrwt>
<rscale>  0 0.32900040E+03</rscale>
<asrwt>0</asrwt>
<pdfrwt beam="1">  1       21 0.12254993E-01 0.32900040E+03</pdfrwt>
<pdfrwt beam="2">  1       21 0.52262849E-01 0.32900040E+03</pdfrwt>
<totfact> 0.18931277E+05</totfact>
</mgrwt>
</event>
<event>
 8    1  0.9691636E-006  0.2943234E+03  0.7546771E-02  0.1088113E+00
         21   -1    0    0  504  503  0.00000000000E+00  0.00000000000E+00  0.21203248602E+03  0.21203248602E+03  0.00000000000E+00 0. -1.
         21   -1    0    0  503  504 -0.00000000000E+00 -0.00000000000E+00 -0.10213798772E+03  0.10213798772E+03  0.00000000000E+00 0. -1.
         25    2    1    2    0    0  0.19245982675E+02 -0.59576366608E+02  0.10402485579E+03  0.17424288765E+03  0.12497864604E+03 0.  0.
         25    2    1    2    0    0 -0.19245982675E+02  0.59576366608E+02  0.58696425071E+01  0.13992758610E+03  0.12500210134E+03 0.  0.
          5    1    3    3  501    0 -0.76911134218E+01  0.31752603189E+02  0.61618627576E+02  0.69902262476E+02  0.47000000000E+01 0.  1.
         -5    1    3    3    0  501  0.26937096096E+02 -0.91328969796E+02  0.42406228214E+02  0.10434062517E+03  0.47000000000E+01 0.  1.
          5    1    4    4  502    0  0.37525447437E+02 -0.19165788986E+02 -0.18155394693E+01  0.42436692336E+02  0.47000000000E+01 0.  1.
         -5    1    4    4    0  502 -0.56771430112E+02  0.78742155593E+02  0.76851819764E+01  0.97490893762E+02  0.47000000000E+01 0.  1.
<mgrwt>
<rscale>  0 0.29432344E+03</rscale>
<asrwt>0</asrwt>
<pdfrwt beam="1">  1       21 0.32620382E-01 0.29432344E+03</pdfrwt>
<pdfrwt beam="2">  1       21 0.15713537E-01 0.29432344E+03</pdfrwt>
<totfact> 0.31852493E+05</totfact>
</mgrwt>
</event>
<event>
 8    1  0.9691636E-006  0.3609183E+03  0.7546771E-02  0.1058221E+00
         21   -1    0    0  504  503  0.00000000000E+00  0.00000000000E+00  0.55962674612E+02  0.55962674612E+02  0.00000000000E+00 0. -1.
         21   -1    0    0  503  504 -0.00000000000E+00 -0.00000000000E+00 -0.58191462012E+03  0.58191462012E+03  0.00000000000E+00 0. -1.
         25    2    1    2    0    0 -0.36251591168E+02  0.11973273645E+03 -0.32649631288E+03  0.37131565496E+03  0.12500146901E+03 0.  0.
         25    2    1    2    0    0  0.36251591168E+02 -0.11973273645E+03 -0.19945563263E+03  0.26656163978E+03  0.12498980907E+03 0.  0.
          5    1    3    3  501    0 -0.64565064528E+02  0.12939753863E+03 -0.24716096025E+03  0.28639657965E+03  0.47000000000E+01 0.  1.
         -5    1    3    3    0  501  0.28313473361E+02 -0.96648021855E+01 -0.79335352624E+02  0.84919075307E+02  0.47000000000E+01 0.  1.
          5    1    4    4  502    0  0.31614771598E+02 -0.93165252235E+01 -0.13391009415E+03  0.13798657450E+03  0.47000000000E+01 0.  1.
         -5    1    4    4    0  502  0.46368195693E+01 -0.11041621123E+03 -0.65545538481E+02  0.12857506528E+03  0.47000000000E+01 0.  1.
<mgrwt>
<rscale>  0 0.36091827E+03</rscale>
<asrwt>0</asrwt>
<pdfrwt beam="1">  1       21 0.86096418E-02 0.36091827E+03</pdfrwt>
<pdfrwt beam="2">  1       21 0.89525331E-01 0.36091827E+03</pdfrwt>
<totfact> 0.10647170E+05</totfact>
</mgrwt>
</event>
<event>
 8    1  0.9691636E-006  0.3647660E+03  0.7546771E-02  0.1056713E+00
         21   -1    0    0  504  503  0.00000000000E+00  0.00000000000E+00  0.79006180497E+02  0.79006180497E+02  0.00000000000E+00 0. -1.
         21   -1    0    0  503  504 -0.00000000000E+00 -0.00000000000E+00 -0.42102479323E+03  0.42102479323E+03  0.00000000000E+00 0. -1.
         25    2    1    2    0    0 -0.48067457379E+02  0.10041715889E+03 -0.27026674316E+03  0.31791335217E+03  0.12502280100E+03 0.  0.
         25    2    1    2    0    0  0.48067457379E+02 -0.10041715889E+03 -0.71751869574E+02  0.18211762156E+03  0.12499764413E+03 0.  0.
          5    1    3    3  501    0 -0.64850419119E+02  0.59893743355E+01 -0.69477471292E+02  0.95344944711E+02  0.47000000000E+01 0. -1.
         -5    1    3    3    0  501  0.16782961740E+02  0.94427784552E+02 -0.20078927187E+03  0.22256840746E+03  0.47000000000E+01 0. -1.
          5    1    4    4  502    0  0.28141279149E+02 -0.41168108011E+02 -0.10115585657E+03  0.11287755325E+03  0.47000000000E+01 0. -1.
         -5    1    4    4    0  502  0.19926178230E+02 -0.59249050877E+02  0.29403986995E+02  0.69240068312E+02  0.47000000000E+01 0. -1.
<mgrwt>
<rscale>  0 0.36476601E+03</rscale>
<asrwt>0</asrwt>
<pdfrwt beam="1">  1       21 0.12154797E-01 0.36476601E+03</pdfrwt>
<pdfrwt beam="2">  1       21 0.64773045E-01 0.36476601E+03</pdfrwt>
<totfact> 0.11975583E+05</totfact>
</mgrwt>
</event>
<event>
 8    1  0.9691636E-006  0.2857705E+03  0.7546771E-02  0.1092578E+00
         21   -1    0    0  504  503  0.00000000000E+00  0.00000000000E+00  0.73053169862E+03  0.73053169862E+03  0.00000000000E+00 0. -1.
         21   -1    0    0  503  504 -0.00000000000E+00 -0.00000000000E+00 -0.27947043143E+02  0.27947043143E+02  0.00000000000E+00 0. -1.
         25    2    1    2    0    0 -0.28230949348E+02 -0.13892127521E+02  0.51492628736E+03  0.53081117360E+03  0.12498577078E+03 0.  0.
         25    2    1    2    0    0  0.28230949348E+02  0.13892127521E+02  0.18765836812E+03  0.22766756816E+03  0.12500752281E+03 0.  0.
          5    1    3    3  501    0 -0.36212763986E+02 -0.25023488334E+02  0.51441988861E+03  0.51632107359E+03  0.47000000000E+01 0. -1.
         -5    1    3    3    0  501  0.79818146371E+01  0.11131360813E+02  0.50639875107E+00  0.14490100005E+02  0.47000000000E+01 0. -1.
          5    1    4    4  502    0  0.33727415672E+02 -0.42700676868E+02  0.35437341156E+02  0.65105925392E+02  0.47000000000E+01 0. -1.
         -5    1    4    4    0  502 -0.54964663240E+01  0.56592804389E+02  0.15222102696E+03  0.16256164277E+03  0.47000000000E+01 0. -1.
<mgrwt>
<rscale>  0 0.28577054E+03</rscale>
<asrwt>0</asrwt>
<pdfrwt beam="1">  1       21 0.11238948E+00 0.28577054E+03</pdfrwt>
<pdfrwt beam="2">  1       21 0.42995457E-02 0.28577054E+03</pdfrwt>
<totfact> 0.20899490E+05</totfact>
</mgrwt>
</event>
<event>
 8    1  0.9691636E-006  0.4423337E+03  0.7546771E-02  0.1030033E+00
         21   -1    0    0  504  503  0.00000000000E+00  0.00000000000E+00  0.98848113742E+02  0.98848113742E+02  0.00000000000E+00 0. -1.
         21   -1    0    0  503  504 -0.00000000000E+00 -0.00000000000E+00 -0.49484789112E+03  0.49484789112E+03  0.00000000000E+00 0. -1.
         25    2    1    2    0    0  0.32687838097E+02  0.17563979206E+03 -0.14827218347E+03  0.26367967804E+03  0.12499800361E+03 0.  0.
         25    2    1    2    0    0 -0.32687838097E+02 -0.17563979206E+03 -0.24772759391E+03  0.33001632682E+03  0.12499593542E+03 0.  0.
          5    1    3    3  501    0  0.56440986774E+02  0.98277002008E+02 -0.14288958196E+03  0.18243759685E+03  0.47000000000E+01 0.  1.
         -5    1    3    3    0  501 -0.23753148677E+02  0.77362790051E+02 -0.53826015058E+01  0.81242081186E+02  0.47000000000E+01 0.  1.
          5    1    4    4  502    0 -0.24753499044E+02 -0.83831560935E+01  0.47975579578E+01  0.26983691062E+02  0.47000000000E+01 0.  1.
         -5    1    4    4    0  502 -0.79343390530E+01 -0.16725663597E+03 -0.25252515187E+03  0.30303263576E+03  0.47000000000E+01 0.  1.
<mgrwt>
<rscale>  0 0.44233372E+03</rscale>
<asrwt>0</asrwt>
<pdfrwt beam="1">  1       21 0.15207402E-01 0.44233372E+03</pdfrwt>
<pdfrwt beam="2">  1       21 0.76130444E-01 0.44233372E+03</pdfrwt>
<totfact> 0.54255223E+04</totfact>
</mgrwt>
</event>
<event>
 8    1  0.9691636E-006  0.2631261E+03  0.7546771E-02  0.1105279E+00
         21   -1    0    0  504  503  0.00000000000E+00  0.00000000000E+00  0.25655672642E+03  0.25655672642E+03  0.00000000000E+00 0. -1.
         21   -1    0    0  503  504 -0.00000000000E+00 -0.00000000000E+00 -0.67465941030E+02  0.67465941030E+02  0.00000000000E+00 0. -1.
         25    2    1    2    0    0  0.39378380826E+02 -0.90226862482E+01  0.85521960314E+02  0.15674331489E+03  0.12498958086E+03 0.  0.
         25    2    1    2    0    0 -0.39378380826E+02  0.90226862482E+01  0.10356882507E+03  0.16727935255E+03  0.12499525799E+03 0.  0.
          5    1    3    3  501    0  0.24528105035E+02 -0.18492741495E+02  0.11662376343E+03  0.12069300568E+03  0.47000000000E+01 0. -1.
         -5    1    3    3    0  501  0.14850275791E+02  0.94700552464E+01 -0.31101803113E+02  0.36050309213E+02  0.47000000000E+01 0. -1.
          5    1    4    4  502    0  0.20672700253E+02  0.48710394391E+02  0.69572079599E+02  0.87535291839E+02  0.47000000000E+01 0. -1.
         -5    1    4    4    0  502 -0.60051081079E+02 -0.39687708143E+02  0.33996745473E+02  0.79744060714E+02  0.47000000000E+01 0. -1.
<mgrwt>
<rscale>  0 0.26312614E+03</rscale>
<asrwt>0</asrwt>
<pdfrwt beam="1">  1       21 0.39470265E-01 0.26312614E+03</pdfrwt>
<pdfrwt beam="2">  1       21 0.10379376E-01 0.26312614E+03</pdfrwt>
<totfact> 0.46342630E+05</totfact>
</mgrwt>
</event>
<event>
 8    1  0.9691636E-006  0.2721340E+03  0.7546771E-02  0.1100064E+00
         21   -1    0    0  504  503  0.00000000000E+00  0.00000000000E+00  0.25609838647E+02  0.25609838647E+02  0.00000000000E+00 0. -1.
         21   -1    0    0  503  504 -0.00000000000E+00 -0.00000000000E+00 -0.72293424710E+03  0.72293424710E+03  0.00000000000E+00 0. -1.
         25    2    1    2    0    0 -0.22744332558E+02  0.54627501140E+01 -0.48186338903E+03  0.49835323146E+03  0.12496588059E+03 0.  0.
         25    2    1    2    0    0  0.22744332558E+02 -0.54627501140E+01 -0.21546101942E+03  0.25019085429E+03  0.12499946551E+03 0.  0.
          5    1    3    3  501    0 -0.51801382019E+02  0.30218680993E+02 -0.11786359639E+03  0.13232712955E+03  0.47000000000E+01 0.  1.
         -5    1    3    3    0  501  0.29057049461E+02 -0.24755930879E+02 -0.36399979264E+03  0.36602610191E+03  0.47000000000E+01 0.  1.
          5    1    4    4  502    0  0.51726825228E+02 -0.45604050398E+02 -0.79103490668E+02  0.10504687571E+03  0.47000000000E+01 0.  1.
         -5    1    4    4    0  502 -0.28982492670E+02  0.40141300284E+02 -0.13635752875E+03  0.14514397858E+03  0.47000000000E+01 0.  1.
<mgrwt>
<rscale>  0 0.27213401E+03</rscale>
<asrwt>0</asrwt>
<pdfrwt beam="1">  1       21 0.39399758E-02 0.27213401E+03</pdfrwt>
<pdfrwt beam="2">  1       21 0.11122064E+00 0.27213401E+03</pdfrwt>
<totfact> 0.24947318E+05</totfact>
</mgrwt>
</event>
<event>
 8    1  0.9691636E-006  0.2754979E+03  0.7546771E-02  0.1098174E+00
         21   -1    0    0  504  503  0.00000000000E+00  0.00000000000E+00  0.20131358803E+03  0.20131358803E+03  0.00000000000E+00 0.  1.
         21   -1    0    0  503  504 -0.00000000000E+00 -0.00000000000E+00 -0.94254773922E+02  0.94254773922E+02  0.00000000000E+00 0.  1.
         25    2    1    2    0    0 -0.16350806782E+02 -0.54203041704E+02  0.40598290410E+02  0.14309977018E+03  0.12499601765E+03 0.  0.
         25    2    1    2    0    0  0.16350806782E+02  0.54203041704E+02  0.66460523702E+02  0.15246859178E+03  0.12499740660E+03 0.  0.
          5    1    3    3  501    0 -0.29212677979E+02  0.17462696827E+02  0.58618448983E+02  0.67945116795E+02  0.47000000000E+01 0. -1.
         -5    1    3    3    0  501  0.12861871197E+02 -0.71665738530E+02 -0.18020158572E+02  0.75154653381E+02  0.47000000000E+01 0. -1.
          5    1    4    4  502    0 -0.40271398769E+02 -0.11442383671E+02 -0.15898316732E+01  0.42158406844E+02  0.47000000000E+01 0. -1.
         -5    1    4    4    0  502  0.56622205551E+02  0.65645425375E+02  0.68050355375E+02  0.11031018494E+03  0.47000000000E+01 0. -1.
<mgrwt>
<rscale>  0 0.27549785E+03</rscale>
<asrwt>0</asrwt>
<pdfrwt beam="1">  1       21 0.30971321E-01 0.27549785E+03</pdfrwt>
<pdfrwt beam="2">  1       21 0.14500734E-01 0.27549785E+03</pdfrwt>
<totfact> 0.41059914E+05</totfact>
</mgrwt>
</event>
<event>
 8    1  0.9691636E-006  0.3159348E+03  0.7546771E-02  0.1077536E+00
         21   -1    0    0  504  503  0.00000000000E+00  0.00000000000E+00  0.25987514748E+04  0.25987514748E+04  0.00000000000E+00 0. -1.
         21   -1    0    0  503  504 -0.00000000000E+00 -0.00000000000E+00 -0.96021878342E+01  0.96021878342E+01  0.00000000000E+00 0. -1.
         25    2    1    2    0    0  0.72406450588E+00 -0.65164140521E+02  0.18827411641E+04  0.18880116829E+04  0.12500773791E+03 0.  0.
         25    2    1    2    0    0 -0.72406450588E+00  0.65164140521E+02  0.70640812295E+03  0.72034197975E+03  0.12503296424E+03 0.  0.
          5    1    3    3  501    0 -0.44689241149E+01  0.37332587514E+02  0.56821522291E+03  0.56947723652E+03  0.47000000000E+01 0.  1.
         -5    1    3    3    0  501  0.51929886208E+01 -0.10249672803E+03  0.13145259411E+04  0.13185344464E+04  0.47000000000E+01 0.  1.
          5    1    4    4  502    0 -0.50480160081E+02  0.61284581005E+01  0.43934524622E+03  0.44230322171E+03  0.47000000000E+01 0.  1.
         -5    1    4    4    0  502  0.49756095575E+02  0.59035682420E+02  0.26706287673E+03  0.27803875804E+03  0.47000000000E+01 0.  1.
<mgrwt>
<rscale>  0 0.31593480E+03</rscale>
<asrwt>0</asrwt>
<pdfrwt beam="1">  1       21 0.39980736E+00 0.31593480E+03</pdfrwt>
<pdfrwt beam="2">  1       21 0.14772617E-02 0.31593480E+03</pdfrwt>
<totfact> 0.15632170E+04</totfact>
</mgrwt>
</event>
<event>
 8    1  0.9691636E-006  0.2800990E+03  0.7546771E-02  0.1095635E+00
         21   -1    0    0  504  503  0.00000000000E+00  0.00000000000E+00  0.64816377875E+02  0.64816377875E+02  0.00000000000E+00 0. -1.
         21   -1    0    0  503  504 -0.00000000000E+00 -0.00000000000E+00 -0.30260663306E+03  0.30260663306E+03  0.00000000000E+00 0. -1.
         25    2    1    2    0    0 -0.56148879988E+02 -0.25007648250E+02 -0.13794962563E+03  0.19604235147E+03  0.12499770064E+03 0.  0.
         25    2    1    2    0    0  0.56148879988E+02  0.25007648250E+02 -0.99840629561E+02  0.17138065946E+03  0.12500039973E+03 0.  0.
          5    1    3    3  501    0 -0.54639929551E+02  0.43689227398E+02 -0.76040963868E+02  0.10343398222E+03  0.47000000000E+01 0. -1.
         -5    1    3    3    0  501 -0.15089504365E+01 -0.68696875648E+02 -0.61908661758E+02  0.92608369254E+02  0.47000000000E+01 0. -1.
          5    1    4    4  502    0  0.16544077575E+01 -0.50789828707E+01  0.28119307204E+02  0.29005492061E+02  0.47000000000E+01 0.  1.
         -5    1    4    4    0  502  0.54494472230E+02  0.30086631121E+02 -0.12795993676E+03  0.14237516740E+03  0.47000000000E+01 0.  1.
<mgrwt>
<rscale>  0 0.28009902E+03</rscale>
<asrwt>0</asrwt>
<pdfrwt beam="1">  1       21 0.99717506E-02 0.28009902E+03</pdfrwt>
<pdfrwt beam="2">  1       21 0.46554866E-01 0.28009902E+03</pdfrwt>
<totfact> 0.35328808E+05</totfact>
</mgrwt>
</event>
<event>
 8    1  0.9691636E-006  0.3001196E+03  0.7546771E-02  0.1085181E+00
         21   -1    0    0  504  503  0.00000000000E+00  0.00000000000E+00  0.28581654216E+02  0.28581654216E+02  0.00000000000E+00 0. -1.
         21   -1    0    0  503  504 -0.00000000000E+00 -0.00000000000E+00 -0.78784618614E+03  0.78784618614E+03  0.00000000000E+00 0. -1.
         25    2    1    2    0    0 -0.48326670601E+02  0.18721325204E+02 -0.20318641120E+03  0.24412038557E+03  0.12499635931E+03 0.  0.
         25    2    1    2    0    0  0.48326670601E+02 -0.18721325204E+02 -0.55607812072E+03  0.57230745480E+03  0.12500796518E+03 0.  0.
          5    1    3    3  501    0 -0.21711448171E+02 -0.51850536712E+02 -0.60898300189E+02  0.83009385643E+02  0.47000000000E+01 0. -1.
         -5    1    3    3    0  501 -0.26615222430E+02  0.70571861916E+02 -0.14228811102E+03  0.16111099992E+03  0.47000000000E+01 0. -1.
          5    1    4    4  502    0  0.12416749488E+02 -0.65985726517E+02 -0.19349315723E+03  0.20486576988E+03  0.47000000000E+01 0. -1.
         -5    1    4    4    0  502  0.35909921113E+02  0.47264401313E+02 -0.36258496349E+03  0.36744168492E+03  0.47000000000E+01 0. -1.
<mgrwt>
<rscale>  0 0.30011962E+03</rscale>
<asrwt>0</asrwt>
<pdfrwt beam="1">  1       21 0.43971778E-02 0.30011962E+03</pdfrwt>
<pdfrwt beam="2">  1       21 0.12120710E+00 0.30011962E+03</pdfrwt>
<totfact> 0.16611070E+05</totfact>
</mgrwt>
</event>
<event>
 8    1  0.9691636E-006  0.3173180E+03  0.7546771E-02  0.1076890E+00
         21   -1    0    0  504  503  0.00000000000E+00  0.00000000000E+00  0.56735663788E+02  0.56735663788E+02  0.00000000000E+00 0. -1.
         21   -1    0    0  503  504 -0.00000000000E+00 -0.00000000000E+00 -0.44368355672E+03  0.44368355672E+03  0.00000000000E+00 0. -1.
         25    2    1    2    0    0  0.32205539299E+02  0.59635268834E+02 -0.82475189627E+02  0.16438132481E+03  0.12500200395E+03 0.  0.
         25    2    1    2    0    0 -0.32205539299E+02 -0.59635268834E+02 -0.30447270331E+03  0.33603789570E+03  0.12499711292E+03 0.  0.
          5    1    3    3  501    0  0.50764966609E+02  0.26461841300E+02  0.15239896340E+02  0.59427731912E+02  0.47000000000E+01 0.  1.
         -5    1    3    3    0  501 -0.18559427310E+02  0.33173427534E+02 -0.97715085967E+02  0.10495359290E+03  0.47000000000E+01 0.  1.
          5    1    4    4  502    0  0.86442068908E+01 -0.64111292895E+02 -0.60876854660E+02  0.88955391195E+02  0.47000000000E+01 0. -1.
         -5    1    4    4    0  502 -0.40849746189E+02  0.44760240607E+01 -0.24359584865E+03  0.24708250451E+03  0.47000000000E+01 0. -1.
<mgrwt>
<rscale>  0 0.31731802E+03</rscale>
<asrwt>0</asrwt>
<pdfrwt beam="1">  1       21 0.87285639E-02 0.31731802E+03</pdfrwt>
<pdfrwt beam="2">  1       21 0.68259007E-01 0.31731802E+03</pdfrwt>
<totfact> 0.19507112E+05</totfact>
</mgrwt>
</event>
<event>
 8    1  0.9691636E-006  0.5001195E+03  0.7546771E-02  0.1013748E+00
         21   -1    0    0  504  503  0.00000000000E+00  0.00000000000E+00  0.35758327242E+02  0.35758327242E+02  0.00000000000E+00 0. -1.
         21   -1    0    0  503  504 -0.00000000000E+00 -0.00000000000E+00 -0.17486800791E+04  0.17486800791E+04  0.00000000000E+00 0. -1.
         25    2    1    2    0    0  0.36251410123E+02  0.18195998672E+03 -0.45784750607E+03  0.50958143512E+03  0.12500119481E+03 0.  0.
         25    2    1    2    0    0 -0.36251410123E+02 -0.18195998672E+03 -0.12550742458E+04  0.12748569713E+04  0.12500133252E+03 0.  0.
          5    1    3    3  501    0  0.39047104573E+02  0.60861477988E+02 -0.61281352225E+02  0.94901475273E+02  0.47000000000E+01 0. -1.
         -5    1    3    3    0  501 -0.27956944504E+01  0.12109850873E+03 -0.39656615385E+03  0.41467995985E+03  0.47000000000E+01 0. -1.
          5    1    4    4  502    0 -0.42409188590E+02 -0.13729605149E+03 -0.11667929622E+04  0.11756175619E+04  0.47000000000E+01 0. -1.
         -5    1    4    4    0  502  0.61577784664E+01 -0.44663935229E+02 -0.88281283601E+02  0.99239409410E+02  0.47000000000E+01 0. -1.
<mgrwt>
<rscale>  0 0.50011948E+03</rscale>
<asrwt>0</asrwt>
<pdfrwt beam="1">  1       21 0.55012807E-02 0.50011948E+03</pdfrwt>
<pdfrwt beam="2">  1       21 0.26902772E+00 0.50011948E+03</pdfrwt>
<totfact> 0.98244252E+03</totfact>
</mgrwt>
</event>
<event>
 8    1  0.9691636E-006  0.3947305E+03  0.7546771E-02  0.1045620E+00
         21   -1    0    0  504  503  0.00000000000E+00  0.00000000000E+00  0.88892962295E+02  0.88892962295E+02  0.00000000000E+00 0.  1.
         21   -1    0    0  503  504 -0.00000000000E+00 -0.00000000000E+00 -0.43820157153E+03  0.43820157153E+03  0.00000000000E+00 0.  1.
         25    2    1    2    0    0  0.45880836229E+02 -0.71122107621E+02 -0.34443029450E+03  0.37605927990E+03  0.12499979561E+03 0.  0.
         25    2    1    2    0    0 -0.45880836229E+02  0.71122107621E+02 -0.48783147326E+01  0.15103525393E+03  0.12499777857E+03 0.  0.
          5    1    3    3  501    0  0.33216264662E+02  0.26932291629E+02 -0.52903523401E+02  0.68187545481E+02  0.47000000000E+01 0.  1.
         -5    1    3    3    0  501  0.12664571567E+02 -0.98054399249E+02 -0.29152677110E+03  0.30787173442E+03  0.47000000000E+01 0.  1.
          5    1    4    4  502    0 -0.41068093296E+02  0.79898062834E+02  0.44550374396E+02  0.10038483247E+03  0.47000000000E+01 0.  1.
         -5    1    4    4    0  502 -0.48127429329E+01 -0.87759552135E+01 -0.49428689129E+02  0.50650421454E+02  0.47000000000E+01 0.  1.
<mgrwt>
<rscale>  0 0.39473047E+03</rscale>
<asrwt>0</asrwt>
<pdfrwt beam="1">  1       21 0.13675840E-01 0.39473047E+03</pdfrwt>
<pdfrwt beam="2">  1       21 0.67415626E-01 0.39473047E+03</pdfrwt>
<totfact> 0.87771233E+04</totfact>
</mgrwt>
</event>
<event>
 8    1  0.9691636E-006  0.3422482E+03  0.7546771E-02  0.1065842E+00
         21   -1    0    0  504  503  0.00000000000E+00  0.00000000000E+00  0.47691354844E+02  0.47691354844E+02  0.00000000000E+00 0.  1.
         21   -1    0    0  503  504 -0.00000000000E+00 -0.00000000000E+00 -0.61402029147E+03  0.61402029147E+03  0.00000000000E+00 0.  1.
         25    2    1    2    0    0 -0.46364890973E+02  0.39699769506E+02 -0.90472118940E+02  0.16593991939E+03  0.12500031091E+03 0.  0.
         25    2    1    2    0    0  0.46364890973E+02 -0.39699769506E+02 -0.47585681768E+03  0.49577172693E+03  0.12499647783E+03 0.  0.
          5    1    3    3  501    0 -0.89371670565E+02  0.20819441875E+02 -0.58456335419E+02  0.10890352524E+03  0.47000000000E+01 0. -1.
         -5    1    3    3    0  501  0.43006779593E+02  0.18880327631E+02 -0.32015783521E+02  0.57036394143E+02  0.47000000000E+01 0. -1.
          5    1    4    4  502    0 -0.62212567301E+01 -0.70697423382E+02 -0.17793046153E+03  0.19161985505E+03  0.47000000000E+01 0. -1.
         -5    1    4    4    0  502  0.52586147703E+02  0.30997653876E+02 -0.29792635616E+03  0.30415187188E+03  0.47000000000E+01 0. -1.
<mgrwt>
<rscale>  0 0.34224821E+03</rscale>
<asrwt>0</asrwt>
<pdfrwt beam="1">  1       21 0.73371314E-02 0.34224821E+03</pdfrwt>
<pdfrwt beam="2">  1       21 0.94464661E-01 0.34224821E+03</pdfrwt>
<totfact> 0.12487768E+05</totfact>
</mgrwt>
</event>
<event>
 8    1  0.9691636E-006  0.2534381E+03  0.7546771E-02  0.1111151E+00
         21   -1    0    0  504  503  0.00000000000E+00  0.00000000000E+00  0.46731115850E+02  0.46731115850E+02  0.00000000000E+00 0.  1.
         21   -1    0    0  503  504 -0.00000000000E+00 -0.00000000000E+00 -0.34361928560E+03  0.34361928560E+03  0.00000000000E+00 0.  1.
         25    2    1    2    0    0  0.19564034085E+02  0.50939492970E+01 -0.14076502061E+03  0.18933719860E+03  0.12500033599E+03 0.  0.
         25    2    1    2    0    0 -0.19564034085E+02 -0.50939492970E+01 -0.15612314914E+03  0.20101320285E+03  0.12499268088E+03 0.  0.
          5    1    3    3  501    0  0.17896006954E+02 -0.24007313561E+02 -0.15401910857E+03  0.15697322693E+03  0.47000000000E+01 0.  1.
         -5    1    3    3    0  501  0.16680271315E+01  0.29101262858E+02  0.13254087958E+02  0.32363971667E+02  0.47000000000E+01 0.  1.
          5    1    4    4  502    0  0.10346829201E+02 -0.60293856718E+02 -0.58010731330E+02  0.84437793564E+02  0.47000000000E+01 0.  1.
         -5    1    4    4    0  502 -0.29910863286E+02  0.55199907421E+02 -0.98112417810E+02  0.11657540929E+03  0.47000000000E+01 0.  1.
<mgrwt>
<rscale>  0 0.25343806E+03</rscale>
<asrwt>0</asrwt>
<pdfrwt beam="1">  1       21 0.71894026E-02 0.25343806E+03</pdfrwt>
<pdfrwt beam="2">  1       21 0.52864504E-01 0.25343806E+03</pdfrwt>
<totfact> 0.48364496E+05</totfact>
</mgrwt>
</event>
<event>
 8    1  0.9691636E-006  0.2843239E+03  0.7546771E-02  0.1093351E+00
         21   -1    0    0  504  503  0.00000000000E+00  0.00000000000E+00  0.14318897051E+02  0.14318897051E+02  0.00000000000E+00 0. -1.
         21   -1    0    0  503  504 -0.00000000000E+00 -0.00000000000E+00 -0.14114224765E+04  0.14114224765E+04  0.00000000000E+00 0. -1.
         25    2    1    2    0    0  0.62256916295E+02  0.25478616701E+02 -0.73685862588E+03  0.75040702519E+03  0.12499994156E+03 0.  0.
         25    2    1    2    0    0 -0.62256916295E+02 -0.25478616701E+02 -0.66024495358E+03  0.67533434837E+03  0.12501199872E+03 0.  0.
          5    1    3    3  501    0  0.98304212752E+02  0.22564418965E+02 -0.61411591076E+03  0.62236107935E+03  0.47000000000E+01 0.  1.
         -5    1    3    3    0  501 -0.36047296457E+02  0.29141977358E+01 -0.12274271512E+03  0.12804594584E+03  0.47000000000E+01 0.  1.
          5    1    4    4  502    0 -0.21559462692E+02 -0.50885657731E+02 -0.57282420512E+03  0.57550310214E+03  0.47000000000E+01 0.  1.
         -5    1    4    4    0  502 -0.40697453604E+02  0.25407041029E+02 -0.87420748457E+02  0.99831246233E+02  0.47000000000E+01 0.  1.
<mgrwt>
<rscale>  0 0.28432385E+03</rscale>
<asrwt>0</asrwt>
<pdfrwt beam="1">  1       21 0.22029066E-02 0.28432385E+03</pdfrwt>
<pdfrwt beam="2">  1       21 0.21714198E+00 0.28432385E+03</pdfrwt>
<totfact> 0.10500479E+05</totfact>
</mgrwt>
</event>
<event>
 8    1  0.9691636E-006  0.2557310E+03  0.7546771E-02  0.1109736E+00
         21   -1    0    0  504  503  0.00000000000E+00  0.00000000000E+00  0.12228499978E+03  0.12228499978E+03  0.00000000000E+00 0.  1.
         21   -1    0    0  503  504 -0.00000000000E+00 -0.00000000000E+00 -0.13370068239E+03  0.13370068239E+03  0.00000000000E+00 0.  1.
         25    2    1    2    0    0  0.69327643241E+01 -0.15845235839E+02  0.14949858993E+02  0.12707529317E+03  0.12500198850E+03 0.  0.
         25    2    1    2    0    0 -0.69327643241E+01  0.15845235839E+02 -0.26365541597E+02  0.12891038901E+03  0.12499444744E+03 0.  0.
          5    1    3    3  501    0  0.41807508884E+02  0.12099196606E+02  0.52612862151E+02  0.68443126911E+02  0.47000000000E+01 0.  1.
         -5    1    3    3    0  501 -0.34874744560E+02 -0.27944432446E+02 -0.37663003158E+02  0.58632166255E+02  0.47000000000E+01 0.  1.
          5    1    4    4  502    0 -0.46639727594E+02  0.38520056838E+02  0.19742845702E+02  0.63803831588E+02  0.47000000000E+01 0. -1.
         -5    1    4    4    0  502  0.39706963270E+02 -0.22674820999E+02 -0.46108387300E+02  0.65106557418E+02  0.47000000000E+01 0. -1.
<mgrwt>
<rscale>  0 0.25573101E+03</rscale>
<asrwt>0</asrwt>
<pdfrwt beam="1">  1       21 0.18813077E-01 0.25573101E+03</pdfrwt>
<pdfrwt beam="2">  1       21 0.20569336E-01 0.25573101E+03</pdfrwt>
<totfact> 0.56014968E+05</totfact>
</mgrwt>
</event>
<event>
 8    1  0.9691636E-006  0.3046051E+03  0.7546771E-02  0.1082961E+00
         21   -1    0    0  504  503  0.00000000000E+00  0.00000000000E+00  0.98045427064E+02  0.98045427064E+02  0.00000000000E+00 0. -1.
         21   -1    0    0  503  504 -0.00000000000E+00 -0.00000000000E+00 -0.23658486220E+03  0.23658486220E+03  0.00000000000E+00 0. -1.
         25    2    1    2    0    0 -0.23550289271E+02  0.76016174601E+02 -0.10795640291E+03  0.18333956551E+03  0.12500294567E+03 0.  0.
         25    2    1    2    0    0  0.23550289271E+02 -0.76016174601E+02 -0.30583032222E+02  0.15129072375E+03  0.12498194393E+03 0.  0.
          5    1    3    3  501    0 -0.55645310904E+02  0.25463962882E+02 -0.18389970863E+01  0.61402654190E+02  0.47000000000E+01 0.  1.
         -5    1    3    3    0  501  0.32095021633E+02  0.50552211719E+02 -0.10611740583E+03  0.12193691132E+03  0.47000000000E+01 0.  1.
          5    1    4    4  502    0 -0.36115920510E+02 -0.41960376365E+02  0.26768628851E+02  0.61674000920E+02  0.47000000000E+01 0.  1.
         -5    1    4    4    0  502  0.59666209781E+02 -0.34055798236E+02 -0.57351661073E+02  0.89616722831E+02  0.47000000000E+01 0.  1.
<mgrwt>
<rscale>  0 0.30460508E+03</rscale>
<asrwt>0</asrwt>
<pdfrwt beam="1">  1       21 0.15083912E-01 0.30460508E+03</pdfrwt>
<pdfrwt beam="2">  1       21 0.36397671E-01 0.30460508E+03</pdfrwt>
<totfact> 0.27526155E+05</totfact>
</mgrwt>
</event>
<event>
 8    1  0.9691636E-006  0.3014715E+03  0.7546771E-02  0.1084507E+00
         21   -1    0    0  504  503  0.00000000000E+00  0.00000000000E+00  0.52979646856E+02  0.52979646856E+02  0.00000000000E+00 0. -1.
         21   -1    0    0  503  504 -0.00000000000E+00 -0.00000000000E+00 -0.42886777854E+03  0.42886777854E+03  0.00000000000E+00 0. -1.
         25    2    1    2    0    0  0.17418952087E+02 -0.22042405257E+02 -0.61015738446E+02  0.14190791518E+03  0.12500259410E+03 0.  0.
         25    2    1    2    0    0 -0.17418952087E+02  0.22042405257E+02 -0.31487239324E+03  0.33993951022E+03  0.12499983623E+03 0.  0.
          5    1    3    3  501    0  0.69212833930E+02 -0.20298566055E+02 -0.52131086153E+02  0.89118955941E+02  0.47000000000E+01 0. -1.
         -5    1    3    3    0  501 -0.51793881843E+02 -0.17438392020E+01 -0.88846522924E+01  0.52788959243E+02  0.47000000000E+01 0. -1.
          5    1    4    4  502    0 -0.44240880293E+02 -0.22912227849E+00 -0.31792985522E+02  0.54682647289E+02  0.47000000000E+01 0.  1.
         -5    1    4    4    0  502  0.26821928206E+02  0.22271527536E+02 -0.28307940772E+03  0.28525686293E+03  0.47000000000E+01 0.  1.
<mgrwt>
<rscale>  0 0.30147148E+03</rscale>
<asrwt>0</asrwt>
<pdfrwt beam="1">  1       21 0.81507148E-02 0.30147148E+03</pdfrwt>
<pdfrwt beam="2">  1       21 0.65979659E-01 0.30147148E+03</pdfrwt>
<totfact> 0.23816059E+05</totfact>
</mgrwt>
</event>
<event>
 8    1  0.9691636E-006  0.3351306E+03  0.7546771E-02  0.1068889E+00
         21   -1    0    0  504  503  0.00000000000E+00  0.00000000000E+00  0.36449767680E+03  0.36449767680E+03  0.00000000000E+00 0. -1.
         21   -1    0    0  503  504 -0.00000000000E+00 -0.00000000000E+00 -0.77032396398E+02  0.77032396398E+02  0.00000000000E+00 0. -1.
         25    2    1    2    0    0 -0.57324351495E+02 -0.62310914979E+02  0.23950632991E+03  0.28311994426E+03  0.12499955749E+03 0.  0.
         25    2    1    2    0    0  0.57324351495E+02  0.62310914979E+02  0.47958950498E+02  0.15841012894E+03  0.12499990647E+03 0.  0.
          5    1    3    3  501    0 -0.14203879380E+02  0.85444435364E+01 -0.10154674377E+02  0.19999127893E+02  0.47000000000E+01 0. -1.
         -5    1    3    3    0  501 -0.43120472115E+02 -0.70855358515E+02  0.24966100428E+03  0.26312081637E+03  0.47000000000E+01 0. -1.
          5    1    4    4  502    0 -0.36202942397E+02  0.22762802800E+02 -0.58089801134E+01  0.43412353996E+02  0.47000000000E+01 0. -1.
         -5    1    4    4    0  502  0.93527293892E+02  0.39548112179E+02  0.53767930611E+02  0.11499777494E+03  0.47000000000E+01 0. -1.
<mgrwt>
<rscale>  0 0.33513060E+03</rscale>
<asrwt>0</asrwt>
<pdfrwt beam="1">  1       21 0.56076565E-01 0.33513060E+03</pdfrwt>
<pdfrwt beam="2">  1       21 0.11851138E-01 0.33513060E+03</pdfrwt>
<totfact> 0.17280583E+05</totfact>
</mgrwt>
</event>
<event>
 8    1  0.9691636E-006  0.2717565E+03  0.7546771E-02  0.1100279E+00
         21   -1    0    0  504  503  0.00000000000E+00  0.00000000000E+00  0.27206081307E+03  0.27206081307E+03  0.00000000000E+00 0. -1.
         21   -1    0    0  503  504 -0.00000000000E+00 -0.00000000000E+00 -0.67863134737E+02  0.67863134737E+02  0.00000000000E+00 0. -1.
         25    2    1    2    0    0 -0.23141760544E+02  0.12230052186E+02  0.16014859794E+03  0.20483610139E+03  0.12500055901E+03 0.  0.
         25    2    1    2    0    0  0.23141760544E+02 -0.12230052186E+02  0.44049080391E+02  0.13508784642E+03  0.12499315785E+03 0.  0.
          5    1    3    3  501    0 -0.33661882184E+02 -0.39467831724E+02  0.13785979377E+03  0.14737111247E+03  0.47000000000E+01 0.  1.
         -5    1    3    3    0  501  0.10520121640E+02  0.51697883910E+02  0.22288804177E+02  0.57464988921E+02  0.47000000000E+01 0.  1.
          5    1    4    4  502    0 -0.24037035029E+02 -0.57212004346E+02  0.18621143566E+02  0.64960214608E+02  0.47000000000E+01 0. -1.
         -5    1    4    4    0  502  0.47178795573E+02  0.44981952160E+02  0.25427936825E+02  0.70127631808E+02  0.47000000000E+01 0. -1.
<mgrwt>
<rscale>  0 0.27175651E+03</rscale>
<asrwt>0</asrwt>
<pdfrwt beam="1">  1       21 0.41855509E-01 0.27175651E+03</pdfrwt>
<pdfrwt beam="2">  1       21 0.10440482E-01 0.27175651E+03</pdfrwt>
<totfact> 0.40618731E+05</totfact>
</mgrwt>
</event>
<event>
 8    1  0.9691636E-006  0.3190170E+03  0.7546771E-02  0.1076103E+00
         21   -1    0    0  504  503  0.00000000000E+00  0.00000000000E+00  0.42890403196E+03  0.42890403196E+03  0.00000000000E+00 0. -1.
         21   -1    0    0  503  504 -0.00000000000E+00 -0.00000000000E+00 -0.59320881480E+02  0.59320881480E+02  0.00000000000E+00 0. -1.
         25    2    1    2    0    0 -0.42466104997E+02  0.39930472185E+02  0.62216760875E+02  0.15131255476E+03  0.12500700465E+03 0.  0.
         25    2    1    2    0    0  0.42466104997E+02 -0.39930472185E+02  0.30736638960E+03  0.33691235868E+03  0.12505209830E+03 0.  0.
          5    1    3    3  501    0 -0.73567531866E+02  0.61168487618E+02  0.60549125721E+02  0.11332277903E+03  0.47000000000E+01 0.  1.
         -5    1    3    3    0  501  0.31101426869E+02 -0.21238015432E+02  0.16676351545E+01  0.37989775727E+02  0.47000000000E+01 0.  1.
          5    1    4    4  502    0  0.57166541711E+02 -0.75019440798E+02  0.17195666163E+03  0.19618132803E+03  0.47000000000E+01 0.  1.
         -5    1    4    4    0  502 -0.14700436714E+02  0.35088968612E+02  0.13540972797E+03  0.14073103064E+03  0.47000000000E+01 0.  1.
<mgrwt>
<rscale>  0 0.31901702E+03</rscale>
<asrwt>0</asrwt>
<pdfrwt beam="1">  1       21 0.65985234E-01 0.31901702E+03</pdfrwt>
<pdfrwt beam="2">  1       21 0.91262897E-02 0.31901702E+03</pdfrwt>
<totfact> 0.19424101E+05</totfact>
</mgrwt>
</event>
<event>
 8    1  0.9691636E-006  0.2829062E+03  0.7546771E-02  0.1094112E+00
         21   -1    0    0  504  503  0.00000000000E+00  0.00000000000E+00  0.21154649069E+02  0.21154649069E+02  0.00000000000E+00 0. -1.
         21   -1    0    0  503  504 -0.00000000000E+00 -0.00000000000E+00 -0.94584321552E+03  0.94584321552E+03  0.00000000000E+00 0. -1.
         25    2    1    2    0    0 -0.63546046012E+02  0.18533248788E+02 -0.46871522567E+03  0.48959170612E+03  0.12499797857E+03 0.  0.
         25    2    1    2    0    0  0.63546046012E+02 -0.18533248788E+02 -0.45597334078E+03  0.47740615848E+03  0.12499348532E+03 0.  0.
          5    1    3    3  501    0 -0.82202714127E+02  0.32695465702E+02 -0.18763019671E+03  0.20749327798E+03  0.47000000000E+01 0.  1.
         -5    1    3    3    0  501  0.18656668115E+02 -0.14162216914E+02 -0.28108502896E+03  0.28209842814E+03  0.47000000000E+01 0.  1.
          5    1    4    4  502    0  0.74722376404E+02 -0.26773816266E+02 -0.13931717028E+03  0.16041083102E+03  0.47000000000E+01 0.  1.
         -5    1    4    4    0  502 -0.11176330392E+02  0.82405674772E+01 -0.31665617050E+03  0.31699532746E+03  0.47000000000E+01 0.  1.
<mgrwt>
<rscale>  0 0.28290621E+03</rscale>
<asrwt>0</asrwt>
<pdfrwt beam="1">  1       21 0.32545621E-02 0.28290621E+03</pdfrwt>
<pdfrwt beam="2">  1       21 0.14551431E+00 0.28290621E+03</pdfrwt>
<totfact> 0.17309104E+05</totfact>
</mgrwt>
</event>
<event>
 8    1  0.9691636E-006  0.3056707E+03  0.7546771E-02  0.1082440E+00
         21   -1    0    0  504  503  0.00000000000E+00  0.00000000000E+00  0.40616323167E+02  0.40616323167E+02  0.00000000000E+00 0. -1.
         21   -1    0    0  503  504 -0.00000000000E+00 -0.00000000000E+00 -0.57510496470E+03  0.57510496470E+03  0.00000000000E+00 0. -1.
         25    2    1    2    0    0 -0.35100405758E+01  0.42618790310E+02 -0.11245597398E+03  0.17349361246E+03  0.12500002324E+03 0.  0.
         25    2    1    2    0    0  0.35100405758E+01 -0.42618790310E+02 -0.42203266756E+03  0.44222767541E+03  0.12500025096E+03 0.  0.
          5    1    3    3  501    0 -0.69860450670E+01  0.81705381375E+02 -0.10494136251E+03  0.13326422527E+03  0.47000000000E+01 0. -1.
         -5    1    3    3    0  501  0.34760044913E+01 -0.39086591065E+02 -0.75146114690E+01  0.40229387192E+02  0.47000000000E+01 0. -1.
          5    1    4    4  502    0  0.63628138673E+02 -0.16287824178E+02 -0.19255281592E+03  0.20350063923E+03  0.47000000000E+01 0. -1.
         -5    1    4    4    0  502 -0.60118098097E+02 -0.26330966132E+02 -0.22947985164E+03  0.23872703618E+03  0.47000000000E+01 0. -1.
<mgrwt>
<rscale>  0 0.30567073E+03</rscale>
<asrwt>0</asrwt>
<pdfrwt beam="1">  1       21 0.62486652E-02 0.30567073E+03</pdfrwt>
<pdfrwt beam="2">  1       21 0.88477685E-01 0.30567073E+03</pdfrwt>
<totfact> 0.19449659E+05</totfact>
</mgrwt>
</event>
<event>
 8    1  0.9691636E-006  0.2731442E+03  0.7546771E-02  0.1099493E+00
         21   -1    0    0  504  503  0.00000000000E+00  0.00000000000E+00  0.61024480342E+03  0.61024480342E+03  0.00000000000E+00 0.  1.
         21   -1    0    0  503  504 -0.00000000000E+00 -0.00000000000E+00 -0.30564681975E+02  0.30564681975E+02  0.00000000000E+00 0.  1.
         25    2    1    2    0    0 -0.29135545349E+02  0.46379599245E+02  0.27676989572E+03  0.30857461093E+03  0.12496706808E+03 0.  0.
         25    2    1    2    0    0  0.29135545349E+02 -0.46379599245E+02  0.30291022572E+03  0.33223487446E+03  0.12500183892E+03 0.  0.
          5    1    3    3  501    0  0.77117709333E+01  0.44629474565E+02  0.26598621937E+03  0.26985555452E+03  0.47000000000E+01 0. -1.
         -5    1    3    3    0  501 -0.36847316283E+02  0.17501246806E+01  0.10783676350E+02  0.38719056410E+02  0.47000000000E+01 0. -1.
          5    1    4    4  502    0  0.53779760590E+02 -0.71953556368E+02  0.26599598680E+03  0.28079446561E+03  0.47000000000E+01 0. -1.
         -5    1    4    4    0  502 -0.24644215241E+02  0.25573957123E+02  0.36914238920E+02  0.51440408851E+02  0.47000000000E+01 0. -1.
<mgrwt>
<rscale>  0 0.27314420E+03</rscale>
<asrwt>0</asrwt>
<pdfrwt beam="1">  1       21 0.93883807E-01 0.27314420E+03</pdfrwt>
<pdfrwt beam="2">  1       21 0.47022592E-02 0.27314420E+03</pdfrwt>
<totfact> 0.27792114E+05</totfact>
</mgrwt>
</event>
<event>
 8    1  0.9691636E-006  0.2954762E+03  0.7546771E-02  0.1087524E+00
         21   -1    0    0  504  503  0.00000000000E+00  0.00000000000E+00  0.19202471590E+03  0.19202471590E+03  0.00000000000E+00 0. -1.
         21   -1    0    0  503  504 -0.00000000000E+00 -0.00000000000E+00 -0.11366528321E+03  0.11366528321E+03  0.00000000000E+00 0. -1.
         25    2    1    2    0    0 -0.58322932242E+02 -0.52873561276E+02  0.37137446227E+02  0.15232508209E+03  0.12500625110E+03 0.  0.
         25    2    1    2    0    0  0.58322932242E+02  0.52873561276E+02  0.41221986464E+02  0.15336491703E+03  0.12499747077E+03 0.  0.
          5    1    3    3  501    0  0.15258551718E+02 -0.67207448894E+02  0.12715567210E+01  0.69089589982E+02  0.47000000000E+01 0. -1.
         -5    1    3    3    0  501 -0.73581483959E+02  0.14333887618E+02  0.35865889505E+02  0.83235492105E+02  0.47000000000E+01 0. -1.
          5    1    4    4  502    0  0.90732328431E+02  0.55656017145E+02  0.83369439629E+01  0.10687161598E+03  0.47000000000E+01 0. -1.
         -5    1    4    4    0  502 -0.32409396190E+02 -0.27824558688E+01  0.32885042501E+02  0.46493301048E+02  0.47000000000E+01 0. -1.
<mgrwt>
<rscale>  0 0.29547618E+03</rscale>
<asrwt>0</asrwt>
<pdfrwt beam="1">  1       21 0.29542264E-01 0.29547618E+03</pdfrwt>
<pdfrwt beam="2">  1       21 0.17486967E-01 0.29547618E+03</pdfrwt>
<totfact> 0.31771071E+05</totfact>
</mgrwt>
</event>
<event>
 8    1  0.9691636E-006  0.2523909E+03  0.7546771E-02  0.1111803E+00
         21   -1    0    0  504  503  0.00000000000E+00  0.00000000000E+00  0.23816272357E+02  0.23816272357E+02  0.00000000000E+00 0. -1.
         21   -1    0    0  503  504 -0.00000000000E+00 -0.00000000000E+00 -0.66867253091E+03  0.66867253091E+03  0.00000000000E+00 0. -1.
         25    2    1    2    0    0 -0.12786335560E+02 -0.10509520044E+02 -0.30848008788E+03  0.33325457578E+03  0.12499882907E+03 0.  0.
         25    2    1    2    0    0  0.12786335560E+02  0.10509520044E+02 -0.33637617067E+03  0.35923422749E+03  0.12500544635E+03 0.  0.
          5    1    3    3  501    0  0.52509272248E+02  0.11363083209E+02 -0.17291578944E+03  0.18113062571E+03  0.47000000000E+01 0.  1.
         -5    1    3    3    0  501 -0.65295607808E+02 -0.21872603254E+02 -0.13556429844E+03  0.15212395007E+03  0.47000000000E+01 0.  1.
          5    1    4    4  502    0 -0.13276841848E+02  0.64428241840E+02 -0.18221137136E+03  0.19377911840E+03  0.47000000000E+01 0.  1.
         -5    1    4    4    0  502  0.26063177408E+02 -0.53918721796E+02 -0.15416479931E+03  0.16545510909E+03  0.47000000000E+01 0.  1.
<mgrwt>
<rscale>  0 0.25239086E+03</rscale>
<asrwt>0</asrwt>
<pdfrwt beam="1">  1       21 0.36640421E-02 0.25239086E+03</pdfrwt>
<pdfrwt beam="2">  1       21 0.10287269E+00 0.25239086E+03</pdfrwt>
<totfact> 0.34252667E+05</totfact>
</mgrwt>
</event>
<event>
 8    1  0.9691636E-006  0.3137031E+03  0.7546771E-02  0.1078584E+00
         21   -1    0    0  504  503  0.00000000000E+00  0.00000000000E+00  0.10984315653E+03  0.10984315653E+03  0.00000000000E+00 0. -1.
         21   -1    0    0  503  504 -0.00000000000E+00 -0.00000000000E+00 -0.22397755364E+03  0.22397755364E+03  0.00000000000E+00 0. -1.
         25    2    1    2    0    0 -0.36124426515E+02  0.75881562699E+02 -0.10507516600E+02  0.15099333546E+03  0.12500237478E+03 0.  0.
         25    2    1    2    0    0  0.36124426515E+02 -0.75881562699E+02 -0.10362688051E+03  0.18282737470E+03  0.12499733128E+03 0.  0.
          5    1    3    3  501    0 -0.35868099114E+02  0.43274271902E+01 -0.55462439585E+02  0.66358265234E+02  0.47000000000E+01 0.  1.
         -5    1    3    3    0  501 -0.25632740078E+00  0.71554135509E+02  0.44954922985E+02  0.84635070230E+02  0.47000000000E+01 0.  1.
          5    1    4    4  502    0  0.51879215026E+02 -0.91620345924E+02 -0.11615825274E+03  0.15684568983E+03  0.47000000000E+01 0. -1.
         -5    1    4    4    0  502 -0.15754788511E+02  0.15738783224E+02  0.12531372232E+02  0.25981684865E+02  0.47000000000E+01 0. -1.
<mgrwt>
<rscale>  0 0.31370305E+03</rscale>
<asrwt>0</asrwt>
<pdfrwt beam="1">  1       21 0.16898947E-01 0.31370305E+03</pdfrwt>
<pdfrwt beam="2">  1       21 0.34458085E-01 0.31370305E+03</pdfrwt>
<totfact> 0.24858841E+05</totfact>
</mgrwt>
</event>
<event>
 8    1  0.9691636E-006  0.2753889E+03  0.7546771E-02  0.1098234E+00
         21   -1    0    0  504  503  0.00000000000E+00  0.00000000000E+00  0.21332900164E+03  0.21332900164E+03  0.00000000000E+00 0. -1.
         21   -1    0    0  503  504 -0.00000000000E+00 -0.00000000000E+00 -0.88875660463E+02  0.88875660463E+02  0.00000000000E+00 0. -1.
         25    2    1    2    0    0 -0.26252547380E+02 -0.40038693814E+02  0.26784300101E+02  0.13650206371E+03  0.12499248545E+03 0.  0.
         25    2    1    2    0    0  0.26252547380E+02  0.40038693814E+02  0.97669041080E+02  0.16570259840E+03  0.12500326509E+03 0.  0.
          5    1    3    3  501    0 -0.30943852248E+02 -0.51607348151E+02  0.69325731008E+02  0.91918373326E+02  0.47000000000E+01 0.  1.
         -5    1    3    3    0  501  0.46913048677E+01  0.11568654337E+02 -0.42541430907E+02  0.44583690382E+02  0.47000000000E+01 0.  1.
          5    1    4    4  502    0 -0.23230860305E+02  0.31462283357E+02  0.10734338015E+03  0.11434264037E+03  0.47000000000E+01 0. -1.
         -5    1    4    4    0  502  0.49483407686E+02  0.85764104566E+01 -0.96743390683E+01  0.51359958031E+02  0.47000000000E+01 0. -1.
<mgrwt>
<rscale>  0 0.27538886E+03</rscale>
<asrwt>0</asrwt>
<pdfrwt beam="1">  1       21 0.32819846E-01 0.27538886E+03</pdfrwt>
<pdfrwt beam="2">  1       21 0.13673179E-01 0.27538886E+03</pdfrwt>
<totfact> 0.40757321E+05</totfact>
</mgrwt>
</event>
<event>
 8    1  0.9691636E-006  0.4671790E+03  0.7546771E-02  0.1022719E+00
         21   -1    0    0  504  503  0.00000000000E+00  0.00000000000E+00  0.45654935192E+03  0.45654935192E+03  0.00000000000E+00 0. -1.
         21   -1    0    0  503  504 -0.00000000000E+00 -0.00000000000E+00 -0.11951402801E+03  0.11951402801E+03  0.00000000000E+00 0. -1.
         25    2    1    2    0    0  0.56404594285E+02 -0.15575658893E+03  0.30073860324E+03  0.36538967748E+03  0.12499726267E+03 0.  0.
         25    2    1    2    0    0 -0.56404594285E+02  0.15575658893E+03  0.36296720670E+02  0.21067370246E+03  0.12499745487E+03 0.  0.
          5    1    3    3  501    0  0.30162774124E+02 -0.13613586399E+03  0.30156888314E+03  0.33227796750E+03  0.47000000000E+01 0.  1.
         -5    1    3    3    0  501  0.26241820161E+02 -0.19620724946E+02 -0.83027990262E+00  0.33111709975E+02  0.47000000000E+01 0.  1.
          5    1    4    4  502    0 -0.86419451881E+02  0.12009142822E+03 -0.51548573674E+01  0.14811797781E+03  0.47000000000E+01 0.  1.
         -5    1    4    4    0  502  0.30014857596E+02  0.35665160715E+02  0.41451578038E+02  0.62555724655E+02  0.47000000000E+01 0.  1.
<mgrwt>
<rscale>  0 0.46717899E+03</rscale>
<asrwt>0</asrwt>
<pdfrwt beam="1">  1       21 0.70238361E-01 0.46717899E+03</pdfrwt>
<pdfrwt beam="2">  1       21 0.18386774E-01 0.46717899E+03</pdfrwt>
<totfact> 0.45409568E+04</totfact>
</mgrwt>
</event>
<event>
 8    1  0.9691636E-006  0.2948927E+03  0.7546771E-02  0.1087822E+00
         21   -1    0    0  504  503  0.00000000000E+00  0.00000000000E+00  0.17627794372E+04  0.17627794372E+04  0.00000000000E+00 0.  1.
         21   -1    0    0  503  504 -0.00000000000E+00 -0.00000000000E+00 -0.12333038196E+02  0.12333038196E+02  0.00000000000E+00 0.  1.
         25    2    1    2    0    0 -0.22553470015E+02  0.11863341656E+02  0.43018839334E+03  0.44870609346E+03  0.12500282662E+03 0.  0.
         25    2    1    2    0    0  0.22553470015E+02 -0.11863341656E+02  0.13202580056E+04  0.13264063819E+04  0.12499316232E+03 0.  0.
          5    1    3    3  501    0  0.92357442850E+01 -0.26692483890E+02  0.36650182761E+03  0.36761864386E+03  0.47000000000E+01 0. -1.
         -5    1    3    3    0  501 -0.31789214300E+02  0.38555825546E+02  0.63686565725E+02  0.81087449603E+02  0.47000000000E+01 0. -1.
          5    1    4    4  502    0 -0.35989673465E+02 -0.31478803238E+02  0.93237834560E+03  0.93361536030E+03  0.47000000000E+01 0.  1.
         -5    1    4    4    0  502  0.58543143480E+02  0.19615461582E+02  0.38787966003E+03  0.39279102160E+03  0.47000000000E+01 0.  1.
<mgrwt>
<rscale>  0 0.29489270E+03</rscale>
<asrwt>0</asrwt>
<pdfrwt beam="1">  1       21 0.27119664E+00 0.29489270E+03</pdfrwt>
<pdfrwt beam="2">  1       21 0.18973919E-02 0.29489270E+03</pdfrwt>
<totfact> 0.62742353E+04</totfact>
</mgrwt>
</event>
<event>
 8    1  0.9691636E-006  0.3057507E+03  0.7546771E-02  0.1082401E+00
         21   -1    0    0  504  503  0.00000000000E+00  0.00000000000E+00  0.63901542285E+02  0.63901542285E+02  0.00000000000E+00 0.  1.
         21   -1    0    0  503  504 -0.00000000000E+00 -0.00000000000E+00 -0.36573258036E+03  0.36573258036E+03  0.00000000000E+00 0.  1.
         25    2    1    2    0    0 -0.46746046723E+02  0.45509752732E+02 -0.67920099249E+02  0.15651285843E+03  0.12500721776E+03 0.  0.
         25    2    1    2    0    0  0.46746046723E+02 -0.45509752732E+02 -0.23391093883E+03  0.27312126422E+03  0.12499826874E+03 0.  0.
          5    1    3    3  501    0 -0.89252349900E+02  0.39323060591E+02 -0.50416503399E+02  0.10989175980E+03  0.47000000000E+01 0. -1.
         -5    1    3    3    0  501  0.42506303177E+02  0.61866921404E+01 -0.17503595850E+02  0.46621098626E+02  0.47000000000E+01 0. -1.
          5    1    4    4  502    0  0.26842167341E+02 -0.86546755904E+02 -0.12088490514E+03  0.15114924147E+03  0.47000000000E+01 0. -1.
         -5    1    4    4    0  502  0.19903879382E+02  0.41037003172E+02 -0.11302603369E+03  0.12197202276E+03  0.47000000000E+01 0. -1.
<mgrwt>
<rscale>  0 0.30575072E+03</rscale>
<asrwt>0</asrwt>
<pdfrwt beam="1">  1       21 0.98310066E-02 0.30575072E+03</pdfrwt>
<pdfrwt beam="2">  1       21 0.56266550E-01 0.30575072E+03</pdfrwt>
<totfact> 0.24148104E+05</totfact>
</mgrwt>
</event>
<event>
 8    1  0.9691636E-006  0.2537553E+03  0.7546771E-02  0.1110954E+00
         21   -1    0    0  504  503  0.00000000000E+00  0.00000000000E+00  0.40729833122E+02  0.40729833122E+02  0.00000000000E+00 0. -1.
         21   -1    0    0  503  504 -0.00000000000E+00 -0.00000000000E+00 -0.39523712385E+03  0.39523712385E+03  0.00000000000E+00 0. -1.
         25    2    1    2    0    0  0.20143021291E+02 -0.15493436784E+00 -0.19143679511E+03  0.22951565518E+03  0.12499449643E+03 0.  0.
         25    2    1    2    0    0 -0.20143021291E+02  0.15493436784E+00 -0.16307049562E+03  0.20645130179E+03  0.12499755262E+03 0.  0.
          5    1    3    3  501    0  0.52832617762E+02  0.58164531687E+01 -0.18840775083E+03  0.19581799508E+03  0.47000000000E+01 0. -1.
         -5    1    3    3    0  501 -0.32689596472E+02 -0.59713875366E+01 -0.30290442869E+01  0.33697660095E+02  0.47000000000E+01 0. -1.
          5    1    4    4  502    0 -0.17566055324E+02 -0.25092099549E+02 -0.17520996347E+03  0.17792920238E+03  0.47000000000E+01 0. -1.
         -5    1    4    4    0  502 -0.25769659672E+01  0.25247033917E+02  0.12139467856E+02  0.28522099415E+02  0.47000000000E+01 0. -1.
<mgrwt>
<rscale>  0 0.25375533E+03</rscale>
<asrwt>0</asrwt>
<pdfrwt beam="1">  1       21 0.62661282E-02 0.25375533E+03</pdfrwt>
<pdfrwt beam="2">  1       21 0.60805711E-01 0.25375533E+03</pdfrwt>
<totfact> 0.45480275E+05</totfact>
</mgrwt>
</event>
<event>
 8    1  0.9691636E-006  0.3137441E+03  0.7546771E-02  0.1078565E+00
         21   -1    0    0  504  503  0.00000000000E+00  0.00000000000E+00  0.55395731142E+02  0.55395731142E+02  0.00000000000E+00 0. -1.
         21   -1    0    0  503  504 -0.00000000000E+00 -0.00000000000E+00 -0.44423708962E+03  0.44423708962E+03  0.00000000000E+00 0. -1.
         25    2    1    2    0    0  0.89039181938E+02  0.23380415009E+02 -0.15844076298E+03  0.22181724013E+03  0.12499917168E+03 0.  0.
         25    2    1    2    0    0 -0.89039181938E+02 -0.23380415009E+02 -0.23040059551E+03  0.27781558064E+03  0.12498977042E+03 0.  0.
          5    1    3    3  501    0  0.34440308639E+02 -0.32817511019E+02 -0.32613712018E+01  0.47915033453E+02  0.47000000000E+01 0.  1.
         -5    1    3    3    0  501  0.54598873299E+02  0.56197926027E+02 -0.15517939177E+03  0.17390220668E+03  0.47000000000E+01 0.  1.
          5    1    4    4  502    0  0.27634316468E+02  0.70998993139E+01 -0.79486190926E+02  0.84582554731E+02  0.47000000000E+01 0. -1.
         -5    1    4    4    0  502 -0.11667349841E+03 -0.30480314323E+02 -0.15091440458E+03  0.19323302591E+03  0.47000000000E+01 0. -1.
<mgrwt>
<rscale>  0 0.31374409E+03</rscale>
<asrwt>0</asrwt>
<pdfrwt beam="1">  1       21 0.85224203E-02 0.31374409E+03</pdfrwt>
<pdfrwt beam="2">  1       21 0.68344167E-01 0.31374409E+03</pdfrwt>
<totfact> 0.20308743E+05</totfact>
</mgrwt>
</event>
<event>
 8    1  0.9691636E-006  0.4600471E+03  0.7546771E-02  0.1024768E+00
         21   -1    0    0  504  503  0.00000000000E+00  0.00000000000E+00  0.30673847078E+02  0.30673847078E+02  0.00000000000E+00 0.  1.
         21   -1    0    0  503  504 -0.00000000000E+00 -0.00000000000E+00 -0.17249495920E+04  0.17249495920E+04  0.00000000000E+00 0.  1.
         25    2    1    2    0    0 -0.54924689903E+02  0.17338655905E+03 -0.10946402988E+04  0.11166654267E+04  0.12499868340E+03 0.  0.
         25    2    1    2    0    0  0.54924689903E+02 -0.17338655905E+03 -0.59963544607E+03  0.63895801240E+03  0.12500021202E+03 0.  0.
          5    1    3    3  501    0  0.13686500379E+02 -0.13737389114E+02 -0.14140748870E+03  0.14280827712E+03  0.47000000000E+01 0. -1.
         -5    1    3    3    0  501 -0.68611190282E+02  0.18712394816E+03 -0.95323281014E+03  0.97385714955E+03  0.47000000000E+01 0. -1.
          5    1    4    4  502    0  0.65561478225E+02 -0.10109973764E+03 -0.20707408932E+03  0.23962727901E+03  0.47000000000E+01 0. -1.
         -5    1    4    4    0  502 -0.10636788322E+02 -0.72286821408E+02 -0.39256135675E+03  0.39933073339E+03  0.47000000000E+01 0. -1.
<mgrwt>
<rscale>  0 0.46004713E+03</rscale>
<asrwt>0</asrwt>
<pdfrwt beam="1">  1       21 0.47190531E-02 0.46004713E+03</pdfrwt>
<pdfrwt beam="2">  1       21 0.26537688E+00 0.46004713E+03</pdfrwt>
<totfact> 0.13687710E+04</totfact>
</mgrwt>
</event>
<event>
 8    1  0.9691636E-006  0.3539363E+03  0.7546771E-02  0.1061011E+00
         21   -1    0    0  504  503  0.00000000000E+00  0.00000000000E+00  0.10702726126E+03  0.10702726126E+03  0.00000000000E+00 0.  1.
         21   -1    0    0  503  504 -0.00000000000E+00 -0.00000000000E+00 -0.29261449446E+03  0.29261449446E+03  0.00000000000E+00 0.  1.
         25    2    1    2    0    0 -0.93692362304E+02  0.48856483267E+02 -0.16781386984E+02  0.16451340207E+03  0.12497131592E+03 0.  0.
         25    2    1    2    0    0  0.93692362304E+02 -0.48856483267E+02 -0.16880584621E+03  0.23512835365E+03  0.12499885704E+03 0.  0.
          5    1    3    3  501    0 -0.44134267821E+02  0.52475525477E+02  0.47193530702E+02  0.83371660115E+02  0.47000000000E+01 0. -1.
         -5    1    3    3    0  501 -0.49558094483E+02 -0.36190422109E+01 -0.63974917686E+02  0.81141741960E+02  0.47000000000E+01 0. -1.
          5    1    4    4  502    0 -0.15375757749E+02  0.76122910078E+01  0.82371970151E+01  0.19603630159E+02  0.47000000000E+01 0. -1.
         -5    1    4    4    0  502  0.10906812005E+03 -0.56468774274E+02 -0.17704304322E+03  0.21552472349E+03  0.47000000000E+01 0. -1.
<mgrwt>
<rscale>  0 0.35393631E+03</rscale>
<asrwt>0</asrwt>
<pdfrwt beam="1">  1       21 0.16465733E-01 0.35393631E+03</pdfrwt>
<pdfrwt beam="2">  1       21 0.45017614E-01 0.35393631E+03</pdfrwt>
<totfact> 0.14988106E+05</totfact>
</mgrwt>
</event>
<event>
 8    1  0.9691636E-006  0.3298112E+03  0.7546771E-02  0.1071220E+00
         21   -1    0    0  504  503  0.00000000000E+00  0.00000000000E+00  0.39535192088E+03  0.39535192088E+03  0.00000000000E+00 0. -1.
         21   -1    0    0  503  504 -0.00000000000E+00 -0.00000000000E+00 -0.68783923427E+02  0.68783923427E+02  0.00000000000E+00 0. -1.
         25    2    1    2    0    0 -0.70630102773E+02 -0.78381348904E+02  0.19266615097E+03  0.25274274209E+03  0.12500560259E+03 0.  0.
         25    2    1    2    0    0  0.70630102773E+02  0.78381348904E+02  0.13390184649E+03  0.21139310222E+03  0.12500036759E+03 0.  0.
          5    1    3    3  501    0  0.18619408794E+02  0.21937583966E+02  0.31581296029E+02  0.42981487096E+02  0.47000000000E+01 0.  1.
         -5    1    3    3    0  501 -0.89249511568E+02 -0.10031893287E+03  0.16108485494E+03  0.20976125500E+03  0.47000000000E+01 0.  1.
          5    1    4    4  502    0  0.49793871104E+02  0.64647052314E+02  0.15704051148E+03  0.17703808409E+03  0.47000000000E+01 0.  1.
         -5    1    4    4    0  502  0.20836231669E+02  0.13734296589E+02 -0.23138664991E+02  0.34355018127E+02  0.47000000000E+01 0.  1.
<mgrwt>
<rscale>  0 0.32981120E+03</rscale>
<asrwt>0</asrwt>
<pdfrwt beam="1">  1       21 0.60823371E-01 0.32981120E+03</pdfrwt>
<pdfrwt beam="2">  1       21 0.10582142E-01 0.32981120E+03</pdfrwt>
<totfact> 0.17792699E+05</totfact>
</mgrwt>
</event>
<event>
 8    1  0.9691636E-006  0.3238412E+03  0.7546771E-02  0.1073895E+00
         21   -1    0    0  504  503  0.00000000000E+00  0.00000000000E+00  0.45330946373E+03  0.45330946373E+03  0.00000000000E+00 0. -1.
         21   -1    0    0  503  504 -0.00000000000E+00 -0.00000000000E+00 -0.57837485911E+02  0.57837485911E+02  0.00000000000E+00 0. -1.
         25    2    1    2    0    0 -0.52509328498E+02 -0.27481985039E+02  0.33053437259E+03  0.35832450740E+03  0.12502396594E+03 0.  0.
         25    2    1    2    0    0  0.52509328498E+02  0.27481985039E+02  0.64937605226E+02  0.15282244224E+03  0.12500126879E+03 0.  0.
          5    1    3    3  501    0  0.19799654710E+02 -0.54422173884E+02  0.17925969056E+03  0.18844077583E+03  0.47000000000E+01 0.  1.
         -5    1    3    3    0  501 -0.72308983208E+02  0.26940188845E+02  0.15127468203E+03  0.16988373157E+03  0.47000000000E+01 0.  1.
          5    1    4    4  502    0 -0.15053695527E+02  0.58034641419E+02  0.47163415014E+02  0.76427161856E+02  0.47000000000E+01 0. -1.
         -5    1    4    4    0  502  0.67563024025E+02 -0.30552656380E+02  0.17774190212E+02  0.76395280384E+02  0.47000000000E+01 0. -1.
<mgrwt>
<rscale>  0 0.32384119E+03</rscale>
<asrwt>0</asrwt>
<pdfrwt beam="1">  1       21 0.69739915E-01 0.32384119E+03</pdfrwt>
<pdfrwt beam="2">  1       21 0.88980751E-02 0.32384119E+03</pdfrwt>
<totfact> 0.17947431E+05</totfact>
</mgrwt>
</event>
<event>
 8    1  0.9691636E-006  0.2715195E+03  0.7546771E-02  0.1100413E+00
         21   -1    0    0  504  503  0.00000000000E+00  0.00000000000E+00  0.27111279004E+03  0.27111279004E+03  0.00000000000E+00 0.  1.
         21   -1    0    0  503  504 -0.00000000000E+00 -0.00000000000E+00 -0.67981694861E+02  0.67981694861E+02  0.00000000000E+00 0.  1.
         25    2    1    2    0    0  0.18501912600E+02  0.22299108406E+02  0.46190239194E+02  0.13637014802E+03  0.12499483217E+03 0.  0.
         25    2    1    2    0    0 -0.18501912600E+02 -0.22299108406E+02  0.15694085599E+03  0.20272433688E+03  0.12500861362E+03 0.  0.
          5    1    3    3  501    0  0.70994177297E+02  0.60980215143E+01  0.37156427371E+02  0.80498752608E+02  0.47000000000E+01 0.  1.
         -5    1    3    3    0  501 -0.52492264697E+02  0.16201086892E+02  0.90338118229E+01  0.55871395415E+02  0.47000000000E+01 0.  1.
          5    1    4    4  502    0  0.23484697941E+02 -0.64351051549E+02  0.81199699525E+02  0.10633940980E+03  0.47000000000E+01 0. -1.
         -5    1    4    4    0  502 -0.41986610541E+02  0.42051943143E+02  0.75741156463E+02  0.96384927085E+02  0.47000000000E+01 0. -1.
<mgrwt>
<rscale>  0 0.27151948E+03</rscale>
<asrwt>0</asrwt>
<pdfrwt beam="1">  1       21 0.41709659E-01 0.27151948E+03</pdfrwt>
<pdfrwt beam="2">  1       21 0.10458722E-01 0.27151948E+03</pdfrwt>
<totfact> 0.40784882E+05</totfact>
</mgrwt>
</event>
<event>
 8    1  0.9691636E-006  0.4338641E+03  0.7546771E-02  0.1032646E+00
         21   -1    0    0  504  503  0.00000000000E+00  0.00000000000E+00  0.41651225563E+03  0.41651225563E+03  0.00000000000E+00 0.  1.
         21   -1    0    0  503  504 -0.00000000000E+00 -0.00000000000E+00 -0.11298470727E+03  0.11298470727E+03  0.00000000000E+00 0.  1.
         25    2    1    2    0    0  0.73470519839E+01  0.54570216777E+02  0.35744074148E+03  0.38264923363E+03  0.12499865838E+03 0.  0.
         25    2    1    2    0    0 -0.73470519839E+01 -0.54570216777E+02 -0.53913193116E+02  0.14684772927E+03  0.12500294184E+03 0.  0.
          5    1    3    3  501    0  0.40055384311E+02  0.65862278754E+02  0.32801517710E+03  0.33698415390E+03  0.47000000000E+01 0.  1.
         -5    1    3    3    0  501 -0.32708332327E+02 -0.11292061977E+02  0.29425564382E+02  0.45665079728E+02  0.47000000000E+01 0.  1.
          5    1    4    4  502    0 -0.11391139883E+02 -0.72906867720E+02  0.14845411772E+02  0.75416481482E+02  0.47000000000E+01 0. -1.
         -5    1    4    4    0  502  0.40440878993E+01  0.18336650942E+02 -0.68758604888E+02  0.71431247790E+02  0.47000000000E+01 0. -1.
<mgrwt>
<rscale>  0 0.43386410E+03</rscale>
<asrwt>0</asrwt>
<pdfrwt beam="1">  1       21 0.64078808E-01 0.43386410E+03</pdfrwt>
<pdfrwt beam="2">  1       21 0.17382263E-01 0.43386410E+03</pdfrwt>
<totfact> 0.62415618E+04</totfact>
</mgrwt>
</event>
<event>
 8    1  0.9691636E-006  0.2830004E+03  0.7546771E-02  0.1094061E+00
         21   -1    0    0  504  503  0.00000000000E+00  0.00000000000E+00  0.10269490455E+02  0.10269490455E+02  0.00000000000E+00 0.  1.
         21   -1    0    0  503  504 -0.00000000000E+00 -0.00000000000E+00 -0.19496878145E+04  0.19496878145E+04  0.00000000000E+00 0.  1.
         25    2    1    2    0    0 -0.30172385371E+02  0.48007811670E+02 -0.12076386223E+04  0.12154141074E+04  0.12500115032E+03 0.  0.
         25    2    1    2    0    0  0.30172385371E+02 -0.48007811670E+02 -0.73177970177E+03  0.74454319757E+03  0.12501167271E+03 0.  0.
          5    1    3    3  501    0  0.21708497963E+02 -0.10562679749E+02 -0.79593793373E+03  0.79631784699E+03  0.47000000000E+01 0. -1.
         -5    1    3    3    0  501 -0.51880883334E+02  0.58570491418E+02 -0.41170068854E+03  0.41909626038E+03  0.47000000000E+01 0. -1.
          5    1    4    4  502    0  0.85087399389E+01 -0.89308365480E+02 -0.44801831850E+03  0.45693641408E+03  0.47000000000E+01 0. -1.
         -5    1    4    4    0  502  0.21663645432E+02  0.41300553810E+02 -0.28376138326E+03  0.28760678349E+03  0.47000000000E+01 0. -1.
<mgrwt>
<rscale>  0 0.28300036E+03</rscale>
<asrwt>0</asrwt>
<pdfrwt beam="1">  1       21 0.15799212E-02 0.28300036E+03</pdfrwt>
<pdfrwt beam="2">  1       21 0.29995205E+00 0.28300036E+03</pdfrwt>
<totfact> 0.57644603E+04</totfact>
</mgrwt>
</event>
<event>
 8    1  0.9691636E-006  0.2992960E+03  0.7546771E-02  0.1085593E+00
         21   -1    0    0  504  503  0.00000000000E+00  0.00000000000E+00  0.21508916435E+03  0.21508916435E+03  0.00000000000E+00 0. -1.
         21   -1    0    0  503  504 -0.00000000000E+00 -0.00000000000E+00 -0.10411740734E+03  0.10411740734E+03  0.00000000000E+00 0. -1.
         25    2    1    2    0    0  0.12801510582E+02  0.70197694657E+02  0.99175977035E+02  0.17479241510E+03  0.12499967579E+03 0.  0.
         25    2    1    2    0    0 -0.12801510582E+02 -0.70197694657E+02  0.11795779978E+02  0.14441415659E+03  0.12499885276E+03 0.  0.
          5    1    3    3  501    0 -0.82777923094E+01  0.50874022995E+02 -0.17450322512E+02  0.54619518645E+02  0.47000000000E+01 0.  1.
         -5    1    3    3    0  501  0.21079302891E+02  0.19323671662E+02  0.11662629955E+03  0.12017289646E+03  0.47000000000E+01 0.  1.
          5    1    4    4  502    0  0.29794217168E+02 -0.11302013324E+00 -0.37873822408E+02  0.48417192958E+02  0.47000000000E+01 0. -1.
         -5    1    4    4    0  502 -0.42595727750E+02 -0.70084674524E+02  0.49669602386E+02  0.95996963634E+02  0.47000000000E+01 0. -1.
<mgrwt>
<rscale>  0 0.29929601E+03</rscale>
<asrwt>0</asrwt>
<pdfrwt beam="1">  1       21 0.33090641E-01 0.29929601E+03</pdfrwt>
<pdfrwt beam="2">  1       21 0.16018063E-01 0.29929601E+03</pdfrwt>
<totfact> 0.29850822E+05</totfact>
</mgrwt>
</event>
<event>
 8    1  0.9691636E-006  0.2720543E+03  0.7546771E-02  0.1100110E+00
         21   -1    0    0  504  503  0.00000000000E+00  0.00000000000E+00  0.12850424552E+03  0.12850424552E+03  0.00000000000E+00 0.  1.
         21   -1    0    0  503  504 -0.00000000000E+00 -0.00000000000E+00 -0.14399042301E+03  0.14399042301E+03  0.00000000000E+00 0.  1.
         25    2    1    2    0    0 -0.17297966737E+02 -0.44149720848E+02 -0.32889645835E+02  0.13767716414E+03  0.12499942087E+03 0.  0.
         25    2    1    2    0    0  0.17297966737E+02  0.44149720848E+02  0.17403468339E+02  0.13481750439E+03  0.12499784509E+03 0.  0.
          5    1    3    3  501    0 -0.38270811846E+02  0.18795402290E+01 -0.66409585958E+02  0.76814782548E+02  0.47000000000E+01 0.  1.
         -5    1    3    3    0  501  0.20972845108E+02 -0.46029261077E+02  0.33519940122E+02  0.60862381592E+02  0.47000000000E+01 0.  1.
          5    1    4    4  502    0  0.93242997824E+01 -0.87918321651E+01 -0.48150749505E+02  0.50048212327E+02  0.47000000000E+01 0.  1.
         -5    1    4    4    0  502  0.79736669548E+01  0.52941553013E+02  0.65554217844E+02  0.84769292066E+02  0.47000000000E+01 0.  1.
<mgrwt>
<rscale>  0 0.27205426E+03</rscale>
<asrwt>0</asrwt>
<pdfrwt beam="1">  1       21 0.19769884E-01 0.27205426E+03</pdfrwt>
<pdfrwt beam="2">  1       21 0.22152373E-01 0.27205426E+03</pdfrwt>
<totfact> 0.44231193E+05</totfact>
</mgrwt>
</event>
<event>
 8    1  0.9691636E-006  0.2778023E+03  0.7546771E-02  0.1096895E+00
         21   -1    0    0  504  503  0.00000000000E+00  0.00000000000E+00  0.80192006483E+02  0.80192006483E+02  0.00000000000E+00 0. -1.
         21   -1    0    0  503  504 -0.00000000000E+00 -0.00000000000E+00 -0.24059164912E+03  0.24059164912E+03  0.00000000000E+00 0. -1.
         25    2    1    2    0    0  0.57326111200E+02  0.10280629995E+02 -0.99078675768E+02  0.16986159170E+03  0.12507758378E+03 0.  0.
         25    2    1    2    0    0 -0.57326111200E+02 -0.10280629995E+02 -0.61320966869E+02  0.15092206390E+03  0.12500093606E+03 0.  0.
          5    1    3    3  501    0 -0.99135282290E+01  0.33961185063E+02 -0.91262615716E+02  0.97992832187E+02  0.47000000000E+01 0. -1.
         -5    1    3    3    0  501  0.67239639429E+02 -0.23680555069E+02 -0.78160600526E+01  0.71868759511E+02  0.47000000000E+01 0. -1.
          5    1    4    4  502    0 -0.92808618197E+02 -0.24274638679E+02 -0.58339702625E+02  0.11237574737E+03  0.47000000000E+01 0. -1.
         -5    1    4    4    0  502  0.35482506997E+02  0.13994008685E+02 -0.29812642445E+01  0.38546316534E+02  0.47000000000E+01 0. -1.
<mgrwt>
<rscale>  0 0.27780228E+03</rscale>
<asrwt>0</asrwt>
<pdfrwt beam="1">  1       21 0.12337232E-01 0.27780228E+03</pdfrwt>
<pdfrwt beam="2">  1       21 0.37014100E-01 0.27780228E+03</pdfrwt>
<totfact> 0.38595362E+05</totfact>
</mgrwt>
</event>
<event>
 8    1  0.9691636E-006  0.3216153E+03  0.7546771E-02  0.1074908E+00
         21   -1    0    0  504  503  0.00000000000E+00  0.00000000000E+00  0.51126814743E+03  0.51126814743E+03  0.00000000000E+00 0.  1.
         21   -1    0    0  503  504 -0.00000000000E+00 -0.00000000000E+00 -0.50578362330E+02  0.50578362330E+02  0.00000000000E+00 0.  1.
         25    2    1    2    0    0  0.68983051431E+01  0.41384055050E+02  0.69534986262E+02  0.14906579846E+03  0.12500108531E+03 0.  0.
         25    2    1    2    0    0 -0.68983051431E+01 -0.41384055050E+02  0.39115479883E+03  0.41278071130E+03  0.12500244935E+03 0.  0.
          5    1    3    3  501    0  0.20602566739E+02 -0.31952566287E+02 -0.10327359530E+02  0.39675894488E+02  0.47000000000E+01 0. -1.
         -5    1    3    3    0  501 -0.13704261596E+02  0.73336621337E+02  0.79862345792E+02  0.10938990397E+03  0.47000000000E+01 0. -1.
          5    1    4    4  502    0  0.26784654218E+02 -0.74887794957E+02  0.18980293682E+03  0.20584665254E+03  0.47000000000E+01 0. -1.
         -5    1    4    4    0  502 -0.33682959362E+02  0.33503739907E+02  0.20135186201E+03  0.20693405876E+03  0.47000000000E+01 0. -1.
<mgrwt>
<rscale>  0 0.32161533E+03</rscale>
<asrwt>0</asrwt>
<pdfrwt beam="1">  1       21 0.78656634E-01 0.32161533E+03</pdfrwt>
<pdfrwt beam="2">  1       21 0.77812869E-02 0.32161533E+03</pdfrwt>
<totfact> 0.17339491E+05</totfact>
</mgrwt>
</event>
<event>
 8    1  0.9691636E-006  0.2543960E+03  0.7546771E-02  0.1110558E+00
         21   -1    0    0  504  503  0.00000000000E+00  0.00000000000E+00  0.70349251880E+03  0.70349251880E+03  0.00000000000E+00 0. -1.
         21   -1    0    0  503  504 -0.00000000000E+00 -0.00000000000E+00 -0.22998574659E+02  0.22998574659E+02  0.00000000000E+00 0. -1.
         25    2    1    2    0    0  0.62941426154E+01 -0.99194625760E+01  0.28198398084E+03  0.30867023594E+03  0.12499734851E+03 0.  0.
         25    2    1    2    0    0 -0.62941426154E+01  0.99194625760E+01  0.39850996330E+03  0.41782085752E+03  0.12500426457E+03 0.  0.
          5    1    3    3  501    0 -0.45765424068E+02 -0.20938031871E+02  0.51825678609E+02  0.72393826961E+02  0.47000000000E+01 0.  1.
         -5    1    3    3    0  501  0.52059566684E+02  0.11018569295E+02  0.23015830223E+03  0.23627640898E+03  0.47000000000E+01 0.  1.
          5    1    4    4  502    0 -0.25750440539E+02  0.14928956535E+02  0.39587473586E+03  0.39701996854E+03  0.47000000000E+01 0. -1.
         -5    1    4    4    0  502  0.19456297924E+02 -0.50094939586E+01  0.26352274424E+01  0.20800888978E+02  0.47000000000E+01 0. -1.
<mgrwt>
<rscale>  0 0.25439595E+03</rscale>
<asrwt>0</asrwt>
<pdfrwt beam="1">  1       21 0.10822960E+00 0.25439595E+03</pdfrwt>
<pdfrwt beam="2">  1       21 0.35382428E-02 0.25439595E+03</pdfrwt>
<totfact> 0.32100971E+05</totfact>
</mgrwt>
</event>
<event>
 8    1  0.9691636E-006  0.2652940E+03  0.7546771E-02  0.1104004E+00
         21   -1    0    0  504  503  0.00000000000E+00  0.00000000000E+00  0.42921554278E+02  0.42921554278E+02  0.00000000000E+00 0. -1.
         21   -1    0    0  503  504 -0.00000000000E+00 -0.00000000000E+00 -0.40993907139E+03  0.40993907139E+03  0.00000000000E+00 0. -1.
         25    2    1    2    0    0  0.23135703453E+02 -0.77139990466E+01 -0.12024706337E+03  0.17516356750E+03  0.12501260966E+03 0.  0.
         25    2    1    2    0    0 -0.23135703453E+02  0.77139990466E+01 -0.24677045374E+03  0.27769705817E+03  0.12500093088E+03 0.  0.
          5    1    3    3  501    0 -0.17842561330E+00 -0.42054461061E+02 -0.12607469527E+03  0.13298694793E+03  0.47000000000E+01 0.  1.
         -5    1    3    3    0  501  0.23314129066E+02  0.34340462014E+02  0.58276318973E+01  0.42176619578E+02  0.47000000000E+01 0.  1.
          5    1    4    4  502    0  0.25103988284E+02 -0.41656756621E+02 -0.15657774248E+03  0.16402492201E+03  0.47000000000E+01 0.  1.
         -5    1    4    4    0  502 -0.48239691737E+02  0.49370755668E+02 -0.90192711258E+02  0.11367213616E+03  0.47000000000E+01 0.  1.
<mgrwt>
<rscale>  0 0.26529397E+03</rscale>
<asrwt>0</asrwt>
<pdfrwt beam="1">  1       21 0.66033160E-02 0.26529397E+03</pdfrwt>
<pdfrwt beam="2">  1       21 0.63067550E-01 0.26529397E+03</pdfrwt>
<totfact> 0.38276462E+05</totfact>
</mgrwt>
</event>
<event>
 8    1  0.9691636E-006  0.2578441E+03  0.7546771E-02  0.1108445E+00
         21   -1    0    0  504  503  0.00000000000E+00  0.00000000000E+00  0.80348967377E+02  0.80348967377E+02  0.00000000000E+00 0.  1.
         21   -1    0    0  503  504 -0.00000000000E+00 -0.00000000000E+00 -0.20685889274E+03  0.20685889274E+03  0.00000000000E+00 0.  1.
         25    2    1    2    0    0  0.12137882067E+02 -0.23781295980E+02 -0.82113801278E+02  0.15190195656E+03  0.12497459673E+03 0.  0.
         25    2    1    2    0    0 -0.12137882067E+02  0.23781295980E+02 -0.44396124087E+02  0.13530590356E+03  0.12499517384E+03 0.  0.
          5    1    3    3  501    0  0.45555584098E+02  0.26581411743E+02 -0.41123871353E+01  0.53111998840E+02  0.47000000000E+01 0.  1.
         -5    1    3    3    0  501 -0.33417702031E+02 -0.50362707723E+02 -0.78001414143E+02  0.98789957721E+02  0.47000000000E+01 0.  1.
          5    1    4    4  502    0 -0.10124032487E+02  0.29006913915E+02 -0.86841353547E+02  0.92235610122E+02  0.47000000000E+01 0.  1.
         -5    1    4    4    0  502 -0.20138495803E+01 -0.52256179356E+01  0.42445229459E+02  0.43070293438E+02  0.47000000000E+01 0.  1.
<mgrwt>
<rscale>  0 0.25784413E+03</rscale>
<asrwt>0</asrwt>
<pdfrwt beam="1">  1       21 0.12361380E-01 0.25784413E+03</pdfrwt>
<pdfrwt beam="2">  1       21 0.31824444E-01 0.25784413E+03</pdfrwt>
<totfact> 0.52179026E+05</totfact>
</mgrwt>
</event>
<event>
 8    1  0.9691636E-006  0.2873303E+03  0.7546771E-02  0.1091751E+00
         21   -1    0    0  504  503  0.00000000000E+00  0.00000000000E+00  0.87944871739E+01  0.87944871739E+01  0.00000000000E+00 0. -1.
         21   -1    0    0  503  504 -0.00000000000E+00 -0.00000000000E+00 -0.23468877621E+04  0.23468877621E+04  0.00000000000E+00 0. -1.
         25    2    1    2    0    0 -0.33643099291E+02  0.50336607892E+02 -0.14707371690E+04  0.14772807861E+04  0.12500027408E+03 0.  0.
         25    2    1    2    0    0  0.33643099291E+02 -0.50336607892E+02 -0.86735610597E+03  0.87840146320E+03  0.12496753087E+03 0.  0.
          5    1    3    3  501    0 -0.29275783529E+02 -0.49298027142E+01 -0.80464642697E+02  0.85895420020E+02  0.47000000000E+01 0.  1.
         -5    1    3    3    0  501 -0.43673157624E+01  0.55266410606E+02 -0.13902725263E+04  0.13913853661E+04  0.47000000000E+01 0.  1.
          5    1    4    4  502    0 -0.24485578116E+02 -0.72323500681E+01 -0.38836508993E+02  0.46714182579E+02  0.47000000000E+01 0.  1.
         -5    1    4    4    0  502  0.58128677407E+02 -0.43104257824E+02 -0.82851959698E+03  0.83168728063E+03  0.47000000000E+01 0.  1.
<mgrwt>
<rscale>  0 0.28733029E+03</rscale>
<asrwt>0</asrwt>
<pdfrwt beam="1">  1       21 0.13529974E-02 0.28733029E+03</pdfrwt>
<pdfrwt beam="2">  1       21 0.36105982E+00 0.28733029E+03</pdfrwt>
<totfact> 0.31998941E+04</totfact>
</mgrwt>
</event>
<event>
 8    1  0.9691636E-006  0.3497341E+03  0.7546771E-02  0.1062724E+00
         21   -1    0    0  504  503  0.00000000000E+00  0.00000000000E+00  0.46897943628E+02  0.46897943628E+02  0.00000000000E+00 0. -1.
         21   -1    0    0  503  504 -0.00000000000E+00 -0.00000000000E+00 -0.65202181452E+03  0.65202181452E+03  0.00000000000E+00 0. -1.
         25    2    1    2    0    0  0.59073321504E+02 -0.51088150597E+02 -0.49056742948E+03  0.51223160252E+03  0.12500062122E+03 0.  0.
         25    2    1    2    0    0 -0.59073321504E+02  0.51088150597E+02 -0.11455644141E+03  0.18668815563E+03  0.12501852958E+03 0.  0.
          5    1    3    3  501    0  0.95564901976E+02 -0.18234759347E+02 -0.34789645576E+03  0.36127439830E+03  0.47000000000E+01 0. -1.
         -5    1    3    3    0  501 -0.36491580472E+02 -0.32853391251E+02 -0.14267097372E+03  0.15095720422E+03  0.47000000000E+01 0. -1.
          5    1    4    4  502    0  0.35936315648E+02  0.67131848099E+01 -0.54382692623E+02  0.65696673353E+02  0.47000000000E+01 0.  1.
         -5    1    4    4    0  502 -0.95009637153E+02  0.44374965787E+02 -0.60173748788E+02  0.12099148228E+03  0.47000000000E+01 0.  1.
<mgrwt>
<rscale>  0 0.34973408E+03</rscale>
<asrwt>0</asrwt>
<pdfrwt beam="1">  1       21 0.72150684E-02 0.34973408E+03</pdfrwt>
<pdfrwt beam="2">  1       21 0.10031105E+00 0.34973408E+03</pdfrwt>
<totfact> 0.11118067E+05</totfact>
</mgrwt>
</event>
<event>
 8    1  0.9691636E-006  0.3621119E+03  0.7546771E-02  0.1057751E+00
         21   -1    0    0  504  503  0.00000000000E+00  0.00000000000E+00  0.17951531730E+02  0.17951531730E+02  0.00000000000E+00 0. -1.
         21   -1    0    0  503  504 -0.00000000000E+00 -0.00000000000E+00 -0.18260980953E+04  0.18260980953E+04  0.00000000000E+00 0. -1.
         25    2    1    2    0    0  0.67835027007E+02  0.34728799459E+02 -0.14466704420E+04  0.14540530683E+04  0.12492908812E+03 0.  0.
         25    2    1    2    0    0 -0.67835027007E+02 -0.34728799459E+02 -0.36147612155E+03  0.38999655878E+03  0.12499859604E+03 0.  0.
          5    1    3    3  501    0 -0.41375380038E-02  0.19549400051E+02 -0.11131916786E+04  0.11133732448E+04  0.47000000000E+01 0.  1.
         -5    1    3    3    0  501  0.67839164545E+02  0.15179399408E+02 -0.33347876348E+03  0.34067982345E+03  0.47000000000E+01 0.  1.
          5    1    4    4  502    0  0.20918327177E+02 -0.69518708711E+01 -0.71599145138E+01  0.23648663733E+02  0.47000000000E+01 0.  1.
         -5    1    4    4    0  502 -0.88753354184E+02 -0.27776928588E+02 -0.35431620703E+03  0.36634789505E+03  0.47000000000E+01 0.  1.
<mgrwt>
<rscale>  0 0.36211190E+03</rscale>
<asrwt>0</asrwt>
<pdfrwt beam="1">  1       21 0.27617734E-02 0.36211190E+03</pdfrwt>
<pdfrwt beam="2">  1       21 0.28093824E+00 0.36211190E+03</pdfrwt>
<totfact> 0.28527954E+04</totfact>
</mgrwt>
</event>
<event>
 8    1  0.9691636E-006  0.5193162E+03  0.7546771E-02  0.1008857E+00
         21   -1    0    0  504  503  0.00000000000E+00  0.00000000000E+00  0.75400355201E+02  0.75400355201E+02  0.00000000000E+00 0.  1.
         21   -1    0    0  503  504 -0.00000000000E+00 -0.00000000000E+00 -0.89419101900E+03  0.89419101900E+03  0.00000000000E+00 0.  1.
         25    2    1    2    0    0 -0.80754623703E+02  0.18573093907E+03 -0.60325098252E+03  0.64849985190E+03  0.12499207585E+03 0.  0.
         25    2    1    2    0    0  0.80754623703E+02 -0.18573093907E+03 -0.21553968128E+03  0.32109152230E+03  0.12500048203E+03 0.  0.
          5    1    3    3  501    0  0.52717520846E+01  0.54516253515E+02 -0.31976962601E+03  0.32446034733E+03  0.47000000000E+01 0.  1.
         -5    1    3    3    0  501 -0.86026375788E+02  0.13121468556E+03 -0.28348135651E+03  0.32403950458E+03  0.47000000000E+01 0.  1.
          5    1    4    4  502    0  0.66119257391E+02 -0.17664980957E+02 -0.51945018877E+02  0.86047560897E+02  0.47000000000E+01 0. -1.
         -5    1    4    4    0  502  0.14635366312E+02 -0.16806595812E+03 -0.16359466240E+03  0.23504396140E+03  0.47000000000E+01 0. -1.
<mgrwt>
<rscale>  0 0.51931617E+03</rscale>
<asrwt>0</asrwt>
<pdfrwt beam="1">  1       21 0.11600055E-01 0.51931617E+03</pdfrwt>
<pdfrwt beam="2">  1       21 0.13756784E+00 0.51931617E+03</pdfrwt>
<totfact> 0.20556412E+04</totfact>
</mgrwt>
</event>
<event>
 8    1  0.9691636E-006  0.2847676E+03  0.7546771E-02  0.1093113E+00
         21   -1    0    0  504  503  0.00000000000E+00  0.00000000000E+00  0.19426127709E+02  0.19426127709E+02  0.00000000000E+00 0.  1.
         21   -1    0    0  503  504 -0.00000000000E+00 -0.00000000000E+00 -0.10436020163E+04  0.10436020163E+04  0.00000000000E+00 0.  1.
         25    2    1    2    0    0 -0.45187452638E+02  0.50861571610E+02 -0.49546003530E+03  0.51549482900E+03  0.12500186723E+03 0.  0.
         25    2    1    2    0    0  0.45187452638E+02 -0.50861571610E+02 -0.52871585328E+03  0.54753331500E+03  0.12499388855E+03 0.  0.
          5    1    3    3  501    0 -0.49877859639E+02 -0.22197324088E+02 -0.10750311707E+03  0.12066288683E+03  0.47000000000E+01 0. -1.
         -5    1    3    3    0  501  0.46904070007E+01  0.73058895698E+02 -0.38795691823E+03  0.39483194218E+03  0.47000000000E+01 0. -1.
          5    1    4    4  502    0  0.23498497202E+02  0.28046970061E+02 -0.51619915066E+02  0.63446966293E+02  0.47000000000E+01 0. -1.
         -5    1    4    4    0  502  0.21688955436E+02 -0.78908541671E+02 -0.47709593822E+03  0.48408634870E+03  0.47000000000E+01 0. -1.
<mgrwt>
<rscale>  0 0.28476760E+03</rscale>
<asrwt>0</asrwt>
<pdfrwt beam="1">  1       21 0.29886348E-02 0.28476760E+03</pdfrwt>
<pdfrwt beam="2">  1       21 0.16055417E+00 0.28476760E+03</pdfrwt>
<totfact> 0.15307923E+05</totfact>
</mgrwt>
</event>
<event>
 8    1  0.9691636E-006  0.3275266E+03  0.7546771E-02  0.1072237E+00
         21   -1    0    0  504  503  0.00000000000E+00  0.00000000000E+00  0.57580615841E+02  0.57580615841E+02  0.00000000000E+00 0.  1.
         21   -1    0    0  503  504 -0.00000000000E+00 -0.00000000000E+00 -0.46575429676E+03  0.46575429676E+03  0.00000000000E+00 0.  1.
         25    2    1    2    0    0  0.32249158477E+01 -0.11252734505E+02 -0.37211297642E+03  0.39271286263E+03  0.12497320166E+03 0.  0.
         25    2    1    2    0    0 -0.32249158477E+01  0.11252734505E+02 -0.36060704489E+02  0.13062204997E+03  0.12499888565E+03 0.  0.
          5    1    3    3  501    0 -0.21435161244E+02  0.27899365078E+02 -0.27306003105E+02  0.44783350867E+02  0.47000000000E+01 0. -1.
         -5    1    3    3    0  501  0.24660077092E+02 -0.39152099583E+02 -0.34480697332E+03  0.34792951176E+03  0.47000000000E+01 0. -1.
          5    1    4    4  502    0  0.28205163006E+02 -0.40401651198E+02 -0.47844407806E+02  0.68840409630E+02  0.47000000000E+01 0.  1.
         -5    1    4    4    0  502 -0.31430078854E+02  0.51654385703E+02  0.11783703316E+02  0.61781640339E+02  0.47000000000E+01 0.  1.
<mgrwt>
<rscale>  0 0.32752660E+03</rscale>
<asrwt>0</asrwt>
<pdfrwt beam="1">  1       21 0.88585569E-02 0.32752660E+03</pdfrwt>
<pdfrwt beam="2">  1       21 0.71654502E-01 0.32752660E+03</pdfrwt>
<totfact> 0.17011324E+05</totfact>
</mgrwt>
</event>
<event>
 8    1  0.9691636E-006  0.4298554E+03  0.7546771E-02  0.1033906E+00
         21   -1    0    0  504  503  0.00000000000E+00  0.00000000000E+00  0.25135374248E+03  0.25135374248E+03  0.00000000000E+00 0. -1.
         21   -1    0    0  503  504 -0.00000000000E+00 -0.00000000000E+00 -0.18378050607E+03  0.18378050607E+03  0.00000000000E+00 0. -1.
         25    2    1    2    0    0 -0.63530225576E+01  0.16458262382E+03  0.93169381035E+02  0.22678911378E+03  0.12499987043E+03 0.  0.
         25    2    1    2    0    0  0.63530225576E+01 -0.16458262382E+03 -0.25596144630E+02  0.20834513477E+03  0.12499892640E+03 0.  0.
          5    1    3    3  501    0  0.53193268910E+02  0.49278151768E+02  0.11991801425E+02  0.73646136358E+02  0.47000000000E+01 0. -1.
         -5    1    3    3    0  501 -0.59546291468E+02  0.11530447206E+03  0.81177579611E+02  0.15314297743E+03  0.47000000000E+01 0. -1.
          5    1    4    4  502    0 -0.63639979970E+01  0.68978399122E+01 -0.34537594715E+02  0.36097314508E+02  0.47000000000E+01 0.  1.
         -5    1    4    4    0  502  0.12717020555E+02 -0.17148046374E+03  0.89414500852E+01  0.17224782026E+03  0.47000000000E+01 0.  1.
<mgrwt>
<rscale>  0 0.42985541E+03</rscale>
<asrwt>0</asrwt>
<pdfrwt beam="1">  1       21 0.38669807E-01 0.42985541E+03</pdfrwt>
<pdfrwt beam="2">  1       21 0.28273924E-01 0.42985541E+03</pdfrwt>
<totfact> 0.71797715E+04</totfact>
</mgrwt>
</event>
<event>
 8    1  0.9691636E-006  0.3844201E+03  0.7546771E-02  0.1049312E+00
         21   -1    0    0  504  503  0.00000000000E+00  0.00000000000E+00  0.36612563119E+03  0.36612563119E+03  0.00000000000E+00 0. -1.
         21   -1    0    0  503  504 -0.00000000000E+00 -0.00000000000E+00 -0.10090715887E+03  0.10090715887E+03  0.00000000000E+00 0. -1.
         25    2    1    2    0    0  0.69732098864E+02 -0.11424755097E+03  0.61713831058E+02  0.19325567566E+03  0.12499636281E+03 0.  0.
         25    2    1    2    0    0 -0.69732098864E+02  0.11424755097E+03  0.20350464127E+03  0.27377711440E+03  0.12499880333E+03 0.  0.
          5    1    3    3  501    0  0.70961045143E+01 -0.79835265558E+02  0.85977726573E+02  0.11763623503E+03  0.47000000000E+01 0.  1.
         -5    1    3    3    0  501  0.62635994350E+02 -0.34412285413E+02 -0.24263895515E+02  0.75619440629E+02  0.47000000000E+01 0.  1.
          5    1    4    4  502    0 -0.10322706466E+03  0.61531356481E+02  0.14035817168E+03  0.18483625474E+03  0.47000000000E+01 0. -1.
         -5    1    4    4    0  502  0.33494965795E+02  0.52716194489E+02  0.63146469590E+02  0.88940859658E+02  0.47000000000E+01 0. -1.
<mgrwt>
<rscale>  0 0.38442007E+03</rscale>
<asrwt>0</asrwt>
<pdfrwt beam="1">  1       21 0.56327020E-01 0.38442007E+03</pdfrwt>
<pdfrwt beam="2">  1       21 0.15524178E-01 0.38442007E+03</pdfrwt>
<totfact> 0.10328033E+05</totfact>
</mgrwt>
</event>
<event>
 8    1  0.9691636E-006  0.2894855E+03  0.7546771E-02  0.1090618E+00
         21   -1    0    0  504  503  0.00000000000E+00  0.00000000000E+00  0.13771907494E+03  0.13771907494E+03  0.00000000000E+00 0.  1.
         21   -1    0    0  503  504 -0.00000000000E+00 -0.00000000000E+00 -0.15212460925E+03  0.15212460925E+03  0.00000000000E+00 0.  1.
         25    2    1    2    0    0 -0.64927548027E+02 -0.30433178446E+02 -0.20824463697E+02  0.14560297691E+03  0.12499921502E+03 0.  0.
         25    2    1    2    0    0  0.64927548027E+02  0.30433178446E+02  0.64189293908E+01  0.14424070728E+03  0.12498965613E+03 0.  0.
          5    1    3    3  501    0 -0.27712747451E+02  0.41817422013E+02 -0.37116420467E+02  0.62581241785E+02  0.47000000000E+01 0.  1.
         -5    1    3    3    0  501 -0.37214800576E+02 -0.72250600459E+02  0.16291956769E+02  0.83021735130E+02  0.47000000000E+01 0.  1.
          5    1    4    4  502    0  0.75268214139E+02 -0.21623461613E+02 -0.25055372614E+02  0.82357390977E+02  0.47000000000E+01 0. -1.
         -5    1    4    4    0  502 -0.10340666112E+02  0.52056640059E+02  0.31474302004E+02  0.61883316302E+02  0.47000000000E+01 0. -1.
<mgrwt>
<rscale>  0 0.28948548E+03</rscale>
<asrwt>0</asrwt>
<pdfrwt beam="1">  1       21 0.21187550E-01 0.28948548E+03</pdfrwt>
<pdfrwt beam="2">  1       21 0.23403786E-01 0.28948548E+03</pdfrwt>
<totfact> 0.34835329E+05</totfact>
</mgrwt>
</event>
<event>
 8    1  0.9691636E-006  0.3222209E+03  0.7546771E-02  0.1074632E+00
         21   -1    0    0  504  503  0.00000000000E+00  0.00000000000E+00  0.65577987618E+02  0.65577987618E+02  0.00000000000E+00 0.  1.
         21   -1    0    0  503  504 -0.00000000000E+00 -0.00000000000E+00 -0.39581246626E+03  0.39581246626E+03  0.00000000000E+00 0.  1.
         25    2    1    2    0    0 -0.43748084153E+02  0.37997304998E+02 -0.45529308562E+02  0.14509324718E+03  0.12498576873E+03 0.  0.
         25    2    1    2    0    0  0.43748084153E+02 -0.37997304998E+02 -0.28470517008E+03  0.31629720670E+03  0.12501679503E+03 0.  0.
          5    1    3    3  501    0 -0.19042572233E+02  0.82420531854E+02 -0.40176201791E+02  0.93765563074E+02  0.47000000000E+01 0. -1.
         -5    1    3    3    0  501 -0.24705511920E+02 -0.44423226856E+02 -0.53531067714E+01  0.51327684105E+02  0.47000000000E+01 0. -1.
          5    1    4    4  502    0  0.29669921658E+02 -0.20515789452E+02 -0.62629947359E+01  0.36912287535E+02  0.47000000000E+01 0. -1.
         -5    1    4    4    0  502  0.14078162495E+02 -0.17481515545E+02 -0.27844217534E+03  0.27938491916E+03  0.47000000000E+01 0. -1.
<mgrwt>
<rscale>  0 0.32222095E+03</rscale>
<asrwt>0</asrwt>
<pdfrwt beam="1">  1       21 0.10088921E-01 0.32222095E+03</pdfrwt>
<pdfrwt beam="2">  1       21 0.60894226E-01 0.32222095E+03</pdfrwt>
<totfact> 0.19363537E+05</totfact>
</mgrwt>
</event>
<event>
 8    1  0.9691636E-006  0.3217281E+03  0.7546771E-02  0.1074857E+00
         21   -1    0    0  504  503  0.00000000000E+00  0.00000000000E+00  0.69767532061E+03  0.69767532061E+03  0.00000000000E+00 0.  1.
         21   -1    0    0  503  504 -0.00000000000E+00 -0.00000000000E+00 -0.37090671301E+02  0.37090671301E+02  0.00000000000E+00 0.  1.
         25    2    1    2    0    0 -0.81895449734E+02  0.17177469161E+02  0.46048828233E+03  0.48443416361E+03  0.12500028230E+03 0.  0.
         25    2    1    2    0    0  0.81895449734E+02 -0.17177469161E+02  0.20009636697E+03  0.25033182830E+03  0.12500215218E+03 0.  0.
          5    1    3    3  501    0  0.13492497173E+01 -0.30275856766E+02  0.26401068250E+03  0.26578596361E+03  0.47000000000E+01 0. -1.
         -5    1    3    3    0  501 -0.83244699452E+02  0.47453325927E+02  0.19647759984E+03  0.21864820001E+03  0.47000000000E+01 0. -1.
          5    1    4    4  502    0  0.24706500061E+02  0.53599583983E+02  0.83345800100E+02  0.10223472474E+03  0.47000000000E+01 0.  1.
         -5    1    4    4    0  502  0.57188949673E+02 -0.70777053144E+02  0.11675056687E+03  0.14809710356E+03  0.47000000000E+01 0.  1.
<mgrwt>
<rscale>  0 0.32172812E+03</rscale>
<asrwt>0</asrwt>
<pdfrwt beam="1">  1       21 0.10733466E+00 0.32172812E+03</pdfrwt>
<pdfrwt beam="2">  1       21 0.57062576E-02 0.32172812E+03</pdfrwt>
<totfact> 0.14280132E+05</totfact>
</mgrwt>
</event>
<event>
 8    1  0.9691636E-006  0.2843841E+03  0.7546771E-02  0.1093318E+00
         21   -1    0    0  504  503  0.00000000000E+00  0.00000000000E+00  0.99980680975E+02  0.99980680975E+02  0.00000000000E+00 0.  1.
         21   -1    0    0  503  504 -0.00000000000E+00 -0.00000000000E+00 -0.20222483973E+03  0.20222483973E+03  0.00000000000E+00 0.  1.
         25    2    1    2    0    0 -0.11527577091E+02  0.65543401730E+02 -0.64738610117E+02  0.15570911467E+03  0.12500167282E+03 0.  0.
         25    2    1    2    0    0  0.11527577091E+02 -0.65543401730E+02 -0.37505548637E+02  0.14649640604E+03  0.12500283300E+03 0.  0.
          5    1    3    3  501    0 -0.22453111535E+02  0.96334957179E+02 -0.21542258434E+02  0.10134458590E+03  0.47000000000E+01 0.  1.
         -5    1    3    3    0  501  0.10925534444E+02 -0.30791555449E+02 -0.43196351683E+02  0.54364528772E+02  0.47000000000E+01 0.  1.
          5    1    4    4  502    0  0.39530574860E+02 -0.62888403280E+02  0.24409072403E+02  0.78329499114E+02  0.47000000000E+01 0. -1.
         -5    1    4    4    0  502 -0.28002997769E+02 -0.26549984506E+01 -0.61914621040E+02  0.68166906922E+02  0.47000000000E+01 0. -1.
<mgrwt>
<rscale>  0 0.28438409E+03</rscale>
<asrwt>0</asrwt>
<pdfrwt beam="1">  1       21 0.15381643E-01 0.28438409E+03</pdfrwt>
<pdfrwt beam="2">  1       21 0.31111513E-01 0.28438409E+03</pdfrwt>
<totfact> 0.36459686E+05</totfact>
</mgrwt>
</event>
<event>
 8    1  0.9691636E-006  0.3304451E+03  0.7546771E-02  0.1070940E+00
         21   -1    0    0  504  503  0.00000000000E+00  0.00000000000E+00  0.87638447909E+02  0.87638447909E+02  0.00000000000E+00 0.  1.
         21   -1    0    0  503  504 -0.00000000000E+00 -0.00000000000E+00 -0.31148991446E+03  0.31148991446E+03  0.00000000000E+00 0.  1.
         25    2    1    2    0    0 -0.62783592826E+01  0.92417464054E+02 -0.44741379315E+02  0.16188872700E+03  0.12500305375E+03 0.  0.
         25    2    1    2    0    0  0.62783592826E+01 -0.92417464054E+02 -0.17911008724E+03  0.23723963537E+03  0.12498726249E+03 0.  0.
          5    1    3    3  501    0 -0.15384866930E+02 -0.87379082850E+01  0.30383250682E+02  0.35472201704E+02  0.47000000000E+01 0. -1.
         -5    1    3    3    0  501  0.91065076478E+01  0.10115537234E+03 -0.75124629997E+02  0.12641652529E+03  0.47000000000E+01 0. -1.
          5    1    4    4  502    0 -0.19373358633E+02 -0.99015482030E+01  0.13534237192E+02  0.26050590356E+02  0.47000000000E+01 0. -1.
         -5    1    4    4    0  502  0.25651717915E+02 -0.82515915851E+02 -0.19264432443E+03  0.21118904502E+03  0.47000000000E+01 0. -1.
<mgrwt>
<rscale>  0 0.33044511E+03</rscale>
<asrwt>0</asrwt>
<pdfrwt beam="1">  1       21 0.13482838E-01 0.33044511E+03</pdfrwt>
<pdfrwt beam="2">  1       21 0.47921525E-01 0.33044511E+03</pdfrwt>
<totfact> 0.19104386E+05</totfact>
</mgrwt>
</event>
<event>
 8    1  0.9691636E-006  0.4019232E+03  0.7546771E-02  0.1043116E+00
         21   -1    0    0  504  503  0.00000000000E+00  0.00000000000E+00  0.33637504539E+03  0.33637504539E+03  0.00000000000E+00 0.  1.
         21   -1    0    0  503  504 -0.00000000000E+00 -0.00000000000E+00 -0.12006111396E+03  0.12006111396E+03  0.00000000000E+00 0.  1.
         25    2    1    2    0    0 -0.83112803496E+02 -0.73979000287E+02 -0.18188337269E+02  0.16834683788E+03  0.12501684535E+03 0.  0.
         25    2    1    2    0    0  0.83112803496E+02  0.73979000287E+02  0.23450226869E+03  0.28808932148E+03  0.12499405001E+03 0.  0.
          5    1    3    3  501    0 -0.93080128466E+02 -0.90829342162E+02 -0.42387315396E+02  0.13686728688E+03  0.47000000000E+01 0. -1.
         -5    1    3    3    0  501  0.99673249702E+01  0.16850341874E+02  0.24198978126E+02  0.31479550993E+02  0.47000000000E+01 0. -1.
          5    1    4    4  502    0  0.43508965037E+02  0.71142479226E+02  0.23361450128E+03  0.24809697217E+03  0.47000000000E+01 0.  1.
         -5    1    4    4    0  502  0.39603838459E+02  0.28365210615E+01  0.88776741244E+00  0.39992349311E+02  0.47000000000E+01 0.  1.
<mgrwt>
<rscale>  0 0.40192319E+03</rscale>
<asrwt>0</asrwt>
<pdfrwt beam="1">  1       21 0.51750007E-01 0.40192319E+03</pdfrwt>
<pdfrwt beam="2">  1       21 0.18470941E-01 0.40192319E+03</pdfrwt>
<totfact> 0.89189711E+04</totfact>
</mgrwt>
</event>
<event>
 8    1  0.9691636E-006  0.2733721E+03  0.7546771E-02  0.1099365E+00
         21   -1    0    0  504  503  0.00000000000E+00  0.00000000000E+00  0.16947639432E+03  0.16947639432E+03  0.00000000000E+00 0.  1.
         21   -1    0    0  503  504 -0.00000000000E+00 -0.00000000000E+00 -0.11024000559E+03  0.11024000559E+03  0.00000000000E+00 0.  1.
         25    2    1    2    0    0 -0.47410046203E+02 -0.10228738174E+02  0.24291320452E+01  0.13409888710E+03  0.12499708506E+03 0.  0.
         25    2    1    2    0    0  0.47410046203E+02  0.10228738174E+02  0.56807256682E+02  0.14561751281E+03  0.12500022423E+03 0.  0.
          5    1    3    3  501    0  0.10398585192E+02 -0.37052489226E+00 -0.52429914164E+02  0.53658678347E+02  0.47000000000E+01 0. -1.
         -5    1    3    3    0  501 -0.57808631395E+02 -0.98582132820E+01  0.54859046209E+02  0.80440208751E+02  0.47000000000E+01 0. -1.
          5    1    4    4  502    0  0.29250062779E+02  0.44362108969E+02 -0.22006189002E+02  0.57705504409E+02  0.47000000000E+01 0.  1.
         -5    1    4    4    0  502  0.18159983424E+02 -0.34133370795E+02  0.78813445683E+02  0.87912008396E+02  0.47000000000E+01 0.  1.
<mgrwt>
<rscale>  0 0.27337212E+03</rscale>
<asrwt>0</asrwt>
<pdfrwt beam="1">  1       21 0.26073291E-01 0.27337212E+03</pdfrwt>
<pdfrwt beam="2">  1       21 0.16960001E-01 0.27337212E+03</pdfrwt>
<totfact> 0.43078104E+05</totfact>
</mgrwt>
</event>
<event>
 8    1  0.9691636E-006  0.3114627E+03  0.7546771E-02  0.1079647E+00
         21   -1    0    0  504  503  0.00000000000E+00  0.00000000000E+00  0.14911712701E+02  0.14911712701E+02  0.00000000000E+00 0. -1.
         21   -1    0    0  503  504 -0.00000000000E+00 -0.00000000000E+00 -0.16263899862E+04  0.16263899862E+04  0.00000000000E+00 0. -1.
         25    2    1    2    0    0  0.72343449621E+02 -0.56775956126E+02 -0.87407495805E+03  0.88774555285E+03  0.12501220105E+03 0.  0.
         25    2    1    2    0    0 -0.72343449621E+02  0.56775956126E+02 -0.73740331543E+03  0.75355614603E+03  0.12500452682E+03 0.  0.
          5    1    3    3  501    0  0.25190650503E+02 -0.92298551271E+02 -0.56074114591E+03  0.56886405596E+03  0.47000000000E+01 0.  1.
         -5    1    3    3    0  501  0.47152799117E+02  0.35522595145E+02 -0.31333381213E+03  0.31888149689E+03  0.47000000000E+01 0.  1.
          5    1    4    4  502    0 -0.82792144000E+02  0.66857903721E+02 -0.72773595389E+03  0.73549046695E+03  0.47000000000E+01 0. -1.
         -5    1    4    4    0  502  0.10448694379E+02 -0.10081947595E+02 -0.96673615416E+01  0.18065679082E+02  0.47000000000E+01 0. -1.
<mgrwt>
<rscale>  0 0.31146274E+03</rscale>
<asrwt>0</asrwt>
<pdfrwt beam="1">  1       21 0.22941092E-02 0.31146274E+03</pdfrwt>
<pdfrwt beam="2">  1       21 0.25021389E+00 0.31146274E+03</pdfrwt>
<totfact> 0.60759590E+04</totfact>
</mgrwt>
</event>
<event>
 8    1  0.9691636E-006  0.4868569E+03  0.7546771E-02  0.1017268E+00
         21   -1    0    0  504  503  0.00000000000E+00  0.00000000000E+00  0.47882575163E+03  0.47882575163E+03  0.00000000000E+00 0. -1.
         21   -1    0    0  503  504 -0.00000000000E+00 -0.00000000000E+00 -0.12375570440E+03  0.12375570440E+03  0.00000000000E+00 0. -1.
         25    2    1    2    0    0  0.12217360440E+03  0.89150351521E+02 -0.79258335543E+00  0.19620848035E+03  0.12499185888E+03 0.  0.
         25    2    1    2    0    0 -0.12217360440E+03 -0.89150351521E+02  0.35586263058E+03  0.40637297568E+03  0.12500643477E+03 0.  0.
          5    1    3    3  501    0  0.47136756163E+02  0.57925412038E+01  0.53348707938E+02  0.71579340272E+02  0.47000000000E+01 0. -1.
         -5    1    3    3    0  501  0.75036848237E+02  0.83357810317E+02 -0.54141291293E+02  0.12462914008E+03  0.47000000000E+01 0. -1.
          5    1    4    4  502    0  0.11734325011E+01  0.26471773744E+02  0.54982521111E+02  0.61215189102E+02  0.47000000000E+01 0.  1.
         -5    1    4    4    0  502 -0.12334703690E+03 -0.11562212526E+03  0.30088010947E+03  0.34515778658E+03  0.47000000000E+01 0.  1.
<mgrwt>
<rscale>  0 0.48685693E+03</rscale>
<asrwt>0</asrwt>
<pdfrwt beam="1">  1       21 0.73665499E-01 0.48685693E+03</pdfrwt>
<pdfrwt beam="2">  1       21 0.19039339E-01 0.48685693E+03</pdfrwt>
<totfact> 0.37995440E+04</totfact>
</mgrwt>
</event>
<event>
 8    1  0.9691636E-006  0.2640281E+03  0.7546771E-02  0.1104747E+00
         21   -1    0    0  504  503  0.00000000000E+00  0.00000000000E+00  0.38421627407E+03  0.38421627407E+03  0.00000000000E+00 0.  1.
         21   -1    0    0  503  504 -0.00000000000E+00 -0.00000000000E+00 -0.45359123809E+02  0.45359123809E+02  0.00000000000E+00 0.  1.
         25    2    1    2    0    0  0.35606597849E+02  0.87090228000E+01  0.13461769602E+03  0.18732727434E+03  0.12500362692E+03 0.  0.
         25    2    1    2    0    0 -0.35606597849E+02 -0.87090228000E+01  0.20423945425E+03  0.24224812354E+03  0.12500688700E+03 0.  0.
          5    1    3    3  501    0 -0.55170587436E+01  0.52563225456E+02  0.17981796327E+02  0.56024687475E+02  0.47000000000E+01 0. -1.
         -5    1    3    3    0  501  0.41123656593E+02 -0.43854202656E+02  0.11663589969E+03  0.13130258687E+03  0.47000000000E+01 0. -1.
          5    1    4    4  502    0 -0.15706397698E+02 -0.29778542482E+02  0.20965458637E+03  0.21239253308E+03  0.47000000000E+01 0. -1.
         -5    1    4    4    0  502 -0.19900200152E+02  0.21069519682E+02 -0.54151321242E+01  0.29855590458E+02  0.47000000000E+01 0. -1.
<mgrwt>
<rscale>  0 0.26402813E+03</rscale>
<asrwt>0</asrwt>
<pdfrwt beam="1">  1       21 0.59110194E-01 0.26402813E+03</pdfrwt>
<pdfrwt beam="2">  1       21 0.69783270E-02 0.26402813E+03</pdfrwt>
<totfact> 0.40039555E+05</totfact>
</mgrwt>
</event>
<event>
 8    1  0.9691636E-006  0.2704572E+03  0.7546771E-02  0.1101018E+00
         21   -1    0    0  504  503  0.00000000000E+00  0.00000000000E+00  0.58750799191E+03  0.58750799191E+03  0.00000000000E+00 0.  1.
         21   -1    0    0  503  504 -0.00000000000E+00 -0.00000000000E+00 -0.31125989487E+02  0.31125989487E+02  0.00000000000E+00 0.  1.
         25    2    1    2    0    0 -0.23638770978E+02 -0.37229161496E+02  0.21690907188E+03  0.25419822555E+03  0.12498956136E+03 0.  0.
         25    2    1    2    0    0  0.23638770978E+02  0.37229161496E+02  0.33947293054E+03  0.36443575585E+03  0.12500699025E+03 0.  0.
          5    1    3    3  501    0 -0.40887530030E+02 -0.44224579904E+02  0.32131512109E+02  0.68426074344E+02  0.47000000000E+01 0. -1.
         -5    1    3    3    0  501  0.17248759052E+02  0.69954184082E+01  0.18477755977E+03  0.18577215121E+03  0.47000000000E+01 0. -1.
          5    1    4    4  502    0  0.84955980921E+01 -0.11312811191E+02 -0.53600068827E+01  0.15842176548E+02  0.47000000000E+01 0.  1.
         -5    1    4    4    0  502  0.15143172886E+02  0.48541972687E+02  0.34483293743E+03  0.34859357930E+03  0.47000000000E+01 0.  1.
<mgrwt>
<rscale>  0 0.27045715E+03</rscale>
<asrwt>0</asrwt>
<pdfrwt beam="1">  1       21 0.90385837E-01 0.27045715E+03</pdfrwt>
<pdfrwt beam="2">  1       21 0.47886142E-02 0.27045715E+03</pdfrwt>
<totfact> 0.29476005E+05</totfact>
</mgrwt>
</event>
<event>
 8    1  0.9691636E-006  0.2608791E+03  0.7546771E-02  0.1106616E+00
         21   -1    0    0  504  503  0.00000000000E+00  0.00000000000E+00  0.34807152168E+02  0.34807152168E+02  0.00000000000E+00 0. -1.
         21   -1    0    0  503  504 -0.00000000000E+00 -0.00000000000E+00 -0.48882115570E+03  0.48882115570E+03  0.00000000000E+00 0. -1.
         25    2    1    2    0    0  0.18039561628E+02 -0.10453401516E+02 -0.16498162454E+03  0.20803411476E+03  0.12499822831E+03 0.  0.
         25    2    1    2    0    0 -0.18039561628E+02  0.10453401516E+02 -0.28903237899E+03  0.31559419311E+03  0.12500111693E+03 0.  0.
          5    1    3    3  501    0  0.25054734400E+02 -0.30187633061E+02  0.21119822178E+01  0.39567453476E+02  0.47000000000E+01 0.  1.
         -5    1    3    3    0  501 -0.70151727713E+01  0.19734231545E+02 -0.16709360676E+03  0.16846666129E+03  0.47000000000E+01 0.  1.
          5    1    4    4  502    0 -0.17541001104E+02  0.27624485502E+02 -0.80196857518E+01  0.34017705368E+02  0.47000000000E+01 0. -1.
         -5    1    4    4    0  502 -0.49856052428E+00 -0.17171083985E+02 -0.28101269324E+03  0.28157648774E+03  0.47000000000E+01 0. -1.
<mgrwt>
<rscale>  0 0.26087907E+03</rscale>
<asrwt>0</asrwt>
<pdfrwt beam="1">  1       21 0.53549466E-02 0.26087907E+03</pdfrwt>
<pdfrwt beam="2">  1       21 0.75203254E-01 0.26087907E+03</pdfrwt>
<totfact> 0.37213571E+05</totfact>
</mgrwt>
</event>
<event>
 8    1  0.9691636E-006  0.3185371E+03  0.7546771E-02  0.1076325E+00
         21   -1    0    0  504  503  0.00000000000E+00  0.00000000000E+00  0.62007706937E+02  0.62007706937E+02  0.00000000000E+00 0.  1.
         21   -1    0    0  503  504 -0.00000000000E+00 -0.00000000000E+00 -0.40908574425E+03  0.40908574425E+03  0.00000000000E+00 0.  1.
         25    2    1    2    0    0 -0.39491812001E+02 -0.89177563258E+02 -0.19591840358E+03  0.25203497008E+03  0.12500145709E+03 0.  0.
         25    2    1    2    0    0  0.39491812001E+02  0.89177563258E+02 -0.15115963373E+03  0.21905848111E+03  0.12500056909E+03 0.  0.
          5    1    3    3  501    0  0.41725651579E+02 -0.66580746684E+01 -0.57626728408E+02  0.71612078485E+02  0.47000000000E+01 0.  1.
         -5    1    3    3    0  501 -0.81217463580E+02 -0.82519488590E+02 -0.13829167518E+03  0.18042289159E+03  0.47000000000E+01 0.  1.
          5    1    4    4  502    0  0.26044100363E+02  0.32663557361E+02 -0.15504900291E+03  0.16064708665E+03  0.47000000000E+01 0.  1.
         -5    1    4    4    0  502  0.13447711638E+02  0.56514005897E+02  0.38893691833E+01  0.58411394466E+02  0.47000000000E+01 0.  1.
<mgrwt>
<rscale>  0 0.31853709E+03</rscale>
<asrwt>0</asrwt>
<pdfrwt beam="1">  1       21 0.95396473E-02 0.31853709E+03</pdfrwt>
<pdfrwt beam="2">  1       21 0.62936268E-01 0.31853709E+03</pdfrwt>
<totfact> 0.19924968E+05</totfact>
</mgrwt>
</event>
<event>
 8    1  0.9691636E-006  0.2647179E+03  0.7546771E-02  0.1104341E+00
         21   -1    0    0  504  503  0.00000000000E+00  0.00000000000E+00  0.37465261078E+02  0.37465261078E+02  0.00000000000E+00 0.  1.
         21   -1    0    0  503  504 -0.00000000000E+00 -0.00000000000E+00 -0.46760361601E+03  0.46760361601E+03  0.00000000000E+00 0.  1.
         25    2    1    2    0    0 -0.53302424044E+01  0.39812157413E+02 -0.18324154505E+03  0.22542781379E+03  0.12500726393E+03 0.  0.
         25    2    1    2    0    0  0.53302424044E+01 -0.39812157413E+02 -0.24689680988E+03  0.27964106330E+03  0.12501068030E+03 0.  0.
          5    1    3    3  501    0 -0.28074779120E+02  0.65435899768E+02 -0.17624639085E+03  0.19014449897E+03  0.47000000000E+01 0. -1.
         -5    1    3    3    0  501  0.22744536715E+02 -0.25623742355E+02 -0.69951542054E+01  0.35283314825E+02  0.47000000000E+01 0. -1.
          5    1    4    4  502    0  0.82081624027E+01 -0.70873816649E+02 -0.23547294126E+03  0.24608955257E+03  0.47000000000E+01 0. -1.
         -5    1    4    4    0  502 -0.28779199983E+01  0.31061659236E+02 -0.11423868621E+02  0.33551510730E+02  0.47000000000E+01 0. -1.
<mgrwt>
<rscale>  0 0.26471790E+03</rscale>
<asrwt>0</asrwt>
<pdfrwt beam="1">  1       21 0.57638864E-02 0.26471790E+03</pdfrwt>
<pdfrwt beam="2">  1       21 0.71939017E-01 0.26471790E+03</pdfrwt>
<totfact> 0.36200986E+05</totfact>
</mgrwt>
</event>
<event>
 8    1  0.9691636E-006  0.2630517E+03  0.7546771E-02  0.1105323E+00
         21   -1    0    0  504  503  0.00000000000E+00  0.00000000000E+00  0.10017736731E+03  0.10017736731E+03  0.00000000000E+00 0.  1.
         21   -1    0    0  503  504 -0.00000000000E+00 -0.00000000000E+00 -0.17268422551E+03  0.17268422551E+03  0.00000000000E+00 0.  1.
         25    2    1    2    0    0  0.39867157240E+02 -0.62673318189E+01 -0.43331670045E+02  0.13829422591E+03  0.12497595615E+03 0.  0.
         25    2    1    2    0    0 -0.39867157240E+02  0.62673318189E+01 -0.29175188155E+02  0.13456736692E+03  0.12501405905E+03 0.  0.
          5    1    3    3  501    0  0.15612827558E+02  0.49175640776E+02  0.15179489137E+02  0.53986210467E+02  0.47000000000E+01 0. -1.
         -5    1    3    3    0  501  0.24254329682E+02 -0.55442972595E+02 -0.58511159182E+02  0.84308015440E+02  0.47000000000E+01 0. -1.
          5    1    4    4  502    0  0.44343662819E+02 -0.77038632996E+01 -0.39112033153E+01  0.45421332580E+02  0.47000000000E+01 0. -1.
         -5    1    4    4    0  502 -0.84210820059E+02  0.13971195119E+02 -0.25263984839E+02  0.89146034337E+02  0.47000000000E+01 0. -1.
<mgrwt>
<rscale>  0 0.26305171E+03</rscale>
<asrwt>0</asrwt>
<pdfrwt beam="1">  1       21 0.15411903E-01 0.26305171E+03</pdfrwt>
<pdfrwt beam="2">  1       21 0.26566804E-01 0.26305171E+03</pdfrwt>
<totfact> 0.49662247E+05</totfact>
</mgrwt>
</event>
<event>
 8    1  0.9691636E-006  0.3099060E+03  0.7546771E-02  0.1080391E+00
         21   -1    0    0  504  503  0.00000000000E+00  0.00000000000E+00  0.17784885418E+02  0.17784885418E+02  0.00000000000E+00 0.  1.
         21   -1    0    0  503  504 -0.00000000000E+00 -0.00000000000E+00 -0.13500473784E+04  0.13500473784E+04  0.00000000000E+00 0.  1.
         25    2    1    2    0    0 -0.12620802104E+02 -0.30913118658E+02 -0.10424726639E+04  0.10504710508E+04  0.12500107285E+03 0.  0.
         25    2    1    2    0    0  0.12620802104E+02  0.30913118658E+02 -0.28978982913E+03  0.31736121298E+03  0.12500035555E+03 0.  0.
          5    1    3    3  501    0  0.32318277543E+01 -0.14977217131E+02 -0.12716242508E+02  0.20458606188E+02  0.47000000000E+01 0. -1.
         -5    1    3    3    0  501 -0.15852629858E+02 -0.15935901527E+02 -0.10297564213E+04  0.10300124447E+04  0.47000000000E+01 0. -1.
          5    1    4    4  502    0 -0.59204564542E+01  0.56274504960E+02 -0.27758302810E+03  0.28333072407E+03  0.47000000000E+01 0.  1.
         -5    1    4    4    0  502  0.18541258558E+02 -0.25361386302E+02 -0.12206801029E+02  0.34030488910E+02  0.47000000000E+01 0.  1.
<mgrwt>
<rscale>  0 0.30990604E+03</rscale>
<asrwt>0</asrwt>
<pdfrwt beam="1">  1       21 0.27361371E-02 0.30990604E+03</pdfrwt>
<pdfrwt beam="2">  1       21 0.20769953E+00 0.30990604E+03</pdfrwt>
<totfact> 0.83352143E+04</totfact>
</mgrwt>
</event>
<event>
 8    1  0.9691636E-006  0.2679097E+03  0.7546771E-02  0.1102482E+00
         21   -1    0    0  504  503  0.00000000000E+00  0.00000000000E+00  0.36021049744E+02  0.36021049744E+02  0.00000000000E+00 0. -1.
         21   -1    0    0  503  504 -0.00000000000E+00 -0.00000000000E+00 -0.49815060721E+03  0.49815060721E+03  0.00000000000E+00 0. -1.
         25    2    1    2    0    0  0.99493317650E+01 -0.21262362830E+02 -0.31484445012E+03  0.33957169452E+03  0.12502332052E+03 0.  0.
         25    2    1    2    0    0 -0.99493317650E+01  0.21262362830E+02 -0.14728510735E+03  0.19459996243E+03  0.12500066103E+03 0.  0.
          5    1    3    3  501    0 -0.38839739388E+02  0.10378502019E+02 -0.24610934638E+03  0.24941559502E+03  0.47000000000E+01 0. -1.
         -5    1    3    3    0  501  0.48789071153E+02 -0.31640864849E+02 -0.68735103734E+02  0.90156099504E+02  0.47000000000E+01 0. -1.
          5    1    4    4  502    0 -0.45455111039E+02 -0.36527634319E+02 -0.58050130446E+02  0.82415671043E+02  0.47000000000E+01 0.  1.
         -5    1    4    4    0  502  0.35505779274E+02  0.57789997150E+02 -0.89234976899E+02  0.11218429139E+03  0.47000000000E+01 0.  1.
<mgrwt>
<rscale>  0 0.26790974E+03</rscale>
<asrwt>0</asrwt>
<pdfrwt beam="1">  1       21 0.55416998E-02 0.26790974E+03</pdfrwt>
<pdfrwt beam="2">  1       21 0.76638558E-01 0.26790974E+03</pdfrwt>
<totfact> 0.33572227E+05</totfact>
</mgrwt>
</event>
<event>
 8    1  0.9691636E-006  0.2887827E+03  0.7546771E-02  0.1090986E+00
         21   -1    0    0  504  503  0.00000000000E+00  0.00000000000E+00  0.58303528675E+02  0.58303528675E+02  0.00000000000E+00 0. -1.
         21   -1    0    0  503  504 -0.00000000000E+00 -0.00000000000E+00 -0.35759184637E+03  0.35759184637E+03  0.00000000000E+00 0. -1.
         25    2    1    2    0    0 -0.23049786947E+02 -0.71686268605E+01 -0.24776017894E+03  0.27855011633E+03  0.12498951616E+03 0.  0.
         25    2    1    2    0    0  0.23049786947E+02  0.71686268605E+01 -0.51528138754E+02  0.13734525871E+03  0.12500355642E+03 0.  0.
          5    1    3    3  501    0 -0.13812902354E+02  0.18866720270E+02  0.48934934682E+01  0.24347190465E+02  0.47000000000E+01 0. -1.
         -5    1    3    3    0  501 -0.92368845933E+01 -0.26035347131E+02 -0.25265367241E+03  0.25420292587E+03  0.47000000000E+01 0. -1.
          5    1    4    4  502    0 -0.27850597718E+02 -0.28846725281E+02 -0.61958562881E+02  0.73950949061E+02  0.47000000000E+01 0. -1.
         -5    1    4    4    0  502  0.50900384665E+02  0.36015352142E+02  0.10430424127E+02  0.63394309653E+02  0.47000000000E+01 0. -1.
<mgrwt>
<rscale>  0 0.28878273E+03</rscale>
<asrwt>0</asrwt>
<pdfrwt beam="1">  1       21 0.89697737E-02 0.28878273E+03</pdfrwt>
<pdfrwt beam="2">  1       21 0.55014130E-01 0.28878273E+03</pdfrwt>
<totfact> 0.29928778E+05</totfact>
</mgrwt>
</event>
<event>
 8    1  0.9691636E-006  0.2793473E+03  0.7546771E-02  0.1096046E+00
         21   -1    0    0  504  503  0.00000000000E+00  0.00000000000E+00  0.81533097488E+02  0.81533097488E+02  0.00000000000E+00 0. -1.
         21   -1    0    0  503  504 -0.00000000000E+00 -0.00000000000E+00 -0.23927379675E+03  0.23927379675E+03  0.00000000000E+00 0. -1.
         25    2    1    2    0    0 -0.47115060358E+02 -0.33281159061E+02 -0.51723762391E+02  0.14704855429E+03  0.12498185973E+03 0.  0.
         25    2    1    2    0    0  0.47115060358E+02  0.33281159061E+02 -0.10601693687E+03  0.17375833995E+03  0.12499962135E+03 0.  0.
          5    1    3    3  501    0 -0.57738216666E+02 -0.72089208595E+02 -0.52863452471E+02  0.10652319122E+03  0.47000000000E+01 0.  1.
         -5    1    3    3    0  501  0.10623156308E+02  0.38808049534E+02  0.11396900795E+01  0.40525363071E+02  0.47000000000E+01 0.  1.
          5    1    4    4  502    0  0.65012404540E+02  0.38397238329E+02 -0.10553330215E+02  0.76383397633E+02  0.47000000000E+01 0.  1.
         -5    1    4    4    0  502 -0.17897344182E+02 -0.51160792678E+01 -0.95463606653E+02  0.97374942316E+02  0.47000000000E+01 0.  1.
<mgrwt>
<rscale>  0 0.27934734E+03</rscale>
<asrwt>0</asrwt>
<pdfrwt beam="1">  1       21 0.12543554E-01 0.27934734E+03</pdfrwt>
<pdfrwt beam="2">  1       21 0.36811353E-01 0.27934734E+03</pdfrwt>
<totfact> 0.37860865E+05</totfact>
</mgrwt>
</event>
<event>
 8    1  0.9691636E-006  0.2885907E+03  0.7546771E-02  0.1091087E+00
         21   -1    0    0  504  503  0.00000000000E+00  0.00000000000E+00  0.55162986608E+02  0.55162986608E+02  0.00000000000E+00 0. -1.
         21   -1    0    0  503  504 -0.00000000000E+00 -0.00000000000E+00 -0.37744787099E+03  0.37744787099E+03  0.00000000000E+00 0. -1.
         25    2    1    2    0    0 -0.14068316699E+02 -0.14996697606E+02 -0.26478514639E+03  0.29352647328E+03  0.12499519309E+03 0.  0.
         25    2    1    2    0    0  0.14068316699E+02  0.14996697606E+02 -0.57499737988E+02  0.13908438431E+03  0.12496170460E+03 0.  0.
          5    1    3    3  501    0 -0.35976627599E+02 -0.50315577098E+02 -0.23265629777E+03  0.24078417291E+03  0.47000000000E+01 0. -1.
         -5    1    3    3    0  501  0.21908310900E+02  0.35318879492E+02 -0.32128848625E+02  0.52742300377E+02  0.47000000000E+01 0. -1.
          5    1    4    4  502    0  0.56184087705E+02  0.39090883228E+02 -0.71099488359E+01  0.68973837324E+02  0.47000000000E+01 0. -1.
         -5    1    4    4    0  502 -0.42115771006E+02 -0.24094185622E+02 -0.50389789152E+02  0.70110546988E+02  0.47000000000E+01 0. -1.
<mgrwt>
<rscale>  0 0.28859073E+03</rscale>
<asrwt>0</asrwt>
<pdfrwt beam="1">  1       21 0.84866136E-02 0.28859073E+03</pdfrwt>
<pdfrwt beam="2">  1       21 0.58068901E-01 0.28859073E+03</pdfrwt>
<totfact> 0.29389478E+05</totfact>
</mgrwt>
</event>
<event>
 8    1  0.9691636E-006  0.2861516E+03  0.7546771E-02  0.1092376E+00
         21   -1    0    0  504  503  0.00000000000E+00  0.00000000000E+00  0.31920988810E+03  0.31920988810E+03  0.00000000000E+00 0. -1.
         21   -1    0    0  503  504 -0.00000000000E+00 -0.00000000000E+00 -0.64129237431E+02  0.64129237431E+02  0.00000000000E+00 0. -1.
         25    2    1    2    0    0 -0.61894580359E+01  0.14030454921E+02  0.36518067749E+02  0.13109586040E+03  0.12496956543E+03 0.  0.
         25    2    1    2    0    0  0.61894580359E+01 -0.14030454921E+02  0.21856258291E+03  0.25224326513E+03  0.12498759577E+03 0.  0.
          5    1    3    3  501    0  0.53382300933E+02 -0.19712648508E+02  0.20096388663E+02  0.60532746521E+02  0.47000000000E+01 0. -1.
         -5    1    3    3    0  501 -0.59571758969E+02  0.33743103429E+02  0.16421679086E+02  0.70563113875E+02  0.47000000000E+01 0. -1.
          5    1    4    4  502    0 -0.46877773965E+02 -0.20241444644E+02  0.17731703158E+03  0.18458239749E+03  0.47000000000E+01 0. -1.
         -5    1    4    4    0  502  0.53067232001E+02  0.62109897227E+01  0.41245551333E+02  0.67660867644E+02  0.47000000000E+01 0. -1.
<mgrwt>
<rscale>  0 0.28615162E+03</rscale>
<asrwt>0</asrwt>
<pdfrwt beam="1">  1       21 0.49109213E-01 0.28615162E+03</pdfrwt>
<pdfrwt beam="2">  1       21 0.98660367E-02 0.28615162E+03</pdfrwt>
<totfact> 0.32161820E+05</totfact>
</mgrwt>
</event>
<event>
 8    1  0.9691636E-006  0.2796866E+03  0.7546771E-02  0.1095860E+00
         21   -1    0    0  504  503  0.00000000000E+00  0.00000000000E+00  0.23028303156E+02  0.23028303156E+02  0.00000000000E+00 0.  1.
         21   -1    0    0  503  504 -0.00000000000E+00 -0.00000000000E+00 -0.84922235287E+03  0.84922235287E+03  0.00000000000E+00 0.  1.
         25    2    1    2    0    0 -0.53833309979E+02 -0.18429092133E+02 -0.33104658955E+03  0.35840607175E+03  0.12500164445E+03 0.  0.
         25    2    1    2    0    0  0.53833309979E+02  0.18429092133E+02 -0.49514746017E+03  0.51384458427E+03  0.12501037069E+03 0.  0.
          5    1    3    3  501    0  0.28653463246E+02  0.44551679864E+00 -0.20162280064E+03  0.20370337056E+03  0.47000000000E+01 0. -1.
         -5    1    3    3    0  501 -0.82486773225E+02 -0.18874608932E+02 -0.12942378892E+03  0.15470270119E+03  0.47000000000E+01 0. -1.
          5    1    4    4  502    0  0.40988084139E+01  0.56219860479E+02 -0.36557570409E+03  0.36992588226E+03  0.47000000000E+01 0. -1.
         -5    1    4    4    0  502  0.49734501565E+02 -0.37790768346E+02 -0.12957175607E+03  0.14391870202E+03  0.47000000000E+01 0. -1.
<mgrwt>
<rscale>  0 0.27968661E+03</rscale>
<asrwt>0</asrwt>
<pdfrwt beam="1">  1       21 0.35428159E-02 0.27968661E+03</pdfrwt>
<pdfrwt beam="2">  1       21 0.13064959E+00 0.27968661E+03</pdfrwt>
<totfact> 0.19892393E+05</totfact>
</mgrwt>
</event>
<event>
 8    1  0.9691636E-006  0.3752583E+03  0.7546771E-02  0.1052700E+00
         21   -1    0    0  504  503  0.00000000000E+00  0.00000000000E+00  0.40109850894E+03  0.40109850894E+03  0.00000000000E+00 0. -1.
         21   -1    0    0  503  504 -0.00000000000E+00 -0.00000000000E+00 -0.87770679383E+02  0.87770679383E+02  0.00000000000E+00 0. -1.
         25    2    1    2    0    0  0.39788650233E+02  0.11186354419E+03  0.60190549274E+02  0.18260365310E+03  0.12499841078E+03 0.  0.
         25    2    1    2    0    0 -0.39788650233E+02 -0.11186354419E+03  0.25313728029E+03  0.30626553523E+03  0.12499402462E+03 0.  0.
          5    1    3    3  501    0  0.52687091335E+02  0.10206134556E+02 -0.14409493109E+02  0.55765744571E+02  0.47000000000E+01 0.  1.
         -5    1    3    3    0  501 -0.12898441102E+02  0.10165740964E+03  0.74600042382E+02  0.12683790853E+03  0.47000000000E+01 0.  1.
          5    1    4    4  502    0 -0.22376686700E+02 -0.30581791271E+02 -0.16496577729E+01  0.38220065878E+02  0.47000000000E+01 0.  1.
         -5    1    4    4    0  502 -0.17411963533E+02 -0.81281752921E+02  0.25478693806E+03  0.26804546935E+03  0.47000000000E+01 0.  1.
<mgrwt>
<rscale>  0 0.37525825E+03</rscale>
<asrwt>0</asrwt>
<pdfrwt beam="1">  1       21 0.61707462E-01 0.37525825E+03</pdfrwt>
<pdfrwt beam="2">  1       21 0.13503182E-01 0.37525825E+03</pdfrwt>
<totfact> 0.10972445E+05</totfact>
</mgrwt>
</event>
<event>
 8    1  0.9691636E-006  0.5040448E+03  0.7546771E-02  0.1012729E+00
         21   -1    0    0  504  503  0.00000000000E+00  0.00000000000E+00  0.45214704160E+03  0.45214704160E+03  0.00000000000E+00 0.  1.
         21   -1    0    0  503  504 -0.00000000000E+00 -0.00000000000E+00 -0.14047488253E+03  0.14047488253E+03  0.00000000000E+00 0.  1.
         25    2    1    2    0    0 -0.18165907365E+03 -0.12375571060E+02  0.13148620493E+02  0.22127974983E+03  0.12505465871E+03 0.  0.
         25    2    1    2    0    0  0.18165907365E+03  0.12375571060E+02  0.29852353858E+03  0.37134217430E+03  0.12500213408E+03 0.  0.
          5    1    3    3  501    0 -0.17398525100E+03 -0.48385127108E+02 -0.33053224685E+01  0.18067928284E+03  0.47000000000E+01 0. -1.
         -5    1    3    3    0  501 -0.76738226552E+01  0.36009556048E+02  0.16453942962E+02  0.40600466991E+02  0.47000000000E+01 0. -1.
          5    1    4    4  502    0  0.15333523091E+02 -0.16848981376E+02  0.13233304389E+03  0.13436193512E+03  0.47000000000E+01 0.  1.
         -5    1    4    4    0  502  0.16632555056E+03  0.29224552437E+02  0.16619049469E+03  0.23698023918E+03  0.47000000000E+01 0.  1.
<mgrwt>
<rscale>  0 0.50404485E+03</rscale>
<asrwt>0</asrwt>
<pdfrwt beam="1">  1       21 0.69561083E-01 0.50404485E+03</pdfrwt>
<pdfrwt beam="2">  1       21 0.21611521E-01 0.50404485E+03</pdfrwt>
<totfact> 0.33842299E+04</totfact>
</mgrwt>
</event>
<event>
 8    1  0.9691636E-006  0.4522822E+03  0.7546771E-02  0.1027044E+00
         21   -1    0    0  504  503  0.00000000000E+00  0.00000000000E+00  0.36153165961E+03  0.36153165961E+03  0.00000000000E+00 0. -1.
         21   -1    0    0  503  504 -0.00000000000E+00 -0.00000000000E+00 -0.14145315084E+03  0.14145315084E+03  0.00000000000E+00 0. -1.
         25    2    1    2    0    0 -0.42112949020E+02 -0.15339402927E+03  0.22242417420E+03  0.30066557886E+03  0.12499619334E+03 0.  0.
         25    2    1    2    0    0  0.42112949020E+02  0.15339402927E+03 -0.23456654311E+01  0.20231923159E+03  0.12499736250E+03 0.  0.
          5    1    3    3  501    0 -0.21952588380E+02 -0.13326242833E+03  0.83684364393E+02  0.15895267781E+03  0.47000000000E+01 0.  1.
         -5    1    3    3    0  501 -0.20160360640E+02 -0.20131600947E+02  0.13873980981E+03  0.14171290105E+03  0.47000000000E+01 0.  1.
          5    1    4    4  502    0  0.73606335212E+02  0.57205784707E+02  0.26393406226E+02  0.97000496284E+02  0.47000000000E+01 0.  1.
         -5    1    4    4    0  502 -0.31493386192E+02  0.96188244567E+02 -0.28739071657E+02  0.10531873531E+03  0.47000000000E+01 0.  1.
<mgrwt>
<rscale>  0 0.45228218E+03</rscale>
<asrwt>0</asrwt>
<pdfrwt beam="1">  1       21 0.55620255E-01 0.45228218E+03</pdfrwt>
<pdfrwt beam="2">  1       21 0.21762023E-01 0.45228218E+03</pdfrwt>
<totfact> 0.55330255E+04</totfact>
</mgrwt>
</event>
<event>
 8    1  0.9691636E-006  0.3296720E+03  0.7546771E-02  0.1071282E+00
         21   -1    0    0  504  503  0.00000000000E+00  0.00000000000E+00  0.64170566343E+02  0.64170566343E+02  0.00000000000E+00 0.  1.
         21   -1    0    0  503  504 -0.00000000000E+00 -0.00000000000E+00 -0.42341707205E+03  0.42341707205E+03  0.00000000000E+00 0.  1.
         25    2    1    2    0    0 -0.91188930693E+02  0.56544659940E+02 -0.17104626608E+03  0.23747351410E+03  0.12499650040E+03 0.  0.
         25    2    1    2    0    0  0.91188930693E+02 -0.56544659940E+02 -0.18820023963E+03  0.25011412429E+03  0.12500010130E+03 0.  0.
          5    1    3    3  501    0 -0.11025028896E+03  0.76498016435E+01 -0.12994137445E+03  0.17064728675E+03  0.47000000000E+01 0. -1.
         -5    1    3    3    0  501  0.19061358265E+02  0.48894858297E+02 -0.41104891632E+02  0.66826227358E+02  0.47000000000E+01 0. -1.
          5    1    4    4  502    0 -0.21509182722E+02  0.60738026585E+01 -0.11245351562E+01  0.22866801250E+02  0.47000000000E+01 0.  1.
         -5    1    4    4    0  502  0.11269811341E+03 -0.62618462599E+02 -0.18707570447E+03  0.22724732304E+03  0.47000000000E+01 0.  1.
<mgrwt>
<rscale>  0 0.32967204E+03</rscale>
<asrwt>0</asrwt>
<pdfrwt beam="1">  1       21 0.98723949E-02 0.32967204E+03</pdfrwt>
<pdfrwt beam="2">  1       21 0.65141087E-01 0.32967204E+03</pdfrwt>
<totfact> 0.17333728E+05</totfact>
</mgrwt>
</event>
<event>
 8    1  0.9691636E-006  0.2986324E+03  0.7546771E-02  0.1085926E+00
         21   -1    0    0  504  503  0.00000000000E+00  0.00000000000E+00  0.50423533027E+02  0.50423533027E+02  0.00000000000E+00 0.  1.
         21   -1    0    0  503  504 -0.00000000000E+00 -0.00000000000E+00 -0.44216123778E+03  0.44216123778E+03  0.00000000000E+00 0.  1.
         25    2    1    2    0    0 -0.69650870039E+01 -0.64687975409E+02 -0.27731182046E+03  0.31106489921E+03  0.12500591649E+03 0.  0.
         25    2    1    2    0    0  0.69650870039E+01  0.64687975409E+02 -0.11442588430E+03  0.18151987159E+03  0.12499253653E+03 0.  0.
          5    1    3    3  501    0 -0.33367500840E+02  0.20448361220E+02 -0.15319646360E+03  0.15818587816E+03  0.47000000000E+01 0.  1.
         -5    1    3    3    0  501  0.26402413836E+02 -0.85136336629E+02 -0.12411535685E+03  0.15287902105E+03  0.47000000000E+01 0.  1.
          5    1    4    4  502    0 -0.20738120786E+02  0.92305263493E+02 -0.52993781832E+02  0.10853921980E+03  0.47000000000E+01 0.  1.
         -5    1    4    4    0  502  0.27703207790E+02 -0.27617288084E+02 -0.61432102464E+02  0.72980651793E+02  0.47000000000E+01 0.  1.
<mgrwt>
<rscale>  0 0.29863243E+03</rscale>
<asrwt>0</asrwt>
<pdfrwt beam="1">  1       21 0.77574667E-02 0.29863243E+03</pdfrwt>
<pdfrwt beam="2">  1       21 0.68024805E-01 0.29863243E+03</pdfrwt>
<totfact> 0.24296340E+05</totfact>
</mgrwt>
</event>
<event>
 8    1  0.9691636E-006  0.2640752E+03  0.7546771E-02  0.1104719E+00
         21   -1    0    0  504  503  0.00000000000E+00  0.00000000000E+00  0.21035846197E+02  0.21035846197E+02  0.00000000000E+00 0. -1.
         21   -1    0    0  503  504 -0.00000000000E+00 -0.00000000000E+00 -0.82877259113E+03  0.82877259113E+03  0.00000000000E+00 0. -1.
         25    2    1    2    0    0 -0.12322055090E+02 -0.16259661848E+02 -0.52395973724E+03  0.53904511130E+03  0.12497846265E+03 0.  0.
         25    2    1    2    0    0  0.12322055090E+02  0.16259661848E+02 -0.28377700769E+03  0.31076332603E+03  0.12501297957E+03 0.  0.
          5    1    3    3  501    0  0.50231791846E+02  0.40128535486E+01 -0.12813278084E+03  0.13776587179E+03  0.47000000000E+01 0.  1.
         -5    1    3    3    0  501 -0.62553846935E+02 -0.20272515396E+02 -0.39582695640E+03  0.40127923951E+03  0.47000000000E+01 0.  1.
          5    1    4    4  502    0 -0.73550091945E-01  0.70516417067E+02 -0.15119237700E+03  0.16689456357E+03  0.47000000000E+01 0. -1.
         -5    1    4    4    0  502  0.12395605182E+02 -0.54256755220E+02 -0.13258463070E+03  0.14386876246E+03  0.47000000000E+01 0. -1.
<mgrwt>
<rscale>  0 0.26407524E+03</rscale>
<asrwt>0</asrwt>
<pdfrwt beam="1">  1       21 0.32362844E-02 0.26407524E+03</pdfrwt>
<pdfrwt beam="2">  1       21 0.12750346E+00 0.26407524E+03</pdfrwt>
<totfact> 0.24745975E+05</totfact>
</mgrwt>
</event>
<event>
 8    1  0.9691636E-006  0.3359880E+03  0.7546771E-02  0.1068518E+00
         21   -1    0    0  504  503  0.00000000000E+00  0.00000000000E+00  0.19363126236E+03  0.19363126236E+03  0.00000000000E+00 0.  1.
         21   -1    0    0  503  504 -0.00000000000E+00 -0.00000000000E+00 -0.14575119738E+03  0.14575119738E+03  0.00000000000E+00 0.  1.
         25    2    1    2    0    0  0.49568231651E+02 -0.26869448725E+02 -0.74085354400E+02  0.15586048293E+03  0.12499949416E+03 0.  0.
         25    2    1    2    0    0 -0.49568231651E+02  0.26869448725E+02  0.12196541938E+03  0.18352197681E+03  0.12500310229E+03 0.  0.
          5    1    3    3  501    0  0.75195602360E+02 -0.56211985244E+02 -0.34530011065E+02  0.10014278588E+03  0.47000000000E+01 0. -1.
         -5    1    3    3    0  501 -0.25627370709E+02  0.29342536519E+02 -0.39555343335E+02  0.55717697056E+02  0.47000000000E+01 0. -1.
          5    1    4    4  502    0  0.37197057731E+02  0.25549894932E+02  0.66236236136E+02  0.80285410956E+02  0.47000000000E+01 0. -1.
         -5    1    4    4    0  502 -0.86765289382E+02  0.13195537934E+01  0.55729183248E+02  0.10323656585E+03  0.47000000000E+01 0. -1.
<mgrwt>
<rscale>  0 0.33598803E+03</rscale>
<asrwt>0</asrwt>
<pdfrwt beam="1">  1       21 0.29789425E-01 0.33598803E+03</pdfrwt>
<pdfrwt beam="2">  1       21 0.22423261E-01 0.33598803E+03</pdfrwt>
<totfact> 0.19393101E+05</totfact>
</mgrwt>
</event>
<event>
 8    1  0.9691636E-006  0.2921393E+03  0.7546771E-02  0.1089237E+00
         21   -1    0    0  504  503  0.00000000000E+00  0.00000000000E+00  0.55882362923E+02  0.55882362923E+02  0.00000000000E+00 0.  1.
         21   -1    0    0  503  504 -0.00000000000E+00 -0.00000000000E+00 -0.38180808832E+03  0.38180808832E+03  0.00000000000E+00 0.  1.
         25    2    1    2    0    0 -0.75571573234E+02 -0.53250760318E+00 -0.16270174481E+03  0.21865067259E+03  0.12499965047E+03 0.  0.
         25    2    1    2    0    0  0.75571573234E+02  0.53250760318E+00 -0.16322398059E+03  0.21903977865E+03  0.12500004218E+03 0.  0.
          5    1    3    3  501    0 -0.52901755262E+02  0.15151184943E+02 -0.17175109555E+01  0.55255714264E+02  0.47000000000E+01 0. -1.
         -5    1    3    3    0  501 -0.22669817972E+02 -0.15683692546E+02 -0.16098423385E+03  0.16339495833E+03  0.47000000000E+01 0. -1.
          5    1    4    4  502    0 -0.16000310413E+02  0.42183197570E+02 -0.51042335957E+02  0.68285006777E+02  0.47000000000E+01 0. -1.
         -5    1    4    4    0  502  0.91571883647E+02 -0.41650689967E+02 -0.11218164463E+03  0.15075477187E+03  0.47000000000E+01 0. -1.
<mgrwt>
<rscale>  0 0.29213927E+03</rscale>
<asrwt>0</asrwt>
<pdfrwt beam="1">  1       21 0.85972865E-02 0.29213927E+03</pdfrwt>
<pdfrwt beam="2">  1       21 0.58739706E-01 0.29213927E+03</pdfrwt>
<totfact> 0.28000885E+05</totfact>
</mgrwt>
</event>
<event>
 8    1  0.9691636E-006  0.2607298E+03  0.7546771E-02  0.1106706E+00
         21   -1    0    0  504  503  0.00000000000E+00  0.00000000000E+00  0.70263071975E+02  0.70263071975E+02  0.00000000000E+00 0.  1.
         21   -1    0    0  503  504 -0.00000000000E+00 -0.00000000000E+00 -0.24187687885E+03  0.24187687885E+03  0.00000000000E+00 0.  1.
         25    2    1    2    0    0 -0.36008931855E+02 -0.35911809614E+01 -0.76530587890E+02  0.15097149795E+03  0.12500369017E+03 0.  0.
         25    2    1    2    0    0  0.36008931855E+02  0.35911809614E+01 -0.95083218982E+02  0.16116845287E+03  0.12499964766E+03 0.  0.
          5    1    3    3  501    0  0.32597987221E+02  0.81767326473E+01 -0.73710844462E+02  0.81147189224E+02  0.47000000000E+01 0.  1.
         -5    1    3    3    0  501 -0.68606919076E+02 -0.11767913609E+02 -0.28197434276E+01  0.69824308724E+02  0.47000000000E+01 0.  1.
          5    1    4    4  502    0  0.31148583560E+02  0.48821586087E+02 -0.27939746505E+01  0.58169389031E+02  0.47000000000E+01 0. -1.
         -5    1    4    4    0  502  0.48603482956E+01 -0.45230405126E+02 -0.92289244332E+02  0.10299906384E+03  0.47000000000E+01 0. -1.
<mgrwt>
<rscale>  0 0.26072984E+03</rscale>
<asrwt>0</asrwt>
<pdfrwt beam="1">  1       21 0.10809703E-01 0.26072984E+03</pdfrwt>
<pdfrwt beam="2">  1       21 0.37211827E-01 0.26072984E+03</pdfrwt>
<totfact> 0.48575494E+05</totfact>
</mgrwt>
</event>
<event>
 8    1  0.9691636E-006  0.3499180E+03  0.7546771E-02  0.1062649E+00
         21   -1    0    0  504  503  0.00000000000E+00  0.00000000000E+00  0.34108363551E+02  0.34108363551E+02  0.00000000000E+00 0. -1.
         21   -1    0    0  503  504 -0.00000000000E+00 -0.00000000000E+00 -0.89745304201E+03  0.89745304201E+03  0.00000000000E+00 0. -1.
         25    2    1    2    0    0 -0.43264829394E+02 -0.10210594823E+03 -0.29363251664E+03  0.33784911271E+03  0.12499799200E+03 0.  0.
         25    2    1    2    0    0  0.43264829394E+02  0.10210594823E+03 -0.56971216182E+03  0.59371229286E+03  0.12499947693E+03 0.  0.
          5    1    3    3  501    0  0.80285477229E+01 -0.13218284832E+02 -0.19421914453E+03  0.19489060196E+03  0.47000000000E+01 0. -1.
         -5    1    3    3    0  501 -0.51293377117E+02 -0.88887663394E+02 -0.99413372108E+02  0.14295851074E+03  0.47000000000E+01 0. -1.
          5    1    4    4  502    0  0.56426078060E+02  0.12635282288E+03 -0.45275367581E+03  0.47345212968E+03  0.47000000000E+01 0.  1.
         -5    1    4    4    0  502 -0.13161248666E+02 -0.24246874658E+02 -0.11695848602E+03  0.12026016318E+03  0.47000000000E+01 0.  1.
<mgrwt>
<rscale>  0 0.34991802E+03</rscale>
<asrwt>0</asrwt>
<pdfrwt beam="1">  1       21 0.52474418E-02 0.34991802E+03</pdfrwt>
<pdfrwt beam="2">  1       21 0.13806966E+00 0.34991802E+03</pdfrwt>
<totfact> 0.86647695E+04</totfact>
</mgrwt>
</event>
<event>
 8    1  0.9691636E-006  0.2650573E+03  0.7546771E-02  0.1104142E+00
         21   -1    0    0  504  503  0.00000000000E+00  0.00000000000E+00  0.19709685679E+03  0.19709685679E+03  0.00000000000E+00 0. -1.
         21   -1    0    0  503  504 -0.00000000000E+00 -0.00000000000E+00 -0.89112753603E+02  0.89112753603E+02  0.00000000000E+00 0. -1.
         25    2    1    2    0    0 -0.40555348063E+02  0.16963808436E+02  0.56770759279E+02  0.14415693003E+03  0.12500317721E+03 0.  0.
         25    2    1    2    0    0  0.40555348063E+02 -0.16963808436E+02  0.51213343908E+02  0.14205268036E+03  0.12499460129E+03 0.  0.
          5    1    3    3  501    0  0.10414431046E+02 -0.42130505699E+02 -0.57798814426E+01  0.44033361375E+02  0.47000000000E+01 0.  1.
         -5    1    3    3    0  501 -0.50969779109E+02  0.59094314135E+02  0.62550640721E+02  0.10012356865E+03  0.47000000000E+01 0.  1.
          5    1    4    4  502    0  0.72749224865E+02 -0.16899868013E+02  0.71672058576E+02  0.10361963732E+03  0.47000000000E+01 0.  1.
         -5    1    4    4    0  502 -0.32193876801E+02 -0.63940422815E-01 -0.20458714668E+02  0.38433043045E+02  0.47000000000E+01 0.  1.
<mgrwt>
<rscale>  0 0.26505730E+03</rscale>
<asrwt>0</asrwt>
<pdfrwt beam="1">  1       21 0.30322593E-01 0.26505730E+03</pdfrwt>
<pdfrwt beam="2">  1       21 0.13709654E-01 0.26505730E+03</pdfrwt>
<totfact> 0.47513939E+05</totfact>
</mgrwt>
</event>
<event>
 8    1  0.9691636E-006  0.2884189E+03  0.7546771E-02  0.1091178E+00
         21   -1    0    0  504  503  0.00000000000E+00  0.00000000000E+00  0.44786713509E+03  0.44786713509E+03  0.00000000000E+00 0. -1.
         21   -1    0    0  503  504 -0.00000000000E+00 -0.00000000000E+00 -0.46434216078E+02  0.46434216078E+02  0.00000000000E+00 0. -1.
         25    2    1    2    0    0  0.32664964053E+02  0.12672551382E+02  0.93072622225E+02  0.15972840447E+03  0.12499222676E+03 0.  0.
         25    2    1    2    0    0 -0.32664964053E+02 -0.12672551382E+02  0.30836029679E+03  0.33457294670E+03  0.12500156236E+03 0.  0.
          5    1    3    3  501    0 -0.18382902888E+02 -0.19550275528E+02 -0.18397929564E+02  0.32874278761E+02  0.47000000000E+01 0. -1.
         -5    1    3    3    0  501  0.51047866941E+02  0.32222826910E+02  0.11147055179E+03  0.12685412571E+03  0.47000000000E+01 0. -1.
          5    1    4    4  502    0  0.45119667883E+02 -0.49101123827E+01  0.16528644942E+03  0.17146893012E+03  0.47000000000E+01 0.  1.
         -5    1    4    4    0  502 -0.77784631936E+02 -0.77624389998E+01  0.14307384736E+03  0.16310401658E+03  0.47000000000E+01 0.  1.
<mgrwt>
<rscale>  0 0.28841886E+03</rscale>
<asrwt>0</asrwt>
<pdfrwt beam="1">  1       21 0.68902633E-01 0.28841886E+03</pdfrwt>
<pdfrwt beam="2">  1       21 0.71437258E-02 0.28841886E+03</pdfrwt>
<totfact> 0.27338120E+05</totfact>
</mgrwt>
</event>
<event>
 8    1  0.9691636E-006  0.2614415E+03  0.7546771E-02  0.1106280E+00
         21   -1    0    0  504  503  0.00000000000E+00  0.00000000000E+00  0.15466306767E+02  0.15466306767E+02  0.00000000000E+00 0. -1.
         21   -1    0    0  503  504 -0.00000000000E+00 -0.00000000000E+00 -0.11048481302E+04  0.11048481302E+04  0.00000000000E+00 0. -1.
         25    2    1    2    0    0 -0.34061829762E+01 -0.29571782429E+02 -0.44173254100E+03  0.46004194948E+03  0.12499946043E+03 0.  0.
         25    2    1    2    0    0  0.34061829762E+01  0.29571782429E+02 -0.64764928242E+03  0.66027248747E+03  0.12499628912E+03 0.  0.
          5    1    3    3  501    0  0.51469127084E+02 -0.32149773445E+02 -0.32859016424E+03  0.33417998894E+03  0.47000000000E+01 0. -1.
         -5    1    3    3    0  501 -0.54875310061E+02  0.25779910162E+01 -0.11314237676E+03  0.12586196054E+03  0.47000000000E+01 0. -1.
          5    1    4    4  502    0  0.11516960593E+02  0.78023972803E+02 -0.41304440704E+03  0.42053317693E+03  0.47000000000E+01 0.  1.
         -5    1    4    4    0  502 -0.81107776170E+01 -0.48452190375E+02 -0.23460487538E+03  0.23973931054E+03  0.47000000000E+01 0.  1.
<mgrwt>
<rscale>  0 0.26144154E+03</rscale>
<asrwt>0</asrwt>
<pdfrwt beam="1">  1       21 0.23794318E-02 0.26144154E+03</pdfrwt>
<pdfrwt beam="2">  1       21 0.16997663E+00 0.26144154E+03</pdfrwt>
<totfact> 0.19237607E+05</totfact>
</mgrwt>
</event>
<event>
 8    1  0.9691636E-006  0.4140853E+03  0.7546771E-02  0.1039009E+00
         21   -1    0    0  504  503  0.00000000000E+00  0.00000000000E+00  0.10987972425E+03  0.10987972425E+03  0.00000000000E+00 0. -1.
         21   -1    0    0  503  504 -0.00000000000E+00 -0.00000000000E+00 -0.39012353228E+03  0.39012353228E+03  0.00000000000E+00 0. -1.
         25    2    1    2    0    0  0.14681848296E+03  0.49463479964E+02 -0.71396629485E+02  0.21148583734E+03  0.12500591148E+03 0.  0.
         25    2    1    2    0    0 -0.14681848296E+03 -0.49463479964E+02 -0.20884717854E+03  0.28851741919E+03  0.12499141731E+03 0.  0.
          5    1    3    3  501    0  0.10526533613E+03 -0.23497571470E+02 -0.67451474852E+02  0.12729775456E+03  0.47000000000E+01 0.  1.
         -5    1    3    3    0  501  0.41553146833E+02  0.72961051433E+02 -0.39451546322E+01  0.84188082785E+02  0.47000000000E+01 0.  1.
          5    1    4    4  502    0 -0.20983253312E+02  0.36697378558E+02 -0.24016571539E+02  0.48845472882E+02  0.47000000000E+01 0. -1.
         -5    1    4    4    0  502 -0.12583522965E+03 -0.86160858522E+02 -0.18483060700E+03  0.23967194631E+03  0.47000000000E+01 0. -1.
<mgrwt>
<rscale>  0 0.41408533E+03</rscale>
<asrwt>0</asrwt>
<pdfrwt beam="1">  1       21 0.16904573E-01 0.41408533E+03</pdfrwt>
<pdfrwt beam="2">  1       21 0.60019006E-01 0.41408533E+03</pdfrwt>
<totfact> 0.76276743E+04</totfact>
</mgrwt>
</event>
<event>
 8    1  0.9691636E-006  0.2693461E+03  0.7546771E-02  0.1101654E+00
         21   -1    0    0  504  503  0.00000000000E+00  0.00000000000E+00  0.42084570140E+03  0.42084570140E+03  0.00000000000E+00 0.  1.
         21   -1    0    0  503  504 -0.00000000000E+00 -0.00000000000E+00 -0.43096144930E+02  0.43096144930E+02  0.00000000000E+00 0.  1.
         25    2    1    2    0    0  0.43029927923E+01 -0.32975600148E+02  0.25347179972E+03  0.28456835777E+03  0.12500116416E+03 0.  0.
         25    2    1    2    0    0 -0.43029927923E+01  0.32975600148E+02  0.12427775675E+03  0.17937348855E+03  0.12499592642E+03 0.  0.
          5    1    3    3  501    0  0.58750286129E+02 -0.42039741003E+02  0.16501559338E+03  0.18019759156E+03  0.47000000000E+01 0. -1.
         -5    1    3    3    0  501 -0.54447293337E+02  0.90641408546E+01  0.88456206335E+02  0.10437076622E+03  0.47000000000E+01 0. -1.
          5    1    4    4  502    0  0.47095199137E+02  0.12945719213E+02  0.11255154402E+03  0.12278228492E+03  0.47000000000E+01 0. -1.
         -5    1    4    4    0  502 -0.51398191929E+02  0.20029880935E+02  0.11726212724E+02  0.56591203634E+02  0.47000000000E+01 0. -1.
<mgrwt>
<rscale>  0 0.26934608E+03</rscale>
<asrwt>0</asrwt>
<pdfrwt beam="1">  1       21 0.64745490E-01 0.26934608E+03</pdfrwt>
<pdfrwt beam="2">  1       21 0.66301764E-02 0.26934608E+03</pdfrwt>
<totfact> 0.35855619E+05</totfact>
</mgrwt>
</event>
<event>
 8    1  0.9691636E-006  0.2655532E+03  0.7546771E-02  0.1103852E+00
         21   -1    0    0  504  503  0.00000000000E+00  0.00000000000E+00  0.27775514403E+03  0.27775514403E+03  0.00000000000E+00 0. -1.
         21   -1    0    0  503  504 -0.00000000000E+00 -0.00000000000E+00 -0.63471837689E+02  0.63471837689E+02  0.00000000000E+00 0. -1.
         25    2    1    2    0    0 -0.80401221847E+01  0.24754893731E+02  0.15398403588E+03  0.20002174778E+03  0.12498067031E+03 0.  0.
         25    2    1    2    0    0  0.80401221847E+01 -0.24754893731E+02  0.60299270463E+02  0.14120523394E+03  0.12500187097E+03 0.  0.
          5    1    3    3  501    0  0.34803226447E+02  0.61470911197E+02  0.79339654197E+02  0.10633347649E+03  0.47000000000E+01 0. -1.
         -5    1    3    3    0  501 -0.42843348632E+02 -0.36716017466E+02  0.74644381684E+02  0.93688271291E+02  0.47000000000E+01 0. -1.
          5    1    4    4  502    0  0.45596235683E+01 -0.63540576159E+02  0.75714725082E+02  0.99060610638E+02  0.47000000000E+01 0.  1.
         -5    1    4    4    0  502  0.34804986163E+01  0.38785682428E+02 -0.15415454619E+02  0.42144623301E+02  0.47000000000E+01 0.  1.
<mgrwt>
<rscale>  0 0.26555323E+03</rscale>
<asrwt>0</asrwt>
<pdfrwt beam="1">  1       21 0.42731560E-01 0.26555323E+03</pdfrwt>
<pdfrwt beam="2">  1       21 0.97648983E-02 0.26555323E+03</pdfrwt>
<totfact> 0.43904266E+05</totfact>
</mgrwt>
</event>
<event>
 8    1  0.9691636E-006  0.2543185E+03  0.7546771E-02  0.1110606E+00
         21   -1    0    0  504  503  0.00000000000E+00  0.00000000000E+00  0.64904131348E+02  0.64904131348E+02  0.00000000000E+00 0. -1.
         21   -1    0    0  503  504 -0.00000000000E+00 -0.00000000000E+00 -0.24912864063E+03  0.24912864063E+03  0.00000000000E+00 0. -1.
         25    2    1    2    0    0 -0.23146843358E+01 -0.22834145846E+02 -0.86720694587E+02  0.15384375160E+03  0.12498265902E+03 0.  0.
         25    2    1    2    0    0  0.23146843358E+01  0.22834145846E+02 -0.97503814690E+02  0.16018902038E+03  0.12500708936E+03 0.  0.
          5    1    3    3  501    0  0.26135979509E+01  0.18569516285E+02 -0.10594147579E+03  0.10769096583E+03  0.47000000000E+01 0.  1.
         -5    1    3    3    0  501 -0.49282822867E+01 -0.41403662131E+02  0.19220781201E+02  0.46152785768E+02  0.47000000000E+01 0.  1.
          5    1    4    4  502    0 -0.47516869634E+02  0.40997647188E+02 -0.84528974465E+02  0.10538452210E+03  0.47000000000E+01 0.  1.
         -5    1    4    4    0  502  0.49831553970E+02 -0.18163501342E+02 -0.12974840225E+02  0.54804498273E+02  0.47000000000E+01 0.  1.
<mgrwt>
<rscale>  0 0.25431852E+03</rscale>
<asrwt>0</asrwt>
<pdfrwt beam="1">  1       21 0.99852508E-02 0.25431852E+03</pdfrwt>
<pdfrwt beam="2">  1       21 0.38327484E-01 0.25431852E+03</pdfrwt>
<totfact> 0.52777262E+05</totfact>
</mgrwt>
</event>
<event>
 8    1  0.9691636E-006  0.3186860E+03  0.7546771E-02  0.1076256E+00
         21   -1    0    0  504  503  0.00000000000E+00  0.00000000000E+00  0.14898365500E+02  0.14898365500E+02  0.00000000000E+00 0. -1.
         21   -1    0    0  503  504 -0.00000000000E+00 -0.00000000000E+00 -0.17042270590E+04  0.17042270590E+04  0.00000000000E+00 0. -1.
         25    2    1    2    0    0 -0.54479072857E+02 -0.18765621076E+02 -0.12776264351E+04  0.12850195146E+04  0.12500290873E+03 0.  0.
         25    2    1    2    0    0  0.54479072857E+02  0.18765621076E+02 -0.41170225839E+03  0.43410590994E+03  0.12501629321E+03 0.  0.
          5    1    3    3  501    0  0.32405676254E+02  0.14950408144E+02 -0.58904486663E+03  0.59014370069E+03  0.47000000000E+01 0.  1.
         -5    1    3    3    0  501 -0.86884749111E+02 -0.33716029220E+02 -0.68858156849E+03  0.69487581389E+03  0.47000000000E+01 0.  1.
          5    1    4    4  502    0  0.30816225157E+01  0.28632610212E+02 -0.35723069536E+03  0.35842039908E+03  0.47000000000E+01 0. -1.
         -5    1    4    4    0  502  0.51397450341E+02 -0.98669891362E+01 -0.54471563030E+02  0.75685510866E+02  0.47000000000E+01 0. -1.
<mgrwt>
<rscale>  0 0.31868604E+03</rscale>
<asrwt>0</asrwt>
<pdfrwt beam="1">  1       21 0.22920570E-02 0.31868604E+03</pdfrwt>
<pdfrwt beam="2">  1       21 0.26218869E+00 0.31868604E+03</pdfrwt>
<totfact> 0.51385396E+04</totfact>
</mgrwt>
</event>
<event>
 8    1  0.9691636E-006  0.2695204E+03  0.7546771E-02  0.1101554E+00
         21   -1    0    0  504  503  0.00000000000E+00  0.00000000000E+00  0.33977246658E+03  0.33977246658E+03  0.00000000000E+00 0.  1.
         21   -1    0    0  503  504 -0.00000000000E+00 -0.00000000000E+00 -0.53448460691E+02  0.53448460691E+02  0.00000000000E+00 0.  1.
         25    2    1    2    0    0 -0.48241179749E+02  0.12120960336E+02  0.15402015499E+03  0.20450575939E+03  0.12500507341E+03 0.  0.
         25    2    1    2    0    0  0.48241179749E+02 -0.12120960336E+02  0.13230385090E+03  0.18871516787E+03  0.12503989971E+03 0.  0.
          5    1    3    3  501    0 -0.67421082832E+02  0.39545697228E+02  0.15159513714E+03  0.17062426610E+03  0.47000000000E+01 0.  1.
         -5    1    3    3    0  501  0.19179903083E+02 -0.27424736892E+02  0.24250178484E+01  0.33881493288E+02  0.47000000000E+01 0.  1.
          5    1    4    4  502    0  0.40817012296E+02  0.53791635300E+02  0.59591022096E+02  0.90181752231E+02  0.47000000000E+01 0.  1.
         -5    1    4    4    0  502  0.74241674533E+01 -0.65912595637E+02  0.72712828802E+02  0.98533415643E+02  0.47000000000E+01 0.  1.
<mgrwt>
<rscale>  0 0.26952043E+03</rscale>
<asrwt>0</asrwt>
<pdfrwt beam="1">  1       21 0.52272686E-01 0.26952043E+03</pdfrwt>
<pdfrwt beam="2">  1       21 0.82228403E-02 0.26952043E+03</pdfrwt>
<totfact> 0.39043327E+05</totfact>
</mgrwt>
</event>
<event>
 8    1  0.9691636E-006  0.3349092E+03  0.7546771E-02  0.1068985E+00
         21   -1    0    0  504  503  0.00000000000E+00  0.00000000000E+00  0.13378204192E+03  0.13378204192E+03  0.00000000000E+00 0. -1.
         21   -1    0    0  503  504 -0.00000000000E+00 -0.00000000000E+00 -0.20960245109E+03  0.20960245109E+03  0.00000000000E+00 0. -1.
         25    2    1    2    0    0 -0.10648452763E+03 -0.30512843963E+02 -0.25475140640E+02  0.16892689709E+03  0.12496929822E+03 0.  0.
         25    2    1    2    0    0  0.10648452763E+03  0.30512843963E+02 -0.50345268522E+02  0.17445759592E+03  0.12502327159E+03 0.  0.
          5    1    3    3  501    0 -0.10290048987E+03  0.25319407557E+02  0.27028002159E+01  0.10610833306E+03  0.47000000000E+01 0. -1.
         -5    1    3    3    0  501 -0.35840377597E+01 -0.55832251520E+02 -0.28177940856E+02  0.62818564034E+02  0.47000000000E+01 0. -1.
          5    1    4    4  502    0  0.45901530405E+02 -0.48599296398E+02 -0.15424360884E+02  0.68766583546E+02  0.47000000000E+01 0. -1.
         -5    1    4    4    0  502  0.60582997230E+02  0.79112140361E+02 -0.34920907638E+02  0.10569101237E+03  0.47000000000E+01 0. -1.
<mgrwt>
<rscale>  0 0.33490921E+03</rscale>
<asrwt>0</asrwt>
<pdfrwt beam="1">  1       21 0.20581853E-01 0.33490921E+03</pdfrwt>
<pdfrwt beam="2">  1       21 0.32246531E-01 0.33490921E+03</pdfrwt>
<totfact> 0.19516670E+05</totfact>
</mgrwt>
</event>
<event>
 8    1  0.9691636E-006  0.3913912E+03  0.7546771E-02  0.1046802E+00
         21   -1    0    0  504  503  0.00000000000E+00  0.00000000000E+00  0.18192942052E+04  0.18192942052E+04  0.00000000000E+00 0.  1.
         21   -1    0    0  503  504 -0.00000000000E+00 -0.00000000000E+00 -0.21050341501E+02  0.21050341501E+02  0.00000000000E+00 0.  1.
         25    2    1    2    0    0 -0.11733830420E+03  0.20633127454E+02  0.13320575498E+04  0.13432038047E+04  0.12500056620E+03 0.  0.
         25    2    1    2    0    0  0.11733830420E+03 -0.20633127454E+02  0.46618631389E+03  0.49714074194E+03  0.12500093782E+03 0.  0.
          5    1    3    3  501    0  0.24250484961E+01 -0.35340714548E+02  0.43228318813E+03  0.43375764166E+03  0.47000000000E+01 0. -1.
         -5    1    3    3    0  501 -0.11976335269E+03  0.55973842002E+02  0.89977436166E+03  0.90944616308E+03  0.47000000000E+01 0. -1.
          5    1    4    4  502    0  0.26092616835E+02 -0.36019713198E+02  0.32631201441E+03  0.32936281687E+03  0.47000000000E+01 0. -1.
         -5    1    4    4    0  502  0.91245687362E+02  0.15386585744E+02  0.13987429949E+03  0.16777792507E+03  0.47000000000E+01 0. -1.
<mgrwt>
<rscale>  0 0.39139118E+03</rscale>
<asrwt>0</asrwt>
<pdfrwt beam="1">  1       21 0.27989129E+00 0.39139118E+03</pdfrwt>
<pdfrwt beam="2">  1       21 0.32385155E-02 0.39139118E+03</pdfrwt>
<totfact> 0.21856253E+04</totfact>
</mgrwt>
</event>
<event>
 8    1  0.9691636E-006  0.2601664E+03  0.7546771E-02  0.1107043E+00
         21   -1    0    0  504  503  0.00000000000E+00  0.00000000000E+00  0.23460747566E+03  0.23460747566E+03  0.00000000000E+00 0.  1.
         21   -1    0    0  503  504 -0.00000000000E+00 -0.00000000000E+00 -0.72127444319E+02  0.72127444319E+02  0.00000000000E+00 0.  1.
         25    2    1    2    0    0  0.16318102729E+02  0.19844749075E+02  0.51487572637E+02  0.13761071387E+03  0.12500257555E+03 0.  0.
         25    2    1    2    0    0 -0.16318102729E+02 -0.19844749075E+02  0.11099245870E+03  0.16912420611E+03  0.12499430651E+03 0.  0.
          5    1    3    3  501    0  0.45226315152E+02  0.17020869926E+02  0.81953864917E+02  0.95255737728E+02  0.47000000000E+01 0. -1.
         -5    1    3    3    0  501 -0.28908212423E+02  0.28238791497E+01 -0.30466292279E+02  0.42354976145E+02  0.47000000000E+01 0. -1.
          5    1    4    4  502    0 -0.37254374834E+02 -0.39097046885E+02  0.12560543924E+03  0.13680381532E+03  0.47000000000E+01 0.  1.
         -5    1    4    4    0  502  0.20936272105E+02  0.19252297810E+02 -0.14612980533E+02  0.32320390788E+02  0.47000000000E+01 0.  1.
<mgrwt>
<rscale>  0 0.26016639E+03</rscale>
<asrwt>0</asrwt>
<pdfrwt beam="1">  1       21 0.36093457E-01 0.26016639E+03</pdfrwt>
<pdfrwt beam="2">  1       21 0.11096530E-01 0.26016639E+03</pdfrwt>
<totfact> 0.49289332E+05</totfact>
</mgrwt>
</event>
<event>
 8    1  0.9691636E-006  0.2910038E+03  0.7546771E-02  0.1089826E+00
         21   -1    0    0  504  503  0.00000000000E+00  0.00000000000E+00  0.88997310147E+02  0.88997310147E+02  0.00000000000E+00 0.  1.
         21   -1    0    0  503  504 -0.00000000000E+00 -0.00000000000E+00 -0.23788140227E+03  0.23788140227E+03  0.00000000000E+00 0.  1.
         25    2    1    2    0    0 -0.45100815299E+02  0.59167714094E+02 -0.69964979427E+02  0.16138982619E+03  0.12496669844E+03 0.  0.
         25    2    1    2    0    0  0.45100815299E+02 -0.59167714094E+02 -0.78919112698E+02  0.16548888623E+03  0.12499377259E+03 0.  0.
          5    1    3    3  501    0 -0.48264081291E+02  0.74742727429E+02 -0.95716777649E+02  0.13076577675E+03  0.47000000000E+01 0.  1.
         -5    1    3    3    0  501  0.31632659924E+01 -0.15575013335E+02  0.25751798222E+02  0.30624049435E+02  0.47000000000E+01 0.  1.
          5    1    4    4  502    0  0.13642768143E+02  0.36804763488E+02 -0.42449425936E+02  0.58006547047E+02  0.47000000000E+01 0. -1.
         -5    1    4    4    0  502  0.31458047155E+02 -0.95972477582E+02 -0.36469686762E+02  0.10748233918E+03  0.47000000000E+01 0. -1.
<mgrwt>
<rscale>  0 0.29100381E+03</rscale>
<asrwt>0</asrwt>
<pdfrwt beam="1">  1       21 0.13691894E-01 0.29100381E+03</pdfrwt>
<pdfrwt beam="2">  1       21 0.36597139E-01 0.29100381E+03</pdfrwt>
<totfact> 0.32597531E+05</totfact>
</mgrwt>
</event>
<event>
 8    1  0.9691636E-006  0.2867107E+03  0.7546771E-02  0.1092079E+00
         21   -1    0    0  504  503  0.00000000000E+00  0.00000000000E+00  0.11371556720E+03  0.11371556720E+03  0.00000000000E+00 0. -1.
         21   -1    0    0  503  504 -0.00000000000E+00 -0.00000000000E+00 -0.18072066368E+03  0.18072066368E+03  0.00000000000E+00 0. -1.
         25    2    1    2    0    0  0.12380689061E+02  0.52989850510E+02 -0.79022675690E+02  0.15757420155E+03  0.12499535992E+03 0.  0.
         25    2    1    2    0    0 -0.12380689061E+02 -0.52989850510E+02  0.12017579208E+02  0.13686202933E+03  0.12500234855E+03 0.  0.
          5    1    3    3  501    0 -0.17501691072E+01  0.25253764395E+01 -0.10056312987E+03  0.10071977813E+03  0.47000000000E+01 0.  1.
         -5    1    3    3    0  501  0.14130858169E+02  0.50464474071E+02  0.21540454179E+02  0.56854423417E+02  0.47000000000E+01 0.  1.
          5    1    4    4  502    0 -0.53096229847E+02  0.12271823984E+02  0.22388608987E+02  0.59102851879E+02  0.47000000000E+01 0.  1.
         -5    1    4    4    0  502  0.40715540785E+02 -0.65261674494E+02 -0.10371029780E+02  0.77759177452E+02  0.47000000000E+01 0.  1.
<mgrwt>
<rscale>  0 0.28671067E+03</rscale>
<asrwt>0</asrwt>
<pdfrwt beam="1">  1       21 0.17494703E-01 0.28671067E+03</pdfrwt>
<pdfrwt beam="2">  1       21 0.27803179E-01 0.28671067E+03</pdfrwt>
<totfact> 0.35808548E+05</totfact>
</mgrwt>
</event>
<event>
 8    1  0.9691636E-006  0.4569584E+03  0.7546771E-02  0.1025667E+00
         21   -1    0    0  504  503  0.00000000000E+00  0.00000000000E+00  0.32278204069E+03  0.32278204069E+03  0.00000000000E+00 0. -1.
         21   -1    0    0  503  504 -0.00000000000E+00 -0.00000000000E+00 -0.16172757209E+03  0.16172757209E+03  0.00000000000E+00 0. -1.
         25    2    1    2    0    0 -0.31552750277E+02  0.12748268181E+02  0.28007758354E+03  0.30858697157E+03  0.12499748729E+03 0.  0.
         25    2    1    2    0    0  0.31552750277E+02 -0.12748268181E+02 -0.11902311494E+03  0.17592264121E+03  0.12499671760E+03 0.  0.
          5    1    3    3  501    0 -0.72186493482E+02 -0.12302123670E+02  0.11278606823E+03  0.13455489317E+03  0.47000000000E+01 0.  1.
         -5    1    3    3    0  501  0.40633743205E+02  0.25050391851E+02  0.16729151531E+03  0.17403207840E+03  0.47000000000E+01 0.  1.
          5    1    4    4  502    0  0.27528314480E+02 -0.68177790939E+02 -0.64360343352E+02  0.97828232489E+02  0.47000000000E+01 0.  1.
         -5    1    4    4    0  502  0.40244357966E+01  0.55429522758E+02 -0.54662771583E+02  0.78094408723E+02  0.47000000000E+01 0.  1.
<mgrwt>
<rscale>  0 0.45695845E+03</rscale>
<asrwt>0</asrwt>
<pdfrwt beam="1">  1       21 0.49658775E-01 0.45695845E+03</pdfrwt>
<pdfrwt beam="2">  1       21 0.24881165E-01 0.45695845E+03</pdfrwt>
<totfact> 0.54413125E+04</totfact>
</mgrwt>
</event>
<event>
 8    1  0.9691636E-006  0.2740833E+03  0.7546771E-02  0.1098965E+00
         21   -1    0    0  504  503  0.00000000000E+00  0.00000000000E+00  0.18444724056E+02  0.18444724056E+02  0.00000000000E+00 0.  1.
         21   -1    0    0  503  504 -0.00000000000E+00 -0.00000000000E+00 -0.10181999051E+04  0.10181999051E+04  0.00000000000E+00 0.  1.
         25    2    1    2    0    0  0.47602899636E+02  0.10735435850E+02 -0.60508370901E+03  0.61978538817E+03  0.12500538723E+03 0.  0.
         25    2    1    2    0    0 -0.47602899636E+02 -0.10735435850E+02 -0.39467147199E+03  0.41685924095E+03  0.12499908129E+03 0.  0.
          5    1    3    3  501    0  0.48292974106E+02 -0.10760797121E+01 -0.60511118583E+03  0.60705436866E+03  0.47000000000E+01 0. -1.
         -5    1    3    3    0  501 -0.69007446955E+00  0.11811515562E+02  0.27476818279E-01  0.12731019505E+02  0.47000000000E+01 0. -1.
          5    1    4    4  502    0 -0.25529998386E+02  0.27130236609E+02 -0.26260950268E+02  0.45820934789E+02  0.47000000000E+01 0.  1.
         -5    1    4    4    0  502 -0.22072901251E+02 -0.37865672459E+02 -0.36841052173E+03  0.37103830616E+03  0.47000000000E+01 0.  1.
<mgrwt>
<rscale>  0 0.27408332E+03</rscale>
<asrwt>0</asrwt>
<pdfrwt beam="1">  1       21 0.28376495E-02 0.27408332E+03</pdfrwt>
<pdfrwt beam="2">  1       21 0.15664616E+00 0.27408332E+03</pdfrwt>
<totfact> 0.17913200E+05</totfact>
</mgrwt>
</event>
<event>
 8    1  0.9691636E-006  0.2612311E+03  0.7546771E-02  0.1106406E+00
         21   -1    0    0  504  503  0.00000000000E+00  0.00000000000E+00  0.33277787560E+03  0.33277787560E+03  0.00000000000E+00 0.  1.
         21   -1    0    0  503  504 -0.00000000000E+00 -0.00000000000E+00 -0.51266678128E+02  0.51266678128E+02  0.00000000000E+00 0.  1.
         25    2    1    2    0    0 -0.34971578773E+01  0.34533170844E+02  0.11856029815E+03  0.17575286356E+03  0.12501101851E+03 0.  0.
         25    2    1    2    0    0  0.34971578773E+01 -0.34533170844E+02  0.16295089932E+03  0.20829169017E+03  0.12501064995E+03 0.  0.
          5    1    3    3  501    0 -0.26823845981E+02 -0.30772201120E+02  0.93040051073E+02  0.10171031501E+03  0.47000000000E+01 0. -1.
         -5    1    3    3    0  501  0.23326688104E+02  0.65305371964E+02  0.25520247079E+02  0.74042548553E+02  0.47000000000E+01 0. -1.
          5    1    4    4  502    0 -0.57930232301E+01 -0.57266620139E+02  0.17220453469E+03  0.18163016453E+03  0.47000000000E+01 0. -1.
         -5    1    4    4    0  502  0.92901811075E+01  0.22733449294E+02 -0.92536353677E+01  0.26661525638E+02  0.47000000000E+01 0. -1.
<mgrwt>
<rscale>  0 0.26123106E+03</rscale>
<asrwt>0</asrwt>
<pdfrwt beam="1">  1       21 0.51196595E-01 0.26123106E+03</pdfrwt>
<pdfrwt beam="2">  1       21 0.78871815E-02 0.26123106E+03</pdfrwt>
<totfact> 0.43961328E+05</totfact>
</mgrwt>
</event>
<event>
 8    1  0.9691636E-006  0.2553559E+03  0.7546771E-02  0.1109966E+00
         21   -1    0    0  504  503  0.00000000000E+00  0.00000000000E+00  0.26452265218E+02  0.26452265218E+02  0.00000000000E+00 0.  1.
         21   -1    0    0  503  504 -0.00000000000E+00 -0.00000000000E+00 -0.61626680839E+03  0.61626680839E+03  0.00000000000E+00 0.  1.
         25    2    1    2    0    0 -0.11012301035E+02  0.22745257680E+02 -0.31081656319E+03  0.33595689707E+03  0.12498593205E+03 0.  0.
         25    2    1    2    0    0  0.11012301035E+02 -0.22745257680E+02 -0.27899797998E+03  0.30676217654E+03  0.12499817040E+03 0.  0.
          5    1    3    3  501    0 -0.33042184838E+02 -0.37263554560E+02 -0.21454148603E+03  0.22029638605E+03  0.47000000000E+01 0. -1.
         -5    1    3    3    0  501  0.22029883803E+02  0.60008812241E+02 -0.96275077160E+02  0.11566051102E+03  0.47000000000E+01 0. -1.
          5    1    4    4  502    0  0.46884282282E+02  0.22421356604E+02 -0.21155005152E+03  0.21789072366E+03  0.47000000000E+01 0.  1.
         -5    1    4    4    0  502 -0.35871981247E+02 -0.45166614285E+02 -0.67447928463E+02  0.88871452888E+02  0.47000000000E+01 0.  1.
<mgrwt>
<rscale>  0 0.25535585E+03</rscale>
<asrwt>0</asrwt>
<pdfrwt beam="1">  1       21 0.40695792E-02 0.25535585E+03</pdfrwt>
<pdfrwt beam="2">  1       21 0.94810280E-01 0.25535585E+03</pdfrwt>
<totfact> 0.34843847E+05</totfact>
</mgrwt>
</event>
<event>
 8    1  0.9691636E-006  0.3259261E+03  0.7546771E-02  0.1072954E+00
         21   -1    0    0  504  503  0.00000000000E+00  0.00000000000E+00  0.62363314926E+03  0.62363314926E+03  0.00000000000E+00 0.  1.
         21   -1    0    0  503  504 -0.00000000000E+00 -0.00000000000E+00 -0.42584263916E+02  0.42584263916E+02  0.00000000000E+00 0.  1.
         25    2    1    2    0    0  0.10371755870E+03  0.99281612817E+01  0.30877538241E+03  0.34902290209E+03  0.12497539369E+03 0.  0.
         25    2    1    2    0    0 -0.10371755870E+03 -0.99281612817E+01  0.27227350294E+03  0.31719451109E+03  0.12499438826E+03 0.  0.
          5    1    3    3  501    0  0.11087991403E+03 -0.18641246433E+01  0.31438629541E+03  0.33340465360E+03  0.47000000000E+01 0. -1.
         -5    1    3    3    0  501 -0.71623553284E+01  0.11792285925E+02 -0.56109130024E+01  0.15618248490E+02  0.47000000000E+01 0. -1.
          5    1    4    4  502    0 -0.11176800403E+03 -0.75884426523E+01  0.28202904254E+03  0.30349982212E+03  0.47000000000E+01 0. -1.
         -5    1    4    4    0  502  0.80504453251E+01 -0.23397186294E+01 -0.97555396068E+01  0.13694688978E+02  0.47000000000E+01 0. -1.
<mgrwt>
<rscale>  0 0.32592612E+03</rscale>
<asrwt>0</asrwt>
<pdfrwt beam="1">  1       21 0.95943555E-01 0.32592612E+03</pdfrwt>
<pdfrwt beam="2">  1       21 0.65514257E-02 0.32592612E+03</pdfrwt>
<totfact> 0.14726739E+05</totfact>
</mgrwt>
</event>
<event>
 8    1  0.9691636E-006  0.4002179E+03  0.7546771E-02  0.1043704E+00
         21   -1    0    0  504  503  0.00000000000E+00  0.00000000000E+00  0.98974379330E+02  0.98974379330E+02  0.00000000000E+00 0. -1.
         21   -1    0    0  503  504 -0.00000000000E+00 -0.00000000000E+00 -0.40458533079E+03  0.40458533079E+03  0.00000000000E+00 0. -1.
         25    2    1    2    0    0 -0.36088471921E+02  0.14779342844E+03 -0.10794552151E+03  0.22455748580E+03  0.12501421326E+03 0.  0.
         25    2    1    2    0    0  0.36088471921E+02 -0.14779342844E+03 -0.19766542995E+03  0.27900222433E+03  0.12500137474E+03 0.  0.
          5    1    3    3  501    0 -0.45104908200E+01 -0.12766609704E+02  0.14300612761E+02  0.20246688028E+02  0.47000000000E+01 0.  1.
         -5    1    3    3    0  501 -0.31577981101E+02  0.16056003815E+03 -0.12224613427E+03  0.20431079777E+03  0.47000000000E+01 0.  1.
          5    1    4    4  502    0  0.80232149993E+02 -0.11930660524E+03 -0.15135655327E+03  0.20881130277E+03  0.47000000000E+01 0.  1.
         -5    1    4    4    0  502 -0.44143678072E+02 -0.28486823199E+02 -0.46308876675E+02  0.70190921554E+02  0.47000000000E+01 0.  1.
<mgrwt>
<rscale>  0 0.40021785E+03</rscale>
<asrwt>0</asrwt>
<pdfrwt beam="1">  1       21 0.15226828E-01 0.40021785E+03</pdfrwt>
<pdfrwt beam="2">  1       21 0.62243897E-01 0.40021785E+03</pdfrwt>
<totfact> 0.85808249E+04</totfact>
</mgrwt>
</event>
<event>
 8    1  0.9691636E-006  0.2995560E+03  0.7546771E-02  0.1085463E+00
         21   -1    0    0  504  503  0.00000000000E+00  0.00000000000E+00  0.10906238636E+03  0.10906238636E+03  0.00000000000E+00 0. -1.
         21   -1    0    0  503  504 -0.00000000000E+00 -0.00000000000E+00 -0.20569376102E+03  0.20569376102E+03  0.00000000000E+00 0. -1.
         25    2    1    2    0    0 -0.78026347260E+01  0.61279132446E+02 -0.10579478067E+03  0.17501903270E+03  0.12499245180E+03 0.  0.
         25    2    1    2    0    0  0.78026347260E+01 -0.61279132446E+02  0.91634060048E+01  0.13973711469E+03  0.12500591998E+03 0.  0.
          5    1    3    3  501    0 -0.52457074106E+02  0.75031415476E+02 -0.78594626466E+02  0.12075041715E+03  0.47000000000E+01 0.  1.
         -5    1    3    3    0  501  0.44654439380E+02 -0.13752283031E+02 -0.27200154201E+02  0.54268615548E+02  0.47000000000E+01 0.  1.
          5    1    4    4  502    0  0.62030931426E+02 -0.22158413134E+02  0.25422670364E+02  0.70761810990E+02  0.47000000000E+01 0. -1.
         -5    1    4    4    0  502 -0.54228296700E+02 -0.39120719312E+02 -0.16259264359E+02  0.68975303696E+02  0.47000000000E+01 0. -1.
<mgrwt>
<rscale>  0 0.29955602E+03</rscale>
<asrwt>0</asrwt>
<pdfrwt beam="1">  1       21 0.16778829E-01 0.29955602E+03</pdfrwt>
<pdfrwt beam="2">  1       21 0.31645194E-01 0.29955602E+03</pdfrwt>
<totfact> 0.29932144E+05</totfact>
</mgrwt>
</event>
<event>
 8    1  0.9691636E-006  0.2646078E+03  0.7546771E-02  0.1104406E+00
         21   -1    0    0  504  503  0.00000000000E+00  0.00000000000E+00  0.66701502444E+02  0.66701502444E+02  0.00000000000E+00 0.  1.
         21   -1    0    0  503  504 -0.00000000000E+00 -0.00000000000E+00 -0.26242764188E+03  0.26242764188E+03  0.00000000000E+00 0.  1.
         25    2    1    2    0    0  0.40702165584E+02 -0.13904547776E+02 -0.91172205807E+02  0.16058370992E+03  0.12499901619E+03 0.  0.
         25    2    1    2    0    0 -0.40702165584E+02  0.13904547776E+02 -0.10455393363E+03  0.16854543440E+03  0.12500414268E+03 0.  0.
          5    1    3    3  501    0 -0.38759422818E+02 -0.15087940476E+02 -0.63985518310E+02  0.76460286152E+02  0.47000000000E+01 0.  1.
         -5    1    3    3    0  501  0.79461588402E+02  0.11833927002E+01 -0.27186687497E+02  0.84123423770E+02  0.47000000000E+01 0.  1.
          5    1    4    4  502    0  0.40934143332E+02  0.35095966621E+01 -0.89448687786E+01  0.42308652030E+02  0.47000000000E+01 0.  1.
         -5    1    4    4    0  502 -0.81636308916E+02  0.10394951114E+02 -0.95609064851E+02  0.12623678237E+03  0.47000000000E+01 0.  1.
<mgrwt>
<rscale>  0 0.26460777E+03</rscale>
<asrwt>0</asrwt>
<pdfrwt beam="1">  1       21 0.10261769E-01 0.26460777E+03</pdfrwt>
<pdfrwt beam="2">  1       21 0.40373484E-01 0.26460777E+03</pdfrwt>
<totfact> 0.45152883E+05</totfact>
</mgrwt>
</event>
<event>
 8    1  0.9691636E-006  0.3195398E+03  0.7546771E-02  0.1075861E+00
         21   -1    0    0  504  503  0.00000000000E+00  0.00000000000E+00  0.11832499045E+03  0.11832499045E+03  0.00000000000E+00 0.  1.
         21   -1    0    0  503  504 -0.00000000000E+00 -0.00000000000E+00 -0.21573147999E+03  0.21573147999E+03  0.00000000000E+00 0.  1.
         25    2    1    2    0    0 -0.80528767684E+02  0.28714528836E+02  0.45274088599E+01  0.15150451709E+03  0.12499485860E+03 0.  0.
         25    2    1    2    0    0  0.80528767684E+02 -0.28714528836E+02 -0.10193389840E+03  0.18255195335E+03  0.12500115775E+03 0.  0.
          5    1    3    3  501    0 -0.31679743297E+02  0.66785540682E+02 -0.30610333494E+02  0.80143602965E+02  0.47000000000E+01 0. -1.
         -5    1    3    3    0  501 -0.48849024387E+02 -0.38071011845E+02  0.35137742354E+02  0.71360914121E+02  0.47000000000E+01 0. -1.
          5    1    4    4  502    0 -0.73797754106E+00  0.70423657237E+01  0.25663072389E+02  0.27033734671E+02  0.47000000000E+01 0.  1.
         -5    1    4    4    0  502  0.81266745225E+02 -0.35756894560E+02 -0.12759697079E+03  0.15551821868E+03  0.47000000000E+01 0.  1.
<mgrwt>
<rscale>  0 0.31953983E+03</rscale>
<asrwt>0</asrwt>
<pdfrwt beam="1">  1       21 0.18203845E-01 0.31953983E+03</pdfrwt>
<pdfrwt beam="2">  1       21 0.33189458E-01 0.31953983E+03</pdfrwt>
<totfact> 0.23296341E+05</totfact>
</mgrwt>
</event>
<event>
 8    1  0.9691636E-006  0.3063042E+03  0.7546771E-02  0.1082131E+00
         21   -1    0    0  504  503  0.00000000000E+00  0.00000000000E+00  0.16814967391E+03  0.16814967391E+03  0.00000000000E+00 0. -1.
         21   -1    0    0  503  504 -0.00000000000E+00 -0.00000000000E+00 -0.13949221426E+03  0.13949221426E+03  0.00000000000E+00 0. -1.
         25    2    1    2    0    0 -0.78980203695E+02 -0.39904530089E+02  0.14520209612E+02  0.15383719543E+03  0.12499920845E+03 0.  0.
         25    2    1    2    0    0  0.78980203695E+02  0.39904530089E+02  0.14137250034E+02  0.15380469274E+03  0.12500311025E+03 0.  0.
          5    1    3    3  501    0  0.42934994396E+01 -0.63310706571E+02 -0.85188209870E+01  0.64197663626E+02  0.47000000000E+01 0.  1.
         -5    1    3    3    0  501 -0.83273703134E+02  0.23406176483E+02  0.23039030599E+02  0.89639531805E+02  0.47000000000E+01 0.  1.
          5    1    4    4  502    0  0.12288795568E+02  0.56899057505E+02  0.49254317074E+02  0.76397611167E+02  0.47000000000E+01 0.  1.
         -5    1    4    4    0  502  0.66691408127E+02 -0.16994527417E+02 -0.35117067040E+02  0.77407081572E+02  0.47000000000E+01 0.  1.
<mgrwt>
<rscale>  0 0.30630423E+03</rscale>
<asrwt>0</asrwt>
<pdfrwt beam="1">  1       21 0.25869181E-01 0.30630423E+03</pdfrwt>
<pdfrwt beam="2">  1       21 0.21460341E-01 0.30630423E+03</pdfrwt>
<totfact> 0.27946462E+05</totfact>
</mgrwt>
</event>
<event>
 8    1  0.9691636E-006  0.2724839E+03  0.7546771E-02  0.1099866E+00
         21   -1    0    0  504  503  0.00000000000E+00  0.00000000000E+00  0.68118020398E+02  0.68118020398E+02  0.00000000000E+00 0.  1.
         21   -1    0    0  503  504 -0.00000000000E+00 -0.00000000000E+00 -0.27249562181E+03  0.27249562181E+03  0.00000000000E+00 0.  1.
         25    2    1    2    0    0 -0.95949699702E+01 -0.18087544498E+02 -0.39474232937E+02  0.13267120507E+03  0.12499684345E+03 0.  0.
         25    2    1    2    0    0  0.95949699702E+01  0.18087544498E+02 -0.16490336848E+03  0.20794243714E+03  0.12501085359E+03 0.  0.
          5    1    3    3  501    0  0.21301815544E+02 -0.29621713226E+02  0.35192712697E+02  0.50910021282E+02  0.47000000000E+01 0.  1.
         -5    1    3    3    0  501 -0.30896785514E+02  0.11534168727E+02 -0.74666945634E+02  0.81761183783E+02  0.47000000000E+01 0.  1.
          5    1    4    4  502    0  0.17746883900E+02  0.39222599423E+02 -0.17673073108E+03  0.18195935123E+03  0.47000000000E+01 0.  1.
         -5    1    4    4    0  502 -0.81519139303E+01 -0.21135054924E+02  0.11827362601E+02  0.25983085911E+02  0.47000000000E+01 0.  1.
<mgrwt>
<rscale>  0 0.27248385E+03</rscale>
<asrwt>0</asrwt>
<pdfrwt beam="1">  1       21 0.10479696E-01 0.27248385E+03</pdfrwt>
<pdfrwt beam="2">  1       21 0.41922402E-01 0.27248385E+03</pdfrwt>
<totfact> 0.40210339E+05</totfact>
</mgrwt>
</event>
<event>
 8    1  0.9691636E-006  0.2783774E+03  0.7546771E-02  0.1096578E+00
         21   -1    0    0  504  503  0.00000000000E+00  0.00000000000E+00  0.51715869766E+03  0.51715869766E+03  0.00000000000E+00 0.  1.
         21   -1    0    0  503  504 -0.00000000000E+00 -0.00000000000E+00 -0.37461414587E+02  0.37461414587E+02  0.00000000000E+00 0.  1.
         25    2    1    2    0    0  0.41032936917E+02  0.14399994222E+02  0.32571567171E+03  0.35157794499E+03  0.12500116345E+03 0.  0.
         25    2    1    2    0    0 -0.41032936917E+02 -0.14399994222E+02  0.15398161137E+03  0.20304216726E+03  0.12499889319E+03 0.  0.
          5    1    3    3  501    0  0.36003677413E+02  0.65845117512E+02  0.14210860223E+03  0.16077558619E+03  0.47000000000E+01 0.  1.
         -5    1    3    3    0  501  0.50292595043E+01 -0.51445123291E+02  0.18360706948E+03  0.19080235880E+03  0.47000000000E+01 0.  1.
          5    1    4    4  502    0 -0.79708270906E+02 -0.26973822865E+02  0.69788768059E+02  0.10942375299E+03  0.47000000000E+01 0.  1.
         -5    1    4    4    0  502  0.38675333989E+02  0.12573828643E+02  0.84192843308E+02  0.93618414269E+02  0.47000000000E+01 0.  1.
<mgrwt>
<rscale>  0 0.27837742E+03</rscale>
<asrwt>0</asrwt>
<pdfrwt beam="1">  1       21 0.79562872E-01 0.27837742E+03</pdfrwt>
<pdfrwt beam="2">  1       21 0.57632949E-02 0.27837742E+03</pdfrwt>
<totfact> 0.28758303E+05</totfact>
</mgrwt>
</event>
<event>
 8    1  0.9691636E-006  0.3795125E+03  0.7546771E-02  0.1051114E+00
         21   -1    0    0  504  503  0.00000000000E+00  0.00000000000E+00  0.38957033598E+02  0.38957033598E+02  0.00000000000E+00 0. -1.
         21   -1    0    0  503  504 -0.00000000000E+00 -0.00000000000E+00 -0.92428571636E+03  0.92428571636E+03  0.00000000000E+00 0. -1.
         25    2    1    2    0    0  0.28574862481E+02 -0.55322204972E+00 -0.87626823506E+02  0.15530121210E+03  0.12499270964E+03 0.  0.
         25    2    1    2    0    0 -0.28574862481E+02  0.55322204972E+00 -0.79770185926E+03  0.80794153785E+03  0.12499777402E+03 0.  0.
          5    1    3    3  501    0  0.81893459593E+01  0.61438393632E+02 -0.35002331757E+02  0.71337191056E+02  0.47000000000E+01 0. -1.
         -5    1    3    3    0  501  0.20385516521E+02 -0.61991615682E+02 -0.52624491749E+02  0.83964021048E+02  0.47000000000E+01 0. -1.
          5    1    4    4  502    0  0.12148501734E+02 -0.86187859711E-01 -0.71972961333E+03  0.71984748372E+03  0.47000000000E+01 0.  1.
         -5    1    4    4    0  502 -0.40723364215E+02  0.63940990943E+00 -0.77972245928E+02  0.88094054129E+02  0.47000000000E+01 0.  1.
<mgrwt>
<rscale>  0 0.37951248E+03</rscale>
<asrwt>0</asrwt>
<pdfrwt beam="1">  1       21 0.59933902E-02 0.37951248E+03</pdfrwt>
<pdfrwt beam="2">  1       21 0.14219779E+00 0.37951248E+03</pdfrwt>
<totfact> 0.63169324E+04</totfact>
</mgrwt>
</event>
<event>
 8    1  0.9691636E-006  0.3711126E+03  0.7546771E-02  0.1054268E+00
         21   -1    0    0  504  503  0.00000000000E+00  0.00000000000E+00  0.71192940394E+02  0.71192940394E+02  0.00000000000E+00 0.  1.
         21   -1    0    0  503  504 -0.00000000000E+00 -0.00000000000E+00 -0.48363137689E+03  0.48363137689E+03  0.00000000000E+00 0.  1.
         25    2    1    2    0    0 -0.73290243876E+02  0.29163107929E+02 -0.37393414890E+03  0.40208888573E+03  0.12500711021E+03 0.  0.
         25    2    1    2    0    0  0.73290243876E+02 -0.29163107929E+02 -0.38504287590E+02  0.15273543155E+03  0.12499434058E+03 0.  0.
          5    1    3    3  501    0 -0.15441952271E+02 -0.47708024157E+02 -0.10572273939E+03  0.11710634945E+03  0.47000000000E+01 0. -1.
         -5    1    3    3    0  501 -0.57848291605E+02  0.76871132086E+02 -0.26821140952E+03  0.28498253628E+03  0.47000000000E+01 0. -1.
          5    1    4    4  502    0  0.15919660047E+02  0.25671525001E+02 -0.62598290912E+02  0.69664185900E+02  0.47000000000E+01 0.  1.
         -5    1    4    4    0  502  0.57370583828E+02 -0.54834632930E+02  0.24094003322E+02  0.83071245648E+02  0.47000000000E+01 0.  1.
<mgrwt>
<rscale>  0 0.37111260E+03</rscale>
<asrwt>0</asrwt>
<pdfrwt beam="1">  1       21 0.10952760E-01 0.37111260E+03</pdfrwt>
<pdfrwt beam="2">  1       21 0.74404830E-01 0.37111260E+03</pdfrwt>
<totfact> 0.10586937E+05</totfact>
</mgrwt>
</event>
<event>
 8    1  0.9691636E-006  0.3580353E+03  0.7546771E-02  0.1059365E+00
         21   -1    0    0  504  503  0.00000000000E+00  0.00000000000E+00  0.49571663803E+03  0.49571663803E+03  0.00000000000E+00 0. -1.
         21   -1    0    0  503  504 -0.00000000000E+00 -0.00000000000E+00 -0.64648460714E+02  0.64648460714E+02  0.00000000000E+00 0. -1.
         25    2    1    2    0    0 -0.11598984629E+03  0.54383091712E+02  0.22063126969E+03  0.28410624747E+03  0.12500815005E+03 0.  0.
         25    2    1    2    0    0  0.11598984629E+03 -0.54383091712E+02  0.21043690763E+03  0.27625885128E+03  0.12499638279E+03 0.  0.
          5    1    3    3  501    0 -0.62895552208E+02 -0.28807004192E+02  0.45210790941E+02  0.82775597826E+02  0.47000000000E+01 0. -1.
         -5    1    3    3    0  501 -0.53094294084E+02  0.83190095904E+02  0.17542047875E+03  0.20133064965E+03  0.47000000000E+01 0. -1.
          5    1    4    4  502    0  0.79929260060E+02 -0.91385810285E+02  0.11327224679E+03  0.16611064032E+03  0.47000000000E+01 0. -1.
         -5    1    4    4    0  502  0.36060586231E+02  0.37002718573E+02  0.97164660838E+02  0.11014821096E+03  0.47000000000E+01 0. -1.
<mgrwt>
<rscale>  0 0.35803529E+03</rscale>
<asrwt>0</asrwt>
<pdfrwt beam="1">  1       21 0.76264096E-01 0.35803529E+03</pdfrwt>
<pdfrwt beam="2">  1       21 0.99459173E-02 0.35803529E+03</pdfrwt>
<totfact> 0.11938659E+05</totfact>
</mgrwt>
</event>
<event>
 8    1  0.9691636E-006  0.2617872E+03  0.7546771E-02  0.1106074E+00
         21   -1    0    0  504  503  0.00000000000E+00  0.00000000000E+00  0.25514940941E+03  0.25514940941E+03  0.00000000000E+00 0. -1.
         21   -1    0    0  503  504 -0.00000000000E+00 -0.00000000000E+00 -0.67149401633E+02  0.67149401633E+02  0.00000000000E+00 0. -1.
         25    2    1    2    0    0  0.25247855142E+02 -0.26896818505E+02  0.10889234694E+03  0.16984125153E+03  0.12501045741E+03 0.  0.
         25    2    1    2    0    0 -0.25247855142E+02  0.26896818505E+02  0.79107660837E+02  0.15245755952E+03  0.12499756964E+03 0.  0.
          5    1    3    3  501    0 -0.14318391124E+02  0.27592926387E+02  0.96131620353E+02  0.10114229750E+03  0.47000000000E+01 0. -1.
         -5    1    3    3    0  501  0.39566246266E+02 -0.54489744892E+02  0.12760726586E+02  0.68698954031E+02  0.47000000000E+01 0. -1.
          5    1    4    4  502    0  0.49412744129E+02  0.22634658184E+02  0.24850714093E+02  0.59946601441E+02  0.47000000000E+01 0. -1.
         -5    1    4    4    0  502 -0.74660599270E+02  0.42621603214E+01  0.54256946744E+02  0.92510958075E+02  0.47000000000E+01 0. -1.
<mgrwt>
<rscale>  0 0.26178717E+03</rscale>
<asrwt>0</asrwt>
<pdfrwt beam="1">  1       21 0.39253755E-01 0.26178717E+03</pdfrwt>
<pdfrwt beam="2">  1       21 0.10330677E-01 0.26178717E+03</pdfrwt>
<totfact> 0.47269045E+05</totfact>
</mgrwt>
</event>
<event>
 8    1  0.9691636E-006  0.3646518E+03  0.7546771E-02  0.1056757E+00
         21   -1    0    0  504  503  0.00000000000E+00  0.00000000000E+00  0.35573065968E+02  0.35573065968E+02  0.00000000000E+00 0. -1.
         21   -1    0    0  503  504 -0.00000000000E+00 -0.00000000000E+00 -0.93449190409E+03  0.93449190409E+03  0.00000000000E+00 0. -1.
         25    2    1    2    0    0 -0.99390834565E+02 -0.72785487339E+02 -0.31807076790E+03  0.36328113961E+03  0.12501163082E+03 0.  0.
         25    2    1    2    0    0  0.99390834565E+02  0.72785487339E+02 -0.58084807022E+03  0.60678383045E+03  0.12500348416E+03 0.  0.
          5    1    3    3  501    0 -0.82293112209E+02 -0.57274910728E+02 -0.32383011899E+03  0.33902891865E+03  0.47000000000E+01 0.  1.
         -5    1    3    3    0  501 -0.17097722355E+02 -0.15510576611E+02  0.57593510889E+01  0.24252220960E+02  0.47000000000E+01 0.  1.
          5    1    4    4  502    0 -0.16384804723E+02  0.55718100818E+02 -0.20353309432E+03  0.21170918513E+03  0.47000000000E+01 0.  1.
         -5    1    4    4    0  502  0.11577563929E+03  0.17067386521E+02 -0.37731497590E+03  0.39507464532E+03  0.47000000000E+01 0.  1.
<mgrwt>
<rscale>  0 0.36465185E+03</rscale>
<asrwt>0</asrwt>
<pdfrwt beam="1">  1       21 0.54727795E-02 0.36465185E+03</pdfrwt>
<pdfrwt beam="2">  1       21 0.14376798E+00 0.36465185E+03</pdfrwt>
<totfact> 0.72106506E+04</totfact>
</mgrwt>
</event>
<event>
 8    1  0.9691636E-006  0.3822276E+03  0.7546771E-02  0.1050113E+00
         21   -1    0    0  504  503  0.00000000000E+00  0.00000000000E+00  0.52111043690E+02  0.52111043690E+02  0.00000000000E+00 0. -1.
         21   -1    0    0  503  504 -0.00000000000E+00 -0.00000000000E+00 -0.70089722783E+03  0.70089722783E+03  0.00000000000E+00 0. -1.
         25    2    1    2    0    0  0.46739596204E+02  0.10754903064E+03 -0.49096179805E+03  0.52001898112E+03  0.12499947893E+03 0.  0.
         25    2    1    2    0    0 -0.46739596204E+02 -0.10754903064E+03 -0.15782438609E+03  0.23298929040E+03  0.12499635495E+03 0.  0.
          5    1    3    3  501    0 -0.39524837435E+02  0.41792836001E+02 -0.11463347662E+03  0.12834242431E+03  0.47000000000E+01 0.  1.
         -5    1    3    3    0  501  0.86264433639E+02  0.65756194643E+02 -0.37632832143E+03  0.39167655681E+03  0.47000000000E+01 0.  1.
          5    1    4    4  502    0 -0.41288420972E+02 -0.11578591106E+03 -0.17422344700E+03  0.21327683979E+03  0.47000000000E+01 0.  1.
         -5    1    4    4    0  502 -0.54511752321E+01  0.82368804135E+01  0.16399060910E+02  0.19712450611E+02  0.47000000000E+01 0.  1.
<mgrwt>
<rscale>  0 0.38222761E+03</rscale>
<asrwt>0</asrwt>
<pdfrwt beam="1">  1       21 0.80170846E-02 0.38222761E+03</pdfrwt>
<pdfrwt beam="2">  1       21 0.10783033E+00 0.38222761E+03</pdfrwt>
<totfact> 0.76788627E+04</totfact>
</mgrwt>
</event>
<event>
 8    1  0.9691636E-006  0.2545669E+03  0.7546771E-02  0.1110452E+00
         21   -1    0    0  504  503  0.00000000000E+00  0.00000000000E+00  0.10839413353E+04  0.10839413353E+04  0.00000000000E+00 0.  1.
         21   -1    0    0  503  504 -0.00000000000E+00 -0.00000000000E+00 -0.14946448890E+02  0.14946448890E+02  0.00000000000E+00 0.  1.
         25    2    1    2    0    0 -0.49496181783E+01  0.65498552776E+01  0.63188180224E+03  0.64417896806E+03  0.12499812627E+03 0.  0.
         25    2    1    2    0    0  0.49496181783E+01 -0.65498552776E+01  0.43711308421E+03  0.45470881617E+03  0.12499943915E+03 0.  0.
          5    1    3    3  501    0  0.51329885742E+02  0.33972278247E+02  0.34858379116E+03  0.35400794104E+03  0.47000000000E+01 0. -1.
         -5    1    3    3    0  501 -0.56279503920E+02 -0.27422422970E+02  0.28329801108E+03  0.29017102703E+03  0.47000000000E+01 0. -1.
          5    1    4    4  502    0  0.56971752864E+01  0.42449664112E+02  0.57165034722E+02  0.71584656067E+02  0.47000000000E+01 0. -1.
         -5    1    4    4    0  502 -0.74755710810E+00 -0.48999519389E+02  0.37994804949E+03  0.38312416010E+03  0.47000000000E+01 0. -1.
<mgrwt>
<rscale>  0 0.25456688E+03</rscale>
<asrwt>0</asrwt>
<pdfrwt beam="1">  1       21 0.16676014E+00 0.25456688E+03</pdfrwt>
<pdfrwt beam="2">  1       21 0.22994545E-02 0.25456688E+03</pdfrwt>
<totfact> 0.21513476E+05</totfact>
</mgrwt>
</event>
<event>
 8    1  0.9691636E-006  0.2663889E+03  0.7546771E-02  0.1103364E+00
         21   -1    0    0  504  503  0.00000000000E+00  0.00000000000E+00  0.45344929489E+02  0.45344929489E+02  0.00000000000E+00 0.  1.
         21   -1    0    0  503  504 -0.00000000000E+00 -0.00000000000E+00 -0.39124031153E+03  0.39124031153E+03  0.00000000000E+00 0.  1.
         25    2    1    2    0    0  0.15316330751E+02  0.28441880364E+02 -0.11920280847E+03  0.17570692743E+03  0.12498033547E+03 0.  0.
         25    2    1    2    0    0 -0.15316330751E+02 -0.28441880364E+02 -0.22669257357E+03  0.26087831359E+03  0.12499776414E+03 0.  0.
          5    1    3    3  501    0 -0.51748987726E+02  0.26032747250E+02 -0.76315893559E+02  0.95926363789E+02  0.47000000000E+01 0. -1.
         -5    1    3    3    0  501  0.67065318477E+02  0.24091331147E+01 -0.42886914910E+02  0.79780563644E+02  0.47000000000E+01 0. -1.
          5    1    4    4  502    0  0.44237795260E+02  0.22807285471E+02 -0.98241218196E+02  0.11022967728E+03  0.47000000000E+01 0. -1.
         -5    1    4    4    0  502 -0.59554126011E+02 -0.51249165836E+02 -0.12845135538E+03  0.15064863631E+03  0.47000000000E+01 0. -1.
<mgrwt>
<rscale>  0 0.26638892E+03</rscale>
<asrwt>0</asrwt>
<pdfrwt beam="1">  1       21 0.69761429E-02 0.26638892E+03</pdfrwt>
<pdfrwt beam="2">  1       21 0.60190818E-01 0.26638892E+03</pdfrwt>
<totfact> 0.38503916E+05</totfact>
</mgrwt>
</event>
<event>
 8    1  0.9691636E-006  0.2755384E+03  0.7546771E-02  0.1098151E+00
         21   -1    0    0  504  503  0.00000000000E+00  0.00000000000E+00  0.49375079442E+03  0.49375079442E+03  0.00000000000E+00 0. -1.
         21   -1    0    0  503  504 -0.00000000000E+00 -0.00000000000E+00 -0.38441161836E+02  0.38441161836E+02  0.00000000000E+00 0. -1.
         25    2    1    2    0    0  0.35353322675E+02 -0.21333284919E+02  0.30610983013E+03  0.33322065895E+03  0.12501125142E+03 0.  0.
         25    2    1    2    0    0 -0.35353322675E+02  0.21333284919E+02  0.14919980246E+03  0.19897129731E+03  0.12499611845E+03 0.  0.
          5    1    3    3  501    0 -0.41186162025E+02 -0.14795819438E+02  0.54223260575E+02  0.69838873148E+02  0.47000000000E+01 0. -1.
         -5    1    3    3    0  501  0.76539484700E+02 -0.65374654804E+01  0.25188656955E+03  0.26338178581E+03  0.47000000000E+01 0. -1.
          5    1    4    4  502    0  0.79094071871E+01 -0.46846844884E+02  0.35764796379E+02  0.59652294655E+02  0.47000000000E+01 0.  1.
         -5    1    4    4    0  502 -0.43262729862E+02  0.68180129803E+02  0.11343500608E+03  0.13931900265E+03  0.47000000000E+01 0.  1.
<mgrwt>
<rscale>  0 0.27553841E+03</rscale>
<asrwt>0</asrwt>
<pdfrwt beam="1">  1       21 0.75961656E-01 0.27553841E+03</pdfrwt>
<pdfrwt beam="2">  1       21 0.59140252E-02 0.27553841E+03</pdfrwt>
<totfact> 0.30576055E+05</totfact>
</mgrwt>
</event>
<event>
 8    1  0.9691636E-006  0.4060947E+03  0.7546771E-02  0.1041689E+00
         21   -1    0    0  504  503  0.00000000000E+00  0.00000000000E+00  0.12430071577E+04  0.12430071577E+04  0.00000000000E+00 0. -1.
         21   -1    0    0  503  504 -0.00000000000E+00 -0.00000000000E+00 -0.33168135028E+02  0.33168135028E+02  0.00000000000E+00 0. -1.
         25    2    1    2    0    0 -0.13789936283E+03 -0.56838232623E+02  0.78687821534E+03  0.81058605640E+03  0.12500244037E+03 0.  0.
         25    2    1    2    0    0  0.13789936283E+03  0.56838232623E+02  0.42296080733E+03  0.46558923633E+03  0.12502269190E+03 0.  0.
          5    1    3    3  501    0 -0.74405457250E+02 -0.22204030836E+02  0.65917129723E+03  0.66374549351E+03  0.47000000000E+01 0. -1.
         -5    1    3    3    0  501 -0.63493905575E+02 -0.34634201787E+02  0.12770691811E+03  0.14684056290E+03  0.47000000000E+01 0. -1.
          5    1    4    4  502    0  0.11885950266E+03  0.27167327626E+02  0.16513818732E+03  0.20532500085E+03  0.47000000000E+01 0.  1.
         -5    1    4    4    0  502  0.19039860164E+02  0.29670904997E+02  0.25782262001E+03  0.26026423548E+03  0.47000000000E+01 0.  1.
<mgrwt>
<rscale>  0 0.40609471E+03</rscale>
<asrwt>0</asrwt>
<pdfrwt beam="1">  1       21 0.19123183E+00 0.40609471E+03</pdfrwt>
<pdfrwt beam="2">  1       21 0.51027910E-02 0.40609471E+03</pdfrwt>
<totfact> 0.36014146E+04</totfact>
</mgrwt>
</event>
<event>
 8    1  0.9691636E-006  0.3030515E+03  0.7546771E-02  0.1083725E+00
         21   -1    0    0  504  503  0.00000000000E+00  0.00000000000E+00  0.10948340071E+03  0.10948340071E+03  0.00000000000E+00 0.  1.
         21   -1    0    0  503  504 -0.00000000000E+00 -0.00000000000E+00 -0.20971258703E+03  0.20971258703E+03  0.00000000000E+00 0.  1.
         25    2    1    2    0    0 -0.26552078911E+02  0.14608023538E+02 -0.13448712532E+03  0.18609217434E+03  0.12500041291E+03 0.  0.
         25    2    1    2    0    0  0.26552078911E+02 -0.14608023538E+02  0.34257939000E+02  0.13310381340E+03  0.12499844604E+03 0.  0.
          5    1    3    3  501    0 -0.48983637753E+02 -0.43361927851E+02 -0.78610760024E+02  0.10237868502E+03  0.47000000000E+01 0. -1.
         -5    1    3    3    0  501  0.22431558842E+02  0.57969951389E+02 -0.55876365297E+02  0.83713489324E+02  0.47000000000E+01 0. -1.
          5    1    4    4  502    0  0.73292881426E+02 -0.26184754818E+02  0.88961624888E+01  0.78477509897E+02  0.47000000000E+01 0.  1.
         -5    1    4    4    0  502 -0.46740802515E+02  0.11576731279E+02  0.25361776511E+02  0.54626303505E+02  0.47000000000E+01 0.  1.
<mgrwt>
<rscale>  0 0.30305146E+03</rscale>
<asrwt>0</asrwt>
<pdfrwt beam="1">  1       21 0.16843600E-01 0.30305146E+03</pdfrwt>
<pdfrwt beam="2">  1       21 0.32263474E-01 0.30305146E+03</pdfrwt>
<totfact> 0.28580024E+05</totfact>
</mgrwt>
</event>
<event>
 8    1  0.9691636E-006  0.2512554E+03  0.7546771E-02  0.1112514E+00
         21   -1    0    0  504  503  0.00000000000E+00  0.00000000000E+00  0.28151662636E+03  0.28151662636E+03  0.00000000000E+00 0.  1.
         21   -1    0    0  503  504 -0.00000000000E+00 -0.00000000000E+00 -0.56061752323E+02  0.56061752323E+02  0.00000000000E+00 0.  1.
         25    2    1    2    0    0 -0.43274449251E+01 -0.52067762600E+00  0.96881285654E+02  0.15820646314E+03  0.12499721430E+03 0.  0.
         25    2    1    2    0    0  0.43274449251E+01  0.52067762600E+00  0.12857358839E+03  0.17937191555E+03  0.12499647424E+03 0.  0.
          5    1    3    3  501    0 -0.10442276232E+02  0.39725216947E+02  0.10808686258E+03  0.11572378259E+03  0.47000000000E+01 0.  1.
         -5    1    3    3    0  501  0.61148313073E+01 -0.40245894573E+02 -0.11205576929E+02  0.42482680544E+02  0.47000000000E+01 0.  1.
          5    1    4    4  502    0 -0.23262459189E+02 -0.47429141306E+02  0.10771366111E+03  0.12006243477E+03  0.47000000000E+01 0. -1.
         -5    1    4    4    0  502  0.27589904115E+02  0.47949818932E+02  0.20859927275E+02  0.59309480781E+02  0.47000000000E+01 0. -1.
<mgrwt>
<rscale>  0 0.25125537E+03</rscale>
<asrwt>0</asrwt>
<pdfrwt beam="1">  1       21 0.43310249E-01 0.25125537E+03</pdfrwt>
<pdfrwt beam="2">  1       21 0.86248851E-02 0.25125537E+03</pdfrwt>
<totfact> 0.53327489E+05</totfact>
</mgrwt>
</event>
<event>
 8    1  0.9691636E-006  0.3007114E+03  0.7546771E-02  0.1084886E+00
         21   -1    0    0  504  503  0.00000000000E+00  0.00000000000E+00  0.37236566310E+02  0.37236566310E+02  0.00000000000E+00 0.  1.
         21   -1    0    0  503  504 -0.00000000000E+00 -0.00000000000E+00 -0.60711405971E+03  0.60711405971E+03  0.00000000000E+00 0.  1.
         25    2    1    2    0    0  0.81652109508E+02  0.17321181540E+02 -0.29323059593E+03  0.32950880597E+03  0.12499912200E+03 0.  0.
         25    2    1    2    0    0 -0.81652109508E+02 -0.17321181540E+02 -0.27664689746E+03  0.31484182005E+03  0.12499910183E+03 0.  0.
          5    1    3    3  501    0  0.47462725015E+02  0.27676512055E+02 -0.28784270063E+03  0.29307713983E+03  0.47000000000E+01 0. -1.
         -5    1    3    3    0  501  0.34189384493E+02 -0.10355330515E+02 -0.53878953091E+01  0.36431666143E+02  0.47000000000E+01 0. -1.
          5    1    4    4  502    0 -0.59586958838E+02 -0.12998035350E+02 -0.28416355088E+03  0.29067261349E+03  0.47000000000E+01 0.  1.
         -5    1    4    4    0  502 -0.22065150670E+02 -0.43231461896E+01  0.75166534150E+01  0.24169206558E+02  0.47000000000E+01 0.  1.
<mgrwt>
<rscale>  0 0.30071144E+03</rscale>
<asrwt>0</asrwt>
<pdfrwt beam="1">  1       21 0.57287026E-02 0.30071144E+03</pdfrwt>
<pdfrwt beam="2">  1       21 0.93402162E-01 0.30071144E+03</pdfrwt>
<totfact> 0.19924262E+05</totfact>
</mgrwt>
</event>
<event>
 8    1  0.9691636E-006  0.3653716E+03  0.7546771E-02  0.1056477E+00
         21   -1    0    0  504  503  0.00000000000E+00  0.00000000000E+00  0.56472850004E+03  0.56472850004E+03  0.00000000000E+00 0. -1.
         21   -1    0    0  503  504 -0.00000000000E+00 -0.00000000000E+00 -0.59097617774E+02  0.59097617774E+02  0.00000000000E+00 0. -1.
         25    2    1    2    0    0 -0.12194752767E+03 -0.24768089618E+02  0.33407306318E+03  0.37777323984E+03  0.12499260549E+03 0.  0.
         25    2    1    2    0    0  0.12194752767E+03  0.24768089618E+02  0.17155781909E+03  0.24605287798E+03  0.12500110281E+03 0.  0.
          5    1    3    3  501    0 -0.75194166763E+02 -0.75100608227E+02  0.18140611187E+03  0.21029629454E+03  0.47000000000E+01 0.  1.
         -5    1    3    3    0  501 -0.46753360908E+02  0.50332518609E+02  0.15266695131E+03  0.16747694530E+03  0.47000000000E+01 0.  1.
          5    1    4    4  502    0  0.10499621950E+03  0.69272517423E+02  0.14220226324E+03  0.18991172015E+03  0.47000000000E+01 0.  1.
         -5    1    4    4    0  502  0.16951308169E+02 -0.44504427805E+02  0.29355555843E+02  0.56141157824E+02  0.47000000000E+01 0.  1.
<mgrwt>
<rscale>  0 0.36537164E+03</rscale>
<asrwt>0</asrwt>
<pdfrwt beam="1">  1       21 0.86881304E-01 0.36537164E+03</pdfrwt>
<pdfrwt beam="2">  1       21 0.90919416E-02 0.36537164E+03</pdfrwt>
<totfact> 0.10357712E+05</totfact>
</mgrwt>
</event>
<event>
 8    1  0.9691636E-006  0.3458518E+03  0.7546771E-02  0.1064331E+00
         21   -1    0    0  504  503  0.00000000000E+00  0.00000000000E+00  0.15063047633E+03  0.15063047633E+03  0.00000000000E+00 0. -1.
         21   -1    0    0  503  504 -0.00000000000E+00 -0.00000000000E+00 -0.19852139998E+03  0.19852139998E+03  0.00000000000E+00 0. -1.
         25    2    1    2    0    0 -0.11435244258E+03 -0.46973353260E+01  0.10709270618E+02  0.16982359586E+03  0.12500727638E+03 0.  0.
         25    2    1    2    0    0  0.11435244258E+03  0.46973353260E+01 -0.58600194277E+02  0.17932828045E+03  0.12500441319E+03 0.  0.
          5    1    3    3  501    0 -0.11792499523E+03  0.30715151241E+02 -0.18749700855E+02  0.12338300652E+03  0.47000000000E+01 0.  1.
         -5    1    3    3    0  501  0.35725526527E+01 -0.35412486567E+02  0.29458971472E+02  0.46440589332E+02  0.47000000000E+01 0.  1.
          5    1    4    4  502    0  0.10283639088E+03 -0.37853573182E+02 -0.50359460199E+01  0.10979830165E+03  0.47000000000E+01 0. -1.
         -5    1    4    4    0  502  0.11516051702E+02  0.42550908508E+02 -0.53564248257E+02  0.69529978808E+02  0.47000000000E+01 0. -1.
<mgrwt>
<rscale>  0 0.34585184E+03</rscale>
<asrwt>0</asrwt>
<pdfrwt beam="1">  1       21 0.23173920E-01 0.34585184E+03</pdfrwt>
<pdfrwt beam="2">  1       21 0.30541753E-01 0.34585184E+03</pdfrwt>
<totfact> 0.17296751E+05</totfact>
</mgrwt>
</event>
<event>
 8    1  0.9691636E-006  0.3461764E+03  0.7546771E-02  0.1064195E+00
         21   -1    0    0  504  503  0.00000000000E+00  0.00000000000E+00  0.46709075698E+03  0.46709075698E+03  0.00000000000E+00 0. -1.
         21   -1    0    0  503  504 -0.00000000000E+00 -0.00000000000E+00 -0.64140697194E+02  0.64140697194E+02  0.00000000000E+00 0. -1.
         25    2    1    2    0    0 -0.22234981023E+02 -0.11209161441E+03  0.25626671080E+03  0.30717491011E+03  0.12499949573E+03 0.  0.
         25    2    1    2    0    0  0.22234981023E+02  0.11209161441E+03  0.14668334899E+03  0.22405654407E+03  0.12500562255E+03 0.  0.
          5    1    3    3  501    0 -0.68002135002E+02 -0.99412418539E+02  0.19866145325E+03  0.23236949527E+03  0.47000000000E+01 0. -1.
         -5    1    3    3    0  501  0.45767153980E+02 -0.12679195868E+02  0.57605257556E+02  0.74805414840E+02  0.47000000000E+01 0. -1.
          5    1    4    4  502    0 -0.48860310284E+02  0.52329570199E+02  0.38599079058E+02  0.81472036567E+02  0.47000000000E+01 0.  1.
         -5    1    4    4    0  502  0.71095291307E+02  0.59762044208E+02  0.10808426993E+03  0.14258450750E+03  0.47000000000E+01 0.  1.
<mgrwt>
<rscale>  0 0.34617641E+03</rscale>
<asrwt>0</asrwt>
<pdfrwt beam="1">  1       21 0.71860114E-01 0.34617641E+03</pdfrwt>
<pdfrwt beam="2">  1       21 0.98677999E-02 0.34617641E+03</pdfrwt>
<totfact> 0.13889503E+05</totfact>
</mgrwt>
</event>
<event>
 8    1  0.9691636E-006  0.2607532E+03  0.7546771E-02  0.1106692E+00
         21   -1    0    0  504  503  0.00000000000E+00  0.00000000000E+00  0.72426776495E+02  0.72426776495E+02  0.00000000000E+00 0. -1.
         21   -1    0    0  503  504 -0.00000000000E+00 -0.00000000000E+00 -0.23469306761E+03  0.23469306761E+03  0.00000000000E+00 0. -1.
         25    2    1    2    0    0  0.34513071974E+02 -0.70731537584E+00 -0.96994966523E+02  0.16194103422E+03  0.12500089040E+03 0.  0.
         25    2    1    2    0    0 -0.34513071974E+02  0.70731537584E+00 -0.65271324597E+02  0.14517880989E+03  0.12499955438E+03 0.  0.
          5    1    3    3  501    0 -0.96122996933E+01 -0.56086698398E+02 -0.56049337341E+02  0.80010825886E+02  0.47000000000E+01 0.  1.
         -5    1    3    3    0  501  0.44125371667E+02  0.55379383023E+02 -0.40945629182E+02  0.81930208335E+02  0.47000000000E+01 0.  1.
          5    1    4    4  502    0 -0.20231495261E+02  0.19874306157E+02  0.33097372001E+02  0.43838652798E+02  0.47000000000E+01 0.  1.
         -5    1    4    4    0  502 -0.14281576712E+02 -0.19166990782E+02 -0.98368696598E+02  0.10134015709E+03  0.47000000000E+01 0.  1.
<mgrwt>
<rscale>  0 0.26075323E+03</rscale>
<asrwt>0</asrwt>
<pdfrwt beam="1">  1       21 0.11142581E-01 0.26075323E+03</pdfrwt>
<pdfrwt beam="2">  1       21 0.36106625E-01 0.26075323E+03</pdfrwt>
<totfact> 0.48884091E+05</totfact>
</mgrwt>
</event>
<event>
 8    1  0.9691636E-006  0.2931938E+03  0.7546771E-02  0.1088693E+00
         21   -1    0    0  504  503  0.00000000000E+00  0.00000000000E+00  0.63996076143E+03  0.63996076143E+03  0.00000000000E+00 0.  1.
         21   -1    0    0  503  504 -0.00000000000E+00 -0.00000000000E+00 -0.33581195610E+02  0.33581195610E+02  0.00000000000E+00 0.  1.
         25    2    1    2    0    0  0.14907884396E+02  0.73897445773E+02  0.27189520769E+03  0.30860217200E+03  0.12500087635E+03 0.  0.
         25    2    1    2    0    0 -0.14907884396E+02 -0.73897445773E+02  0.33448435814E+03  0.36493978505E+03  0.12497273048E+03 0.  0.
          5    1    3    3  501    0  0.60007387408E+01  0.79766357076E+02  0.28200757209E+03  0.29317066924E+03  0.47000000000E+01 0.  1.
         -5    1    3    3    0  501  0.89071456550E+01 -0.58689113029E+01 -0.10112364400E+02  0.15431502758E+02  0.47000000000E+01 0.  1.
          5    1    4    4  502    0 -0.14863873361E+02 -0.10407822813E+03  0.18939118123E+03  0.21666638371E+03  0.47000000000E+01 0. -1.
         -5    1    4    4    0  502 -0.44011034738E-01  0.30180782354E+02  0.14509317690E+03  0.14827340134E+03  0.47000000000E+01 0. -1.
<mgrwt>
<rscale>  0 0.29319378E+03</rscale>
<asrwt>0</asrwt>
<pdfrwt beam="1">  1       21 0.98455493E-01 0.29319378E+03</pdfrwt>
<pdfrwt beam="2">  1       21 0.51663383E-02 0.29319378E+03</pdfrwt>
<totfact> 0.21035430E+05</totfact>
</mgrwt>
</event>
<event>
 8    1  0.9691636E-006  0.2905094E+03  0.7546771E-02  0.1090084E+00
         21   -1    0    0  504  503  0.00000000000E+00  0.00000000000E+00  0.44584702372E+03  0.44584702372E+03  0.00000000000E+00 0.  1.
         21   -1    0    0  503  504 -0.00000000000E+00 -0.00000000000E+00 -0.47323231024E+02  0.47323231024E+02  0.00000000000E+00 0.  1.
         25    2    1    2    0    0  0.34482156655E+02 -0.65456281138E+02  0.19795221450E+03  0.24552636426E+03  0.12499828979E+03 0.  0.
         25    2    1    2    0    0 -0.34482156655E+02  0.65456281138E+02  0.20057157820E+03  0.24764389049E+03  0.12499997860E+03 0.  0.
          5    1    3    3  501    0 -0.35437839831E+01  0.34634365325E+00 -0.16730840458E+02  0.17739486500E+02  0.47000000000E+01 0. -1.
         -5    1    3    3    0  501  0.38025940638E+02 -0.65802624791E+02  0.21468305496E+03  0.22778687776E+03  0.47000000000E+01 0. -1.
          5    1    4    4  502    0  0.65586356653E+01 -0.35255804904E+02  0.56227490593E+02  0.66855128297E+02  0.47000000000E+01 0. -1.
         -5    1    4    4    0  502 -0.41040792320E+02  0.10071208604E+03  0.14434408760E+03  0.18078876219E+03  0.47000000000E+01 0. -1.
<mgrwt>
<rscale>  0 0.29050936E+03</rscale>
<asrwt>0</asrwt>
<pdfrwt beam="1">  1       21 0.68591847E-01 0.29050936E+03</pdfrwt>
<pdfrwt beam="2">  1       21 0.72804974E-02 0.29050936E+03</pdfrwt>
<totfact> 0.26702593E+05</totfact>
</mgrwt>
</event>
<event>
 8    1  0.9691636E-006  0.2993006E+03  0.7546771E-02  0.1085591E+00
         21   -1    0    0  504  503  0.00000000000E+00  0.00000000000E+00  0.43039578744E+03  0.43039578744E+03  0.00000000000E+00 0. -1.
         21   -1    0    0  503  504 -0.00000000000E+00 -0.00000000000E+00 -0.52033988702E+02  0.52033988702E+02  0.00000000000E+00 0. -1.
         25    2    1    2    0    0 -0.43043422796E+02  0.46715158492E+02  0.27352852498E+03  0.30737169214E+03  0.12499784346E+03 0.  0.
         25    2    1    2    0    0  0.43043422796E+02 -0.46715158492E+02  0.10483327376E+03  0.17505808401E+03  0.12498109941E+03 0.  0.
          5    1    3    3  501    0  0.12944204501E+02  0.38473513370E+02  0.23552194191E+03  0.23904066345E+03  0.47000000000E+01 0. -1.
         -5    1    3    3    0  501 -0.55987627296E+02  0.82416451213E+01  0.38006583064E+02  0.68331028682E+02  0.47000000000E+01 0. -1.
          5    1    4    4  502    0  0.51025205320E+02 -0.34932118558E+02 -0.68327376835E+01  0.62390710760E+02  0.47000000000E+01 0.  1.
         -5    1    4    4    0  502 -0.79817825248E+01 -0.11783039934E+02  0.11166601145E+03  0.11266737325E+03  0.47000000000E+01 0.  1.
<mgrwt>
<rscale>  0 0.29930058E+03</rscale>
<asrwt>0</asrwt>
<pdfrwt beam="1">  1       21 0.66214734E-01 0.29930058E+03</pdfrwt>
<pdfrwt beam="2">  1       21 0.80052293E-02 0.29930058E+03</pdfrwt>
<totfact> 0.24401868E+05</totfact>
</mgrwt>
</event>
<event>
 8    1  0.9691636E-006  0.3246798E+03  0.7546771E-02  0.1073515E+00
         21   -1    0    0  504  503  0.00000000000E+00  0.00000000000E+00  0.17276907380E+03  0.17276907380E+03  0.00000000000E+00 0.  1.
         21   -1    0    0  503  504 -0.00000000000E+00 -0.00000000000E+00 -0.15254026243E+03  0.15254026243E+03  0.00000000000E+00 0.  1.
         25    2    1    2    0    0 -0.93556631400E+01  0.96342913768E+02  0.47060407901E+02  0.16495448879E+03  0.12500326362E+03 0.  0.
         25    2    1    2    0    0  0.93556631400E+01 -0.96342913768E+02 -0.26831596538E+02  0.16035484744E+03  0.12499702820E+03 0.  0.
          5    1    3    3  501    0 -0.32793397152E+02 -0.18375882340E+02 -0.19537643013E+01  0.37933984018E+02  0.47000000000E+01 0.  1.
         -5    1    3    3    0  501  0.23437734012E+02  0.11471879611E+03  0.49014172202E+02  0.12702050477E+03  0.47000000000E+01 0.  1.
          5    1    4    4  502    0  0.51054799729E+01 -0.11753918258E+03  0.91685690771E+01  0.11810028801E+03  0.47000000000E+01 0. -1.
         -5    1    4    4    0  502  0.42501831672E+01  0.21196268815E+02 -0.36000165615E+02  0.42254559434E+02  0.47000000000E+01 0. -1.
<mgrwt>
<rscale>  0 0.32467978E+03</rscale>
<asrwt>0</asrwt>
<pdfrwt beam="1">  1       21 0.26579857E-01 0.32467978E+03</pdfrwt>
<pdfrwt beam="2">  1       21 0.23467733E-01 0.32467978E+03</pdfrwt>
<totfact> 0.22270890E+05</totfact>
</mgrwt>
</event>
<event>
 8    1  0.9691636E-006  0.3195920E+03  0.7546771E-02  0.1075837E+00
         21   -1    0    0  504  503  0.00000000000E+00  0.00000000000E+00  0.33768152294E+03  0.33768152294E+03  0.00000000000E+00 0. -1.
         21   -1    0    0  503  504 -0.00000000000E+00 -0.00000000000E+00 -0.75617870990E+02  0.75617870990E+02  0.00000000000E+00 0. -1.
         25    2    1    2    0    0  0.95886182297E+02  0.10285856970E+02  0.99071001113E+02  0.18638423814E+03  0.12499624856E+03 0.  0.
         25    2    1    2    0    0 -0.95886182297E+02 -0.10285856970E+02  0.16299265084E+03  0.22691515580E+03  0.12499569950E+03 0.  0.
          5    1    3    3  501    0  0.84714906003E+01 -0.39105060955E+02  0.71647109148E+02  0.82197142253E+02  0.47000000000E+01 0. -1.
         -5    1    3    3    0  501  0.87414691697E+02  0.49390917926E+02  0.27423891965E+02  0.10418709588E+03  0.47000000000E+01 0. -1.
          5    1    4    4  502    0 -0.44710949772E+02  0.39871920333E+02  0.13861459886E+03  0.15107923775E+03  0.47000000000E+01 0.  1.
         -5    1    4    4    0  502 -0.51175232525E+02 -0.50157777304E+02  0.24378051978E+02  0.75835918049E+02  0.47000000000E+01 0.  1.
<mgrwt>
<rscale>  0 0.31959198E+03</rscale>
<asrwt>0</asrwt>
<pdfrwt beam="1">  1       21 0.51951003E-01 0.31959198E+03</pdfrwt>
<pdfrwt beam="2">  1       21 0.11633519E-01 0.31959198E+03</pdfrwt>
<totfact> 0.21108423E+05</totfact>
</mgrwt>
</event>
<event>
 8    1  0.9691636E-006  0.2696555E+03  0.7546771E-02  0.1101477E+00
         21   -1    0    0  504  503  0.00000000000E+00  0.00000000000E+00  0.62473087414E+02  0.62473087414E+02  0.00000000000E+00 0. -1.
         21   -1    0    0  503  504 -0.00000000000E+00 -0.00000000000E+00 -0.29098171626E+03  0.29098171626E+03  0.00000000000E+00 0. -1.
         25    2    1    2    0    0  0.15571552872E+02  0.10095504583E+02 -0.52645100056E+02  0.13689664418E+03  0.12499916862E+03 0.  0.
         25    2    1    2    0    0 -0.15571552872E+02 -0.10095504583E+02 -0.17586352878E+03  0.21655815949E+03  0.12500025286E+03 0.  0.
          5    1    3    3  501    0 -0.45767061410E+01 -0.85705072666E+01  0.39334736747E+02  0.40788617883E+02  0.47000000000E+01 0. -1.
         -5    1    3    3    0  501  0.20148259013E+02  0.18666011850E+02 -0.91979836803E+02  0.96108026293E+02  0.47000000000E+01 0. -1.
          5    1    4    4  502    0 -0.52596495125E+02 -0.32824126906E+02 -0.40223499779E+02  0.74052917167E+02  0.47000000000E+01 0. -1.
         -5    1    4    4    0  502  0.37024942252E+02  0.22728622323E+02 -0.13564002901E+03  0.14250524233E+03  0.47000000000E+01 0. -1.
<mgrwt>
<rscale>  0 0.26965553E+03</rscale>
<asrwt>0</asrwt>
<pdfrwt beam="1">  1       21 0.96112442E-02 0.26965553E+03</pdfrwt>
<pdfrwt beam="2">  1       21 0.44766418E-01 0.26965553E+03</pdfrwt>
<totfact> 0.40996682E+05</totfact>
</mgrwt>
</event>
<event>
 8    1  0.9691636E-006  0.3514053E+03  0.7546771E-02  0.1062040E+00
         21   -1    0    0  504  503  0.00000000000E+00  0.00000000000E+00  0.29057169063E+02  0.29057169063E+02  0.00000000000E+00 0.  1.
         21   -1    0    0  503  504 -0.00000000000E+00 -0.00000000000E+00 -0.10624371935E+04  0.10624371935E+04  0.00000000000E+00 0.  1.
         25    2    1    2    0    0 -0.92547183555E+02 -0.55439979165E+01 -0.77001389450E+03  0.78558353232E+03  0.12499748570E+03 0.  0.
         25    2    1    2    0    0  0.92547183555E+02  0.55439979165E+01 -0.26336612990E+03  0.30591083020E+03  0.12499600218E+03 0.  0.
          5    1    3    3  501    0  0.28191949863E+02 -0.14735355344E+02 -0.22311107559E+03  0.22541641196E+03  0.47000000000E+01 0.  1.
         -5    1    3    3    0  501 -0.12073913342E+03  0.91913574277E+01 -0.54690281892E+03  0.56016712036E+03  0.47000000000E+01 0.  1.
          5    1    4    4  502    0  0.49900050565E+02 -0.13466156568E+02 -0.25245047076E+03  0.25772986363E+03  0.47000000000E+01 0.  1.
         -5    1    4    4    0  502  0.42647132990E+02  0.19010154485E+02 -0.10915659138E+02  0.48180966576E+02  0.47000000000E+01 0.  1.
<mgrwt>
<rscale>  0 0.35140528E+03</rscale>
<asrwt>0</asrwt>
<pdfrwt beam="1">  1       21 0.44703336E-02 0.35140528E+03</pdfrwt>
<pdfrwt beam="2">  1       21 0.16345188E+00 0.35140528E+03</pdfrwt>
<totfact> 0.72285065E+04</totfact>
</mgrwt>
</event>
<event>
 8    1  0.9691636E-006  0.2504431E+03  0.7546771E-02  0.1113025E+00
         21   -1    0    0  504  503  0.00000000000E+00  0.00000000000E+00  0.10041295104E+03  0.10041295104E+03  0.00000000000E+00 0.  1.
         21   -1    0    0  503  504 -0.00000000000E+00 -0.00000000000E+00 -0.15615952153E+03  0.15615952153E+03  0.00000000000E+00 0.  1.
         25    2    1    2    0    0 -0.52727207605E+01  0.49767335233E+01 -0.28317517608E+02  0.12837255978E+03  0.12500025136E+03 0.  0.
         25    2    1    2    0    0  0.52727207605E+01 -0.49767335233E+01 -0.27429052880E+02  0.12819991279E+03  0.12502117915E+03 0.  0.
          5    1    3    3  501    0  0.31596497895E+02  0.54490709585E+02 -0.17277764517E+02  0.65484251977E+02  0.47000000000E+01 0.  1.
         -5    1    3    3    0  501 -0.36869218655E+02 -0.49513976062E+02 -0.11039753091E+02  0.62888307801E+02  0.47000000000E+01 0.  1.
          5    1    4    4  502    0  0.52933448292E+02 -0.29821709887E+01  0.23569887719E+02  0.58210590952E+02  0.47000000000E+01 0.  1.
         -5    1    4    4    0  502 -0.47660727532E+02 -0.19945625345E+01 -0.50998940600E+02  0.69989321834E+02  0.47000000000E+01 0.  1.
<mgrwt>
<rscale>  0 0.25044311E+03</rscale>
<asrwt>0</asrwt>
<pdfrwt beam="1">  1       21 0.15448146E-01 0.25044311E+03</pdfrwt>
<pdfrwt beam="2">  1       21 0.24024542E-01 0.25044311E+03</pdfrwt>
<totfact> 0.60134858E+05</totfact>
</mgrwt>
</event>
<event>
 8    1  0.9691636E-006  0.2859923E+03  0.7546771E-02  0.1092460E+00
         21   -1    0    0  504  503  0.00000000000E+00  0.00000000000E+00  0.85292510962E+02  0.85292510962E+02  0.00000000000E+00 0. -1.
         21   -1    0    0  503  504 -0.00000000000E+00 -0.00000000000E+00 -0.23973856416E+03  0.23973856416E+03  0.00000000000E+00 0. -1.
         25    2    1    2    0    0  0.56637718089E+02 -0.23749350723E-01 -0.12291717942E+03  0.18422600986E+03  0.12499103183E+03 0.  0.
         25    2    1    2    0    0 -0.56637718089E+02  0.23749350723E-01 -0.31528873771E+02  0.14080506526E+03  0.12499665934E+03 0.  0.
          5    1    3    3  501    0  0.46855340169E+02  0.59969460586E+02 -0.67251838923E+02  0.10166936089E+03  0.47000000000E+01 0. -1.
         -5    1    3    3    0  501  0.97823779197E+01 -0.59993209937E+02 -0.55665340501E+02  0.82556648972E+02  0.47000000000E+01 0. -1.
          5    1    4    4  502    0 -0.18855540562E+02 -0.49728230816E+02  0.22633477658E+02  0.57989590970E+02  0.47000000000E+01 0.  1.
         -5    1    4    4    0  502 -0.37782177526E+02  0.49751980166E+02 -0.54162351429E+02  0.82815474287E+02  0.47000000000E+01 0.  1.
<mgrwt>
<rscale>  0 0.28599234E+03</rscale>
<asrwt>0</asrwt>
<pdfrwt beam="1">  1       21 0.13121925E-01 0.28599234E+03</pdfrwt>
<pdfrwt beam="2">  1       21 0.36882855E-01 0.28599234E+03</pdfrwt>
<totfact> 0.34708181E+05</totfact>
</mgrwt>
</event>
<event>
 8    1  0.9691636E-006  0.3021596E+03  0.7546771E-02  0.1084166E+00
         21   -1    0    0  504  503  0.00000000000E+00  0.00000000000E+00  0.92125177368E+03  0.92125177368E+03  0.00000000000E+00 0. -1.
         21   -1    0    0  503  504 -0.00000000000E+00 -0.00000000000E+00 -0.24776193276E+02  0.24776193276E+02  0.00000000000E+00 0. -1.
         25    2    1    2    0    0  0.56031403316E+02  0.63524393748E+02  0.46268317810E+03  0.48670400342E+03  0.12502078582E+03 0.  0.
         25    2    1    2    0    0 -0.56031403316E+02 -0.63524393748E+02  0.43379240230E+03  0.45932396354E+03  0.12501115321E+03 0.  0.
          5    1    3    3  501    0  0.71007922009E+02  0.92869632672E+02  0.37891557218E+03  0.39656776786E+03  0.47000000000E+01 0.  1.
         -5    1    3    3    0  501 -0.14976518693E+02 -0.29345238925E+02  0.83767605917E+02  0.90136235559E+02  0.47000000000E+01 0.  1.
          5    1    4    4  502    0  0.18165426479E+02 -0.14191063266E+01  0.46494852213E+01  0.19383093013E+02  0.47000000000E+01 0. -1.
         -5    1    4    4    0  502 -0.74196829796E+02 -0.62105287421E+02  0.42914291708E+03  0.43994087052E+03  0.47000000000E+01 0. -1.
<mgrwt>
<rscale>  0 0.30215964E+03</rscale>
<asrwt>0</asrwt>
<pdfrwt beam="1">  1       21 0.14173102E+00 0.30215964E+03</pdfrwt>
<pdfrwt beam="2">  1       21 0.38117227E-02 0.30215964E+03</pdfrwt>
<totfact> 0.14144154E+05</totfact>
</mgrwt>
</event>
<event>
 8    1  0.9691636E-006  0.2702890E+03  0.7546771E-02  0.1101114E+00
         21   -1    0    0  504  503  0.00000000000E+00  0.00000000000E+00  0.25467672400E+04  0.25467672400E+04  0.00000000000E+00 0.  1.
         21   -1    0    0  503  504 -0.00000000000E+00 -0.00000000000E+00 -0.71714604230E+01  0.71714604230E+01  0.00000000000E+00 0.  1.
         25    2    1    2    0    0 -0.27852256660E+02 -0.42559898385E+02  0.12018500091E+04  0.12094032115E+04  0.12500236216E+03 0.  0.
         25    2    1    2    0    0  0.27852256660E+02  0.42559898385E+02  0.13377457705E+04  0.13445354889E+04  0.12499936519E+03 0.  0.
          5    1    3    3  501    0 -0.46875796301E+02  0.26424473525E+02  0.30966861369E+03  0.31434429116E+03  0.47000000000E+01 0.  1.
         -5    1    3    3    0  501  0.19023539640E+02 -0.68984371910E+02  0.89218139538E+03  0.89505892035E+03  0.47000000000E+01 0.  1.
          5    1    4    4  502    0  0.33068804563E+02 -0.39122584569E+02  0.42099167243E+03  0.42412286040E+03  0.47000000000E+01 0. -1.
         -5    1    4    4    0  502 -0.52165479029E+01  0.81682482954E+02  0.91675409806E+03  0.92041262850E+03  0.47000000000E+01 0. -1.
<mgrwt>
<rscale>  0 0.27028903E+03</rscale>
<asrwt>0</asrwt>
<pdfrwt beam="1">  1       21 0.39180962E+00 0.27028903E+03</pdfrwt>
<pdfrwt beam="2">  1       21 0.11033036E-02 0.27028903E+03</pdfrwt>
<totfact> 0.29126777E+04</totfact>
</mgrwt>
</event>
<event>
 8    1  0.9691636E-006  0.3649252E+03  0.7546771E-02  0.1056651E+00
         21   -1    0    0  504  503  0.00000000000E+00  0.00000000000E+00  0.22839867355E+02  0.22839867355E+02  0.00000000000E+00 0.  1.
         21   -1    0    0  503  504 -0.00000000000E+00 -0.00000000000E+00 -0.14576532841E+04  0.14576532841E+04  0.00000000000E+00 0.  1.
         25    2    1    2    0    0 -0.77778321305E+02  0.64592927784E+02 -0.36729885970E+03  0.40094092924E+03  0.12499385114E+03 0.  0.
         25    2    1    2    0    0  0.77778321305E+02 -0.64592927784E+02 -0.10675145570E+04  0.10795522222E+04  0.12499582948E+03 0.  0.
          5    1    3    3  501    0  0.63369777571E+01 -0.13026703573E+02  0.97655606785E+00  0.15260929029E+02  0.47000000000E+01 0. -1.
         -5    1    3    3    0  501 -0.84115299062E+02  0.77619631357E+02 -0.36827541577E+03  0.38568000022E+03  0.47000000000E+01 0. -1.
          5    1    4    4  502    0  0.75053627893E+02  0.29238320785E+01 -0.80240158311E+03  0.80592306483E+03  0.47000000000E+01 0.  1.
         -5    1    4    4    0  502  0.27246934122E+01 -0.67516759862E+02 -0.26511297390E+03  0.27362915734E+03  0.47000000000E+01 0.  1.
<mgrwt>
<rscale>  0 0.36492524E+03</rscale>
<asrwt>0</asrwt>
<pdfrwt beam="1">  1       21 0.35138251E-02 0.36492524E+03</pdfrwt>
<pdfrwt beam="2">  1       21 0.22425439E+00 0.36492524E+03</pdfrwt>
<totfact> 0.42073030E+04</totfact>
</mgrwt>
</event>
<event>
 8    1  0.9691636E-006  0.3088463E+03  0.7546771E-02  0.1080900E+00
         21   -1    0    0  504  503  0.00000000000E+00  0.00000000000E+00  0.13909846503E+03  0.13909846503E+03  0.00000000000E+00 0. -1.
         21   -1    0    0  503  504 -0.00000000000E+00 -0.00000000000E+00 -0.17143616919E+03  0.17143616919E+03  0.00000000000E+00 0. -1.
         25    2    1    2    0    0  0.82417166917E+00 -0.25171780300E+02  0.71402957107E+02  0.14613895373E+03  0.12499565485E+03 0.  0.
         25    2    1    2    0    0 -0.82417166917E+00  0.25171780300E+02 -0.10374066127E+03  0.16439568050E+03  0.12501806743E+03 0.  0.
          5    1    3    3  501    0 -0.59618919455E+02  0.43807166481E+01  0.30738720428E+02  0.67383715903E+02  0.47000000000E+01 0.  1.
         -5    1    3    3    0  501  0.60443091124E+02 -0.29552496948E+02  0.40664236679E+02  0.78755237827E+02  0.47000000000E+01 0.  1.
          5    1    4    4  502    0  0.15927758146E+02  0.21154239037E+02  0.23617339721E+02  0.35791955022E+02  0.47000000000E+01 0.  1.
         -5    1    4    4    0  502 -0.16751929815E+02  0.40175412629E+01 -0.12735800099E+03  0.12860372547E+03  0.47000000000E+01 0.  1.
<mgrwt>
<rscale>  0 0.30884629E+03</rscale>
<asrwt>0</asrwt>
<pdfrwt beam="1">  1       21 0.21399764E-01 0.30884629E+03</pdfrwt>
<pdfrwt beam="2">  1       21 0.26374795E-01 0.30884629E+03</pdfrwt>
<totfact> 0.27048730E+05</totfact>
</mgrwt>
</event>
<event>
 8    1  0.9691636E-006  0.2848462E+03  0.7546771E-02  0.1093071E+00
         21   -1    0    0  504  503  0.00000000000E+00  0.00000000000E+00  0.37698560610E+03  0.37698560610E+03  0.00000000000E+00 0. -1.
         21   -1    0    0  503  504 -0.00000000000E+00 -0.00000000000E+00 -0.53806659424E+02  0.53806659424E+02  0.00000000000E+00 0. -1.
         25    2    1    2    0    0  0.47141815961E+01 -0.34447935372E+02  0.72764597333E+02  0.14876164390E+03  0.12500582511E+03 0.  0.
         25    2    1    2    0    0 -0.47141815961E+01  0.34447935372E+02  0.25041434935E+03  0.28203062163E+03  0.12500016568E+03 0.  0.
          5    1    3    3  501    0 -0.15579857557E+02  0.33139233068E+02 -0.11576555190E+02  0.38691696265E+02  0.47000000000E+01 0.  1.
         -5    1    3    3    0  501  0.20294039153E+02 -0.67587168440E+02  0.84341152523E+02  0.11006994763E+03  0.47000000000E+01 0.  1.
          5    1    4    4  502    0  0.86007732226E+01  0.79955042388E+02  0.17756977561E+03  0.19498691575E+03  0.47000000000E+01 0. -1.
         -5    1    4    4    0  502 -0.13314954819E+02 -0.45507107016E+02  0.72844573741E+02  0.87043705885E+02  0.47000000000E+01 0. -1.
<mgrwt>
<rscale>  0 0.28484618E+03</rscale>
<asrwt>0</asrwt>
<pdfrwt beam="1">  1       21 0.57997784E-01 0.28484618E+03</pdfrwt>
<pdfrwt beam="2">  1       21 0.82779478E-02 0.28484618E+03</pdfrwt>
<totfact> 0.30811944E+05</totfact>
</mgrwt>
</event>
<event>
 8    1  0.9691636E-006  0.3132093E+03  0.7546771E-02  0.1078818E+00
         21   -1    0    0  504  503  0.00000000000E+00  0.00000000000E+00  0.19930777168E+03  0.19930777168E+03  0.00000000000E+00 0.  1.
         21   -1    0    0  503  504 -0.00000000000E+00 -0.00000000000E+00 -0.12305094920E+03  0.12305094920E+03  0.00000000000E+00 0.  1.
         25    2    1    2    0    0 -0.82807082529E+02 -0.48798243138E+01 -0.80973904794E+01  0.15023878672E+03  0.12500119879E+03 0.  0.
         25    2    1    2    0    0  0.82807082529E+02  0.48798243138E+01  0.84354212953E+02  0.17211993416E+03  0.12501525063E+03 0.  0.
          5    1    3    3  501    0 -0.90040772134E+02 -0.49492621036E+02  0.49204501550E+01  0.10297165150E+03  0.47000000000E+01 0. -1.
         -5    1    3    3    0  501  0.72336896048E+01  0.44612796723E+02 -0.13017840634E+02  0.47267135216E+02  0.47000000000E+01 0. -1.
          5    1    4    4  502    0  0.92825437150E+02 -0.26557108105E+02  0.18650361987E+02  0.98446776358E+02  0.47000000000E+01 0. -1.
         -5    1    4    4    0  502 -0.10018354621E+02  0.31436932419E+02  0.65703850966E+02  0.73673157806E+02  0.47000000000E+01 0. -1.
<mgrwt>
<rscale>  0 0.31320926E+03</rscale>
<asrwt>0</asrwt>
<pdfrwt beam="1">  1       21 0.30662734E-01 0.31320926E+03</pdfrwt>
<pdfrwt beam="2">  1       21 0.18930915E-01 0.31320926E+03</pdfrwt>
<totfact> 0.25364697E+05</totfact>
</mgrwt>
</event>
<event>
 8    1  0.9691636E-006  0.3019726E+03  0.7546771E-02  0.1084259E+00
         21   -1    0    0  504  503  0.00000000000E+00  0.00000000000E+00  0.20269592239E+03  0.20269592239E+03  0.00000000000E+00 0. -1.
         21   -1    0    0  503  504 -0.00000000000E+00 -0.00000000000E+00 -0.11246829736E+03  0.11246829736E+03  0.00000000000E+00 0. -1.
         25    2    1    2    0    0 -0.51070115749E+01 -0.84494554255E+02  0.45020369535E+02  0.15754747010E+03  0.12501584058E+03 0.  0.
         25    2    1    2    0    0  0.51070115749E+01  0.84494554255E+02  0.45207255494E+02  0.15761674965E+03  0.12503572511E+03 0.  0.
          5    1    3    3  501    0 -0.33597253315E+02 -0.93334543642E+02 -0.46502568445E+01  0.99417439898E+02  0.47000000000E+01 0. -1.
         -5    1    3    3    0  501  0.28490241740E+02  0.88399893863E+01  0.49670626379E+02  0.58130030205E+02  0.47000000000E+01 0. -1.
          5    1    4    4  502    0 -0.22999363928E+01  0.40030032431E+02 -0.42669822902E+02  0.58740931133E+02  0.47000000000E+01 0. -1.
         -5    1    4    4    0  502  0.74069479677E+01  0.44464521824E+02  0.87877078396E+02  0.98875818513E+02  0.47000000000E+01 0. -1.
<mgrwt>
<rscale>  0 0.30197262E+03</rscale>
<asrwt>0</asrwt>
<pdfrwt beam="1">  1       21 0.31183988E-01 0.30197262E+03</pdfrwt>
<pdfrwt beam="2">  1       21 0.17302815E-01 0.30197262E+03</pdfrwt>
<totfact> 0.29089275E+05</totfact>
</mgrwt>
</event>
<event>
 8    1  0.9691636E-006  0.3206020E+03  0.7546771E-02  0.1075373E+00
         21   -1    0    0  504  503  0.00000000000E+00  0.00000000000E+00  0.32206320404E+03  0.32206320404E+03  0.00000000000E+00 0.  1.
         21   -1    0    0  503  504 -0.00000000000E+00 -0.00000000000E+00 -0.79786876123E+02  0.79786876123E+02  0.00000000000E+00 0.  1.
         25    2    1    2    0    0  0.70224901523E+02 -0.14097272988E+02  0.20925353844E+03  0.25405273299E+03  0.12500191154E+03 0.  0.
         25    2    1    2    0    0 -0.70224901523E+02  0.14097272988E+02  0.33022789476E+02  0.14779734718E+03  0.12499312504E+03 0.  0.
          5    1    3    3  501    0  0.50055937779E+02 -0.54252690339E+02  0.19188618257E+03  0.20564860412E+03  0.47000000000E+01 0. -1.
         -5    1    3    3    0  501  0.20168963744E+02  0.40155417352E+02  0.17367355870E+02  0.48404128864E+02  0.47000000000E+01 0. -1.
          5    1    4    4  502    0 -0.22107455135E+02 -0.41609882842E+02 -0.25370706451E+02  0.53720430644E+02  0.47000000000E+01 0. -1.
         -5    1    4    4    0  502 -0.48117446388E+02  0.55707155830E+02  0.58393495928E+02  0.94076916532E+02  0.47000000000E+01 0. -1.
<mgrwt>
<rscale>  0 0.32060204E+03</rscale>
<asrwt>0</asrwt>
<pdfrwt beam="1">  1       21 0.49548185E-01 0.32060204E+03</pdfrwt>
<pdfrwt beam="2">  1       21 0.12274904E-01 0.32060204E+03</pdfrwt>
<totfact> 0.21169672E+05</totfact>
</mgrwt>
</event>
<event>
 8    1  0.9691636E-006  0.3127085E+03  0.7546771E-02  0.1079055E+00
         21   -1    0    0  504  503  0.00000000000E+00  0.00000000000E+00  0.56134786956E+02  0.56134786956E+02  0.00000000000E+00 0.  1.
         21   -1    0    0  503  504 -0.00000000000E+00 -0.00000000000E+00 -0.43549911331E+03  0.43549911331E+03  0.00000000000E+00 0.  1.
         25    2    1    2    0    0 -0.19068960442E+02  0.84502493623E+02 -0.24677458595E+03  0.28987344692E+03  0.12499848910E+03 0.  0.
         25    2    1    2    0    0  0.19068960442E+02 -0.84502493623E+02 -0.13258974040E+03  0.20176045334E+03  0.12499177810E+03 0.  0.
          5    1    3    3  501    0  0.81687989804E+01  0.11227820621E+03 -0.17604102232E+03  0.20901113943E+03  0.47000000000E+01 0.  1.
         -5    1    3    3    0  501 -0.27237759422E+02 -0.27775712591E+02 -0.70733563631E+02  0.80862307488E+02  0.47000000000E+01 0.  1.
          5    1    4    4  502    0  0.51187190467E+01 -0.33452364622E+02 -0.14350875581E+03  0.14751987994E+03  0.47000000000E+01 0.  1.
         -5    1    4    4    0  502  0.13950241395E+02 -0.51050129001E+02  0.10919015405E+02  0.54240573406E+02  0.47000000000E+01 0.  1.
<mgrwt>
<rscale>  0 0.31270849E+03</rscale>
<asrwt>0</asrwt>
<pdfrwt beam="1">  1       21 0.86361205E-02 0.31270849E+03</pdfrwt>
<pdfrwt beam="2">  1       21 0.66999868E-01 0.31270849E+03</pdfrwt>
<totfact> 0.20737483E+05</totfact>
</mgrwt>
</event>
<event>
 8    1  0.9691636E-006  0.2807774E+03  0.7546771E-02  0.1095265E+00
         21   -1    0    0  504  503  0.00000000000E+00  0.00000000000E+00  0.19709423539E+03  0.19709423539E+03  0.00000000000E+00 0.  1.
         21   -1    0    0  503  504 -0.00000000000E+00 -0.00000000000E+00 -0.99997751117E+02  0.99997751117E+02  0.00000000000E+00 0.  1.
         25    2    1    2    0    0  0.61684400201E+02  0.68815365288E+01  0.64765002774E+02  0.15384464679E+03  0.12498539510E+03 0.  0.
         25    2    1    2    0    0 -0.61684400201E+02 -0.68815365288E+01  0.32331481496E+02  0.14324733972E+03  0.12498861895E+03 0.  0.
          5    1    3    3  501    0 -0.13916814400E+02  0.15079329096E+02  0.74149072382E+02  0.77079431914E+02  0.47000000000E+01 0.  1.
         -5    1    3    3    0  501  0.75601214601E+02 -0.81977925671E+01 -0.93840696081E+01  0.76765214873E+02  0.47000000000E+01 0.  1.
          5    1    4    4  502    0 -0.59872705028E+02 -0.60174388689E+02  0.11431035635E+02  0.85781445763E+02  0.47000000000E+01 0.  1.
         -5    1    4    4    0  502 -0.18116951728E+01  0.53292852160E+02  0.20900445861E+02  0.57465893954E+02  0.47000000000E+01 0.  1.
<mgrwt>
<rscale>  0 0.28077735E+03</rscale>
<asrwt>0</asrwt>
<pdfrwt beam="1">  1       21 0.30322190E-01 0.28077735E+03</pdfrwt>
<pdfrwt beam="2">  1       21 0.15384269E-01 0.28077735E+03</pdfrwt>
<totfact> 0.38368950E+05</totfact>
</mgrwt>
</event>
<event>
 8    1  0.9691636E-006  0.3500476E+03  0.7546771E-02  0.1062595E+00
         21   -1    0    0  504  503  0.00000000000E+00  0.00000000000E+00  0.13933863201E+03  0.13933863201E+03  0.00000000000E+00 0.  1.
         21   -1    0    0  503  504 -0.00000000000E+00 -0.00000000000E+00 -0.21984811893E+03  0.21984811893E+03  0.00000000000E+00 0.  1.
         25    2    1    2    0    0 -0.40858376265E+02  0.16475602033E+02 -0.15754613514E+03  0.20588535374E+03  0.12500856696E+03 0.  0.
         25    2    1    2    0    0  0.40858376265E+02 -0.16475602033E+02  0.77036648222E+02  0.15330139720E+03  0.12500328332E+03 0.  0.
          5    1    3    3  501    0 -0.28305675412E+02  0.61154421054E+02 -0.37875297262E+02  0.77444835966E+02  0.47000000000E+01 0.  1.
         -5    1    3    3    0  501 -0.12552700853E+02 -0.44678819021E+02 -0.11967083788E+03  0.12844051777E+03  0.47000000000E+01 0.  1.
          5    1    4    4  502    0  0.32207013813E+02 -0.57230274049E+02  0.88058388398E+02  0.10994983299E+03  0.47000000000E+01 0. -1.
         -5    1    4    4    0  502  0.86513624512E+01  0.40754672015E+02 -0.11021740177E+02  0.43351564215E+02  0.47000000000E+01 0. -1.
<mgrwt>
<rscale>  0 0.35004763E+03</rscale>
<asrwt>0</asrwt>
<pdfrwt beam="1">  1       21 0.21436713E-01 0.35004763E+03</pdfrwt>
<pdfrwt beam="2">  1       21 0.33822787E-01 0.35004763E+03</pdfrwt>
<totfact> 0.16370268E+05</totfact>
</mgrwt>
</event>
<event>
 8    1  0.9691636E-006  0.3141026E+03  0.7546771E-02  0.1078396E+00
         21   -1    0    0  504  503  0.00000000000E+00  0.00000000000E+00  0.34841224297E+03  0.34841224297E+03  0.00000000000E+00 0.  1.
         21   -1    0    0  503  504 -0.00000000000E+00 -0.00000000000E+00 -0.70792899227E+02  0.70792899227E+02  0.00000000000E+00 0.  1.
         25    2    1    2    0    0  0.24139284242E+02 -0.22392258774E+02  0.25787888043E+03  0.28846381684E+03  0.12500295340E+03 0.  0.
         25    2    1    2    0    0 -0.24139284242E+02  0.22392258774E+02  0.19740463318E+02  0.13074132536E+03  0.12497795793E+03 0.  0.
          5    1    3    3  501    0 -0.43388282548E+02  0.16248854780E+02  0.13639247918E+03  0.14412344265E+03  0.47000000000E+01 0. -1.
         -5    1    3    3    0  501  0.67527566790E+02 -0.38641113554E+02  0.12148640125E+03  0.14434037419E+03  0.47000000000E+01 0. -1.
          5    1    4    4  502    0 -0.16012963183E+02 -0.38829073919E+02 -0.29563009057E+02  0.51576869581E+02  0.47000000000E+01 0.  1.
         -5    1    4    4    0  502 -0.81263210589E+01  0.61221332692E+02  0.49303472375E+02  0.79164455779E+02  0.47000000000E+01 0.  1.
<mgrwt>
<rscale>  0 0.31410261E+03</rscale>
<asrwt>0</asrwt>
<pdfrwt beam="1">  1       21 0.53601883E-01 0.31410261E+03</pdfrwt>
<pdfrwt beam="2">  1       21 0.10891215E-01 0.31410261E+03</pdfrwt>
<totfact> 0.22264532E+05</totfact>
</mgrwt>
</event>
<event>
 8    1  0.9691636E-006  0.2751771E+03  0.7546771E-02  0.1098353E+00
         21   -1    0    0  504  503  0.00000000000E+00  0.00000000000E+00  0.10515828236E+02  0.10515828236E+02  0.00000000000E+00 0.  1.
         21   -1    0    0  503  504 -0.00000000000E+00 -0.00000000000E+00 -0.18002012208E+04  0.18002012208E+04  0.00000000000E+00 0.  1.
         25    2    1    2    0    0  0.45712996381E+02 -0.11939958173E+02 -0.67916238082E+03  0.69218404141E+03  0.12499986809E+03 0.  0.
         25    2    1    2    0    0 -0.45712996381E+02  0.11939958173E+02 -0.11105230117E+04  0.11185330076E+04  0.12498995519E+03 0.  0.
          5    1    3    3  501    0 -0.43122431407E+02 -0.41074133190E+01 -0.25854856194E+03  0.26219432453E+03  0.47000000000E+01 0. -1.
         -5    1    3    3    0  501  0.88835427788E+02 -0.78325448544E+01 -0.42061381888E+03  0.42998971688E+03  0.47000000000E+01 0. -1.
          5    1    4    4  502    0 -0.20052290676E+02  0.36691200285E+02 -0.11659935720E+03  0.12395902000E+03  0.47000000000E+01 0. -1.
         -5    1    4    4    0  502 -0.25660705705E+02 -0.24751242111E+02 -0.99392365450E+03  0.99457398758E+03  0.47000000000E+01 0. -1.
<mgrwt>
<rscale>  0 0.27517708E+03</rscale>
<asrwt>0</asrwt>
<pdfrwt beam="1">  1       21 0.16178194E-02 0.27517708E+03</pdfrwt>
<pdfrwt beam="2">  1       21 0.27695408E+00 0.27517708E+03</pdfrwt>
<totfact> 0.76073842E+04</totfact>
</mgrwt>
</event>
<event>
 8    1  0.9691636E-006  0.8879782E+03  0.7546771E-02  0.9440735E-01
         21   -1    0    0  504  503  0.00000000000E+00  0.00000000000E+00  0.21890761941E+03  0.21890761941E+03  0.00000000000E+00 0. -1.
         21   -1    0    0  503  504 -0.00000000000E+00 -0.00000000000E+00 -0.90049995228E+03  0.90049995228E+03  0.00000000000E+00 0. -1.
         25    2    1    2    0    0 -0.16407591101E+03 -0.12181970558E+03  0.13045188627E+03  0.27276873352E+03  0.12499656840E+03 0.  0.
         25    2    1    2    0    0  0.16407591101E+03  0.12181970558E+03 -0.81204421914E+03  0.84663883817E+03  0.12498225161E+03 0.  0.
          5    1    3    3  501    0 -0.12038951989E+03 -0.12401305266E+02  0.75105165531E+02  0.14251422652E+03  0.47000000000E+01 0.  1.
         -5    1    3    3    0  501 -0.43686391122E+02 -0.10941840031E+03  0.55346720739E+02  0.13025450699E+03  0.47000000000E+01 0.  1.
          5    1    4    4  502    0  0.11218668045E+02  0.30305110827E+01 -0.28285089482E+03  0.28312852419E+03  0.47000000000E+01 0.  1.
         -5    1    4    4    0  502  0.15285724297E+03  0.11878919450E+03 -0.52919332432E+03  0.56351031398E+03  0.47000000000E+01 0.  1.
<mgrwt>
<rscale>  0 0.88797815E+03</rscale>
<asrwt>0</asrwt>
<pdfrwt beam="1">  1       21 0.33678095E-01 0.88797815E+03</pdfrwt>
<pdfrwt beam="2">  1       21 0.13853845E+00 0.88797815E+03</pdfrwt>
<totfact> 0.24067653E+03</totfact>
</mgrwt>
</event>
<event>
 8    1  0.9691636E-006  0.2668620E+03  0.7546771E-02  0.1103089E+00
         21   -1    0    0  504  503  0.00000000000E+00  0.00000000000E+00  0.19653828763E+03  0.19653828763E+03  0.00000000000E+00 0. -1.
         21   -1    0    0  503  504 -0.00000000000E+00 -0.00000000000E+00 -0.90587124482E+02  0.90587124482E+02  0.00000000000E+00 0. -1.
         25    2    1    2    0    0 -0.15877017522E+02  0.21286636802E+02  0.11658634171E+02  0.12832007318E+03  0.12499966735E+03 0.  0.
         25    2    1    2    0    0  0.15877017522E+02 -0.21286636802E+02  0.94292528979E+02  0.15880533894E+03  0.12499141596E+03 0.  0.
          5    1    3    3  501    0 -0.33322897876E+02  0.41310727944E+02 -0.42276419039E+02  0.68017478436E+02  0.47000000000E+01 0.  1.
         -5    1    3    3    0  501  0.17445880354E+02 -0.20024091142E+02  0.53935053211E+02  0.60302594739E+02  0.47000000000E+01 0.  1.
          5    1    4    4  502    0 -0.42408451140E+02 -0.37017544566E+02  0.77619514483E+02  0.95998199787E+02  0.47000000000E+01 0. -1.
         -5    1    4    4    0  502  0.58285468662E+02  0.15730907765E+02  0.16673014496E+02  0.62807139153E+02  0.47000000000E+01 0. -1.
<mgrwt>
<rscale>  0 0.26686205E+03</rscale>
<asrwt>0</asrwt>
<pdfrwt beam="1">  1       21 0.30236660E-01 0.26686205E+03</pdfrwt>
<pdfrwt beam="2">  1       21 0.13936481E-01 0.26686205E+03</pdfrwt>
<totfact> 0.46357273E+05</totfact>
</mgrwt>
</event>
<event>
 8    1  0.9691636E-006  0.3013835E+03  0.7546771E-02  0.1084551E+00
         21   -1    0    0  504  503  0.00000000000E+00  0.00000000000E+00  0.18805500464E+04  0.18805500464E+04  0.00000000000E+00 0.  1.
         21   -1    0    0  503  504 -0.00000000000E+00 -0.00000000000E+00 -0.12075195870E+02  0.12075195870E+02  0.00000000000E+00 0.  1.
         25    2    1    2    0    0  0.33246419200E+02 -0.36047911436E+02  0.50477903125E+03  0.52233343448E+03  0.12500228032E+03 0.  0.
         25    2    1    2    0    0 -0.33246419200E+02  0.36047911436E+02  0.13636958193E+04  0.13702918078E+04  0.12501429777E+03 0.  0.
          5    1    3    3  501    0  0.11371999056E+02  0.46722632774E+02  0.16780188781E+03  0.17461927250E+03  0.47000000000E+01 0.  1.
         -5    1    3    3    0  501  0.21874420144E+02 -0.82770544210E+02  0.33697714343E+03  0.34771416198E+03  0.47000000000E+01 0.  1.
          5    1    4    4  502    0 -0.32010372199E+02  0.50696433702E+02  0.13436389274E+04  0.13449841819E+04  0.47000000000E+01 0.  1.
         -5    1    4    4    0  502 -0.12360470012E+01 -0.14648522266E+02  0.20056891924E+02  0.25307625934E+02  0.47000000000E+01 0.  1.
<mgrwt>
<rscale>  0 0.30138354E+03</rscale>
<asrwt>0</asrwt>
<pdfrwt beam="1">  1       21 0.28931516E+00 0.30138354E+03</pdfrwt>
<pdfrwt beam="2">  1       21 0.18577239E-02 0.30138354E+03</pdfrwt>
<totfact> 0.50586051E+04</totfact>
</mgrwt>
</event>
<event>
 8    1  0.9691636E-006  0.4818704E+03  0.7546771E-02  0.1018622E+00
         21   -1    0    0  504  503  0.00000000000E+00  0.00000000000E+00  0.42700811994E+03  0.42700811994E+03  0.00000000000E+00 0.  1.
         21   -1    0    0  503  504 -0.00000000000E+00 -0.00000000000E+00 -0.13594532859E+03  0.13594532859E+03  0.00000000000E+00 0.  1.
         25    2    1    2    0    0  0.74475783084E+02  0.97508005150E+02 -0.47735332017E+02  0.18154286774E+03  0.12499879028E+03 0.  0.
         25    2    1    2    0    0 -0.74475783084E+02 -0.97508005150E+02  0.33879812337E+03  0.38141058078E+03  0.12504163067E+03 0.  0.
          5    1    3    3  501    0  0.83442269062E+02  0.60659109213E+02  0.18655715188E+02  0.10493934203E+03  0.47000000000E+01 0. -1.
         -5    1    3    3    0  501 -0.89664859780E+01  0.36848895937E+02 -0.66391047205E+02  0.76603525712E+02  0.47000000000E+01 0. -1.
          5    1    4    4  502    0  0.52031382261E+01  0.22366786833E+02  0.17310085583E+02  0.29138889195E+02  0.47000000000E+01 0. -1.
         -5    1    4    4    0  502 -0.79678921311E+02 -0.11987479198E+03  0.32148803779E+03  0.35227169159E+03  0.47000000000E+01 0. -1.
<mgrwt>
<rscale>  0 0.48187035E+03</rscale>
<asrwt>0</asrwt>
<pdfrwt beam="1">  1       21 0.65693556E-01 0.48187035E+03</pdfrwt>
<pdfrwt beam="2">  1       21 0.20914666E-01 0.48187035E+03</pdfrwt>
<totfact> 0.41163940E+04</totfact>
</mgrwt>
</event>
<event>
 8    1  0.9691636E-006  0.3855186E+03  0.7546771E-02  0.1048913E+00
         21   -1    0    0  504  503  0.00000000000E+00  0.00000000000E+00  0.58080819940E+03  0.58080819940E+03  0.00000000000E+00 0.  1.
         21   -1    0    0  503  504 -0.00000000000E+00 -0.00000000000E+00 -0.63973172021E+02  0.63973172021E+02  0.00000000000E+00 0.  1.
         25    2    1    2    0    0  0.74283451436E+02 -0.59414620061E+02  0.44527685446E+03  0.47217588850E+03  0.12502185541E+03 0.  0.
         25    2    1    2    0    0 -0.74283451436E+02  0.59414620061E+02  0.71558172922E+02  0.17260548292E+03  0.12499580948E+03 0.  0.
          5    1    3    3  501    0  0.54545701301E+02 -0.96983283626E+02  0.27659954612E+03  0.29817845285E+03  0.47000000000E+01 0. -1.
         -5    1    3    3    0  501  0.19737750135E+02  0.37568663565E+02  0.16867730834E+03  0.17399743565E+03  0.47000000000E+01 0. -1.
          5    1    4    4  502    0 -0.60340086644E+02 -0.16480321145E+02  0.71742062941E+02  0.95297117671E+02  0.47000000000E+01 0. -1.
         -5    1    4    4    0  502 -0.13943364792E+02  0.75894941206E+02 -0.18389001943E+00  0.77308365251E+02  0.47000000000E+01 0. -1.
<mgrwt>
<rscale>  0 0.38551857E+03</rscale>
<asrwt>0</asrwt>
<pdfrwt beam="1">  1       21 0.89355104E-01 0.38551857E+03</pdfrwt>
<pdfrwt beam="2">  1       21 0.98420268E-02 0.38551857E+03</pdfrwt>
<totfact> 0.83772230E+04</totfact>
</mgrwt>
</event>
<event>
 8    1  0.9691636E-006  0.5473025E+03  0.7546771E-02  0.1002120E+00
         21   -1    0    0  504  503  0.00000000000E+00  0.00000000000E+00  0.11171079828E+04  0.11171079828E+04  0.00000000000E+00 0. -1.
         21   -1    0    0  503  504 -0.00000000000E+00 -0.00000000000E+00 -0.67034705364E+02  0.67034705364E+02  0.00000000000E+00 0. -1.
         25    2    1    2    0    0 -0.21032645568E+02  0.24234477066E+03  0.54504724766E+03  0.60981503666E+03  0.12499806681E+03 0.  0.
         25    2    1    2    0    0  0.21032645568E+02 -0.24234477066E+03  0.50502602977E+03  0.57432765150E+03  0.12501040151E+03 0.  0.
          5    1    3    3  501    0  0.41725981811E+01 -0.82432070768E+01  0.82298149243E+02  0.82948396050E+02  0.47000000000E+01 0.  1.
         -5    1    3    3    0  501 -0.25205243749E+02  0.25058797774E+03  0.46274909842E+03  0.52686664061E+03  0.47000000000E+01 0.  1.
          5    1    4    4  502    0  0.26390620545E+01 -0.18612826862E+03  0.46972189099E+03  0.50528352626E+03  0.47000000000E+01 0.  1.
         -5    1    4    4    0  502  0.18393583514E+02 -0.56216502037E+02  0.35304138778E+02  0.69044125243E+02  0.47000000000E+01 0.  1.
<mgrwt>
<rscale>  0 0.54730249E+03</rscale>
<asrwt>0</asrwt>
<pdfrwt beam="1">  1       21 0.17186275E+00 0.54730249E+03</pdfrwt>
<pdfrwt beam="2">  1       21 0.10313032E-01 0.54730249E+03</pdfrwt>
<totfact> 0.13665475E+04</totfact>
</mgrwt>
</event>
<event>
 8    1  0.9691636E-006  0.3181133E+03  0.7546771E-02  0.1076521E+00
         21   -1    0    0  504  503  0.00000000000E+00  0.00000000000E+00  0.35922106027E+02  0.35922106027E+02  0.00000000000E+00 0. -1.
         21   -1    0    0  503  504 -0.00000000000E+00 -0.00000000000E+00 -0.70427442568E+03  0.70427442568E+03  0.00000000000E+00 0. -1.
         25    2    1    2    0    0  0.34674866429E+02  0.11902637524E+02 -0.12182578378E+03  0.17836041078E+03  0.12500758136E+03 0.  0.
         25    2    1    2    0    0 -0.34674866429E+02 -0.11902637524E+02 -0.54652653587E+03  0.56183612093E+03  0.12499821290E+03 0.  0.
          5    1    3    3  501    0  0.20172346524E+02 -0.40011518121E+02 -0.11538829064E+03  0.12387248590E+03  0.47000000000E+01 0. -1.
         -5    1    3    3    0  501  0.14502519905E+02  0.51914155645E+02 -0.64374931488E+01  0.54487924882E+02  0.47000000000E+01 0. -1.
          5    1    4    4  502    0  0.34646026179E+02  0.80881622125E+01 -0.59591123964E+02  0.69562616061E+02  0.47000000000E+01 0. -1.
         -5    1    4    4    0  502 -0.69320892608E+02 -0.19990799737E+02 -0.48693541191E+03  0.49227350487E+03  0.47000000000E+01 0. -1.
<mgrwt>
<rscale>  0 0.31811332E+03</rscale>
<asrwt>0</asrwt>
<pdfrwt beam="1">  1       21 0.55264780E-02 0.31811332E+03</pdfrwt>
<pdfrwt beam="2">  1       21 0.10834991E+00 0.31811332E+03</pdfrwt>
<totfact> 0.14760309E+05</totfact>
</mgrwt>
</event>
<event>
 8    1  0.9691636E-006  0.3070209E+03  0.7546771E-02  0.1081783E+00
         21   -1    0    0  504  503  0.00000000000E+00  0.00000000000E+00  0.57197163168E+02  0.57197163168E+02  0.00000000000E+00 0.  1.
         21   -1    0    0  503  504 -0.00000000000E+00 -0.00000000000E+00 -0.41200384141E+03  0.41200384141E+03  0.00000000000E+00 0.  1.
         25    2    1    2    0    0 -0.67091034201E+02 -0.58033904642E+02 -0.19032439230E+03  0.24437039780E+03  0.12499750421E+03 0.  0.
         25    2    1    2    0    0  0.67091034201E+02  0.58033904642E+02 -0.16448228594E+03  0.22483060677E+03  0.12500095358E+03 0.  0.
          5    1    3    3  501    0  0.35206058691E+01 -0.25059290881E+02  0.11336320898E+02  0.28124098148E+02  0.47000000000E+01 0. -1.
         -5    1    3    3    0  501 -0.70611640070E+02 -0.32974613762E+02 -0.20166071320E+03  0.21624629965E+03  0.47000000000E+01 0. -1.
          5    1    4    4  502    0  0.87597151632E+02  0.41006941683E+02 -0.53571601176E+02  0.11066542682E+03  0.47000000000E+01 0.  1.
         -5    1    4    4    0  502 -0.20506117431E+02  0.17026962960E+02 -0.11091068476E+03  0.11416517995E+03  0.47000000000E+01 0.  1.
<mgrwt>
<rscale>  0 0.30702085E+03</rscale>
<asrwt>0</asrwt>
<pdfrwt beam="1">  1       21 0.87995639E-02 0.30702085E+03</pdfrwt>
<pdfrwt beam="2">  1       21 0.63385204E-01 0.30702085E+03</pdfrwt>
<totfact> 0.22697387E+05</totfact>
</mgrwt>
</event>
<event>
 8    1  0.9691636E-006  0.4108444E+03  0.7546771E-02  0.1040088E+00
         21   -1    0    0  504  503  0.00000000000E+00  0.00000000000E+00  0.24638069219E+02  0.24638069219E+02  0.00000000000E+00 0. -1.
         21   -1    0    0  503  504 -0.00000000000E+00 -0.00000000000E+00 -0.17127263989E+04  0.17127263989E+04  0.00000000000E+00 0. -1.
         25    2    1    2    0    0  0.12765929682E+03 -0.96345478804E+02 -0.71064429600E+03  0.73906562925E+03  0.12499336604E+03 0.  0.
         25    2    1    2    0    0 -0.12765929682E+03  0.96345478804E+02 -0.97744403365E+03  0.99829883884E+03  0.12499754140E+03 0.  0.
          5    1    3    3  501    0  0.14917014675E+03 -0.66853954813E+02 -0.62072931203E+03  0.64190976996E+03  0.47000000000E+01 0.  1.
         -5    1    3    3    0  501 -0.21510849936E+02 -0.29491523990E+02 -0.89914983965E+02  0.97155859286E+02  0.47000000000E+01 0.  1.
          5    1    4    4  502    0 -0.98238207622E+02  0.33737441280E+00 -0.38365178977E+03  0.39605762844E+03  0.47000000000E+01 0. -1.
         -5    1    4    4    0  502 -0.29421089194E+02  0.96008104391E+02 -0.59379224388E+03  0.60224121039E+03  0.47000000000E+01 0. -1.
<mgrwt>
<rscale>  0 0.41084436E+03</rscale>
<asrwt>0</asrwt>
<pdfrwt beam="1">  1       21 0.37904724E-02 0.41084436E+03</pdfrwt>
<pdfrwt beam="2">  1       21 0.26349635E+00 0.41084436E+03</pdfrwt>
<totfact> 0.20838806E+04</totfact>
</mgrwt>
</event>
<event>
 8    1  0.9691636E-006  0.2945489E+03  0.7546771E-02  0.1087998E+00
         21   -1    0    0  504  503  0.00000000000E+00  0.00000000000E+00  0.30796245453E+03  0.30796245453E+03  0.00000000000E+00 0. -1.
         21   -1    0    0  503  504 -0.00000000000E+00 -0.00000000000E+00 -0.70429916794E+02  0.70429916794E+02  0.00000000000E+00 0. -1.
         25    2    1    2    0    0 -0.57597688062E+02  0.35437305033E+02  0.69300231344E+02  0.15816720870E+03  0.12506417386E+03 0.  0.
         25    2    1    2    0    0  0.57597688062E+02 -0.35437305033E+02  0.16823230639E+03  0.22022516262E+03  0.12499486822E+03 0.  0.
          5    1    3    3  501    0  0.23124918575E+02  0.18086447551E+02  0.69363767470E+02  0.75467235816E+02  0.47000000000E+01 0. -1.
         -5    1    3    3    0  501 -0.80722606637E+02  0.17350857482E+02 -0.63536125570E-01  0.82699972880E+02  0.47000000000E+01 0. -1.
          5    1    4    4  502    0 -0.32854482989E+02 -0.39028295554E+02  0.54695998418E+02  0.74942425563E+02  0.47000000000E+01 0.  1.
         -5    1    4    4    0  502  0.90452171051E+02  0.35909905206E+01  0.11353630797E+03  0.14528273706E+03  0.47000000000E+01 0.  1.
<mgrwt>
<rscale>  0 0.29454894E+03</rscale>
<asrwt>0</asrwt>
<pdfrwt beam="1">  1       21 0.47378838E-01 0.29454894E+03</pdfrwt>
<pdfrwt beam="2">  1       21 0.10835372E-01 0.29454894E+03</pdfrwt>
<totfact> 0.29276136E+05</totfact>
</mgrwt>
</event>
<event>
 8    1  0.9691636E-006  0.2692709E+03  0.7546771E-02  0.1101698E+00
         21   -1    0    0  504  503  0.00000000000E+00  0.00000000000E+00  0.42254137989E+02  0.42254137989E+02  0.00000000000E+00 0.  1.
         21   -1    0    0  503  504 -0.00000000000E+00 -0.00000000000E+00 -0.42899238031E+03  0.42899238031E+03  0.00000000000E+00 0.  1.
         25    2    1    2    0    0  0.40194694868E+02  0.80657491460E+01 -0.14319184403E+03  0.19444189166E+03  0.12499230069E+03 0.  0.
         25    2    1    2    0    0 -0.40194694868E+02 -0.80657491460E+01 -0.24354639829E+03  0.27680462663E+03  0.12500113361E+03 0.  0.
          5    1    3    3  501    0  0.27263308907E+02  0.60462518033E+02 -0.39201979561E+02  0.77187364905E+02  0.47000000000E+01 0. -1.
         -5    1    3    3    0  501  0.12931385961E+02 -0.52396768887E+02 -0.10398986447E+03  0.11725452676E+03  0.47000000000E+01 0. -1.
          5    1    4    4  502    0  0.39481746115E+02  0.95492447256E+01 -0.38896217666E+02  0.56435822842E+02  0.47000000000E+01 0.  1.
         -5    1    4    4    0  502 -0.79676440983E+02 -0.17614993872E+02 -0.20465018062E+03  0.22036880379E+03  0.47000000000E+01 0.  1.
<mgrwt>
<rscale>  0 0.26927089E+03</rscale>
<asrwt>0</asrwt>
<pdfrwt beam="1">  1       21 0.65006369E-02 0.26927089E+03</pdfrwt>
<pdfrwt beam="2">  1       21 0.65998825E-01 0.26927089E+03</pdfrwt>
<totfact> 0.35573226E+05</totfact>
</mgrwt>
</event>
<event>
 8    1  0.9691636E-006  0.2859173E+03  0.7546771E-02  0.1092500E+00
         21   -1    0    0  504  503  0.00000000000E+00  0.00000000000E+00  0.34310823622E+03  0.34310823622E+03  0.00000000000E+00 0.  1.
         21   -1    0    0  503  504 -0.00000000000E+00 -0.00000000000E+00 -0.59564822464E+02  0.59564822464E+02  0.00000000000E+00 0.  1.
         25    2    1    2    0    0  0.53755461258E+02  0.39690531462E+02  0.11560462807E+03  0.18291250613E+03  0.12501026744E+03 0.  0.
         25    2    1    2    0    0 -0.53755461258E+02 -0.39690531462E+02  0.16793878569E+03  0.21976055256E+03  0.12500510718E+03 0.  0.
          5    1    3    3  501    0 -0.33880036104E+01  0.24892104068E+02  0.12079594817E+03  0.12347002271E+03  0.47000000000E+01 0.  1.
         -5    1    3    3    0  501  0.57143464868E+02  0.14798427393E+02 -0.51913201011E+01  0.59442483418E+02  0.47000000000E+01 0.  1.
          5    1    4    4  502    0 -0.42259621966E+02  0.38468278414E+02  0.10085152077E+03  0.11601208271E+03  0.47000000000E+01 0.  1.
         -5    1    4    4    0  502 -0.11495839292E+02 -0.78158809876E+02  0.67087264921E+02  0.10374846985E+03  0.47000000000E+01 0.  1.
<mgrwt>
<rscale>  0 0.28591734E+03</rscale>
<asrwt>0</asrwt>
<pdfrwt beam="1">  1       21 0.52785881E-01 0.28591734E+03</pdfrwt>
<pdfrwt beam="2">  1       21 0.91638190E-02 0.28591734E+03</pdfrwt>
<totfact> 0.31486639E+05</totfact>
</mgrwt>
</event>
<event>
 8    1  0.9691636E-006  0.3098936E+03  0.7546771E-02  0.1080397E+00
         21   -1    0    0  504  503  0.00000000000E+00  0.00000000000E+00  0.15178224041E+03  0.15178224041E+03  0.00000000000E+00 0.  1.
         21   -1    0    0  503  504 -0.00000000000E+00 -0.00000000000E+00 -0.15817730392E+03  0.15817730392E+03  0.00000000000E+00 0.  1.
         25    2    1    2    0    0  0.36286427727E+02  0.75384294542E+02 -0.40398741288E+02  0.15574124633E+03  0.12499512315E+03 0.  0.
         25    2    1    2    0    0 -0.36286427727E+02 -0.75384294542E+02  0.34003677774E+02  0.15421829800E+03  0.12501014613E+03 0.  0.
          5    1    3    3  501    0 -0.41790750631E+02  0.31552897744E+01 -0.89483984074E+00  0.42181908803E+02  0.47000000000E+01 0.  1.
         -5    1    3    3    0  501  0.78077178359E+02  0.72229004768E+02 -0.39503901447E+02  0.11355933753E+03  0.47000000000E+01 0.  1.
          5    1    4    4  502    0 -0.80637270679E+02 -0.67193159738E+02  0.22966880403E+02  0.10754932698E+03  0.47000000000E+01 0. -1.
         -5    1    4    4    0  502  0.44350842952E+02 -0.81911348042E+01  0.11036797371E+02  0.46668971021E+02  0.47000000000E+01 0. -1.
<mgrwt>
<rscale>  0 0.30989357E+03</rscale>
<asrwt>0</asrwt>
<pdfrwt beam="1">  1       21 0.23351114E-01 0.30989357E+03</pdfrwt>
<pdfrwt beam="2">  1       21 0.24334970E-01 0.30989357E+03</pdfrwt>
<totfact> 0.26748205E+05</totfact>
</mgrwt>
</event>
<event>
 8    1  0.9691636E-006  0.3002190E+03  0.7546771E-02  0.1085131E+00
         21   -1    0    0  504  503  0.00000000000E+00  0.00000000000E+00  0.52625524185E+03  0.52625524185E+03  0.00000000000E+00 0. -1.
         21   -1    0    0  503  504 -0.00000000000E+00 -0.00000000000E+00 -0.42817349556E+02  0.42817349556E+02  0.00000000000E+00 0. -1.
         25    2    1    2    0    0 -0.12981782974E+02  0.80570340599E+02  0.27155868942E+03  0.30988651232E+03  0.12500168898E+03 0.  0.
         25    2    1    2    0    0  0.12981782974E+02 -0.80570340599E+02  0.21187920288E+03  0.25918607908E+03  0.12499808200E+03 0.  0.
          5    1    3    3  501    0 -0.44647601703E+02  0.19332441086E+02  0.21530372779E+03  0.22078255551E+03  0.47000000000E+01 0.  1.
         -5    1    3    3    0  501  0.31665818730E+02  0.61237899514E+02  0.56254961627E+02  0.89103956816E+02  0.47000000000E+01 0.  1.
          5    1    4    4  502    0  0.67154460343E+02 -0.40861580703E+02  0.87261358213E+02  0.11754158821E+03  0.47000000000E+01 0. -1.
         -5    1    4    4    0  502 -0.54172677369E+02 -0.39708759896E+02  0.12461784467E+03  0.14164449087E+03  0.47000000000E+01 0. -1.
<mgrwt>
<rscale>  0 0.30021895E+03</rscale>
<asrwt>0</asrwt>
<pdfrwt beam="1">  1       21 0.80962340E-01 0.30021895E+03</pdfrwt>
<pdfrwt beam="2">  1       21 0.65872849E-02 0.30021895E+03</pdfrwt>
<totfact> 0.21822282E+05</totfact>
</mgrwt>
</event>
<event>
 8    1  0.9691636E-006  0.3609226E+03  0.7546771E-02  0.1058219E+00
         21   -1    0    0  504  503  0.00000000000E+00  0.00000000000E+00  0.34991212607E+02  0.34991212607E+02  0.00000000000E+00 0.  1.
         21   -1    0    0  503  504 -0.00000000000E+00 -0.00000000000E+00 -0.93069908967E+03  0.93069908967E+03  0.00000000000E+00 0.  1.
         25    2    1    2    0    0 -0.69740177572E+02  0.10134837459E+03 -0.33413025942E+03  0.37736216721E+03  0.12499595826E+03 0.  0.
         25    2    1    2    0    0  0.69740177572E+02 -0.10134837459E+03 -0.56157761765E+03  0.58832813507E+03  0.12500155387E+03 0.  0.
          5    1    3    3  501    0 -0.25081755520E+02  0.11179930839E+03 -0.15756669033E+03  0.19487824845E+03  0.47000000000E+01 0.  1.
         -5    1    3    3    0  501 -0.44658422052E+02 -0.10450933797E+02 -0.17656356909E+03  0.18248391876E+03  0.47000000000E+01 0.  1.
          5    1    4    4  502    0  0.28675901912E+02  0.26529743066E+02 -0.96248068580E+02  0.10398036028E+03  0.47000000000E+01 0. -1.
         -5    1    4    4    0  502  0.41064275660E+02 -0.12787811766E+03 -0.46532954907E+03  0.48434777479E+03  0.47000000000E+01 0. -1.
<mgrwt>
<rscale>  0 0.36092265E+03</rscale>
<asrwt>0</asrwt>
<pdfrwt beam="1">  1       21 0.53832644E-02 0.36092265E+03</pdfrwt>
<pdfrwt beam="2">  1       21 0.14318445E+00 0.36092265E+03</pdfrwt>
<totfact> 0.75075393E+04</totfact>
</mgrwt>
</event>
<event>
 8    1  0.9691636E-006  0.3466634E+03  0.7546771E-02  0.1063993E+00
         21   -1    0    0  504  503  0.00000000000E+00  0.00000000000E+00  0.24049435702E+03  0.24049435702E+03  0.00000000000E+00 0. -1.
         21   -1    0    0  503  504 -0.00000000000E+00 -0.00000000000E+00 -0.12492552110E+03  0.12492552110E+03  0.00000000000E+00 0. -1.
         25    2    1    2    0    0 -0.11571273968E+03  0.63414595812E+00  0.23969019586E+02  0.17201422367E+03  0.12499815591E+03 0.  0.
         25    2    1    2    0    0  0.11571273968E+03 -0.63414595812E+00  0.91599816325E+02  0.19340565445E+03  0.12500152221E+03 0.  0.
          5    1    3    3  501    0 -0.30269728080E+02 -0.54535033579E+02  0.31285220709E+02  0.69936981350E+02  0.47000000000E+01 0. -1.
         -5    1    3    3    0  501 -0.85443011598E+02  0.55169179537E+02 -0.73162011223E+01  0.10207724232E+03  0.47000000000E+01 0. -1.
          5    1    4    4  502    0 -0.68640124023E+01 -0.27444837891E+02 -0.11540528769E+02  0.30912903412E+02  0.47000000000E+01 0.  1.
         -5    1    4    4    0  502  0.12257675208E+03  0.26810691933E+02  0.10314034509E+03  0.16249275103E+03  0.47000000000E+01 0.  1.
<mgrwt>
<rscale>  0 0.34666343E+03</rscale>
<asrwt>0</asrwt>
<pdfrwt beam="1">  1       21 0.36999132E-01 0.34666343E+03</pdfrwt>
<pdfrwt beam="2">  1       21 0.19219311E-01 0.34666343E+03</pdfrwt>
<totfact> 0.16815404E+05</totfact>
</mgrwt>
</event>
<event>
 8    1  0.9691636E-006  0.2704576E+03  0.7546771E-02  0.1101018E+00
         21   -1    0    0  504  503  0.00000000000E+00  0.00000000000E+00  0.70727684645E+02  0.70727684645E+02  0.00000000000E+00 0. -1.
         21   -1    0    0  503  504 -0.00000000000E+00 -0.00000000000E+00 -0.25855263952E+03  0.25855263952E+03  0.00000000000E+00 0. -1.
         25    2    1    2    0    0 -0.36596883531E+02  0.87067636324E+01 -0.13693756580E+03  0.18919033856E+03  0.12500379058E+03 0.  0.
         25    2    1    2    0    0  0.36596883531E+02 -0.87067636324E+01 -0.50887389074E+02  0.14008998561E+03  0.12498215106E+03 0.  0.
          5    1    3    3  501    0 -0.31889493251E+02  0.55590020491E+02 -0.27403106730E+02  0.69858502821E+02  0.47000000000E+01 0.  1.
         -5    1    3    3    0  501 -0.47073902792E+01 -0.46883256858E+02 -0.10953445907E+03  0.11933183574E+03  0.47000000000E+01 0.  1.
          5    1    4    4  502    0  0.19811730630E+01 -0.19324877260E+02  0.38585238041E+02  0.43454418907E+02  0.47000000000E+01 0. -1.
         -5    1    4    4    0  502  0.34615710468E+02  0.10618113627E+02 -0.89472627115E+02  0.96635566698E+02  0.47000000000E+01 0. -1.
<mgrwt>
<rscale>  0 0.27045761E+03</rscale>
<asrwt>0</asrwt>
<pdfrwt beam="1">  1       21 0.10881182E-01 0.27045761E+03</pdfrwt>
<pdfrwt beam="2">  1       21 0.39777329E-01 0.27045761E+03</pdfrwt>
<totfact> 0.41870837E+05</totfact>
</mgrwt>
</event>
<event>
 8    1  0.9691636E-006  0.2551392E+03  0.7546771E-02  0.1110099E+00
         21   -1    0    0  504  503  0.00000000000E+00  0.00000000000E+00  0.29347887293E+02  0.29347887293E+02  0.00000000000E+00 0.  1.
         21   -1    0    0  503  504 -0.00000000000E+00 -0.00000000000E+00 -0.55452022248E+03  0.55452022248E+03  0.00000000000E+00 0.  1.
         25    2    1    2    0    0  0.35529446602E+01  0.25025853233E+02 -0.25533579413E+03  0.28541047328E+03  0.12499541490E+03 0.  0.
         25    2    1    2    0    0 -0.35529446602E+01 -0.25025853233E+02 -0.26983654105E+03  0.29845763649E+03  0.12500514048E+03 0.  0.
          5    1    3    3  501    0 -0.43618324790E+02  0.55477011560E+02 -0.15399313375E+03  0.16945864484E+03  0.47000000000E+01 0. -1.
         -5    1    3    3    0  501  0.47171269450E+02 -0.30451158327E+02 -0.10134266039E+03  0.11595182844E+03  0.47000000000E+01 0. -1.
          5    1    4    4  502    0  0.34497107574E+02 -0.60322879257E+02 -0.19659753619E+03  0.20857032729E+03  0.47000000000E+01 0. -1.
         -5    1    4    4    0  502 -0.38050052234E+02  0.35297026024E+02 -0.73239004864E+02  0.89887309197E+02  0.47000000000E+01 0. -1.
<mgrwt>
<rscale>  0 0.25513915E+03</rscale>
<asrwt>0</asrwt>
<pdfrwt beam="1">  1       21 0.45150598E-02 0.25513915E+03</pdfrwt>
<pdfrwt beam="2">  1       21 0.85310798E-01 0.25513915E+03</pdfrwt>
<totfact> 0.37389793E+05</totfact>
</mgrwt>
</event>
<event>
 8    1  0.9691636E-006  0.2915374E+03  0.7546771E-02  0.1089549E+00
         21   -1    0    0  504  503  0.00000000000E+00  0.00000000000E+00  0.15039304153E+03  0.15039304153E+03  0.00000000000E+00 0.  1.
         21   -1    0    0  503  504 -0.00000000000E+00 -0.00000000000E+00 -0.14128658538E+03  0.14128658538E+03  0.00000000000E+00 0.  1.
         25    2    1    2    0    0 -0.41960055927E+00  0.25890774565E+02  0.74982238198E+02  0.14804186572E+03  0.12499419862E+03 0.  0.
         25    2    1    2    0    0  0.41960055927E+00 -0.25890774565E+02 -0.65875782044E+02  0.14363776119E+03  0.12498671732E+03 0.  0.
          5    1    3    3  501    0 -0.20355145951E+02 -0.12720214403E+02 -0.27395169942E+02  0.36724939174E+02  0.47000000000E+01 0. -1.
         -5    1    3    3    0  501  0.19935545392E+02  0.38610988968E+02  0.10237740814E+03  0.11131692655E+03  0.47000000000E+01 0. -1.
          5    1    4    4  502    0  0.35617467987E+02  0.77876081190E+01  0.22152494019E+02  0.42919387895E+02  0.47000000000E+01 0. -1.
         -5    1    4    4    0  502 -0.35197867428E+02 -0.33678382684E+02 -0.88028276063E+02  0.10071837329E+03  0.47000000000E+01 0. -1.
<mgrwt>
<rscale>  0 0.29153744E+03</rscale>
<asrwt>0</asrwt>
<pdfrwt beam="1">  1       21 0.23137391E-01 0.29153744E+03</pdfrwt>
<pdfrwt beam="2">  1       21 0.21736398E-01 0.29153744E+03</pdfrwt>
<totfact> 0.33906272E+05</totfact>
</mgrwt>
</event>
<event>
 8    1  0.9691636E-006  0.2599136E+03  0.7546771E-02  0.1107195E+00
         21   -1    0    0  504  503  0.00000000000E+00  0.00000000000E+00  0.38161751340E+02  0.38161751340E+02  0.00000000000E+00 0.  1.
         21   -1    0    0  503  504 -0.00000000000E+00 -0.00000000000E+00 -0.44255748009E+03  0.44255748009E+03  0.00000000000E+00 0.  1.
         25    2    1    2    0    0  0.30019517419E+02 -0.16424504849E+02 -0.18443009594E+03  0.22541325970E+03  0.12500296626E+03 0.  0.
         25    2    1    2    0    0 -0.30019517419E+02  0.16424504849E+02 -0.21996563281E+03  0.25530597173E+03  0.12500129519E+03 0.  0.
          5    1    3    3  501    0  0.44215619764E+02  0.63777693469E+01 -0.64784980924E+01  0.45384555858E+02  0.47000000000E+01 0. -1.
         -5    1    3    3    0  501 -0.14196102345E+02 -0.22802274196E+02 -0.17795159785E+03  0.18002870384E+03  0.47000000000E+01 0. -1.
          5    1    4    4  502    0 -0.53817033566E+02 -0.39567713400E+02 -0.13504381771E+03  0.15073420231E+03  0.47000000000E+01 0.  1.
         -5    1    4    4    0  502  0.23797516147E+02  0.55992218249E+02 -0.84921815101E+02  0.10457176942E+03  0.47000000000E+01 0.  1.
<mgrwt>
<rscale>  0 0.25991359E+03</rscale>
<asrwt>0</asrwt>
<pdfrwt beam="1">  1       21 0.58710386E-02 0.25991359E+03</pdfrwt>
<pdfrwt beam="2">  1       21 0.68085767E-01 0.25991359E+03</pdfrwt>
<totfact> 0.39676773E+05</totfact>
</mgrwt>
</event>
<event>
 8    1  0.9691636E-006  0.2587449E+03  0.7546771E-02  0.1107900E+00
         21   -1    0    0  504  503  0.00000000000E+00  0.00000000000E+00  0.55052597345E+02  0.55052597345E+02  0.00000000000E+00 0. -1.
         21   -1    0    0  503  504 -0.00000000000E+00 -0.00000000000E+00 -0.30402249066E+03  0.30402249066E+03  0.00000000000E+00 0. -1.
         25    2    1    2    0    0 -0.27617095699E+02 -0.16453719392E+02 -0.13684127044E+03  0.18810566831E+03  0.12499912118E+03 0.  0.
         25    2    1    2    0    0  0.27617095699E+02  0.16453719392E+02 -0.11212862288E+03  0.17096941970E+03  0.12499714216E+03 0.  0.
          5    1    3    3  501    0 -0.47676389987E+02  0.42937213039E+02 -0.85143120881E+02  0.10671496361E+03  0.47000000000E+01 0. -1.
         -5    1    3    3    0  501  0.20059294288E+02 -0.59390932431E+02 -0.51698149562E+02  0.81390704693E+02  0.47000000000E+01 0. -1.
          5    1    4    4  502    0  0.32223769101E+02 -0.46858531383E+02 -0.23180524892E+02  0.61591557804E+02  0.47000000000E+01 0. -1.
         -5    1    4    4    0  502 -0.46066734017E+01  0.63312250776E+02 -0.88948097984E+02  0.10937786190E+03  0.47000000000E+01 0. -1.
<mgrwt>
<rscale>  0 0.25874488E+03</rscale>
<asrwt>0</asrwt>
<pdfrwt beam="1">  1       21 0.84696305E-02 0.25874488E+03</pdfrwt>
<pdfrwt beam="2">  1       21 0.46772690E-01 0.25874488E+03</pdfrwt>
<totfact> 0.46899084E+05</totfact>
</mgrwt>
</event>
<event>
 8    1  0.9691636E-006  0.3527933E+03  0.7546771E-02  0.1061474E+00
         21   -1    0    0  504  503  0.00000000000E+00  0.00000000000E+00  0.31530206811E+03  0.31530206811E+03  0.00000000000E+00 0.  1.
         21   -1    0    0  503  504 -0.00000000000E+00 -0.00000000000E+00 -0.98685588770E+02  0.98685588770E+02  0.00000000000E+00 0.  1.
         25    2    1    2    0    0  0.95888152094E+01 -0.11097080856E+03  0.43142362340E+02  0.17289739322E+03  0.12500311767E+03 0.  0.
         25    2    1    2    0    0 -0.95888152094E+01  0.11097080856E+03  0.17347411700E+03  0.24109026366E+03  0.12499912093E+03 0.  0.
          5    1    3    3  501    0 -0.60842915754E+01 -0.14055293498E+02  0.69349853719E+02  0.71176274770E+02  0.47000000000E+01 0. -1.
         -5    1    3    3    0  501  0.15673106785E+02 -0.96915515057E+02 -0.26207491379E+02  0.10172111845E+03  0.47000000000E+01 0. -1.
          5    1    4    4  502    0  0.52742140690E+01  0.59022416783E+02  0.11379612493E+00  0.59443805114E+02  0.47000000000E+01 0.  1.
         -5    1    4    4    0  502 -0.14863029278E+02  0.51948391773E+02  0.17336032088E+03  0.18164645854E+03  0.47000000000E+01 0.  1.
<mgrwt>
<rscale>  0 0.35279326E+03</rscale>
<asrwt>0</asrwt>
<pdfrwt beam="1">  1       21 0.48508010E-01 0.35279326E+03</pdfrwt>
<pdfrwt beam="2">  1       21 0.15182398E-01 0.35279326E+03</pdfrwt>
<totfact> 0.14901853E+05</totfact>
</mgrwt>
</event>
<event>
 8    1  0.9691636E-006  0.3158758E+03  0.7546771E-02  0.1077563E+00
         21   -1    0    0  504  503  0.00000000000E+00  0.00000000000E+00  0.70224115427E+02  0.70224115427E+02  0.00000000000E+00 0.  1.
         21   -1    0    0  503  504 -0.00000000000E+00 -0.00000000000E+00 -0.35521110473E+03  0.35521110473E+03  0.00000000000E+00 0.  1.
         25    2    1    2    0    0  0.15931976797E+02  0.58748817832E+02 -0.41499197499E+02  0.14506381823E+03  0.12496430084E+03 0.  0.
         25    2    1    2    0    0 -0.15931976797E+02 -0.58748817832E+02 -0.24348779180E+03  0.28037140192E+03  0.12496626256E+03 0.  0.
          5    1    3    3  501    0  0.53570824598E+02  0.70480088046E+02 -0.53550446836E+02  0.10357131077E+03  0.47000000000E+01 0.  1.
         -5    1    3    3    0  501 -0.37638847800E+02 -0.11731270214E+02  0.12051249337E+02  0.41492507458E+02  0.47000000000E+01 0.  1.
          5    1    4    4  502    0 -0.29671667894E+02 -0.88521809126E+02 -0.22202140221E+03  0.24089855044E+03  0.47000000000E+01 0. -1.
         -5    1    4    4    0  502  0.13739691097E+02  0.29772991293E+02 -0.21466389598E+02  0.39472851485E+02  0.47000000000E+01 0. -1.
<mgrwt>
<rscale>  0 0.31587583E+03</rscale>
<asrwt>0</asrwt>
<pdfrwt beam="1">  1       21 0.10803710E-01 0.31587583E+03</pdfrwt>
<pdfrwt beam="2">  1       21 0.54647862E-01 0.31587583E+03</pdfrwt>
<totfact> 0.21667915E+05</totfact>
</mgrwt>
</event>
<event>
 8    1  0.9691636E-006  0.2850814E+03  0.7546771E-02  0.1092946E+00
         21   -1    0    0  504  503  0.00000000000E+00  0.00000000000E+00  0.54800380495E+02  0.54800380495E+02  0.00000000000E+00 0.  1.
         21   -1    0    0  503  504 -0.00000000000E+00 -0.00000000000E+00 -0.37076117063E+03  0.37076117063E+03  0.00000000000E+00 0.  1.
         25    2    1    2    0    0  0.23530749877E+02 -0.32253103474E+02 -0.74866186801E+02  0.15107638432E+03  0.12500067639E+03 0.  0.
         25    2    1    2    0    0 -0.23530749877E+02  0.32253103474E+02 -0.24109460333E+03  0.27448516681E+03  0.12498615991E+03 0.  0.
          5    1    3    3  501    0 -0.36967228193E+02 -0.42379715022E+02 -0.69204307729E+02  0.89296933956E+02  0.47000000000E+01 0. -1.
         -5    1    3    3    0  501  0.60497978070E+02  0.10126611548E+02 -0.56618790717E+01  0.61779450359E+02  0.47000000000E+01 0. -1.
          5    1    4    4  502    0 -0.51205954919E+02 -0.27820263105E+02 -0.71317920085E+02  0.92219046751E+02  0.47000000000E+01 0.  1.
         -5    1    4    4    0  502  0.27675205043E+02  0.60073366579E+02 -0.16977668325E+03  0.18226612006E+03  0.47000000000E+01 0.  1.
<mgrwt>
<rscale>  0 0.28508141E+03</rscale>
<asrwt>0</asrwt>
<pdfrwt beam="1">  1       21 0.84308281E-02 0.28508141E+03</pdfrwt>
<pdfrwt beam="2">  1       21 0.57040178E-01 0.28508141E+03</pdfrwt>
<totfact> 0.30922434E+05</totfact>
</mgrwt>
</event>
<event>
 8    1  0.9691636E-006  0.2826606E+03  0.7546771E-02  0.1094245E+00
         21   -1    0    0  504  503  0.00000000000E+00  0.00000000000E+00  0.47935337468E+03  0.47935337468E+03  0.00000000000E+00 0.  1.
         21   -1    0    0  503  504 -0.00000000000E+00 -0.00000000000E+00 -0.41669159065E+02  0.41669159065E+02  0.00000000000E+00 0.  1.
         25    2    1    2    0    0  0.62002173037E+02 -0.14572014836E+02  0.18736750848E+03  0.23407101558E+03  0.12500417603E+03 0.  0.
         25    2    1    2    0    0 -0.62002173037E+02  0.14572014836E+02  0.25031670714E+03  0.28695151817E+03  0.12500442723E+03 0.  0.
          5    1    3    3  501    0  0.48756564513E+02  0.50222957055E+02  0.69005911981E+02  0.98404542003E+02  0.47000000000E+01 0.  1.
         -5    1    3    3    0  501  0.13245608523E+02 -0.64794971891E+02  0.11836159650E+03  0.13566647358E+03  0.47000000000E+01 0.  1.
          5    1    4    4  502    0 -0.35530660131E+01 -0.34839848507E+02  0.17825754040E+03  0.18172583755E+03  0.47000000000E+01 0. -1.
         -5    1    4    4    0  502 -0.58449107024E+02  0.49411863343E+02  0.72059166732E+02  0.10522568062E+03  0.47000000000E+01 0. -1.
<mgrwt>
<rscale>  0 0.28266059E+03</rscale>
<asrwt>0</asrwt>
<pdfrwt beam="1">  1       21 0.73746669E-01 0.28266059E+03</pdfrwt>
<pdfrwt beam="2">  1       21 0.64106402E-02 0.28266059E+03</pdfrwt>
<totfact> 0.28388262E+05</totfact>
</mgrwt>
</event>
<event>
 8    1  0.9691636E-006  0.3014868E+03  0.7546771E-02  0.1084500E+00
         21   -1    0    0  504  503  0.00000000000E+00  0.00000000000E+00  0.13254129722E+04  0.13254129722E+04  0.00000000000E+00 0.  1.
         21   -1    0    0  503  504 -0.00000000000E+00 -0.00000000000E+00 -0.17144521514E+02  0.17144521514E+02  0.00000000000E+00 0.  1.
         25    2    1    2    0    0  0.86506638109E+01  0.83774032618E+02  0.66625695157E+03  0.68309041561E+03  0.12498507053E+03 0.  0.
         25    2    1    2    0    0 -0.86506638109E+01 -0.83774032618E+02  0.64201149911E+03  0.65946707809E+03  0.12500055832E+03 0.  0.
          5    1    3    3  501    0  0.21432824456E+02  0.11152337546E+03  0.58923183542E+03  0.60009422186E+03  0.47000000000E+01 0. -1.
         -5    1    3    3    0  501 -0.12782160645E+02 -0.27749342841E+02  0.77025116147E+02  0.82996193746E+02  0.47000000000E+01 0. -1.
          5    1    4    4  502    0  0.32786607114E+02  0.39496787338E+01  0.53886406567E+02  0.63375045411E+02  0.47000000000E+01 0.  1.
         -5    1    4    4    0  502 -0.41437270925E+02 -0.87723711352E+02  0.58812509254E+03  0.59609203268E+03  0.47000000000E+01 0.  1.
<mgrwt>
<rscale>  0 0.30148679E+03</rscale>
<asrwt>0</asrwt>
<pdfrwt beam="1">  1       21 0.20390961E+00 0.30148679E+03</pdfrwt>
<pdfrwt beam="2">  1       21 0.26376197E-02 0.30148679E+03</pdfrwt>
<totfact> 0.94047009E+04</totfact>
</mgrwt>
</event>
<event>
 8    1  0.9691636E-006  0.5521804E+03  0.7546771E-02  0.1000991E+00
         21   -1    0    0  504  503  0.00000000000E+00  0.00000000000E+00  0.30884468208E+03  0.30884468208E+03  0.00000000000E+00 0. -1.
         21   -1    0    0  503  504 -0.00000000000E+00 -0.00000000000E+00 -0.24680947875E+03  0.24680947875E+03  0.00000000000E+00 0. -1.
         25    2    1    2    0    0 -0.46552725751E+02 -0.11656397512E+02 -0.21195014878E+03  0.25070122077E+03  0.12500083459E+03 0.  0.
         25    2    1    2    0    0  0.46552725751E+02  0.11656397512E+02  0.27398535211E+03  0.30495294006E+03  0.12500117841E+03 0.  0.
          5    1    3    3  501    0  0.17996930278E+01 -0.40022687266E+02 -0.18307793177E+03  0.18746912677E+03  0.47000000000E+01 0. -1.
         -5    1    3    3    0  501 -0.48352418779E+02  0.28366289754E+02 -0.28872217017E+02  0.63232094000E+02  0.47000000000E+01 0. -1.
          5    1    4    4  502    0 -0.33528473357E+02  0.16125645100E+02  0.29828967488E+02  0.47917139490E+02  0.47000000000E+01 0. -1.
         -5    1    4    4    0  502  0.80081199108E+02 -0.44692475872E+01  0.24415638462E+03  0.25703580057E+03  0.47000000000E+01 0. -1.
<mgrwt>
<rscale>  0 0.55218039E+03</rscale>
<asrwt>0</asrwt>
<pdfrwt beam="1">  1       21 0.47514567E-01 0.55218039E+03</pdfrwt>
<pdfrwt beam="2">  1       21 0.37970689E-01 0.55218039E+03</pdfrwt>
<totfact> 0.25186605E+04</totfact>
</mgrwt>
</event>
<event>
 8    1  0.9691636E-006  0.4181600E+03  0.7546771E-02  0.1037667E+00
         21   -1    0    0  504  503  0.00000000000E+00  0.00000000000E+00  0.88122110367E+02  0.88122110367E+02  0.00000000000E+00 0. -1.
         21   -1    0    0  503  504 -0.00000000000E+00 -0.00000000000E+00 -0.49606673424E+03  0.49606673424E+03  0.00000000000E+00 0. -1.
         25    2    1    2    0    0 -0.21012860444E+02  0.12393153215E+03 -0.35887123321E+03  0.40026834739E+03  0.12500249169E+03 0.  0.
         25    2    1    2    0    0  0.21012860444E+02 -0.12393153215E+03 -0.49073390662E+02  0.18392049722E+03  0.12497194349E+03 0.  0.
          5    1    3    3  501    0  0.51771783115E+02  0.49391778142E+02 -0.12310350697E+03  0.14246553514E+03  0.47000000000E+01 0.  1.
         -5    1    3    3    0  501 -0.72784643559E+02  0.74539754009E+02 -0.23576772623E+03  0.25780281224E+03  0.47000000000E+01 0.  1.
          5    1    4    4  502    0  0.71278039578E+01 -0.10953518326E+03 -0.87428691389E+02  0.14040878903E+03  0.47000000000E+01 0. -1.
         -5    1    4    4    0  502  0.13885056486E+02 -0.14396348896E+02  0.38355300727E+02  0.43511708183E+02  0.47000000000E+01 0. -1.
<mgrwt>
<rscale>  0 0.41816001E+03</rscale>
<asrwt>0</asrwt>
<pdfrwt beam="1">  1       21 0.13557248E-01 0.41816001E+03</pdfrwt>
<pdfrwt beam="2">  1       21 0.76317959E-01 0.41816001E+03</pdfrwt>
<totfact> 0.67059964E+04</totfact>
</mgrwt>
</event>
<event>
 8    1  0.9691636E-006  0.2698667E+03  0.7546771E-02  0.1101356E+00
         21   -1    0    0  504  503  0.00000000000E+00  0.00000000000E+00  0.91436614234E+03  0.91436614234E+03  0.00000000000E+00 0. -1.
         21   -1    0    0  503  504 -0.00000000000E+00 -0.00000000000E+00 -0.19912159571E+02  0.19912159571E+02  0.00000000000E+00 0. -1.
         25    2    1    2    0    0 -0.31080311780E+02  0.39109960689E+02  0.47967124835E+03  0.49820241593E+03  0.12500226374E+03 0.  0.
         25    2    1    2    0    0  0.31080311780E+02 -0.39109960689E+02  0.41478273441E+03  0.43607588597E+03  0.12498754640E+03 0.  0.
          5    1    3    3  501    0  0.38730161293E+02 -0.18189650634E+02  0.12594397552E+03  0.13309719664E+03  0.47000000000E+01 0. -1.
         -5    1    3    3    0  501 -0.69810473073E+02  0.57299611324E+02  0.35372727283E+03  0.36510521929E+03  0.47000000000E+01 0. -1.
          5    1    4    4  502    0 -0.41643062669E+02  0.72374485199E+01  0.83312855292E+02  0.93539548783E+02  0.47000000000E+01 0.  1.
         -5    1    4    4    0  502  0.72723374449E+02 -0.46347409209E+02  0.33146987912E+03  0.34253633719E+03  0.47000000000E+01 0.  1.
<mgrwt>
<rscale>  0 0.26986667E+03</rscale>
<asrwt>0</asrwt>
<pdfrwt beam="1">  1       21 0.14067168E+00 0.26986667E+03</pdfrwt>
<pdfrwt beam="2">  1       21 0.30634099E-02 0.26986667E+03</pdfrwt>
<totfact> 0.21022669E+05</totfact>
</mgrwt>
</event>
<event>
 8    1  0.9691636E-006  0.5842580E+03  0.7546771E-02  0.9938615E-01
         21   -1    0    0  504  503  0.00000000000E+00  0.00000000000E+00  0.40817779570E+03  0.40817779570E+03  0.00000000000E+00 0.  1.
         21   -1    0    0  503  504 -0.00000000000E+00 -0.00000000000E+00 -0.20907394806E+03  0.20907394806E+03  0.00000000000E+00 0.  1.
         25    2    1    2    0    0  0.16188965735E+03  0.64140704916E+02  0.30923423929E+03  0.37626186142E+03  0.12499952972E+03 0.  0.
         25    2    1    2    0    0 -0.16188965735E+03 -0.64140704916E+02 -0.11013039165E+03  0.24098988234E+03  0.12500051617E+03 0.  0.
          5    1    3    3  501    0  0.88831229366E+02 -0.12694711795E+02  0.21986068953E+03  0.23751411709E+03  0.47000000000E+01 0.  1.
         -5    1    3    3    0  501  0.73058427984E+02  0.76835416712E+02  0.89373549760E+02  0.13874774433E+03  0.47000000000E+01 0.  1.
          5    1    4    4  502    0 -0.60903877108E+02 -0.30730144927E+02  0.21508032651E+02  0.71682002780E+02  0.47000000000E+01 0.  1.
         -5    1    4    4    0  502 -0.10098578024E+03 -0.33410559989E+02 -0.13163842430E+03  0.16930787956E+03  0.47000000000E+01 0.  1.
<mgrwt>
<rscale>  0 0.58425797E+03</rscale>
<asrwt>0</asrwt>
<pdfrwt beam="1">  1       21 0.62796584E-01 0.58425797E+03</pdfrwt>
<pdfrwt beam="2">  1       21 0.32165223E-01 0.58425797E+03</pdfrwt>
<totfact> 0.19152119E+04</totfact>
</mgrwt>
</event>
<event>
 8    1  0.9691636E-006  0.3330172E+03  0.7546771E-02  0.1069810E+00
         21   -1    0    0  504  503  0.00000000000E+00  0.00000000000E+00  0.16180099940E+03  0.16180099940E+03  0.00000000000E+00 0. -1.
         21   -1    0    0  503  504 -0.00000000000E+00 -0.00000000000E+00 -0.17135320496E+03  0.17135320496E+03  0.00000000000E+00 0. -1.
         25    2    1    2    0    0 -0.64296352855E+02 -0.64129598742E+02  0.57343477083E+02  0.16479144998E+03  0.12498528393E+03 0.  0.
         25    2    1    2    0    0  0.64296352855E+02  0.64129598742E+02 -0.66895682641E+02  0.16836275438E+03  0.12499743310E+03 0.  0.
          5    1    3    3  501    0 -0.13754546498E+02 -0.48887525949E+02  0.89347009251E+02  0.10287932642E+03  0.47000000000E+01 0. -1.
         -5    1    3    3    0  501 -0.50541806357E+02 -0.15242072794E+02 -0.32003532168E+02  0.61912123563E+02  0.47000000000E+01 0. -1.
          5    1    4    4  502    0  0.91432308088E+02  0.57236011768E+02 -0.14729605137E+02  0.10897191965E+03  0.47000000000E+01 0.  1.
         -5    1    4    4    0  502 -0.27135955233E+02  0.68935869740E+01 -0.52166077504E+02  0.59390834730E+02  0.47000000000E+01 0.  1.
<mgrwt>
<rscale>  0 0.33301724E+03</rscale>
<asrwt>0</asrwt>
<pdfrwt beam="1">  1       21 0.24892462E-01 0.33301724E+03</pdfrwt>
<pdfrwt beam="2">  1       21 0.26362031E-01 0.33301724E+03</pdfrwt>
<totfact> 0.20167960E+05</totfact>
</mgrwt>
</event>
<event>
 8    1  0.9691636E-006  0.2909126E+03  0.7546771E-02  0.1089874E+00
         21   -1    0    0  504  503  0.00000000000E+00  0.00000000000E+00  0.13565778506E+03  0.13565778506E+03  0.00000000000E+00 0.  1.
         21   -1    0    0  503  504 -0.00000000000E+00 -0.00000000000E+00 -0.15596256275E+03  0.15596256275E+03  0.00000000000E+00 0.  1.
         25    2    1    2    0    0  0.65704704133E+02  0.26307811342E+02 -0.33068307077E+02  0.14740969576E+03  0.12500758533E+03 0.  0.
         25    2    1    2    0    0 -0.65704704133E+02 -0.26307811342E+02  0.12763529393E+02  0.14421065205E+03  0.12499838159E+03 0.  0.
          5    1    3    3  501    0  0.36712640914E+02  0.74210975937E+02 -0.37564355581E+02  0.91039869082E+02  0.47000000000E+01 0. -1.
         -5    1    3    3    0  501  0.28992063219E+02 -0.47903164595E+02  0.44960485035E+01  0.56369826681E+02  0.47000000000E+01 0. -1.
          5    1    4    4  502    0  0.35408786195E+02 -0.83823739934E+01 -0.11759962570E+02  0.38528340909E+02  0.47000000000E+01 0. -1.
         -5    1    4    4    0  502 -0.10111349033E+03 -0.17925437348E+02  0.24523491962E+02  0.10568231114E+03  0.47000000000E+01 0. -1.
<mgrwt>
<rscale>  0 0.29091260E+03</rscale>
<asrwt>0</asrwt>
<pdfrwt beam="1">  1       21 0.20870429E-01 0.29091260E+03</pdfrwt>
<pdfrwt beam="2">  1       21 0.23994240E-01 0.29091260E+03</pdfrwt>
<totfact> 0.34164012E+05</totfact>
</mgrwt>
</event>
<event>
 8    1  0.9691636E-006  0.2942704E+03  0.7546771E-02  0.1088140E+00
         21   -1    0    0  504  503  0.00000000000E+00  0.00000000000E+00  0.40279540616E+03  0.40279540616E+03  0.00000000000E+00 0.  1.
         21   -1    0    0  503  504 -0.00000000000E+00 -0.00000000000E+00 -0.53746294280E+02  0.53746294280E+02  0.00000000000E+00 0.  1.
         25    2    1    2    0    0  0.22197058165E+01 -0.35794719529E+02  0.67734401057E+02  0.14662456917E+03  0.12499850462E+03 0.  0.
         25    2    1    2    0    0 -0.22197058165E+01  0.35794719529E+02  0.28131471082E+03  0.30991713127E+03  0.12499789074E+03 0.  0.
          5    1    3    3  501    0  0.18837735791E+00 -0.74286807455E+02  0.73033125482E+01  0.74793005168E+02  0.47000000000E+01 0. -1.
         -5    1    3    3    0  501  0.20313284586E+01  0.38492087926E+02  0.60431088509E+02  0.71831564000E+02  0.47000000000E+01 0. -1.
          5    1    4    4  502    0  0.15715399385E+02  0.50274788588E+02  0.28146668617E+03  0.28639153893E+03  0.47000000000E+01 0. -1.
         -5    1    4    4    0  502 -0.17935105201E+02 -0.14480069059E+02 -0.15197535021E+00  0.23525592342E+02  0.47000000000E+01 0. -1.
<mgrwt>
<rscale>  0 0.29427035E+03</rscale>
<asrwt>0</asrwt>
<pdfrwt beam="1">  1       21 0.61968522E-01 0.29427035E+03</pdfrwt>
<pdfrwt beam="2">  1       21 0.82686609E-02 0.29427035E+03</pdfrwt>
<totfact> 0.26689093E+05</totfact>
</mgrwt>
</event>
<event>
 8    1  0.9691636E-006  0.6388643E+03  0.7546771E-02  0.9827902E-01
         21   -1    0    0  504  503  0.00000000000E+00  0.00000000000E+00  0.92244584675E+02  0.92244584675E+02  0.00000000000E+00 0.  1.
         21   -1    0    0  503  504 -0.00000000000E+00 -0.00000000000E+00 -0.11061561135E+04  0.11061561135E+04  0.00000000000E+00 0.  1.
         25    2    1    2    0    0  0.13181168673E+03 -0.25148935756E+03 -0.64971860066E+03  0.71998575202E+03  0.12499602133E+03 0.  0.
         25    2    1    2    0    0 -0.13181168673E+03  0.25148935756E+03 -0.36419292814E+03  0.47841494612E+03  0.12499261594E+03 0.  0.
          5    1    3    3  501    0  0.10472489032E+03 -0.14377708066E+03 -0.51754687131E+03  0.54728055472E+03  0.47000000000E+01 0. -1.
         -5    1    3    3    0  501  0.27086796414E+02 -0.10771227690E+03 -0.13217172935E+03  0.17270519730E+03  0.47000000000E+01 0.  1.
          5    1    4    4  502    0 -0.45782906603E+02  0.59435445483E+02 -0.25006150197E+02  0.79221488653E+02  0.47000000000E+01 0. -1.
         -5    1    4    4    0  502 -0.86028780131E+02  0.19205391208E+03 -0.33918677794E+03  0.39919345747E+03  0.47000000000E+01 0. -1.
<mgrwt>
<rscale>  0 0.63886434E+03</rscale>
<asrwt>0</asrwt>
<pdfrwt beam="1">  1       21 0.14191474E-01 0.63886434E+03</pdfrwt>
<pdfrwt beam="2">  1       21 0.17017787E+00 0.63886434E+03</pdfrwt>
<totfact> 0.76523722E+03</totfact>
</mgrwt>
</event>
<event>
 8    1  0.9691636E-006  0.2684636E+03  0.7546771E-02  0.1102162E+00
         21   -1    0    0  504  503  0.00000000000E+00  0.00000000000E+00  0.53429365389E+03  0.53429365389E+03  0.00000000000E+00 0.  1.
         21   -1    0    0  503  504 -0.00000000000E+00 -0.00000000000E+00 -0.33723348324E+02  0.33723348324E+02  0.00000000000E+00 0.  1.
         25    2    1    2    0    0 -0.31447295699E+02 -0.37491521626E+02  0.25241128983E+03  0.28587812829E+03  0.12498119220E+03 0.  0.
         25    2    1    2    0    0  0.31447295699E+02  0.37491521626E+02  0.24815901573E+03  0.28213887392E+03  0.12499960194E+03 0.  0.
          5    1    3    3  501    0 -0.13627637754E+02  0.25133016904E+02  0.20020343241E+03  0.20228911339E+03  0.47000000000E+01 0.  1.
         -5    1    3    3    0  501 -0.17819657945E+02 -0.62624538530E+02  0.52207857417E+02  0.83589014897E+02  0.47000000000E+01 0.  1.
          5    1    4    4  502    0  0.38675737348E+02  0.42773126283E+01  0.24450872639E+03  0.24763019877E+03  0.47000000000E+01 0.  1.
         -5    1    4    4    0  502 -0.72284416489E+01  0.33214208998E+02  0.36502893435E+01  0.34508675146E+02  0.47000000000E+01 0.  1.
<mgrwt>
<rscale>  0 0.26846356E+03</rscale>
<asrwt>0</asrwt>
<pdfrwt beam="1">  1       21 0.82199018E-01 0.26846356E+03</pdfrwt>
<pdfrwt beam="2">  1       21 0.51882078E-02 0.26846356E+03</pdfrwt>
<totfact> 0.32042129E+05</totfact>
</mgrwt>
</event>
<event>
 8    1  0.9691636E-006  0.2577965E+03  0.7546771E-02  0.1108474E+00
         21   -1    0    0  504  503  0.00000000000E+00  0.00000000000E+00  0.56171488554E+02  0.56171488554E+02  0.00000000000E+00 0. -1.
         21   -1    0    0  503  504 -0.00000000000E+00 -0.00000000000E+00 -0.29578644435E+03  0.29578644435E+03  0.00000000000E+00 0. -1.
         25    2    1    2    0    0 -0.24685620586E+02 -0.31504455800E+01 -0.93519253840E+02  0.15808535398E+03  0.12500329249E+03 0.  0.
         25    2    1    2    0    0  0.24685620586E+02  0.31504455800E+01 -0.14609570195E+03  0.19387257892E+03  0.12499327004E+03 0.  0.
          5    1    3    3  501    0  0.26690753386E+02  0.26413731200E+02 -0.91017194075E+02  0.98571299725E+02  0.47000000000E+01 0. -1.
         -5    1    3    3    0  501 -0.51376373972E+02 -0.29564176780E+02 -0.25020597647E+01  0.59514054258E+02  0.47000000000E+01 0. -1.
          5    1    4    4  502    0  0.21294440352E+01 -0.58021818494E+02 -0.92634755243E+02  0.10942739069E+03  0.47000000000E+01 0. -1.
         -5    1    4    4    0  502  0.22556176550E+02  0.61172264074E+02 -0.53460946711E+02  0.84445188233E+02  0.47000000000E+01 0. -1.
<mgrwt>
<rscale>  0 0.25779655E+03</rscale>
<asrwt>0</asrwt>
<pdfrwt beam="1">  1       21 0.86417673E-02 0.25779655E+03</pdfrwt>
<pdfrwt beam="2">  1       21 0.45505607E-01 0.25779655E+03</pdfrwt>
<totfact> 0.47931927E+05</totfact>
</mgrwt>
</event>
<event>
 8    1  0.9691636E-006  0.2719669E+03  0.7546771E-02  0.1100159E+00
         21   -1    0    0  504  503  0.00000000000E+00  0.00000000000E+00  0.66115774065E+03  0.66115774065E+03  0.00000000000E+00 0. -1.
         21   -1    0    0  503  504 -0.00000000000E+00 -0.00000000000E+00 -0.27968368742E+02  0.27968368742E+02  0.00000000000E+00 0. -1.
         25    2    1    2    0    0  0.14254116146E+02 -0.30229488654E+02  0.42256907508E+03  0.44193522216E+03  0.12500046224E+03 0.  0.
         25    2    1    2    0    0 -0.14254116146E+02  0.30229488654E+02  0.21062029683E+03  0.24719088723E+03  0.12500169392E+03 0.  0.
          5    1    3    3  501    0  0.50337564644E+02  0.27480305773E+02  0.14257167314E+03  0.15374592548E+03  0.47000000000E+01 0. -1.
         -5    1    3    3    0  501 -0.36083448498E+02 -0.57709794427E+02  0.27999740194E+03  0.28818929668E+03  0.47000000000E+01 0. -1.
          5    1    4    4  502    0 -0.21398408673E+02  0.51775471450E+02  0.27456965566E+02  0.62566494993E+02  0.47000000000E+01 0. -1.
         -5    1    4    4    0  502  0.71442925268E+01 -0.21545982796E+02  0.18316333126E+03  0.18462439224E+03  0.47000000000E+01 0. -1.
<mgrwt>
<rscale>  0 0.27196694E+03</rscale>
<asrwt>0</asrwt>
<pdfrwt beam="1">  1       21 0.10171656E+00 0.27196694E+03</pdfrwt>
<pdfrwt beam="2">  1       21 0.43028264E-02 0.27196694E+03</pdfrwt>
<totfact> 0.26709286E+05</totfact>
</mgrwt>
</event>
<event>
 8    1  0.9691636E-006  0.2542956E+03  0.7546771E-02  0.1110620E+00
         21   -1    0    0  504  503  0.00000000000E+00  0.00000000000E+00  0.77904818886E+03  0.77904818886E+03  0.00000000000E+00 0. -1.
         21   -1    0    0  503  504 -0.00000000000E+00 -0.00000000000E+00 -0.20751691328E+02  0.20751691328E+02  0.00000000000E+00 0. -1.
         25    2    1    2    0    0  0.13246930740E+02  0.16842354677E+02  0.40768524905E+03  0.42695557357E+03  0.12499861371E+03 0.  0.
         25    2    1    2    0    0 -0.13246930740E+02 -0.16842354677E+02  0.35061124849E+03  0.37284430662E+03  0.12500193329E+03 0.  0.
          5    1    3    3  501    0  0.39758398651E+02 -0.38884163393E+01  0.38262436495E+03  0.38473282248E+03  0.47000000000E+01 0. -1.
         -5    1    3    3    0  501 -0.26511467911E+02  0.20730771017E+02  0.25060884099E+02  0.42222751090E+02  0.47000000000E+01 0. -1.
          5    1    4    4  502    0  0.41695403575E+02  0.20818296376E+01  0.27062346576E+03  0.27386491362E+03  0.47000000000E+01 0. -1.
         -5    1    4    4    0  502 -0.54942334315E+02 -0.18924184315E+02  0.79987782730E+02  0.98979392997E+02  0.47000000000E+01 0. -1.
<mgrwt>
<rscale>  0 0.25429564E+03</rscale>
<asrwt>0</asrwt>
<pdfrwt beam="1">  1       21 0.11985354E+00 0.25429564E+03</pdfrwt>
<pdfrwt beam="2">  1       21 0.31925685E-02 0.25429564E+03</pdfrwt>
<totfact> 0.29669515E+05</totfact>
</mgrwt>
</event>
<event>
 8    1  0.9691636E-006  0.3944632E+03  0.7546771E-02  0.1045714E+00
         21   -1    0    0  504  503  0.00000000000E+00  0.00000000000E+00  0.47856035038E+02  0.47856035038E+02  0.00000000000E+00 0.  1.
         21   -1    0    0  503  504 -0.00000000000E+00 -0.00000000000E+00 -0.81286118488E+03  0.81286118488E+03  0.00000000000E+00 0.  1.
         25    2    1    2    0    0 -0.44893540279E+02  0.59923451823E+01 -0.64644119080E+02  0.14784257159E+03  0.12500890241E+03 0.  0.
         25    2    1    2    0    0  0.44893540279E+02 -0.59923451823E+01 -0.70036103076E+03  0.71287464832E+03  0.12503340618E+03 0.  0.
          5    1    3    3  501    0  0.51043635903E+01  0.52424714335E+02  0.12121354793E+01  0.52895788804E+02  0.47000000000E+01 0.  1.
         -5    1    3    3    0  501 -0.49997903869E+02 -0.46432369153E+02 -0.65856254560E+02  0.94946782784E+02  0.47000000000E+01 0.  1.
          5    1    4    4  502    0  0.80600687304E+02 -0.22468692147E+02 -0.33295394362E+03  0.34333909112E+03  0.47000000000E+01 0. -1.
         -5    1    4    4    0  502 -0.35707147025E+02  0.16476346965E+02 -0.36740708713E+03  0.36953555720E+03  0.47000000000E+01 0. -1.
<mgrwt>
<rscale>  0 0.39446325E+03</rscale>
<asrwt>0</asrwt>
<pdfrwt beam="1">  1       21 0.73624668E-02 0.39446325E+03</pdfrwt>
<pdfrwt beam="2">  1       21 0.12505557E+00 0.39446325E+03</pdfrwt>
<totfact> 0.61357044E+04</totfact>
</mgrwt>
</event>
<event>
 8    1  0.9691636E-006  0.3236472E+03  0.7546771E-02  0.1073983E+00
         21   -1    0    0  504  503  0.00000000000E+00  0.00000000000E+00  0.29412790867E+03  0.29412790867E+03  0.00000000000E+00 0.  1.
         21   -1    0    0  503  504 -0.00000000000E+00 -0.00000000000E+00 -0.89032262546E+02  0.89032262546E+02  0.00000000000E+00 0.  1.
         25    2    1    2    0    0  0.85862810492E+02 -0.25310619698E+02  0.42776351362E+02  0.15958674256E+03  0.12500024988E+03 0.  0.
         25    2    1    2    0    0 -0.85862810492E+02  0.25310619698E+02  0.16231929476E+03  0.22357342866E+03  0.12499789940E+03 0.  0.
          5    1    3    3  501    0  0.10106231819E+03 -0.24617211772E+02  0.71801638740E+02  0.12647989801E+03  0.47000000000E+01 0. -1.
         -5    1    3    3    0  501 -0.15199507702E+02 -0.69340792552E+00 -0.29025287378E+02  0.33106844553E+02  0.47000000000E+01 0. -1.
          5    1    4    4  502    0 -0.69983117045E+02 -0.43039064029E+02  0.73972403751E+02  0.11065262862E+03  0.47000000000E+01 0.  1.
         -5    1    4    4    0  502 -0.15879693447E+02  0.68349683727E+02  0.88346891013E+02  0.11292080004E+03  0.47000000000E+01 0.  1.
<mgrwt>
<rscale>  0 0.32364717E+03</rscale>
<asrwt>0</asrwt>
<pdfrwt beam="1">  1       21 0.45250447E-01 0.32364717E+03</pdfrwt>
<pdfrwt beam="2">  1       21 0.13697271E-01 0.32364717E+03</pdfrwt>
<totfact> 0.20954429E+05</totfact>
</mgrwt>
</event>
<event>
 8    1  0.9691636E-006  0.3257772E+03  0.7546771E-02  0.1073021E+00
         21   -1    0    0  504  503  0.00000000000E+00  0.00000000000E+00  0.19991130309E+03  0.19991130309E+03  0.00000000000E+00 0.  1.
         21   -1    0    0  503  504 -0.00000000000E+00 -0.00000000000E+00 -0.13272234765E+03  0.13272234765E+03  0.00000000000E+00 0.  1.
         25    2    1    2    0    0 -0.90748516143E+02  0.50273444540E+02  0.45804136026E+02  0.16877666420E+03  0.12499932437E+03 0.  0.
         25    2    1    2    0    0  0.90748516143E+02 -0.50273444540E+02  0.21384819413E+02  0.16385698655E+03  0.12501635546E+03 0.  0.
          5    1    3    3  501    0 -0.92790730770E+02  0.19185749568E+02  0.78672289601E+02  0.12324622450E+03  0.47000000000E+01 0. -1.
         -5    1    3    3    0  501  0.20422146275E+01  0.31087694972E+02 -0.32868153575E+02  0.45530439694E+02  0.47000000000E+01 0. -1.
          5    1    4    4  502    0  0.77210510668E+02 -0.61175016928E+02  0.64018596086E+02  0.11757685273E+03  0.47000000000E+01 0. -1.
         -5    1    4    4    0  502  0.13538005475E+02  0.10901572389E+02 -0.42633776673E+02  0.46280133818E+02  0.47000000000E+01 0. -1.
<mgrwt>
<rscale>  0 0.32577721E+03</rscale>
<asrwt>0</asrwt>
<pdfrwt beam="1">  1       21 0.30755585E-01 0.32577721E+03</pdfrwt>
<pdfrwt beam="2">  1       21 0.20418823E-01 0.32577721E+03</pdfrwt>
<totfact> 0.21804929E+05</totfact>
</mgrwt>
</event>
<event>
 8    1  0.9691636E-006  0.3130269E+03  0.7546771E-02  0.1078904E+00
         21   -1    0    0  504  503  0.00000000000E+00  0.00000000000E+00  0.13709384948E+03  0.13709384948E+03  0.00000000000E+00 0.  1.
         21   -1    0    0  503  504 -0.00000000000E+00 -0.00000000000E+00 -0.17868390744E+03  0.17868390744E+03  0.00000000000E+00 0.  1.
         25    2    1    2    0    0 -0.35782948696E+02 -0.72164543699E+02  0.28454118036E+02  0.15140369189E+03  0.12500120119E+03 0.  0.
         25    2    1    2    0    0  0.35782948696E+02  0.72164543699E+02 -0.70044175994E+02  0.16437406503E+03  0.12499802351E+03 0.  0.
          5    1    3    3  501    0 -0.75695894376E+02 -0.52980799994E+02 -0.93540933378E+01  0.92986142278E+02  0.47000000000E+01 0. -1.
         -5    1    3    3    0  501  0.39912945680E+02 -0.19183743704E+02  0.37808211374E+02  0.58417549612E+02  0.47000000000E+01 0. -1.
          5    1    4    4  502    0  0.76003325600E+02  0.19402468967E+02 -0.19852203074E+02  0.81050362561E+02  0.47000000000E+01 0. -1.
         -5    1    4    4    0  502 -0.40220376904E+02  0.52762074731E+02 -0.50191972920E+02  0.83323702473E+02  0.47000000000E+01 0. -1.
<mgrwt>
<rscale>  0 0.31302693E+03</rscale>
<asrwt>0</asrwt>
<pdfrwt beam="1">  1       21 0.21091362E-01 0.31302693E+03</pdfrwt>
<pdfrwt beam="2">  1       21 0.27489832E-01 0.31302693E+03</pdfrwt>
<totfact> 0.25631299E+05</totfact>
</mgrwt>
</event>
<event>
 8    1  0.9691636E-006  0.4801672E+03  0.7546771E-02  0.1019089E+00
         21   -1    0    0  504  503  0.00000000000E+00  0.00000000000E+00  0.59872349668E+02  0.59872349668E+02  0.00000000000E+00 0. -1.
         21   -1    0    0  503  504 -0.00000000000E+00 -0.00000000000E+00 -0.96271717227E+03  0.96271717227E+03  0.00000000000E+00 0. -1.
         25    2    1    2    0    0 -0.19727122895E+03  0.21523806811E+02 -0.56071665438E+03  0.60779033480E+03  0.12500684998E+03 0.  0.
         25    2    1    2    0    0  0.19727122895E+03 -0.21523806811E+02 -0.34212816822E+03  0.41479918713E+03  0.12500988012E+03 0.  0.
          5    1    3    3  501    0 -0.47869901083E+02 -0.43846215277E+02 -0.10271750927E+03  0.12160178755E+03  0.47000000000E+01 0.  1.
         -5    1    3    3    0  501 -0.14940132787E+03  0.65370022087E+02 -0.45799914511E+03  0.48618854725E+03  0.47000000000E+01 0.  1.
          5    1    4    4  502    0  0.15061264091E+03 -0.42146092583E+02 -0.15294626717E+03  0.21880381935E+03  0.47000000000E+01 0. -1.
         -5    1    4    4    0  502  0.46658588045E+02  0.20622285772E+02 -0.18918190104E+03  0.19599536778E+03  0.47000000000E+01 0. -1.
<mgrwt>
<rscale>  0 0.48016722E+03</rscale>
<asrwt>0</asrwt>
<pdfrwt beam="1">  1       21 0.92111310E-02 0.48016722E+03</pdfrwt>
<pdfrwt beam="2">  1       21 0.14811033E+00 0.48016722E+03</pdfrwt>
<totfact> 0.25825984E+04</totfact>
</mgrwt>
</event>
<event>
 8    1  0.9691636E-006  0.3827424E+03  0.7546771E-02  0.1049925E+00
         21   -1    0    0  504  503  0.00000000000E+00  0.00000000000E+00  0.43121700072E+03  0.43121700072E+03  0.00000000000E+00 0.  1.
         21   -1    0    0  503  504 -0.00000000000E+00 -0.00000000000E+00 -0.84929252758E+02  0.84929252758E+02  0.00000000000E+00 0.  1.
         25    2    1    2    0    0  0.11620169775E+03  0.20014422385E+02  0.28674595189E+03  0.33429939112E+03  0.12501771999E+03 0.  0.
         25    2    1    2    0    0 -0.11620169775E+03 -0.20014422385E+02  0.59541796074E+02  0.18184686236E+03  0.12497857499E+03 0.  0.
          5    1    3    3  501    0  0.12819525696E+03 -0.11785238782E+02  0.17431783943E+03  0.21675265836E+03  0.47000000000E+01 0.  1.
         -5    1    3    3    0  501 -0.11993559204E+02  0.31799661166E+02  0.11242811246E+03  0.11754673277E+03  0.47000000000E+01 0.  1.
          5    1    4    4  502    0 -0.43087312717E+01  0.40832916255E+02  0.37576971551E+00  0.41329449766E+02  0.47000000000E+01 0. -1.
         -5    1    4    4    0  502 -0.11189296648E+03 -0.60847338640E+02  0.59166026358E+02  0.14051741260E+03  0.47000000000E+01 0. -1.
<mgrwt>
<rscale>  0 0.38274241E+03</rscale>
<asrwt>0</asrwt>
<pdfrwt beam="1">  1       21 0.66341075E-01 0.38274241E+03</pdfrwt>
<pdfrwt beam="2">  1       21 0.13066039E-01 0.38274241E+03</pdfrwt>
<totfact> 0.99162005E+04</totfact>
</mgrwt>
</event>
<event>
 8    1  0.9691636E-006  0.2992929E+03  0.7546771E-02  0.1085595E+00
         21   -1    0    0  504  503  0.00000000000E+00  0.00000000000E+00  0.13160362161E+04  0.13160362161E+04  0.00000000000E+00 0. -1.
         21   -1    0    0  503  504 -0.00000000000E+00 -0.00000000000E+00 -0.17016294214E+02  0.17016294214E+02  0.00000000000E+00 0. -1.
         25    2    1    2    0    0  0.16800379297E+02  0.27469591603E+02  0.31230695187E+03  0.33793195187E+03  0.12500216278E+03 0.  0.
         25    2    1    2    0    0 -0.16800379297E+02 -0.27469591603E+02  0.98671297006E+03  0.99512055849E+03  0.12500243773E+03 0.  0.
          5    1    3    3  501    0 -0.51112580116E+02  0.10016979622E+00  0.17340937001E+03  0.18084635879E+03  0.47000000000E+01 0.  1.
         -5    1    3    3    0  501  0.67912959413E+02  0.27369421807E+02  0.13889758186E+03  0.15708559308E+03  0.47000000000E+01 0.  1.
          5    1    4    4  502    0  0.41482933493E+02  0.13018996029E+02  0.17828246883E+03  0.18356758080E+03  0.47000000000E+01 0.  1.
         -5    1    4    4    0  502 -0.58283312790E+02 -0.40488587632E+02  0.80843050123E+03  0.81155297769E+03  0.47000000000E+01 0.  1.
<mgrwt>
<rscale>  0 0.29929290E+03</rscale>
<asrwt>0</asrwt>
<pdfrwt beam="1">  1       21 0.20246703E+00 0.29929290E+03</pdfrwt>
<pdfrwt beam="2">  1       21 0.26178924E-02 0.29929290E+03</pdfrwt>
<totfact> 0.97389544E+04</totfact>
</mgrwt>
</event>
<event>
 8    1  0.9691636E-006  0.4343136E+03  0.7546771E-02  0.1032506E+00
         21   -1    0    0  504  503  0.00000000000E+00  0.00000000000E+00  0.36481490975E+04  0.36481490975E+04  0.00000000000E+00 0.  1.
         21   -1    0    0  503  504 -0.00000000000E+00 -0.00000000000E+00 -0.12926302528E+02  0.12926302528E+02  0.00000000000E+00 0.  1.
         25    2    1    2    0    0 -0.55258864739E+02  0.13845699869E+03  0.26308195364E+04  0.26380032283E+04  0.12500286551E+03 0.  0.
         25    2    1    2    0    0  0.55258864739E+02 -0.13845699869E+03  0.10044032585E+04  0.10230721718E+04  0.12500752087E+03 0.  0.
          5    1    3    3  501    0 -0.31493227406E+02  0.10505025612E+03  0.24531342429E+04  0.24555889483E+04  0.47000000000E+01 0.  1.
         -5    1    3    3    0  501 -0.23765637333E+02  0.33406742575E+02  0.17768529359E+03  0.18241427994E+03  0.47000000000E+01 0.  1.
          5    1    4    4  502    0  0.35588625673E+02 -0.70197620537E+02  0.84283071227E+03  0.84651045815E+03  0.47000000000E+01 0. -1.
         -5    1    4    4    0  502  0.19670239066E+02 -0.68259378154E+02  0.16157254627E+03  0.17656171363E+03  0.47000000000E+01 0. -1.
<mgrwt>
<rscale>  0 0.43431361E+03</rscale>
<asrwt>0</asrwt>
<pdfrwt beam="1">  1       21 0.56125289E+00 0.43431361E+03</pdfrwt>
<pdfrwt beam="2">  1       21 0.19886648E-02 0.43431361E+03</pdfrwt>
<totfact> 0.66412346E+02</totfact>
</mgrwt>
</event>
<event>
 8    1  0.9691636E-006  0.2566297E+03  0.7546771E-02  0.1109185E+00
         21   -1    0    0  504  503  0.00000000000E+00  0.00000000000E+00  0.46029167743E+02  0.46029167743E+02  0.00000000000E+00 0. -1.
         21   -1    0    0  503  504 -0.00000000000E+00 -0.00000000000E+00 -0.35770138128E+03  0.35770138128E+03  0.00000000000E+00 0. -1.
         25    2    1    2    0    0 -0.10466236548E+02  0.26681890440E+02 -0.14913318433E+03  0.19669113629E+03  0.12500092416E+03 0.  0.
         25    2    1    2    0    0  0.10466236548E+02 -0.26681890440E+02 -0.16253902920E+03  0.20703941273E+03  0.12499966810E+03 0.  0.
          5    1    3    3  501    0  0.46376032770E+02  0.52729374108E+01 -0.12063144704E+03  0.12943174379E+03  0.47000000000E+01 0.  1.
         -5    1    3    3    0  501 -0.56842269318E+02  0.21408953029E+02 -0.28501737289E+02  0.67259392501E+02  0.47000000000E+01 0.  1.
          5    1    4    4  502    0  0.44035521017E+02 -0.14633646487E+02 -0.67209810601E+01  0.47122524414E+02  0.47000000000E+01 0. -1.
         -5    1    4    4    0  502 -0.33569284468E+02 -0.12048243952E+02 -0.15581804814E+03  0.15991688831E+03  0.47000000000E+01 0. -1.
<mgrwt>
<rscale>  0 0.25662967E+03</rscale>
<asrwt>0</asrwt>
<pdfrwt beam="1">  1       21 0.70814107E-02 0.25662967E+03</pdfrwt>
<pdfrwt beam="2">  1       21 0.55030980E-01 0.25662967E+03</pdfrwt>
<totfact> 0.45566976E+05</totfact>
</mgrwt>
</event>
<event>
 8    1  0.9691636E-006  0.3386370E+03  0.7546771E-02  0.1067378E+00
         21   -1    0    0  504  503  0.00000000000E+00  0.00000000000E+00  0.14947893944E+03  0.14947893944E+03  0.00000000000E+00 0. -1.
         21   -1    0    0  503  504 -0.00000000000E+00 -0.00000000000E+00 -0.19179126495E+03  0.19179126495E+03  0.00000000000E+00 0. -1.
         25    2    1    2    0    0  0.42033278015E+02  0.50730330061E+02  0.72857309768E+02  0.15898114765E+03  0.12500581935E+03 0.  0.
         25    2    1    2    0    0 -0.42033278015E+02 -0.50730330061E+02 -0.11516963528E+03  0.18228905674E+03  0.12499956987E+03 0.  0.
          5    1    3    3  501    0 -0.17227205172E+02  0.33959022585E+01 -0.27583191447E+02  0.33033788771E+02  0.47000000000E+01 0. -1.
         -5    1    3    3    0  501  0.59260483188E+02  0.47334427803E+02  0.10044050122E+03  0.12594735887E+03  0.47000000000E+01 0. -1.
          5    1    4    4  502    0  0.13488460433E+02 -0.68116284976E+02 -0.10025362398E+03  0.12204362320E+03  0.47000000000E+01 0.  1.
         -5    1    4    4    0  502 -0.55521738448E+02  0.17385954915E+02 -0.14916011303E+02  0.60245433535E+02  0.47000000000E+01 0.  1.
<mgrwt>
<rscale>  0 0.33863700E+03</rscale>
<asrwt>0</asrwt>
<pdfrwt beam="1">  1       21 0.22996760E-01 0.33863700E+03</pdfrwt>
<pdfrwt beam="2">  1       21 0.29506348E-01 0.33863700E+03</pdfrwt>
<totfact> 0.18818573E+05</totfact>
</mgrwt>
</event>
<event>
 8    1  0.9691636E-006  0.2609931E+03  0.7546771E-02  0.1106548E+00
         21   -1    0    0  504  503  0.00000000000E+00  0.00000000000E+00  0.17517653951E+02  0.17517653951E+02  0.00000000000E+00 0. -1.
         21   -1    0    0  503  504 -0.00000000000E+00 -0.00000000000E+00 -0.97212513239E+03  0.97212513239E+03  0.00000000000E+00 0. -1.
         25    2    1    2    0    0 -0.20439483963E+02 -0.28052399133E+02 -0.53114430224E+03  0.54675263292E+03  0.12497784685E+03 0.  0.
         25    2    1    2    0    0  0.20439483963E+02  0.28052399133E+02 -0.42346317620E+03  0.44289015342E+03  0.12500366713E+03 0.  0.
          5    1    3    3  501    0 -0.18657311140E+02 -0.24430689640E+02 -0.23268357998E+02  0.38838902394E+02  0.47000000000E+01 0.  1.
         -5    1    3    3    0  501 -0.17821728232E+01 -0.36217094926E+01 -0.50787594424E+03  0.50791373053E+03  0.47000000000E+01 0.  1.
          5    1    4    4  502    0  0.27436269337E+02  0.72699859037E+02 -0.32876717208E+03  0.33785790182E+03  0.47000000000E+01 0. -1.
         -5    1    4    4    0  502 -0.69967853742E+01 -0.44647459904E+02 -0.94696004119E+02  0.10503225161E+03  0.47000000000E+01 0. -1.
<mgrwt>
<rscale>  0 0.26099312E+03</rscale>
<asrwt>0</asrwt>
<pdfrwt beam="1">  1       21 0.26950240E-02 0.26099312E+03</pdfrwt>
<pdfrwt beam="2">  1       21 0.14955769E+00 0.26099312E+03</pdfrwt>
<totfact> 0.22191981E+05</totfact>
</mgrwt>
</event>
<event>
 8    1  0.9691636E-006  0.4824922E+03  0.7546771E-02  0.1018452E+00
         21   -1    0    0  504  503  0.00000000000E+00  0.00000000000E+00  0.23023385951E+03  0.23023385951E+03  0.00000000000E+00 0. -1.
         21   -1    0    0  503  504 -0.00000000000E+00 -0.00000000000E+00 -0.25278501745E+03  0.25278501745E+03  0.00000000000E+00 0. -1.
         25    2    1    2    0    0 -0.16302387624E+03 -0.54059745848E+02  0.10319328891E+03  0.23616680581E+03  0.12500665961E+03 0.  0.
         25    2    1    2    0    0  0.16302387624E+03  0.54059745848E+02 -0.12574444684E+03  0.24685207115E+03  0.12500015509E+03 0.  0.
          5    1    3    3  501    0 -0.97649015182E+02  0.33240273671E+02  0.49454247555E+02  0.11449043000E+03  0.47000000000E+01 0. -1.
         -5    1    3    3    0  501 -0.65374861055E+02 -0.87300019519E+02  0.53739041353E+02  0.12167637582E+03  0.47000000000E+01 0. -1.
          5    1    4    4  502    0 -0.26542242577E+01  0.25527057349E+02  0.12698494331E+02  0.29017534726E+02  0.47000000000E+01 0.  1.
         -5    1    4    4    0  502  0.16567810049E+03  0.28532688499E+02 -0.13844294117E+03  0.21783453642E+03  0.47000000000E+01 0.  1.
<mgrwt>
<rscale>  0 0.48249216E+03</rscale>
<asrwt>0</asrwt>
<pdfrwt beam="1">  1       21 0.35420594E-01 0.48249216E+03</pdfrwt>
<pdfrwt beam="2">  1       21 0.38890003E-01 0.48249216E+03</pdfrwt>
<totfact> 0.44725638E+04</totfact>
</mgrwt>
</event>
<event>
 8    1  0.9691636E-006  0.3141414E+03  0.7546771E-02  0.1078378E+00
         21   -1    0    0  504  503  0.00000000000E+00  0.00000000000E+00  0.67487428117E+03  0.67487428117E+03  0.00000000000E+00 0. -1.
         21   -1    0    0  503  504 -0.00000000000E+00 -0.00000000000E+00 -0.36556748784E+02  0.36556748784E+02  0.00000000000E+00 0. -1.
         25    2    1    2    0    0 -0.87541448750E+02  0.37135076040E+02  0.31507945507E+03  0.35205750703E+03  0.12500762427E+03 0.  0.
         25    2    1    2    0    0  0.87541448750E+02 -0.37135076040E+02  0.32323807731E+03  0.35937352293E+03  0.12499582086E+03 0.  0.
          5    1    3    3  501    0  0.25325025002E+02  0.30041464849E+02  0.49564681902E+02  0.63423924458E+02  0.47000000000E+01 0. -1.
         -5    1    3    3    0  501 -0.11286647375E+03  0.70936111913E+01  0.26551477317E+03  0.28863358257E+03  0.47000000000E+01 0. -1.
          5    1    4    4  502    0  0.16135668175E+02  0.22387967448E+02  0.21414890549E+03  0.21597088831E+03  0.47000000000E+01 0. -1.
         -5    1    4    4    0  502  0.71405780575E+02 -0.59523043488E+02  0.10908917182E+03  0.14340263461E+03  0.47000000000E+01 0. -1.
<mgrwt>
<rscale>  0 0.31414143E+03</rscale>
<asrwt>0</asrwt>
<pdfrwt beam="1">  1       21 0.10382680E+00 0.31414143E+03</pdfrwt>
<pdfrwt beam="2">  1       21 0.56241157E-02 0.31414143E+03</pdfrwt>
<totfact> 0.15908991E+05</totfact>
</mgrwt>
</event>
<event>
 8    1  0.9691636E-006  0.4961054E+03  0.7546771E-02  0.1014800E+00
         21   -1    0    0  504  503  0.00000000000E+00  0.00000000000E+00  0.77783859521E+02  0.77783859521E+02  0.00000000000E+00 0. -1.
         21   -1    0    0  503  504 -0.00000000000E+00 -0.00000000000E+00 -0.79104009389E+03  0.79104009389E+03  0.00000000000E+00 0. -1.
         25    2    1    2    0    0  0.77701393025E+02  0.65971635262E+02 -0.68668143384E+03  0.70536986255E+03  0.12500195309E+03 0.  0.
         25    2    1    2    0    0 -0.77701393025E+02 -0.65971635262E+02 -0.26574800531E+02  0.16345409086E+03  0.12498502574E+03 0.  0.
          5    1    3    3  501    0 -0.22114012391E+02  0.19617662265E+02 -0.34667752616E+03  0.34796735387E+03  0.47000000000E+01 0.  1.
         -5    1    3    3    0  501  0.99815405415E+02  0.46353972998E+02 -0.34000390768E+03  0.35740250868E+03  0.47000000000E+01 0.  1.
          5    1    4    4  502    0 -0.91893333440E+01  0.28653691993E+02 -0.34801826260E+02  0.46246459574E+02  0.47000000000E+01 0.  1.
         -5    1    4    4    0  502 -0.68512059681E+02 -0.94625327255E+02  0.82270257294E+01  0.11720763129E+03  0.47000000000E+01 0.  1.
<mgrwt>
<rscale>  0 0.49610544E+03</rscale>
<asrwt>0</asrwt>
<pdfrwt beam="1">  1       21 0.11966748E-01 0.49610544E+03</pdfrwt>
<pdfrwt beam="2">  1       21 0.12169847E+00 0.49610544E+03</pdfrwt>
<totfact> 0.26868743E+04</totfact>
</mgrwt>
</event>
<event>
 8    1  0.9691636E-006  0.2572476E+03  0.7546771E-02  0.1108808E+00
         21   -1    0    0  504  503  0.00000000000E+00  0.00000000000E+00  0.15810387675E+02  0.15810387675E+02  0.00000000000E+00 0.  1.
         21   -1    0    0  503  504 -0.00000000000E+00 -0.00000000000E+00 -0.10464056920E+04  0.10464056920E+04  0.00000000000E+00 0.  1.
         25    2    1    2    0    0 -0.19742140372E+02 -0.94046852379E+01 -0.42876643014E+03  0.44715423585E+03  0.12501223465E+03 0.  0.
         25    2    1    2    0    0  0.19742140372E+02  0.94046852379E+01 -0.60182887419E+03  0.61506184383E+03  0.12499951087E+03 0.  0.
          5    1    3    3  501    0  0.44610178636E+02  0.15918558750E+02 -0.94891654295E+02  0.10616018371E+03  0.47000000000E+01 0. -1.
         -5    1    3    3    0  501 -0.64352319008E+02 -0.25323243988E+02 -0.33387477585E+03  0.34099405214E+03  0.47000000000E+01 0. -1.
          5    1    4    4  502    0  0.66563971777E+02  0.32773617597E+02 -0.34809777077E+03  0.35594805852E+03  0.47000000000E+01 0. -1.
         -5    1    4    4    0  502 -0.46821831405E+02 -0.23368932359E+02 -0.25373110343E+03  0.25911378532E+03  0.47000000000E+01 0. -1.
<mgrwt>
<rscale>  0 0.25724758E+03</rscale>
<asrwt>0</asrwt>
<pdfrwt beam="1">  1       21 0.24323666E-02 0.25724758E+03</pdfrwt>
<pdfrwt beam="2">  1       21 0.16098554E+00 0.25724758E+03</pdfrwt>
<totfact> 0.21585796E+05</totfact>
</mgrwt>
</event>
<event>
 8    1  0.9691636E-006  0.2585680E+03  0.7546771E-02  0.1108007E+00
         21   -1    0    0  504  503  0.00000000000E+00  0.00000000000E+00  0.22444338947E+03  0.22444338947E+03  0.00000000000E+00 0. -1.
         21   -1    0    0  503  504 -0.00000000000E+00 -0.00000000000E+00 -0.74470255112E+02  0.74470255112E+02  0.00000000000E+00 0. -1.
         25    2    1    2    0    0  0.10533602170E+02  0.29663127324E+02  0.86551995580E+02  0.15526355261E+03  0.12499865972E+03 0.  0.
         25    2    1    2    0    0 -0.10533602170E+02 -0.29663127324E+02  0.63421138776E+02  0.14365009197E+03  0.12498900025E+03 0.  0.
          5    1    3    3  501    0 -0.13085686164E+02  0.71914305563E+02  0.26280183605E+02  0.77817996487E+02  0.47000000000E+01 0. -1.
         -5    1    3    3    0  501  0.23619288334E+02 -0.42251178239E+02  0.60271811974E+02  0.77445556119E+02  0.47000000000E+01 0. -1.
          5    1    4    4  502    0  0.23373150411E+02 -0.36526412828E+02  0.89839797631E+02  0.99868724997E+02  0.47000000000E+01 0.  1.
         -5    1    4    4    0  502 -0.33906752581E+02  0.68632855039E+01 -0.26418658855E+02  0.43781366975E+02  0.47000000000E+01 0.  1.
<mgrwt>
<rscale>  0 0.25856803E+03</rscale>
<asrwt>0</asrwt>
<pdfrwt beam="1">  1       21 0.34529752E-01 0.25856803E+03</pdfrwt>
<pdfrwt beam="2">  1       21 0.11456962E-01 0.25856803E+03</pdfrwt>
<totfact> 0.50871458E+05</totfact>
</mgrwt>
</event>
<event>
 8    1  0.9691636E-006  0.2613981E+03  0.7546771E-02  0.1106306E+00
         21   -1    0    0  504  503  0.00000000000E+00  0.00000000000E+00  0.60409515698E+03  0.60409515698E+03  0.00000000000E+00 0.  1.
         21   -1    0    0  503  504 -0.00000000000E+00 -0.00000000000E+00 -0.28277392510E+02  0.28277392510E+02  0.00000000000E+00 0.  1.
         25    2    1    2    0    0 -0.34965578994E+02  0.15005857635E+02  0.28050234787E+03  0.30944173300E+03  0.12499940594E+03 0.  0.
         25    2    1    2    0    0  0.34965578994E+02 -0.15005857635E+02  0.29531541660E+03  0.32293081648E+03  0.12500139790E+03 0.  0.
          5    1    3    3  501    0  0.25118545322E+02  0.12105051152E+02  0.22713817600E+03  0.22889149084E+03  0.47000000000E+01 0. -1.
         -5    1    3    3    0  501 -0.60084124315E+02  0.29008064833E+01  0.53364171871E+02  0.80550242162E+02  0.47000000000E+01 0. -1.
          5    1    4    4  502    0  0.61243116402E+02 -0.27301827458E+02  0.75202187837E+02  0.10086410732E+03  0.47000000000E+01 0. -1.
         -5    1    4    4    0  502 -0.26277537408E+02  0.12295969823E+02  0.22011322876E+03  0.22206670917E+03  0.47000000000E+01 0. -1.
<mgrwt>
<rscale>  0 0.26139806E+03</rscale>
<asrwt>0</asrwt>
<pdfrwt beam="1">  1       21 0.92937707E-01 0.26139806E+03</pdfrwt>
<pdfrwt beam="2">  1       21 0.43503685E-02 0.26139806E+03</pdfrwt>
<totfact> 0.32575706E+05</totfact>
</mgrwt>
</event>
<event>
 8    1  0.9691636E-006  0.2704588E+03  0.7546771E-02  0.1101017E+00
         21   -1    0    0  504  503  0.00000000000E+00  0.00000000000E+00  0.64615364089E+03  0.64615364089E+03  0.00000000000E+00 0.  1.
         21   -1    0    0  503  504 -0.00000000000E+00 -0.00000000000E+00 -0.28301293767E+02  0.28301293767E+02  0.00000000000E+00 0.  1.
         25    2    1    2    0    0  0.30611779192E+02 -0.20178410168E+02  0.39933087094E+03  0.42004212051E+03  0.12500395695E+03 0.  0.
         25    2    1    2    0    0 -0.30611779192E+02  0.20178410168E+02  0.21852147617E+03  0.25441281414E+03  0.12501997916E+03 0.  0.
          5    1    3    3  501    0 -0.47819785904E+02  0.33749713129E+01  0.15466737969E+03  0.16199447736E+03  0.47000000000E+01 0.  1.
         -5    1    3    3    0  501  0.78431565097E+02 -0.23553381481E+02  0.24466349125E+03  0.25804764315E+03  0.47000000000E+01 0.  1.
          5    1    4    4  502    0  0.17678250722E+02  0.45508644210E+02  0.28632213090E+02  0.56793053033E+02  0.47000000000E+01 0.  1.
         -5    1    4    4    0  502 -0.48290029914E+02 -0.25330234042E+02  0.18988926309E+03  0.19761976111E+03  0.47000000000E+01 0.  1.
<mgrwt>
<rscale>  0 0.27045875E+03</rscale>
<asrwt>0</asrwt>
<pdfrwt beam="1">  1       21 0.99408242E-01 0.27045875E+03</pdfrwt>
<pdfrwt beam="2">  1       21 0.43540457E-02 0.27045875E+03</pdfrwt>
<totfact> 0.27673424E+05</totfact>
</mgrwt>
</event>
<event>
 8    1  0.9691636E-006  0.3361077E+03  0.7546771E-02  0.1068466E+00
         21   -1    0    0  504  503  0.00000000000E+00  0.00000000000E+00  0.16926410208E+03  0.16926410208E+03  0.00000000000E+00 0. -1.
         21   -1    0    0  503  504 -0.00000000000E+00 -0.00000000000E+00 -0.16685226032E+03  0.16685226032E+03  0.00000000000E+00 0. -1.
         25    2    1    2    0    0 -0.35578582971E+02 -0.95685057737E+02  0.48062996483E+02  0.16839501124E+03  0.12500144935E+03 0.  0.
         25    2    1    2    0    0  0.35578582971E+02  0.95685057737E+02 -0.45651154720E+02  0.16772135116E+03  0.12499983147E+03 0.  0.
          5    1    3    3  501    0 -0.87627015418E+01 -0.10121153696E+03 -0.11818776501E+02  0.10238326831E+03  0.47000000000E+01 0. -1.
         -5    1    3    3    0  501 -0.26815881429E+02  0.55264792186E+01  0.59881772984E+02  0.66011742933E+02  0.47000000000E+01 0. -1.
          5    1    4    4  502    0  0.96324941785E+01 -0.58654604381E+01  0.33912856159E+02  0.36046641773E+02  0.47000000000E+01 0. -1.
         -5    1    4    4    0  502  0.25946088793E+02  0.10155051817E+03 -0.79564010879E+02  0.13167470939E+03  0.47000000000E+01 0. -1.
<mgrwt>
<rscale>  0 0.33610771E+03</rscale>
<asrwt>0</asrwt>
<pdfrwt beam="1">  1       21 0.26040631E-01 0.33610771E+03</pdfrwt>
<pdfrwt beam="2">  1       21 0.25669579E-01 0.33610771E+03</pdfrwt>
<totfact> 0.19449125E+05</totfact>
</mgrwt>
</event>
<event>
 8    1  0.9691636E-006  0.3539800E+03  0.7546771E-02  0.1060993E+00
         21   -1    0    0  504  503  0.00000000000E+00  0.00000000000E+00  0.43919409776E+03  0.43919409776E+03  0.00000000000E+00 0.  1.
         21   -1    0    0  503  504 -0.00000000000E+00 -0.00000000000E+00 -0.71324851557E+02  0.71324851557E+02  0.00000000000E+00 0.  1.
         25    2    1    2    0    0 -0.32810721083E+02  0.67983131970E+02  0.39698652116E+02  0.15132770387E+03  0.12500336527E+03 0.  0.
         25    2    1    2    0    0  0.32810721083E+02 -0.67983131970E+02  0.32817059409E+03  0.35919124545E+03  0.12499664928E+03 0.  0.
          5    1    3    3  501    0  0.23805486296E+02  0.56386253651E+00  0.56576439634E+02  0.61562997331E+02  0.47000000000E+01 0. -1.
         -5    1    3    3    0  501 -0.56616207379E+02  0.67419269433E+02 -0.16877787518E+02  0.89764706541E+02  0.47000000000E+01 0. -1.
          5    1    4    4  502    0  0.24402279309E+02 -0.33929131909E+02  0.15962715625E+02  0.44983947334E+02  0.47000000000E+01 0. -1.
         -5    1    4    4    0  502  0.84084417735E+01 -0.34054000060E+02  0.31220787846E+03  0.31420729811E+03  0.47000000000E+01 0. -1.
<mgrwt>
<rscale>  0 0.35397996E+03</rscale>
<asrwt>0</asrwt>
<pdfrwt beam="1">  1       21 0.67568321E-01 0.35397996E+03</pdfrwt>
<pdfrwt beam="2">  1       21 0.10973054E-01 0.35397996E+03</pdfrwt>
<totfact> 0.13152151E+05</totfact>
</mgrwt>
</event>
<event>
 8    1  0.9691636E-006  0.3004768E+03  0.7546771E-02  0.1085003E+00
         21   -1    0    0  504  503  0.00000000000E+00  0.00000000000E+00  0.23114424716E+03  0.23114424716E+03  0.00000000000E+00 0. -1.
         21   -1    0    0  503  504 -0.00000000000E+00 -0.00000000000E+00 -0.97651477520E+02  0.97651477520E+02  0.00000000000E+00 0. -1.
         25    2    1    2    0    0 -0.16269765590E+02 -0.51200344593E+02 -0.29772625540E+01  0.13609028146E+03  0.12500208021E+03 0.  0.
         25    2    1    2    0    0  0.16269765590E+02  0.51200344593E+02  0.13647003220E+03  0.19270544322E+03  0.12500055040E+03 0.  0.
          5    1    3    3  501    0  0.33462029118E+01  0.30298387514E+02 -0.34621165092E+02  0.46367061932E+02  0.47000000000E+01 0.  1.
         -5    1    3    3    0  501 -0.19615968502E+02 -0.81498732107E+02  0.31643902538E+02  0.89723219532E+02  0.47000000000E+01 0.  1.
          5    1    4    4  502    0  0.67549203891E+02  0.44548765807E+02  0.10243043238E+03  0.13061994855E+03  0.47000000000E+01 0. -1.
         -5    1    4    4    0  502 -0.51279438300E+02  0.66515787866E+01  0.34039599812E+02  0.62085494668E+02  0.47000000000E+01 0. -1.
<mgrwt>
<rscale>  0 0.30047680E+03</rscale>
<asrwt>0</asrwt>
<pdfrwt beam="1">  1       21 0.35560653E-01 0.30047680E+03</pdfrwt>
<pdfrwt beam="2">  1       21 0.15023304E-01 0.30047680E+03</pdfrwt>
<totfact> 0.29084057E+05</totfact>
</mgrwt>
</event>
<event>
 8    1  0.9691636E-006  0.3093080E+03  0.7546771E-02  0.1080678E+00
         21   -1    0    0  504  503  0.00000000000E+00  0.00000000000E+00  0.50805367906E+03  0.50805367906E+03  0.00000000000E+00 0.  1.
         21   -1    0    0  503  504 -0.00000000000E+00 -0.00000000000E+00 -0.47077415755E+02  0.47077415755E+02  0.00000000000E+00 0.  1.
         25    2    1    2    0    0 -0.10833811262E+02  0.88898417525E+02  0.26007856560E+03  0.30213385327E+03  0.12499481948E+03 0.  0.
         25    2    1    2    0    0  0.10833811262E+02 -0.88898417525E+02  0.20089769770E+03  0.25299724155E+03  0.12500967636E+03 0.  0.
          5    1    3    3  501    0  0.31887424041E+02  0.53552975562E+02  0.23108175039E+03  0.23938586919E+03  0.47000000000E+01 0.  1.
         -5    1    3    3    0  501 -0.42721235303E+02  0.35345441963E+02  0.28996815217E+02  0.62747984080E+02  0.47000000000E+01 0.  1.
          5    1    4    4  502    0  0.29437090762E+02 -0.11621314630E+03  0.14911894582E+03  0.19139119020E+03  0.47000000000E+01 0. -1.
         -5    1    4    4    0  502 -0.18603279500E+02  0.27314728772E+02  0.51778751876E+02  0.61606051342E+02  0.47000000000E+01 0. -1.
<mgrwt>
<rscale>  0 0.30930796E+03</rscale>
<asrwt>0</asrwt>
<pdfrwt beam="1">  1       21 0.78162101E-01 0.30930796E+03</pdfrwt>
<pdfrwt beam="2">  1       21 0.72426797E-02 0.30930796E+03</pdfrwt>
<totfact> 0.20004201E+05</totfact>
</mgrwt>
</event>
<event>
 8    1  0.9691636E-006  0.2704590E+03  0.7546771E-02  0.1101017E+00
         21   -1    0    0  504  503  0.00000000000E+00  0.00000000000E+00  0.36640253400E+02  0.36640253400E+02  0.00000000000E+00 0. -1.
         21   -1    0    0  503  504 -0.00000000000E+00 -0.00000000000E+00 -0.49909623750E+03  0.49909623750E+03  0.00000000000E+00 0. -1.
         25    2    1    2    0    0 -0.29978216089E+02  0.40276581368E+02 -0.20794970238E+03  0.24778008904E+03  0.12502398711E+03 0.  0.
         25    2    1    2    0    0  0.29978216089E+02 -0.40276581368E+02 -0.25450628171E+03  0.28795640186E+03  0.12499818197E+03 0.  0.
          5    1    3    3  501    0 -0.39307056092E+02  0.82077242612E+02 -0.15104221769E+03  0.17640170049E+03  0.47000000000E+01 0. -1.
         -5    1    3    3    0  501  0.93288400024E+01 -0.41800661244E+02 -0.56907484697E+02  0.71378388541E+02  0.47000000000E+01 0. -1.
          5    1    4    4  502    0  0.70328727914E+02  0.65959266125E+01 -0.11146813888E+03  0.13204874935E+03  0.47000000000E+01 0.  1.
         -5    1    4    4    0  502 -0.40350511825E+02 -0.46872507980E+02 -0.14303814283E+03  0.15590765251E+03  0.47000000000E+01 0.  1.
<mgrwt>
<rscale>  0 0.27045896E+03</rscale>
<asrwt>0</asrwt>
<pdfrwt beam="1">  1       21 0.56369622E-02 0.27045896E+03</pdfrwt>
<pdfrwt beam="2">  1       21 0.76784034E-01 0.27045896E+03</pdfrwt>
<totfact> 0.32445852E+05</totfact>
</mgrwt>
</event>
<event>
 8    1  0.9691636E-006  0.2726655E+03  0.7546771E-02  0.1099764E+00
         21   -1    0    0  504  503  0.00000000000E+00  0.00000000000E+00  0.96794521148E+01  0.96794521148E+01  0.00000000000E+00 0.  1.
         21   -1    0    0  503  504 -0.00000000000E+00 -0.00000000000E+00 -0.19202132416E+04  0.19202132416E+04  0.00000000000E+00 0.  1.
         25    2    1    2    0    0 -0.71246585530E+01 -0.31089785316E+02 -0.12674916611E+04  0.12740380573E+04  0.12498209857E+03 0.  0.
         25    2    1    2    0    0  0.71246585530E+01  0.31089785316E+02 -0.64304212833E+03  0.65585463637E+03  0.12499915890E+03 0.  0.
          5    1    3    3  501    0  0.83112465934E+01  0.17774781521E+02 -0.34455693672E+02  0.39928742836E+02  0.47000000000E+01 0.  1.
         -5    1    3    3    0  501 -0.15435905146E+02 -0.48864566836E+02 -0.12330359674E+04  0.12341093145E+04  0.47000000000E+01 0.  1.
          5    1    4    4  502    0  0.79195795834E+01 -0.76682022955E+01 -0.58930777272E+03  0.58942960738E+03  0.47000000000E+01 0.  1.
         -5    1    4    4    0  502 -0.79492103036E+00  0.38757987611E+02 -0.53734355612E+02  0.66425028989E+02  0.47000000000E+01 0.  1.
<mgrwt>
<rscale>  0 0.27266545E+03</rscale>
<asrwt>0</asrwt>
<pdfrwt beam="1">  1       21 0.14891466E-02 0.27266545E+03</pdfrwt>
<pdfrwt beam="2">  1       21 0.29541740E+00 0.27266545E+03</pdfrwt>
<totfact> 0.67905869E+04</totfact>
</mgrwt>
</event>
<event>
 8    1  0.9691636E-006  0.2787191E+03  0.7546771E-02  0.1096391E+00
         21   -1    0    0  504  503  0.00000000000E+00  0.00000000000E+00  0.18054379157E+03  0.18054379157E+03  0.00000000000E+00 0.  1.
         21   -1    0    0  503  504 -0.00000000000E+00 -0.00000000000E+00 -0.10756993083E+03  0.10756993083E+03  0.00000000000E+00 0.  1.
         25    2    1    2    0    0 -0.49325693995E+01  0.59570782593E+02  0.51907090834E+02  0.14796792146E+03  0.12500860500E+03 0.  0.
         25    2    1    2    0    0  0.49325693995E+01 -0.59570782593E+02  0.21066769914E+02  0.14014580094E+03  0.12499611333E+03 0.  0.
          5    1    3    3  501    0  0.11582426478E+02 -0.67559456708E+01  0.74486723035E+02  0.75829791728E+02  0.47000000000E+01 0.  1.
         -5    1    3    3    0  501 -0.16514995877E+02  0.66326728264E+02 -0.22579632201E+02  0.72138129732E+02  0.47000000000E+01 0.  1.
          5    1    4    4  502    0 -0.88880191534E+01  0.24537703288E+02  0.44339798059E+02  0.51664334497E+02  0.47000000000E+01 0. -1.
         -5    1    4    4    0  502  0.13820588553E+02 -0.84108485881E+02 -0.23273028145E+02  0.88481466444E+02  0.47000000000E+01 0. -1.
<mgrwt>
<rscale>  0 0.27871909E+03</rscale>
<asrwt>0</asrwt>
<pdfrwt beam="1">  1       21 0.27775968E-01 0.27871909E+03</pdfrwt>
<pdfrwt beam="2">  1       21 0.16549220E-01 0.27871909E+03</pdfrwt>
<totfact> 0.39833400E+05</totfact>
</mgrwt>
</event>
<event>
 8    1  0.9691636E-006  0.2585604E+03  0.7546771E-02  0.1108011E+00
         21   -1    0    0  504  503  0.00000000000E+00  0.00000000000E+00  0.38632059774E+03  0.38632059774E+03  0.00000000000E+00 0.  1.
         21   -1    0    0  503  504 -0.00000000000E+00 -0.00000000000E+00 -0.43262943187E+02  0.43262943187E+02  0.00000000000E+00 0.  1.
         25    2    1    2    0    0  0.30963252670E+02  0.39318689102E+01  0.18951373517E+03  0.22914909101E+03  0.12497866812E+03 0.  0.
         25    2    1    2    0    0 -0.30963252670E+02 -0.39318689102E+01  0.15354391938E+03  0.20043444992E+03  0.12499620364E+03 0.  0.
          5    1    3    3  501    0 -0.20505044204E+02 -0.12840474904E+02 -0.67085342384E+01  0.25542691033E+02  0.47000000000E+01 0. -1.
         -5    1    3    3    0  501  0.51468296874E+02  0.16772343814E+02  0.19622226941E+03  0.20360639998E+03  0.47000000000E+01 0. -1.
          5    1    4    4  502    0  0.16850470702E+02 -0.20632554675E+01  0.15127852649E+03  0.15230061708E+03  0.47000000000E+01 0.  1.
         -5    1    4    4    0  502 -0.47813723372E+02 -0.18686134427E+01  0.22653928956E+01  0.48133832840E+02  0.47000000000E+01 0.  1.
<mgrwt>
<rscale>  0 0.25856037E+03</rscale>
<asrwt>0</asrwt>
<pdfrwt beam="1">  1       21 0.59433936E-01 0.25856037E+03</pdfrwt>
<pdfrwt beam="2">  1       21 0.66558377E-02 0.25856037E+03</pdfrwt>
<totfact> 0.43004624E+05</totfact>
</mgrwt>
</event>
<event>
 8    1  0.9691636E-006  0.3510702E+03  0.7546771E-02  0.1062177E+00
         21   -1    0    0  504  503  0.00000000000E+00  0.00000000000E+00  0.78219123984E+03  0.78219123984E+03  0.00000000000E+00 0.  1.
         21   -1    0    0  503  504 -0.00000000000E+00 -0.00000000000E+00 -0.39392637547E+02  0.39392637547E+02  0.00000000000E+00 0.  1.
         25    2    1    2    0    0 -0.58873197872E+02 -0.69296729703E+02  0.17674041531E+03  0.23480000335E+03  0.12500310795E+03 0.  0.
         25    2    1    2    0    0  0.58873197872E+02  0.69296729703E+02  0.56605818698E+03  0.58678387403E+03  0.12500141438E+03 0.  0.
          5    1    3    3  501    0 -0.64987215346E+02 -0.41242431525E+02  0.18831153279E+03  0.20348857388E+03  0.47000000000E+01 0.  1.
         -5    1    3    3    0  501  0.61140174743E+01 -0.28054298179E+02 -0.11571117485E+02  0.31311429476E+02  0.47000000000E+01 0.  1.
          5    1    4    4  502    0  0.73540716035E+02  0.23758165699E+02  0.49483200089E+03  0.50085275925E+03  0.47000000000E+01 0.  1.
         -5    1    4    4    0  502 -0.14667518163E+02  0.45538564005E+02  0.71226186098E+02  0.85931114777E+02  0.47000000000E+01 0.  1.
<mgrwt>
<rscale>  0 0.35107023E+03</rscale>
<asrwt>0</asrwt>
<pdfrwt beam="1">  1       21 0.12033710E+00 0.35107023E+03</pdfrwt>
<pdfrwt beam="2">  1       21 0.60604064E-02 0.35107023E+03</pdfrwt>
<totfact> 0.96169990E+04</totfact>
</mgrwt>
</event>
<event>
 8    1  0.9691636E-006  0.2735386E+03  0.7546771E-02  0.1099271E+00
         21   -1    0    0  504  503  0.00000000000E+00  0.00000000000E+00  0.59113955304E+03  0.59113955304E+03  0.00000000000E+00 0.  1.
         21   -1    0    0  503  504 -0.00000000000E+00 -0.00000000000E+00 -0.31643687836E+02  0.31643687836E+02  0.00000000000E+00 0.  1.
         25    2    1    2    0    0 -0.29967367613E+00  0.19154458408E+02  0.39837069164E+03  0.41796008277E+03  0.12499775898E+03 0.  0.
         25    2    1    2    0    0  0.29967367613E+00 -0.19154458408E+02  0.16112517356E+03  0.20482315810E+03  0.12499688580E+03 0.  0.
          5    1    3    3  501    0  0.71900738191E+01 -0.52828446732E+02  0.15270908504E+03  0.16181686129E+03  0.47000000000E+01 0.  1.
         -5    1    3    3    0  501 -0.74897474952E+01  0.71982905140E+02  0.24566160661E+03  0.25614322148E+03  0.47000000000E+01 0.  1.
          5    1    4    4  502    0  0.21223424713E+02  0.33839063307E+01  0.17082477373E+03  0.17223553030E+03  0.47000000000E+01 0. -1.
         -5    1    4    4    0  502 -0.20923751037E+02 -0.22538364739E+02 -0.96996001656E+01  0.32587627805E+02  0.47000000000E+01 0. -1.
<mgrwt>
<rscale>  0 0.27353856E+03</rscale>
<asrwt>0</asrwt>
<pdfrwt beam="1">  1       21 0.90944538E-01 0.27353856E+03</pdfrwt>
<pdfrwt beam="2">  1       21 0.48682601E-02 0.27353856E+03</pdfrwt>
<totfact> 0.28227393E+05</totfact>
</mgrwt>
</event>
<event>
 8    1  0.9691636E-006  0.3000605E+03  0.7546771E-02  0.1085210E+00
         21   -1    0    0  504  503  0.00000000000E+00  0.00000000000E+00  0.99544020598E+02  0.99544020598E+02  0.00000000000E+00 0.  1.
         21   -1    0    0  503  504 -0.00000000000E+00 -0.00000000000E+00 -0.22612188710E+03  0.22612188710E+03  0.00000000000E+00 0.  1.
         25    2    1    2    0    0 -0.34972884789E+02 -0.62409017465E+02 -0.10888711084E+03  0.18055174595E+03  0.12499816770E+03 0.  0.
         25    2    1    2    0    0  0.34972884789E+02  0.62409017465E+02 -0.17690755664E+02  0.14511416175E+03  0.12500867559E+03 0.  0.
          5    1    3    3  501    0  0.17419392196E+02 -0.84542191585E+02 -0.58098272022E+02  0.10415525236E+03  0.47000000000E+01 0. -1.
         -5    1    3    3    0  501 -0.52392276985E+02  0.22133174120E+02 -0.50788838820E+02  0.76396493591E+02  0.47000000000E+01 0. -1.
          5    1    4    4  502    0  0.54187556292E+02  0.21432722175E+02 -0.59432828688E+02  0.83366683769E+02  0.47000000000E+01 0.  1.
         -5    1    4    4    0  502 -0.19214671503E+02  0.40976295290E+02  0.41742073024E+02  0.61747477981E+02  0.47000000000E+01 0.  1.
<mgrwt>
<rscale>  0 0.30006054E+03</rscale>
<asrwt>0</asrwt>
<pdfrwt beam="1">  1       21 0.15314465E-01 0.30006054E+03</pdfrwt>
<pdfrwt beam="2">  1       21 0.34787982E-01 0.30006054E+03</pdfrwt>
<totfact> 0.29342094E+05</totfact>
</mgrwt>
</event>
<event>
 8    1  0.9691636E-006  0.2712711E+03  0.7546771E-02  0.1100554E+00
         21   -1    0    0  504  503  0.00000000000E+00  0.00000000000E+00  0.41402695087E+02  0.41402695087E+02  0.00000000000E+00 0. -1.
         21   -1    0    0  503  504 -0.00000000000E+00 -0.00000000000E+00 -0.44434318472E+03  0.44434318472E+03  0.00000000000E+00 0. -1.
         25    2    1    2    0    0  0.62964561713E+01  0.45310172432E+02 -0.15472242992E+03  0.20409132771E+03  0.12498632981E+03 0.  0.
         25    2    1    2    0    0 -0.62964561713E+01 -0.45310172432E+02 -0.24821805972E+03  0.28165455210E+03  0.12499769783E+03 0.  0.
          5    1    3    3  501    0  0.52913988499E+01 -0.26101268971E+02 -0.12276395271E+03  0.12570741119E+03  0.47000000000E+01 0. -1.
         -5    1    3    3    0  501  0.10050573214E+01  0.71411441403E+02 -0.31958477210E+02  0.78383916520E+02  0.47000000000E+01 0. -1.
          5    1    4    4  502    0  0.44508431081E+02 -0.13973122388E+02 -0.30693689449E+02  0.56039639172E+02  0.47000000000E+01 0.  1.
         -5    1    4    4    0  502 -0.50804887252E+02 -0.31337050043E+02 -0.21752437027E+03  0.22561491293E+03  0.47000000000E+01 0.  1.
<mgrwt>
<rscale>  0 0.27127112E+03</rscale>
<asrwt>0</asrwt>
<pdfrwt beam="1">  1       21 0.63696452E-02 0.27127112E+03</pdfrwt>
<pdfrwt beam="2">  1       21 0.68360492E-01 0.27127112E+03</pdfrwt>
<totfact> 0.34082885E+05</totfact>
</mgrwt>
</event>
<event>
 8    1  0.9691636E-006  0.3174543E+03  0.7546771E-02  0.1076827E+00
         21   -1    0    0  504  503  0.00000000000E+00  0.00000000000E+00  0.89638030417E+02  0.89638030417E+02  0.00000000000E+00 0. -1.
         21   -1    0    0  503  504 -0.00000000000E+00 -0.00000000000E+00 -0.28106717026E+03  0.28106717026E+03  0.00000000000E+00 0. -1.
         25    2    1    2    0    0 -0.46041315338E+02 -0.81507813099E+02 -0.62526015152E+02  0.16820675562E+03  0.12498273381E+03 0.  0.
         25    2    1    2    0    0  0.46041315338E+02  0.81507813099E+02 -0.12890312469E+03  0.20249844506E+03  0.12500511342E+03 0.  0.
          5    1    3    3  501    0  0.18911568391E+02 -0.71682108720E+02 -0.69818424236E+02  0.10194446769E+03  0.47000000000E+01 0. -1.
         -5    1    3    3    0  501 -0.64952883729E+02 -0.98257043788E+01  0.72924090834E+01  0.66262287929E+02  0.47000000000E+01 0. -1.
          5    1    4    4  502    0 -0.18198676475E+01 -0.39420264148E+01 -0.10009703832E+03  0.10030133883E+03  0.47000000000E+01 0. -1.
         -5    1    4    4    0  502  0.47861182986E+02  0.85449839513E+02 -0.28806086368E+02  0.10219710623E+03  0.47000000000E+01 0. -1.
<mgrwt>
<rscale>  0 0.31745430E+03</rscale>
<asrwt>0</asrwt>
<pdfrwt beam="1">  1       21 0.13790466E-01 0.31745430E+03</pdfrwt>
<pdfrwt beam="2">  1       21 0.43241103E-01 0.31745430E+03</pdfrwt>
<totfact> 0.22769343E+05</totfact>
</mgrwt>
</event>
<event>
 8    1  0.9691636E-006  0.4293664E+03  0.7546771E-02  0.1034060E+00
         21   -1    0    0  504  503  0.00000000000E+00  0.00000000000E+00  0.13828402959E+03  0.13828402959E+03  0.00000000000E+00 0. -1.
         21   -1    0    0  503  504 -0.00000000000E+00 -0.00000000000E+00 -0.33329131293E+03  0.33329131293E+03  0.00000000000E+00 0. -1.
         25    2    1    2    0    0 -0.42422168997E+02  0.15471350359E+03 -0.17311806221E+03  0.26707849775E+03  0.12500060752E+03 0.  0.
         25    2    1    2    0    0  0.42422168997E+02 -0.15471350359E+03 -0.21889221121E+02  0.20449684476E+03  0.12491562312E+03 0.  0.
          5    1    3    3  501    0 -0.39009290826E+02  0.15490845954E+03 -0.19055419607E+03  0.24869931091E+03  0.47000000000E+01 0.  1.
         -5    1    3    3    0  501 -0.34128781709E+01 -0.19495594409E+00  0.17436133855E+02  0.18379186844E+02  0.47000000000E+01 0.  1.
          5    1    4    4  502    0 -0.16394774560E+02 -0.13316986784E+03  0.88805378972E+01  0.13455094309E+03  0.47000000000E+01 0.  1.
         -5    1    4    4    0  502  0.58816943557E+02 -0.21543635757E+02 -0.30769759018E+02  0.69945901675E+02  0.47000000000E+01 0.  1.
<mgrwt>
<rscale>  0 0.42936635E+03</rscale>
<asrwt>0</asrwt>
<pdfrwt beam="1">  1       21 0.21274466E-01 0.42936635E+03</pdfrwt>
<pdfrwt beam="2">  1       21 0.51275587E-01 0.42936635E+03</pdfrwt>
<totfact> 0.69149446E+04</totfact>
</mgrwt>
</event>
<event>
 8    1  0.9691636E-006  0.3523578E+03  0.7546771E-02  0.1061651E+00
         21   -1    0    0  504  503  0.00000000000E+00  0.00000000000E+00  0.20908435894E+02  0.20908435894E+02  0.00000000000E+00 0. -1.
         21   -1    0    0  503  504 -0.00000000000E+00 -0.00000000000E+00 -0.14845210524E+04  0.14845210524E+04  0.00000000000E+00 0. -1.
         25    2    1    2    0    0  0.27500237837E+02 -0.11243235708E+03 -0.92371533715E+03  0.93929317388E+03  0.12499737764E+03 0.  0.
         25    2    1    2    0    0 -0.27500237837E+02  0.11243235708E+03 -0.53989727937E+03  0.56613631442E+03  0.12499582490E+03 0.  0.
          5    1    3    3  501    0  0.39106757785E+02 -0.66903192415E+02 -0.83667492427E+03  0.84026923932E+03  0.47000000000E+01 0.  1.
         -5    1    3    3    0  501 -0.11606519948E+02 -0.45529164663E+02 -0.87040412882E+02  0.99023934555E+02  0.47000000000E+01 0.  1.
          5    1    4    4  502    0  0.40343912205E+02  0.27213605417E+02 -0.82273417697E+02  0.95703797372E+02  0.47000000000E+01 0. -1.
         -5    1    4    4    0  502 -0.67844150042E+02  0.85218751660E+02 -0.45762386167E+03  0.47043251705E+03  0.47000000000E+01 0. -1.
<mgrwt>
<rscale>  0 0.35235785E+03</rscale>
<asrwt>0</asrwt>
<pdfrwt beam="1">  1       21 0.32166822E-02 0.35235785E+03</pdfrwt>
<pdfrwt beam="2">  1       21 0.22838787E+00 0.35235785E+03</pdfrwt>
<totfact> 0.46231414E+04</totfact>
</mgrwt>
</event>
<event>
 8    1  0.9691636E-006  0.4586082E+03  0.7546771E-02  0.1025186E+00
         21   -1    0    0  504  503  0.00000000000E+00  0.00000000000E+00  0.16468315745E+04  0.16468315745E+04  0.00000000000E+00 0.  1.
         21   -1    0    0  503  504 -0.00000000000E+00 -0.00000000000E+00 -0.31928201384E+02  0.31928201384E+02  0.00000000000E+00 0.  1.
         25    2    1    2    0    0 -0.14791133388E+03  0.89563286786E+02  0.49995985816E+03  0.54358360189E+03  0.12499570970E+03 0.  0.
         25    2    1    2    0    0  0.14791133388E+03 -0.89563286786E+02  0.11149435149E+04  0.11351761740E+04  0.12500623756E+03 0.  0.
          5    1    3    3  501    0 -0.46507574526E+02  0.68263132068E+02  0.35996747188E+03  0.36935278596E+03  0.47000000000E+01 0.  1.
         -5    1    3    3    0  501 -0.10140375935E+03  0.21300154718E+02  0.13999238628E+03  0.17423081593E+03  0.47000000000E+01 0.  1.
          5    1    4    4  502    0  0.11890991679E+03 -0.68274977061E+02  0.10629938177E+04  0.10718110782E+04  0.47000000000E+01 0.  1.
         -5    1    4    4    0  502  0.29001417089E+02 -0.21288309725E+02  0.51949697234E+02  0.63365095809E+02  0.47000000000E+01 0.  1.
<mgrwt>
<rscale>  0 0.45860820E+03</rscale>
<asrwt>0</asrwt>
<pdfrwt beam="1">  1       21 0.25335864E+00 0.45860820E+03</pdfrwt>
<pdfrwt beam="2">  1       21 0.49120323E-02 0.45860820E+03</pdfrwt>
<totfact> 0.15131318E+04</totfact>
</mgrwt>
</event>
<event>
 8    1  0.9691636E-006  0.3766466E+03  0.7546771E-02  0.1052180E+00
         21   -1    0    0  504  503  0.00000000000E+00  0.00000000000E+00  0.21633041997E+03  0.21633041997E+03  0.00000000000E+00 0.  1.
         21   -1    0    0  503  504 -0.00000000000E+00 -0.00000000000E+00 -0.16394208752E+03  0.16394208752E+03  0.00000000000E+00 0.  1.
         25    2    1    2    0    0 -0.11483620540E+03  0.48960269966E+02  0.92057330674E+02  0.19920855990E+03  0.12500014440E+03 0.  0.
         25    2    1    2    0    0  0.11483620540E+03 -0.48960269966E+02 -0.39668998223E+02  0.18106394760E+03  0.12500424631E+03 0.  0.
          5    1    3    3  501    0 -0.25427294148E+02 -0.21940301525E+01  0.92521482995E+02  0.96092017731E+02  0.47000000000E+01 0. -1.
         -5    1    3    3    0  501 -0.89408911248E+02  0.51154300119E+02 -0.46415232139E+00  0.10311654217E+03  0.47000000000E+01 0. -1.
          5    1    4    4  502    0  0.53495374141E+02  0.31654716290E+02 -0.48912380235E+02  0.79235642600E+02  0.47000000000E+01 0.  1.
         -5    1    4    4    0  502  0.61340831256E+02 -0.80614986257E+02  0.92433820122E+01  0.10182830500E+03  0.47000000000E+01 0.  1.
<mgrwt>
<rscale>  0 0.37664658E+03</rscale>
<asrwt>0</asrwt>
<pdfrwt beam="1">  1       21 0.33281603E-01 0.37664658E+03</pdfrwt>
<pdfrwt beam="2">  1       21 0.25221860E-01 0.37664658E+03</pdfrwt>
<totfact> 0.12300344E+05</totfact>
</mgrwt>
</event>
<event>
 8    1  0.9691636E-006  0.3709300E+03  0.7546771E-02  0.1054338E+00
         21   -1    0    0  504  503  0.00000000000E+00  0.00000000000E+00  0.52956767784E+02  0.52956767784E+02  0.00000000000E+00 0. -1.
         21   -1    0    0  503  504 -0.00000000000E+00 -0.00000000000E+00 -0.64953479765E+03  0.64953479765E+03  0.00000000000E+00 0. -1.
         25    2    1    2    0    0 -0.26996101499E+02  0.23906565726E+02 -0.54862652511E+03  0.56384058521E+03  0.12499931240E+03 0.  0.
         25    2    1    2    0    0  0.26996101499E+02 -0.23906565726E+02 -0.47951504761E+02  0.13865098022E+03  0.12499773649E+03 0.  0.
          5    1    3    3  501    0 -0.46883634603E+02 -0.26030195227E+02 -0.11622743570E+03  0.12808806762E+03  0.47000000000E+01 0.  1.
         -5    1    3    3    0  501  0.19887533104E+02  0.49936760954E+02 -0.43239908941E+03  0.43575251759E+03  0.47000000000E+01 0.  1.
          5    1    4    4  502    0  0.55854986955E+02 -0.57298325571E+02 -0.11017176686E+02  0.80909491799E+02  0.47000000000E+01 0. -1.
         -5    1    4    4    0  502 -0.28858885455E+02  0.33391759845E+02 -0.36934328074E+02  0.57741488425E+02  0.47000000000E+01 0. -1.
<mgrwt>
<rscale>  0 0.37092999E+03</rscale>
<asrwt>0</asrwt>
<pdfrwt beam="1">  1       21 0.81471949E-02 0.37092999E+03</pdfrwt>
<pdfrwt beam="2">  1       21 0.99928433E-01 0.37092999E+03</pdfrwt>
<totfact> 0.90138830E+04</totfact>
</mgrwt>
</event>
<event>
 8    1  0.9691636E-006  0.2790231E+03  0.7546771E-02  0.1096224E+00
         21   -1    0    0  504  503  0.00000000000E+00  0.00000000000E+00  0.18767523501E+03  0.18767523501E+03  0.00000000000E+00 0. -1.
         21   -1    0    0  503  504 -0.00000000000E+00 -0.00000000000E+00 -0.10370826644E+03  0.10370826644E+03  0.00000000000E+00 0. -1.
         25    2    1    2    0    0 -0.45410482297E+02 -0.41427316650E+02  0.50044667872E+02  0.14801198450E+03  0.12499897722E+03 0.  0.
         25    2    1    2    0    0  0.45410482297E+02  0.41427316650E+02  0.33922300702E+02  0.14337151695E+03  0.12500533956E+03 0.  0.
          5    1    3    3  501    0 -0.10394427110E+02  0.49227336665E+01  0.81050711301E+02  0.81997470839E+02  0.47000000000E+01 0.  1.
         -5    1    3    3    0  501 -0.35016055187E+02 -0.46350050316E+02 -0.31006043429E+02  0.66014513664E+02  0.47000000000E+01 0.  1.
          5    1    4    4  502    0 -0.11948769909E+02 -0.15539563334E+02 -0.32764620881E+02  0.38468968175E+02  0.47000000000E+01 0. -1.
         -5    1    4    4    0  502  0.57359252206E+02  0.56966879984E+02  0.66686921584E+02  0.10490254877E+03  0.47000000000E+01 0. -1.
<mgrwt>
<rscale>  0 0.27902310E+03</rscale>
<asrwt>0</asrwt>
<pdfrwt beam="1">  1       21 0.28873113E-01 0.27902310E+03</pdfrwt>
<pdfrwt beam="2">  1       21 0.15955118E-01 0.27902310E+03</pdfrwt>
<totfact> 0.39510091E+05</totfact>
</mgrwt>
</event>
<event>
 8    1  0.9691636E-006  0.3494369E+03  0.7546771E-02  0.1062846E+00
         21   -1    0    0  504  503  0.00000000000E+00  0.00000000000E+00  0.70892926218E+02  0.70892926218E+02  0.00000000000E+00 0. -1.
         21   -1    0    0  503  504 -0.00000000000E+00 -0.00000000000E+00 -0.43060063796E+03  0.43060063796E+03  0.00000000000E+00 0. -1.
         25    2    1    2    0    0 -0.18399939818E+01  0.90140086684E+02 -0.61738921069E+02  0.16602589322E+03  0.12499712813E+03 0.  0.
         25    2    1    2    0    0  0.18399939818E+01 -0.90140086684E+02 -0.29796879067E+03  0.33546767095E+03  0.12499814893E+03 0.  0.
          5    1    3    3  501    0 -0.29334142698E+02  0.65030169392E+02 -0.92913595710E+02  0.11723668848E+03  0.47000000000E+01 0. -1.
         -5    1    3    3    0  501  0.27494148717E+02  0.25109917293E+02  0.31174674641E+02  0.48789204739E+02  0.47000000000E+01 0. -1.
          5    1    4    4  502    0  0.19959944459E+02 -0.43723522144E+02 -0.27704191453E+03  0.28121959068E+03  0.47000000000E+01 0. -1.
         -5    1    4    4    0  502 -0.18119950477E+02 -0.46416564540E+02 -0.20926876138E+02  0.54248080278E+02  0.47000000000E+01 0. -1.
<mgrwt>
<rscale>  0 0.34943691E+03</rscale>
<asrwt>0</asrwt>
<pdfrwt beam="1">  1       21 0.10906604E-01 0.34943691E+03</pdfrwt>
<pdfrwt beam="2">  1       21 0.66246253E-01 0.34943691E+03</pdfrwt>
<totfact> 0.13907330E+05</totfact>
</mgrwt>
</event>
<event>
 8    1  0.9691636E-006  0.3088859E+03  0.7546771E-02  0.1080881E+00
         21   -1    0    0  504  503  0.00000000000E+00  0.00000000000E+00  0.61676951127E+03  0.61676951127E+03  0.00000000000E+00 0. -1.
         21   -1    0    0  503  504 -0.00000000000E+00 -0.00000000000E+00 -0.38673480741E+02  0.38673480741E+02  0.00000000000E+00 0. -1.
         25    2    1    2    0    0 -0.65473043434E+02  0.39426778426E+02  0.39269984026E+03  0.41914147108E+03  0.12500087185E+03 0.  0.
         25    2    1    2    0    0  0.65473043434E+02 -0.39426778426E+02  0.18539619026E+03  0.23630152093E+03  0.12500188461E+03 0.  0.
          5    1    3    3  501    0  0.37403804983E+02  0.60255121797E+01  0.10825272679E+03  0.11478716950E+03  0.47000000000E+01 0. -1.
         -5    1    3    3    0  501 -0.10287684842E+03  0.33401266246E+02  0.28444711347E+03  0.30435430158E+03  0.47000000000E+01 0. -1.
          5    1    4    4  502    0  0.88421087341E+02  0.56361697649E+01  0.80694717738E+02  0.11993240833E+03  0.47000000000E+01 0. -1.
         -5    1    4    4    0  502 -0.22948043906E+02 -0.45062948191E+02  0.10470147253E+03  0.11636911260E+03  0.47000000000E+01 0. -1.
<mgrwt>
<rscale>  0 0.30888589E+03</rscale>
<asrwt>0</asrwt>
<pdfrwt beam="1">  1       21 0.94887610E-01 0.30888589E+03</pdfrwt>
<pdfrwt beam="2">  1       21 0.59497667E-02 0.30888589E+03</pdfrwt>
<totfact> 0.17943704E+05</totfact>
</mgrwt>
</event>
<event>
 8    1  0.9691636E-006  0.2590018E+03  0.7546771E-02  0.1107744E+00
         21   -1    0    0  504  503  0.00000000000E+00  0.00000000000E+00  0.62972113063E+02  0.62972113063E+02  0.00000000000E+00 0.  1.
         21   -1    0    0  503  504 -0.00000000000E+00 -0.00000000000E+00 -0.26631610279E+03  0.26631610279E+03  0.00000000000E+00 0.  1.
         25    2    1    2    0    0  0.10024705882E+02  0.31077475337E+01 -0.14255220210E+03  0.18988426169E+03  0.12499899876E+03 0.  0.
         25    2    1    2    0    0 -0.10024705882E+02 -0.31077475337E+01 -0.60791787628E+02  0.13940395417E+03  0.12501067223E+03 0.  0.
          5    1    3    3  501    0  0.49117894340E+02  0.45826788415E+02 -0.76920962846E+02  0.10223300155E+03  0.47000000000E+01 0.  1.
         -5    1    3    3    0  501 -0.39093188458E+02 -0.42719040881E+02 -0.65631239258E+02  0.87651260140E+02  0.47000000000E+01 0.  1.
          5    1    4    4  502    0  0.55894739932E+02  0.12059418008E+02 -0.32444343398E+02  0.65911887648E+02  0.47000000000E+01 0.  1.
         -5    1    4    4    0  502 -0.65919445814E+02 -0.15167165542E+02 -0.28347444229E+02  0.73492066520E+02  0.47000000000E+01 0.  1.
<mgrwt>
<rscale>  0 0.25900184E+03</rscale>
<asrwt>0</asrwt>
<pdfrwt beam="1">  1       21 0.96880176E-02 0.25900184E+03</pdfrwt>
<pdfrwt beam="2">  1       21 0.40971707E-01 0.25900184E+03</pdfrwt>
<totfact> 0.48588544E+05</totfact>
</mgrwt>
</event>
<event>
 8    1  0.9691636E-006  0.3683550E+03  0.7546771E-02  0.1055324E+00
         21   -1    0    0  504  503  0.00000000000E+00  0.00000000000E+00  0.63384387301E+03  0.63384387301E+03  0.00000000000E+00 0. -1.
         21   -1    0    0  503  504 -0.00000000000E+00 -0.00000000000E+00 -0.53516881018E+02  0.53516881018E+02  0.00000000000E+00 0. -1.
         25    2    1    2    0    0 -0.12618103864E+03 -0.36861788230E+02  0.23069731826E+03  0.29347369607E+03  0.12500044677E+03 0.  0.
         25    2    1    2    0    0  0.12618103864E+03  0.36861788230E+02  0.34962967374E+03  0.39388705796E+03  0.12500263887E+03 0.  0.
          5    1    3    3  501    0 -0.70177304547E+02 -0.47678934938E+02  0.39146680975E+02  0.93555799081E+02  0.47000000000E+01 0. -1.
         -5    1    3    3    0  501 -0.56003734092E+02  0.10817146707E+02  0.19155063728E+03  0.19991789699E+03  0.47000000000E+01 0. -1.
          5    1    4    4  502    0  0.29186535438E+02 -0.45032255374E+02  0.11789512630E+03  0.12961909072E+03  0.47000000000E+01 0. -1.
         -5    1    4    4    0  502  0.96994503201E+02  0.81894043604E+02  0.23173454744E+03  0.26426796724E+03  0.47000000000E+01 0. -1.
<mgrwt>
<rscale>  0 0.36835498E+03</rscale>
<asrwt>0</asrwt>
<pdfrwt beam="1">  1       21 0.97514437E-01 0.36835498E+03</pdfrwt>
<pdfrwt beam="2">  1       21 0.82333668E-02 0.36835498E+03</pdfrwt>
<totfact> 0.93896836E+04</totfact>
</mgrwt>
</event>
<event>
 8    1  0.9691636E-006  0.3040778E+03  0.7546771E-02  0.1083220E+00
         21   -1    0    0  504  503  0.00000000000E+00  0.00000000000E+00  0.99034730632E+02  0.99034730632E+02  0.00000000000E+00 0.  1.
         21   -1    0    0  503  504 -0.00000000000E+00 -0.00000000000E+00 -0.23341138815E+03  0.23341138815E+03  0.00000000000E+00 0.  1.
         25    2    1    2    0    0 -0.61879606433E+02  0.18291435503E+02 -0.13025715022E+03  0.19171700518E+03  0.12499929035E+03 0.  0.
         25    2    1    2    0    0  0.61879606433E+02 -0.18291435503E+02 -0.41195072974E+01  0.14072911360E+03  0.12499620302E+03 0.  0.
          5    1    3    3  501    0 -0.95545735165E+02 -0.43359492997E+00 -0.11603533887E+03  0.15038439207E+03  0.47000000000E+01 0. -1.
         -5    1    3    3    0  501  0.33666128732E+02  0.18725030433E+02 -0.14221811355E+02  0.41332613113E+02  0.47000000000E+01 0. -1.
          5    1    4    4  502    0 -0.25257391013E+02 -0.40356883241E+02 -0.14824449397E+02  0.50084609668E+02  0.47000000000E+01 0.  1.
         -5    1    4    4    0  502  0.87136997445E+02  0.22065447738E+02  0.10704942100E+02  0.90644503932E+02  0.47000000000E+01 0.  1.
<mgrwt>
<rscale>  0 0.30407784E+03</rscale>
<asrwt>0</asrwt>
<pdfrwt beam="1">  1       21 0.15236112E-01 0.30407784E+03</pdfrwt>
<pdfrwt beam="2">  1       21 0.35909444E-01 0.30407784E+03</pdfrwt>
<totfact> 0.27770044E+05</totfact>
</mgrwt>
</event>
<event>
 8    1  0.9691636E-006  0.2595903E+03  0.7546771E-02  0.1107390E+00
         21   -1    0    0  504  503  0.00000000000E+00  0.00000000000E+00  0.10002121642E+03  0.10002121642E+03  0.00000000000E+00 0. -1.
         21   -1    0    0  503  504 -0.00000000000E+00 -0.00000000000E+00 -0.16843205680E+03  0.16843205680E+03  0.00000000000E+00 0. -1.
         25    2    1    2    0    0 -0.25514405325E+02  0.11852554701E+02 -0.55526720857E+02  0.13968398884E+03  0.12504771920E+03 0.  0.
         25    2    1    2    0    0  0.25514405325E+02 -0.11852554701E+02 -0.12884119528E+02  0.12876928438E+03  0.12499624047E+03 0.  0.
          5    1    3    3  501    0 -0.60541720242E+02  0.34705538663E+02 -0.66159400400E+02  0.96275285328E+02  0.47000000000E+01 0. -1.
         -5    1    3    3    0  501  0.35027314917E+02 -0.22852983962E+02  0.10632679543E+02  0.43408703511E+02  0.47000000000E+01 0. -1.
          5    1    4    4  502    0 -0.55302030189E+01  0.45723545818E+02  0.25425910218E+02  0.52818488221E+02  0.47000000000E+01 0.  1.
         -5    1    4    4    0  502  0.31044608344E+02 -0.57576100519E+02 -0.38310029746E+02  0.75950796160E+02  0.47000000000E+01 0.  1.
<mgrwt>
<rscale>  0 0.25959029E+03</rscale>
<asrwt>0</asrwt>
<pdfrwt beam="1">  1       21 0.15387879E-01 0.25959029E+03</pdfrwt>
<pdfrwt beam="2">  1       21 0.25912624E-01 0.25959029E+03</pdfrwt>
<totfact> 0.52294270E+05</totfact>
</mgrwt>
</event>
<event>
 8    1  0.9691636E-006  0.3845073E+03  0.7546771E-02  0.1049280E+00
         21   -1    0    0  504  503  0.00000000000E+00  0.00000000000E+00  0.93510751015E+03  0.93510751015E+03  0.00000000000E+00 0.  1.
         21   -1    0    0  503  504 -0.00000000000E+00 -0.00000000000E+00 -0.39526440171E+02  0.39526440171E+02  0.00000000000E+00 0.  1.
         25    2    1    2    0    0 -0.38454482521E+02 -0.12348054662E+03  0.61987729684E+03  0.64544527664E+03  0.12500219750E+03 0.  0.
         25    2    1    2    0    0  0.38454482521E+02  0.12348054662E+03  0.27570377313E+03  0.32918867368E+03  0.12500567883E+03 0.  0.
          5    1    3    3  501    0  0.12065008891E+01  0.14667537536E+02  0.90211190257E+01  0.17890301570E+02  0.47000000000E+01 0.  1.
         -5    1    3    3    0  501 -0.39660983410E+02 -0.13814808415E+03  0.61085617782E+03  0.62755497507E+03  0.47000000000E+01 0.  1.
          5    1    4    4  502    0 -0.31823457157E+02  0.50268315710E+02  0.17992776764E+03  0.18956721119E+03  0.47000000000E+01 0.  1.
         -5    1    4    4    0  502  0.70277939678E+02  0.73212230906E+02  0.95776005496E+02  0.13962146249E+03  0.47000000000E+01 0.  1.
<mgrwt>
<rscale>  0 0.38450733E+03</rscale>
<asrwt>0</asrwt>
<pdfrwt beam="1">  1       21 0.14386268E+00 0.38450733E+03</pdfrwt>
<pdfrwt beam="2">  1       21 0.60809915E-02 0.38450733E+03</pdfrwt>
<totfact> 0.59631873E+04</totfact>
</mgrwt>
</event>
<event>
 8    1  0.9691636E-006  0.2575077E+03  0.7546771E-02  0.1108650E+00
         21   -1    0    0  504  503  0.00000000000E+00  0.00000000000E+00  0.46261701038E+02  0.46261701038E+02  0.00000000000E+00 0.  1.
         21   -1    0    0  503  504 -0.00000000000E+00 -0.00000000000E+00 -0.35834290677E+03  0.35834290677E+03  0.00000000000E+00 0.  1.
         25    2    1    2    0    0 -0.27959053605E+02 -0.77285605806E+01 -0.13936032964E+03  0.18944179310E+03  0.12500180867E+03 0.  0.
         25    2    1    2    0    0  0.27959053605E+02  0.77285605806E+01 -0.17272087610E+03  0.21516281471E+03  0.12498438489E+03 0.  0.
          5    1    3    3  501    0 -0.67544820054E+02 -0.11855474478E+02 -0.33940302759E+02  0.76660871001E+02  0.47000000000E+01 0. -1.
         -5    1    3    3    0  501  0.39585766449E+02  0.41269138974E+01 -0.10542002688E+03  0.11278092210E+03  0.47000000000E+01 0. -1.
          5    1    4    4  502    0  0.13105880340E+02 -0.32722022152E+02 -0.16781237852E+03  0.17153885629E+03  0.47000000000E+01 0.  1.
         -5    1    4    4    0  502  0.14853173265E+02  0.40450582733E+02 -0.49084975801E+01  0.43623958417E+02  0.47000000000E+01 0.  1.
<mgrwt>
<rscale>  0 0.25750769E+03</rscale>
<asrwt>0</asrwt>
<pdfrwt beam="1">  1       21 0.71171847E-02 0.25750769E+03</pdfrwt>
<pdfrwt beam="2">  1       21 0.55129679E-01 0.25750769E+03</pdfrwt>
<totfact> 0.44989475E+05</totfact>
</mgrwt>
</event>
<event>
 8    1  0.9691636E-006  0.4054166E+03  0.7546771E-02  0.1041920E+00
         21   -1    0    0  504  503  0.00000000000E+00  0.00000000000E+00  0.89523717611E+03  0.89523717611E+03  0.00000000000E+00 0. -1.
         21   -1    0    0  503  504 -0.00000000000E+00 -0.00000000000E+00 -0.45899193202E+02  0.45899193202E+02  0.00000000000E+00 0. -1.
         25    2    1    2    0    0 -0.46436832849E+02 -0.26068275797E+02  0.75459545381E+02  0.15541937871E+03  0.12500042337E+03 0.  0.
         25    2    1    2    0    0  0.46436832849E+02  0.26068275797E+02  0.77387843753E+03  0.78571699061E+03  0.12500967484E+03 0.  0.
          5    1    3    3  501    0  0.16304334789E+02 -0.11023985315E+02 -0.27306911937E+02  0.33987012588E+02  0.47000000000E+01 0. -1.
         -5    1    3    3    0  501 -0.62741167637E+02 -0.15044290482E+02  0.10276645732E+03  0.12143236612E+03  0.47000000000E+01 0. -1.
          5    1    4    4  502    0 -0.23407686404E+01 -0.30886626719E+02  0.58124983842E+02  0.66030800802E+02  0.47000000000E+01 0.  1.
         -5    1    4    4    0  502  0.48777601489E+02  0.56954902516E+02  0.71575345369E+03  0.71968618980E+03  0.47000000000E+01 0.  1.
<mgrwt>
<rscale>  0 0.40541665E+03</rscale>
<asrwt>0</asrwt>
<pdfrwt beam="1">  1       21 0.13772878E+00 0.40541665E+03</pdfrwt>
<pdfrwt beam="2">  1       21 0.70614150E-02 0.40541665E+03</pdfrwt>
<totfact> 0.51258286E+04</totfact>
</mgrwt>
</event>
<event>
 8    1  0.9691636E-006  0.3047119E+03  0.7546771E-02  0.1082909E+00
         21   -1    0    0  504  503  0.00000000000E+00  0.00000000000E+00  0.72705160623E+02  0.72705160623E+02  0.00000000000E+00 0. -1.
         21   -1    0    0  503  504 -0.00000000000E+00 -0.00000000000E+00 -0.31926677296E+03  0.31926677296E+03  0.00000000000E+00 0. -1.
         25    2    1    2    0    0  0.75302051376E+01 -0.82226592499E+02 -0.87528113945E+02  0.17349362942E+03  0.12498380781E+03 0.  0.
         25    2    1    2    0    0 -0.75302051376E+01  0.82226592499E+02 -0.15903349839E+03  0.21847830417E+03  0.12499279690E+03 0.  0.
          5    1    3    3  501    0  0.26584838688E+02 -0.70582956259E+02  0.73344797748E+01  0.75924909983E+02  0.47000000000E+01 0. -1.
         -5    1    3    3    0  501 -0.19054633550E+02 -0.11643636240E+02 -0.94862593720E+02  0.97568719433E+02  0.47000000000E+01 0. -1.
          5    1    4    4  502    0  0.32936249750E+02 -0.29134722181E+01  0.17198542759E+00  0.33397671281E+02  0.47000000000E+01 0. -1.
         -5    1    4    4    0  502 -0.40466454888E+02  0.85140064717E+02 -0.15920548382E+03  0.18508063289E+03  0.47000000000E+01 0. -1.
<mgrwt>
<rscale>  0 0.30471194E+03</rscale>
<asrwt>0</asrwt>
<pdfrwt beam="1">  1       21 0.11185409E-01 0.30471194E+03</pdfrwt>
<pdfrwt beam="2">  1       21 0.49117966E-01 0.30471194E+03</pdfrwt>
<totfact> 0.25585521E+05</totfact>
</mgrwt>
</event>
<event>
 8    1  0.9691636E-006  0.4076395E+03  0.7546771E-02  0.1041166E+00
         21   -1    0    0  504  503  0.00000000000E+00  0.00000000000E+00  0.51804857990E+02  0.51804857990E+02  0.00000000000E+00 0.  1.
         21   -1    0    0  503  504 -0.00000000000E+00 -0.00000000000E+00 -0.80190353976E+03  0.80190353976E+03  0.00000000000E+00 0.  1.
         25    2    1    2    0    0  0.10813142757E+03  0.10194102938E+03 -0.50471344397E+03  0.54078193358E+03  0.12500024024E+03 0.  0.
         25    2    1    2    0    0 -0.10813142757E+03 -0.10194102938E+03 -0.24538523779E+03  0.31292646417E+03  0.12499871179E+03 0.  0.
          5    1    3    3  501    0  0.28451417461E+02 -0.28167108757E+02 -0.13217494527E+03  0.13818529346E+03  0.47000000000E+01 0. -1.
         -5    1    3    3    0  501  0.79680010113E+02  0.13010813814E+03 -0.37253849870E+03  0.40259664012E+03  0.47000000000E+01 0. -1.
          5    1    4    4  502    0 -0.16364656799E+02  0.21008637672E+02 -0.46759898148E+01  0.27443026978E+02  0.47000000000E+01 0. -1.
         -5    1    4    4    0  502 -0.91766770775E+02 -0.12294966705E+03 -0.24070924798E+03  0.28548343719E+03  0.47000000000E+01 0. -1.
<mgrwt>
<rscale>  0 0.40763954E+03</rscale>
<asrwt>0</asrwt>
<pdfrwt beam="1">  1       21 0.79699782E-02 0.40763954E+03</pdfrwt>
<pdfrwt beam="2">  1       21 0.12336977E+00 0.40763954E+03</pdfrwt>
<totfact> 0.55044621E+04</totfact>
</mgrwt>
</event>
<event>
 8    1  0.9691636E-006  0.5446370E+03  0.7546771E-02  0.1002743E+00
         21   -1    0    0  504  503  0.00000000000E+00  0.00000000000E+00  0.21777272011E+03  0.21777272011E+03  0.00000000000E+00 0.  1.
         21   -1    0    0  503  504 -0.00000000000E+00 -0.00000000000E+00 -0.34052646847E+03  0.34052646847E+03  0.00000000000E+00 0.  1.
         25    2    1    2    0    0 -0.18159489934E+02 -0.42682732831E+02  0.18202452245E+03  0.22563266435E+03  0.12500235875E+03 0.  0.
         25    2    1    2    0    0  0.18159489934E+02  0.42682732831E+02 -0.30477827082E+03  0.33266652423E+03  0.12500255686E+03 0.  0.
          5    1    3    3  501    0 -0.24044721942E+01  0.26630994260E+02 -0.30514964004E+01  0.27320193485E+02  0.47000000000E+01 0.  1.
         -5    1    3    3    0  501 -0.15755017739E+02 -0.69313727091E+02  0.18507601885E+03  0.19831247087E+03  0.47000000000E+01 0.  1.
          5    1    4    4  502    0 -0.46146550098E+02 -0.63965926680E+01 -0.16049526553E+03  0.16718624567E+03  0.47000000000E+01 0. -1.
         -5    1    4    4    0  502  0.64306040032E+02  0.49079325499E+02 -0.14428300529E+03  0.16548027856E+03  0.47000000000E+01 0. -1.
<mgrwt>
<rscale>  0 0.54463704E+03</rscale>
<asrwt>0</asrwt>
<pdfrwt beam="1">  1       21 0.33503496E-01 0.54463704E+03</pdfrwt>
<pdfrwt beam="2">  1       21 0.52388687E-01 0.54463704E+03</pdfrwt>
<totfact> 0.26422836E+04</totfact>
</mgrwt>
</event>
<event>
 8    1  0.9691636E-006  0.4569508E+03  0.7546771E-02  0.1025669E+00
         21   -1    0    0  504  503  0.00000000000E+00  0.00000000000E+00  0.54703750226E+03  0.54703750226E+03  0.00000000000E+00 0. -1.
         21   -1    0    0  503  504 -0.00000000000E+00 -0.00000000000E+00 -0.95424898987E+02  0.95424898987E+02  0.00000000000E+00 0. -1.
         25    2    1    2    0    0 -0.32980808267E+02  0.15480440591E+03  0.37672877342E+03  0.42732201968E+03  0.12500960752E+03 0.  0.
         25    2    1    2    0    0  0.32980808267E+02 -0.15480440591E+03  0.74883829847E+02  0.21514038157E+03  0.12500263199E+03 0.  0.
          5    1    3    3  501    0  0.39118541126E+02  0.10743853542E+03  0.19489322351E+03  0.22600610108E+03  0.47000000000E+01 0.  1.
         -5    1    3    3    0  501 -0.72099349393E+02  0.47365870490E+02  0.18183554991E+03  0.20131591860E+03  0.47000000000E+01 0.  1.
          5    1    4    4  502    0 -0.15331788422E+01 -0.69196508428E+01  0.62091529592E+02  0.62671207521E+02  0.47000000000E+01 0.  1.
         -5    1    4    4    0  502  0.34513987109E+02 -0.14788475507E+03  0.12792300255E+02  0.15246917404E+03  0.47000000000E+01 0.  1.
<mgrwt>
<rscale>  0 0.45695076E+03</rscale>
<asrwt>0</asrwt>
<pdfrwt beam="1">  1       21 0.84159614E-01 0.45695076E+03</pdfrwt>
<pdfrwt beam="2">  1       21 0.14680754E-01 0.45695076E+03</pdfrwt>
<totfact> 0.45792739E+04</totfact>
</mgrwt>
</event>
<event>
 8    1  0.9691636E-006  0.2717733E+03  0.7546771E-02  0.1100269E+00
         21   -1    0    0  504  503  0.00000000000E+00  0.00000000000E+00  0.69671612723E+02  0.69671612723E+02  0.00000000000E+00 0. -1.
         21   -1    0    0  503  504 -0.00000000000E+00 -0.00000000000E+00 -0.26503160609E+03  0.26503160609E+03  0.00000000000E+00 0. -1.
         25    2    1    2    0    0  0.13314024957E+01  0.52507248190E+02 -0.10880503954E+03  0.17384391569E+03  0.12499754657E+03 0.  0.
         25    2    1    2    0    0 -0.13314024957E+01 -0.52507248190E+02 -0.86554953833E+02  0.16085930312E+03  0.12500068649E+03 0.  0.
          5    1    3    3  501    0 -0.11487039407E+02 -0.38376706738E+02 -0.16469464826E+02  0.43566695606E+02  0.47000000000E+01 0. -1.
         -5    1    3    3    0  501  0.12818441902E+02  0.90883954929E+02 -0.92335574711E+02  0.13027722009E+03  0.47000000000E+01 0. -1.
          5    1    4    4  502    0  0.80829540427E+01 -0.91764007455E+02 -0.44632621254E+02  0.10247013267E+03  0.47000000000E+01 0.  1.
         -5    1    4    4    0  502 -0.94143565384E+01  0.39256759264E+02 -0.41922332578E+02  0.58389170449E+02  0.47000000000E+01 0.  1.
<mgrwt>
<rscale>  0 0.27177328E+03</rscale>
<asrwt>0</asrwt>
<pdfrwt beam="1">  1       21 0.10718710E-01 0.27177328E+03</pdfrwt>
<pdfrwt beam="2">  1       21 0.40774093E-01 0.27177328E+03</pdfrwt>
<totfact> 0.40886308E+05</totfact>
</mgrwt>
</event>
<event>
 8    1  0.9691636E-006  0.4227607E+03  0.7546771E-02  0.1036172E+00
         21   -1    0    0  504  503  0.00000000000E+00  0.00000000000E+00  0.19997403548E+03  0.19997403548E+03  0.00000000000E+00 0.  1.
         21   -1    0    0  503  504 -0.00000000000E+00 -0.00000000000E+00 -0.22343728051E+03  0.22343728051E+03  0.00000000000E+00 0.  1.
         25    2    1    2    0    0 -0.79490149408E+00  0.44696384166E+02  0.15300384690E+03  0.20258427208E+03  0.12502724304E+03 0.  0.
         25    2    1    2    0    0  0.79490149408E+00 -0.44696384166E+02 -0.17646709193E+03  0.22082704391E+03  0.12500220062E+03 0.  0.
          5    1    3    3  501    0 -0.50677966395E+02 -0.41433713323E+01  0.10780063736E+03  0.11928323947E+03  0.47000000000E+01 0. -1.
         -5    1    3    3    0  501  0.49883064901E+02  0.48839755498E+02  0.45203209539E+02  0.83301032608E+02  0.47000000000E+01 0. -1.
          5    1    4    4  502    0  0.28035555220E+02  0.36789923472E+02 -0.55990993327E+02  0.72777552579E+02  0.47000000000E+01 0. -1.
         -5    1    4    4    0  502 -0.27240653726E+02 -0.81486307638E+02 -0.12047609860E+03  0.14804949133E+03  0.47000000000E+01 0. -1.
<mgrwt>
<rscale>  0 0.42276071E+03</rscale>
<asrwt>0</asrwt>
<pdfrwt beam="1">  1       21 0.30765236E-01 0.42276071E+03</pdfrwt>
<pdfrwt beam="2">  1       21 0.34374966E-01 0.42276071E+03</pdfrwt>
<totfact> 0.77266858E+04</totfact>
</mgrwt>
</event>
<event>
 8    1  0.9691636E-006  0.2944013E+03  0.7546771E-02  0.1088073E+00
         21   -1    0    0  504  503  0.00000000000E+00  0.00000000000E+00  0.37939060307E+03  0.37939060307E+03  0.00000000000E+00 0.  1.
         21   -1    0    0  503  504 -0.00000000000E+00 -0.00000000000E+00 -0.57112718517E+02  0.57112718517E+02  0.00000000000E+00 0.  1.
         25    2    1    2    0    0  0.64754924794E+02 -0.21227239919E+02  0.10557463924E+03  0.17721804552E+03  0.12496573614E+03 0.  0.
         25    2    1    2    0    0 -0.64754924794E+02  0.21227239919E+02  0.21670324531E+03  0.25928527607E+03  0.12499904742E+03 0.  0.
          5    1    3    3  501    0  0.74794677834E+02  0.12548812094E+02  0.11732141372E+03  0.13977882756E+03  0.47000000000E+01 0. -1.
         -5    1    3    3    0  501 -0.10039753040E+02 -0.33776052012E+02 -0.11746774480E+02  0.37439217959E+02  0.47000000000E+01 0. -1.
          5    1    4    4  502    0  0.11440569140E+02  0.21907148744E+02  0.16540680254E+03  0.16730902580E+03  0.47000000000E+01 0.  1.
         -5    1    4    4    0  502 -0.76195493934E+02 -0.67990882472E+00  0.51296442774E+02  0.91976250266E+02  0.47000000000E+01 0.  1.
<mgrwt>
<rscale>  0 0.29440128E+03</rscale>
<asrwt>0</asrwt>
<pdfrwt beam="1">  1       21 0.58367784E-01 0.29440128E+03</pdfrwt>
<pdfrwt beam="2">  1       21 0.87865723E-02 0.29440128E+03</pdfrwt>
<totfact> 0.27303891E+05</totfact>
</mgrwt>
</event>
<event>
 8    1  0.9691636E-006  0.3280688E+03  0.7546771E-02  0.1071995E+00
         21   -1    0    0  504  503  0.00000000000E+00  0.00000000000E+00  0.12817519947E+03  0.12817519947E+03  0.00000000000E+00 0. -1.
         21   -1    0    0  503  504 -0.00000000000E+00 -0.00000000000E+00 -0.20992578998E+03  0.20992578998E+03  0.00000000000E+00 0. -1.
         25    2    1    2    0    0 -0.59265190593E+02 -0.78512646414E+02 -0.82034011576E+02  0.17896853884E+03  0.12499424137E+03 0.  0.
         25    2    1    2    0    0  0.59265190593E+02  0.78512646414E+02  0.28342107101E+00  0.15913245062E+03  0.12508580275E+03 0.  0.
          5    1    3    3  501    0 -0.79910292112E+02 -0.17548184127E+02 -0.79813803383E+02  0.11439373568E+03  0.47000000000E+01 0. -1.
         -5    1    3    3    0  501  0.20645101520E+02 -0.60964462287E+02 -0.22202081936E+01  0.64574803160E+02  0.47000000000E+01 0. -1.
          5    1    4    4  502    0  0.77292904455E+02  0.10240071229E+03 -0.45066841530E+01  0.12846205338E+03  0.47000000000E+01 0.  1.
         -5    1    4    4    0  502 -0.18027713862E+02 -0.23888065877E+02  0.47901052240E+01  0.30670397234E+02  0.47000000000E+01 0.  1.
<mgrwt>
<rscale>  0 0.32806877E+03</rscale>
<asrwt>0</asrwt>
<pdfrwt beam="1">  1       21 0.19719262E-01 0.32806877E+03</pdfrwt>
<pdfrwt beam="2">  1       21 0.32296275E-01 0.32806877E+03</pdfrwt>
<totfact> 0.21128105E+05</totfact>
</mgrwt>
</event>
<event>
 8    1  0.9691636E-006  0.2686735E+03  0.7546771E-02  0.1102041E+00
         21   -1    0    0  504  503  0.00000000000E+00  0.00000000000E+00  0.55567790603E+02  0.55567790603E+02  0.00000000000E+00 0.  1.
         21   -1    0    0  503  504 -0.00000000000E+00 -0.00000000000E+00 -0.32476295467E+03  0.32476295467E+03  0.00000000000E+00 0.  1.
         25    2    1    2    0    0 -0.40710554108E+02  0.27086108975E+02 -0.12681181351E+03  0.18465531129E+03  0.12500136569E+03 0.  0.
         25    2    1    2    0    0  0.40710554108E+02 -0.27086108975E+02 -0.14238335055E+03  0.19567543398E+03  0.12499940174E+03 0.  0.
          5    1    3    3  501    0 -0.29845099941E+02 -0.24936124640E+02  0.77224139833E+01  0.39928260422E+02  0.47000000000E+01 0. -1.
         -5    1    3    3    0  501 -0.10865454166E+02  0.52022233615E+02 -0.13453422750E+03  0.14472705087E+03  0.47000000000E+01 0. -1.
          5    1    4    4  502    0  0.22278386266E+02 -0.76051470574E+02 -0.10288446487E+03  0.12995174405E+03  0.47000000000E+01 0. -1.
         -5    1    4    4    0  502  0.18432167841E+02  0.48965361598E+02 -0.39498885686E+02  0.65723689932E+02  0.47000000000E+01 0. -1.
<mgrwt>
<rscale>  0 0.26867348E+03</rscale>
<asrwt>0</asrwt>
<pdfrwt beam="1">  1       21 0.85488911E-02 0.26867348E+03</pdfrwt>
<pdfrwt beam="2">  1       21 0.49963530E-01 0.26867348E+03</pdfrwt>
<totfact> 0.40114681E+05</totfact>
</mgrwt>
</event>
<event>
 8    1  0.9691636E-006  0.3068342E+03  0.7546771E-02  0.1081873E+00
         21   -1    0    0  504  503  0.00000000000E+00  0.00000000000E+00  0.26391498199E+03  0.26391498199E+03  0.00000000000E+00 0.  1.
         21   -1    0    0  503  504 -0.00000000000E+00 -0.00000000000E+00 -0.89183302589E+02  0.89183302589E+02  0.00000000000E+00 0.  1.
         25    2    1    2    0    0  0.49824773871E+02 -0.70342491249E+02  0.11257829298E+03  0.18902377618E+03  0.12500216695E+03 0.  0.
         25    2    1    2    0    0 -0.49824773871E+02  0.70342491249E+02  0.62153386421E+02  0.16407450840E+03  0.12500730658E+03 0.  0.
          5    1    3    3  501    0 -0.34876577752E+02 -0.54101103240E+02  0.58581768218E+02  0.87162025074E+02  0.47000000000E+01 0.  1.
         -5    1    3    3    0  501  0.84701351623E+02 -0.16241388009E+02  0.53996524761E+02  0.10186175110E+03  0.47000000000E+01 0.  1.
          5    1    4    4  502    0 -0.49825015177E+02  0.10372098904E+03  0.61058888709E+02  0.13034896852E+03  0.47000000000E+01 0.  1.
         -5    1    4    4    0  502  0.24130554536E-03 -0.33378497791E+02  0.10944977111E+01  0.33725539878E+02  0.47000000000E+01 0.  1.
<mgrwt>
<rscale>  0 0.30683422E+03</rscale>
<asrwt>0</asrwt>
<pdfrwt beam="1">  1       21 0.40602305E-01 0.30683422E+03</pdfrwt>
<pdfrwt beam="2">  1       21 0.13720508E-01 0.30683422E+03</pdfrwt>
<totfact> 0.26216470E+05</totfact>
</mgrwt>
</event>
<event>
 8    1  0.9691636E-006  0.2761610E+03  0.7546771E-02  0.1097804E+00
         21   -1    0    0  504  503  0.00000000000E+00  0.00000000000E+00  0.12180560533E+04  0.12180560533E+04  0.00000000000E+00 0.  1.
         21   -1    0    0  503  504 -0.00000000000E+00 -0.00000000000E+00 -0.15652992198E+02  0.15652992198E+02  0.00000000000E+00 0.  1.
         25    2    1    2    0    0  0.78159987820E+01  0.32486973058E+02  0.38580889292E+03  0.40692659784E+03  0.12499704365E+03 0.  0.
         25    2    1    2    0    0 -0.78159987820E+01 -0.32486973058E+02  0.81659416823E+03  0.82678244770E+03  0.12500674775E+03 0.  0.
          5    1    3    3  501    0  0.57653888085E+02 -0.25407386544E+01  0.26837586467E+03  0.27455076198E+03  0.47000000000E+01 0.  1.
         -5    1    3    3    0  501 -0.49837889303E+02  0.35027711712E+02  0.11743302825E+03  0.13237583586E+03  0.47000000000E+01 0.  1.
          5    1    4    4  502    0 -0.62425428185E+01 -0.76378994889E+02  0.64663942343E+03  0.65118150629E+03  0.47000000000E+01 0.  1.
         -5    1    4    4    0  502 -0.15734559635E+01  0.43892021831E+02  0.16995474480E+03  0.17560094141E+03  0.47000000000E+01 0.  1.
<mgrwt>
<rscale>  0 0.27616098E+03</rscale>
<asrwt>0</asrwt>
<pdfrwt beam="1">  1       21 0.18739316E+00 0.27616098E+03</pdfrwt>
<pdfrwt beam="2">  1       21 0.24081536E-02 0.27616098E+03</pdfrwt>
<totfact> 0.14203218E+05</totfact>
</mgrwt>
</event>
<event>
 8    1  0.9691636E-006  0.3513565E+03  0.7546771E-02  0.1062060E+00
         21   -1    0    0  504  503  0.00000000000E+00  0.00000000000E+00  0.63719295436E+03  0.63719295436E+03  0.00000000000E+00 0. -1.
         21   -1    0    0  503  504 -0.00000000000E+00 -0.00000000000E+00 -0.48435642517E+02  0.48435642517E+02  0.00000000000E+00 0. -1.
         25    2    1    2    0    0 -0.32572445596E+02 -0.11427077720E+03  0.22907725062E+03  0.28673971225E+03  0.12499800437E+03 0.  0.
         25    2    1    2    0    0  0.32572445596E+02  0.11427077720E+03  0.35968006122E+03  0.39888888463E+03  0.12499528433E+03 0.  0.
          5    1    3    3  501    0  0.41108244788E+02 -0.22360730439E+02  0.31310992027E+02  0.56500958196E+02  0.47000000000E+01 0.  1.
         -5    1    3    3    0  501 -0.73680690384E+02 -0.91910046759E+02  0.19776625859E+03  0.23023875405E+03  0.47000000000E+01 0.  1.
          5    1    4    4  502    0 -0.29811907462E+01  0.12433384223E+03  0.32492063441E+03  0.34794151877E+03  0.47000000000E+01 0.  1.
         -5    1    4    4    0  502  0.35553636342E+02 -0.10063065030E+02  0.34759426812E+02  0.50947365852E+02  0.47000000000E+01 0.  1.
<mgrwt>
<rscale>  0 0.35135651E+03</rscale>
<asrwt>0</asrwt>
<pdfrwt beam="1">  1       21 0.98029679E-01 0.35135651E+03</pdfrwt>
<pdfrwt beam="2">  1       21 0.74516378E-02 0.35135651E+03</pdfrwt>
<totfact> 0.11099736E+05</totfact>
</mgrwt>
</event>
<event>
 8    1  0.9691636E-006  0.2546394E+03  0.7546771E-02  0.1110407E+00
         21   -1    0    0  504  503  0.00000000000E+00  0.00000000000E+00  0.32205522423E+02  0.32205522423E+02  0.00000000000E+00 0.  1.
         21   -1    0    0  503  504 -0.00000000000E+00 -0.00000000000E+00 -0.50333947262E+03  0.50333947262E+03  0.00000000000E+00 0.  1.
         25    2    1    2    0    0 -0.17365376118E+02  0.16247935638E+02 -0.24528831866E+03  0.27632629848E+03  0.12499724901E+03 0.  0.
         25    2    1    2    0    0  0.17365376118E+02 -0.16247935638E+02 -0.22584563154E+03  0.25921869657E+03  0.12499012627E+03 0.  0.
          5    1    3    3  501    0 -0.26607709799E+01 -0.40199690089E+02 -0.19497920670E+03  0.19915339774E+03  0.47000000000E+01 0.  1.
         -5    1    3    3    0  501 -0.14704605138E+02  0.56447625728E+02 -0.50309111959E+02  0.77172900740E+02  0.47000000000E+01 0.  1.
          5    1    4    4  502    0  0.55212931366E+02 -0.10600420643E+02 -0.39362734928E+02  0.68792089726E+02  0.47000000000E+01 0. -1.
         -5    1    4    4    0  502 -0.37847555249E+02 -0.56475149951E+01 -0.18648289661E+03  0.19042660684E+03  0.47000000000E+01 0. -1.
<mgrwt>
<rscale>  0 0.25463944E+03</rscale>
<asrwt>0</asrwt>
<pdfrwt beam="1">  1       21 0.49546960E-02 0.25463944E+03</pdfrwt>
<pdfrwt beam="2">  1       21 0.77436839E-01 0.25463944E+03</pdfrwt>
<totfact> 0.39833123E+05</totfact>
</mgrwt>
</event>
<event>
 8    1  0.9691636E-006  0.3839168E+03  0.7546771E-02  0.1049496E+00
         21   -1    0    0  504  503  0.00000000000E+00  0.00000000000E+00  0.98907935590E+02  0.98907935590E+02  0.00000000000E+00 0. -1.
         21   -1    0    0  503  504 -0.00000000000E+00 -0.00000000000E+00 -0.37254878304E+03  0.37254878304E+03  0.00000000000E+00 0. -1.
         25    2    1    2    0    0 -0.16305216567E+02  0.91630509093E+02 -0.27445131057E+03  0.31561253205E+03  0.12500295288E+03 0.  0.
         25    2    1    2    0    0  0.16305216567E+02 -0.91630509093E+02  0.81046312313E+00  0.15584418658E+03  0.12499897342E+03 0.  0.
          5    1    3    3  501    0  0.48926882954E+02  0.48914418724E+02 -0.18090579495E+03  0.19374069495E+03  0.47000000000E+01 0.  1.
         -5    1    3    3    0  501 -0.65232099521E+02  0.42716090369E+02 -0.93545515617E+02  0.12187183709E+03  0.47000000000E+01 0.  1.
          5    1    4    4  502    0 -0.22834747954E+02 -0.95932378869E+02 -0.32623853808E+02  0.10397525122E+03  0.47000000000E+01 0. -1.
         -5    1    4    4    0  502  0.39139964520E+02  0.43018697757E+01  0.33434316931E+02  0.51868935355E+02  0.47000000000E+01 0. -1.
<mgrwt>
<rscale>  0 0.38391682E+03</rscale>
<asrwt>0</asrwt>
<pdfrwt beam="1">  1       21 0.15216605E-01 0.38391682E+03</pdfrwt>
<pdfrwt beam="2">  1       21 0.57315197E-01 0.38391682E+03</pdfrwt>
<totfact> 0.10323660E+05</totfact>
</mgrwt>
</event>
<event>
 8    1  0.9691636E-006  0.2874326E+03  0.7546771E-02  0.1091697E+00
         21   -1    0    0  504  503  0.00000000000E+00  0.00000000000E+00  0.10169684605E+03  0.10169684605E+03  0.00000000000E+00 0. -1.
         21   -1    0    0  503  504 -0.00000000000E+00 -0.00000000000E+00 -0.20309751939E+03  0.20309751939E+03  0.00000000000E+00 0. -1.
         25    2    1    2    0    0 -0.10640614247E+02 -0.55887157694E+02 -0.58254841430E+01  0.13746133362E+03  0.12500033963E+03 0.  0.
         25    2    1    2    0    0  0.10640614247E+02  0.55887157694E+02 -0.95575189194E+02  0.16733303182E+03  0.12501651763E+03 0.  0.
          5    1    3    3  501    0 -0.55572622142E+02 -0.62938584015E+02  0.17856668175E+02  0.85968205099E+02  0.47000000000E+01 0.  1.
         -5    1    3    3    0  501  0.44932007894E+02  0.70514263211E+01 -0.23682152318E+02  0.51493128522E+02  0.47000000000E+01 0.  1.
          5    1    4    4  502    0 -0.34094293073E+02 -0.26472692858E+02 -0.33068061052E+02  0.54578484305E+02  0.47000000000E+01 0. -1.
         -5    1    4    4    0  502  0.44734907321E+02  0.82359850552E+02 -0.62507128142E+02  0.11275454751E+03  0.47000000000E+01 0. -1.
<mgrwt>
<rscale>  0 0.28743262E+03</rscale>
<asrwt>0</asrwt>
<pdfrwt beam="1">  1       21 0.15645669E-01 0.28743262E+03</pdfrwt>
<pdfrwt beam="2">  1       21 0.31245772E-01 0.28743262E+03</pdfrwt>
<totfact> 0.35014570E+05</totfact>
</mgrwt>
</event>
<event>
 8    1  0.9691636E-006  0.3016637E+03  0.7546771E-02  0.1084412E+00
         21   -1    0    0  504  503  0.00000000000E+00  0.00000000000E+00  0.14926850526E+03  0.14926850526E+03  0.00000000000E+00 0. -1.
         21   -1    0    0  503  504 -0.00000000000E+00 -0.00000000000E+00 -0.15241157358E+03  0.15241157358E+03  0.00000000000E+00 0. -1.
         25    2    1    2    0    0 -0.43191745435E+01  0.84258197702E+02 -0.44492382864E+01  0.15086762263E+03  0.12499257853E+03 0.  0.
         25    2    1    2    0    0  0.43191745435E+01 -0.84258197702E+02  0.13061699648E+01  0.15081245622E+03  0.12499836688E+03 0.  0.
          5    1    3    3  501    0 -0.78688688289E+01 -0.12047994919E+02 -0.44044238810E+02  0.46573149460E+02  0.47000000000E+01 0.  1.
         -5    1    3    3    0  501  0.35496942854E+01  0.96306192621E+02  0.39595000524E+02  0.10429447317E+03  0.47000000000E+01 0.  1.
          5    1    4    4  502    0 -0.39630918775E+02 -0.92223213076E+02  0.19486241881E+02  0.10235982794E+03  0.47000000000E+01 0.  1.
         -5    1    4    4    0  502  0.43950093319E+02  0.79650153735E+01 -0.18180071917E+02  0.48452628283E+02  0.47000000000E+01 0.  1.
<mgrwt>
<rscale>  0 0.30166371E+03</rscale>
<asrwt>0</asrwt>
<pdfrwt beam="1">  1       21 0.22964385E-01 0.30166371E+03</pdfrwt>
<pdfrwt beam="2">  1       21 0.23447934E-01 0.30166371E+03</pdfrwt>
<totfact> 0.29706245E+05</totfact>
</mgrwt>
</event>
<event>
 8    1  0.9691636E-006  0.3315658E+03  0.7546771E-02  0.1070446E+00
         21   -1    0    0  504  503  0.00000000000E+00  0.00000000000E+00  0.32398674932E+03  0.32398674932E+03  0.00000000000E+00 0.  1.
         21   -1    0    0  503  504 -0.00000000000E+00 -0.00000000000E+00 -0.84830537695E+02  0.84830537695E+02  0.00000000000E+00 0.  1.
         25    2    1    2    0    0 -0.54347140522E+02  0.92901048021E+02  0.14003165853E+03  0.21637232616E+03  0.12499560684E+03 0.  0.
         25    2    1    2    0    0  0.54347140522E+02 -0.92901048021E+02  0.99124553101E+02  0.19244496086E+03  0.12500067811E+03 0.  0.
          5    1    3    3  501    0 -0.91930431032E+02  0.85799149696E+02  0.11460959697E+03  0.17020619247E+03  0.47000000000E+01 0. -1.
         -5    1    3    3    0  501  0.37583290510E+02  0.71018983252E+01  0.25422061555E+02  0.46166133682E+02  0.47000000000E+01 0. -1.
          5    1    4    4  502    0 -0.38498422871E+02 -0.47148374906E+02  0.42294647137E+02  0.74269946791E+02  0.47000000000E+01 0. -1.
         -5    1    4    4    0  502  0.92845563393E+02 -0.45752673115E+02  0.56829905964E+02  0.11817501407E+03  0.47000000000E+01 0. -1.
<mgrwt>
<rscale>  0 0.33156580E+03</rscale>
<asrwt>0</asrwt>
<pdfrwt beam="1">  1       21 0.49844115E-01 0.33156580E+03</pdfrwt>
<pdfrwt beam="2">  1       21 0.13050852E-01 0.33156580E+03</pdfrwt>
<totfact> 0.18658624E+05</totfact>
</mgrwt>
</event>
<event>
 8    1  0.9691636E-006  0.2940227E+03  0.7546771E-02  0.1088267E+00
         21   -1    0    0  504  503  0.00000000000E+00  0.00000000000E+00  0.44503629674E+02  0.44503629674E+02  0.00000000000E+00 0. -1.
         21   -1    0    0  503  504 -0.00000000000E+00 -0.00000000000E+00 -0.48563099200E+03  0.48563099200E+03  0.00000000000E+00 0. -1.
         25    2    1    2    0    0  0.39289147316E+02  0.22524758003E+02 -0.10749164767E+03  0.17097454381E+03  0.12500735374E+03 0.  0.
         25    2    1    2    0    0 -0.39289147316E+02 -0.22524758003E+02 -0.33363571466E+03  0.35916007787E+03  0.12502867520E+03 0.  0.
          5    1    3    3  501    0  0.33458817510E+02 -0.34915864141E+02  0.31808963583E+00  0.48588076921E+02  0.47000000000E+01 0. -1.
         -5    1    3    3    0  501  0.58303298061E+01  0.57440622144E+02 -0.10780973731E+03  0.12238646689E+03  0.47000000000E+01 0. -1.
          5    1    4    4  502    0  0.38644878792E+02  0.20231013938E+02 -0.10403294330E+03  0.11290555289E+03  0.47000000000E+01 0. -1.
         -5    1    4    4    0  502 -0.77934026108E+02 -0.42755771941E+02 -0.22960277136E+03  0.24625452498E+03  0.47000000000E+01 0. -1.
<mgrwt>
<rscale>  0 0.29402273E+03</rscale>
<asrwt>0</asrwt>
<pdfrwt beam="1">  1       21 0.68467126E-02 0.29402273E+03</pdfrwt>
<pdfrwt beam="2">  1       21 0.74712457E-01 0.29402273E+03</pdfrwt>
<totfact> 0.24528430E+05</totfact>
</mgrwt>
</event>
<event>
 8    1  0.9691636E-006  0.2655468E+03  0.7546771E-02  0.1103856E+00
         21   -1    0    0  504  503  0.00000000000E+00  0.00000000000E+00  0.63163257385E+03  0.63163257385E+03  0.00000000000E+00 0.  1.
         21   -1    0    0  503  504 -0.00000000000E+00 -0.00000000000E+00 -0.27909858898E+02  0.27909858898E+02  0.00000000000E+00 0.  1.
         25    2    1    2    0    0 -0.80228994402E+01  0.39839810562E+01  0.41049889348E+03  0.42919819544E+03  0.12498604082E+03 0.  0.
         25    2    1    2    0    0  0.80228994402E+01 -0.39839810562E+01  0.19322382148E+03  0.23034423732E+03  0.12507111360E+03 0.  0.
          5    1    3    3  501    0  0.16822214548E+02 -0.18720019072E+02  0.10361313082E+02  0.27620152518E+02  0.47000000000E+01 0. -1.
         -5    1    3    3    0  501 -0.24845113988E+02  0.22704000128E+02  0.40013758039E+03  0.40157804292E+03  0.47000000000E+01 0. -1.
          5    1    4    4  502    0  0.13424450543E+02  0.39950370695E+02  0.12487935155E+02  0.44207312919E+02  0.47000000000E+01 0. -1.
         -5    1    4    4    0  502 -0.54015511027E+01 -0.43934351751E+02  0.18073588633E+03  0.18613692440E+03  0.47000000000E+01 0. -1.
<mgrwt>
<rscale>  0 0.26554680E+03</rscale>
<asrwt>0</asrwt>
<pdfrwt beam="1">  1       21 0.97174232E-01 0.26554680E+03</pdfrwt>
<pdfrwt beam="2">  1       21 0.42938249E-02 0.26554680E+03</pdfrwt>
<totfact> 0.29946801E+05</totfact>
</mgrwt>
</event>
<event>
 8    1  0.9691636E-006  0.2585137E+03  0.7546771E-02  0.1108040E+00
         21   -1    0    0  504  503  0.00000000000E+00  0.00000000000E+00  0.42787661702E+02  0.42787661702E+02  0.00000000000E+00 0. -1.
         21   -1    0    0  503  504 -0.00000000000E+00 -0.00000000000E+00 -0.39047078193E+03  0.39047078193E+03  0.00000000000E+00 0. -1.
         25    2    1    2    0    0  0.25332905624E+02 -0.26807883821E+01 -0.13891163732E+03  0.18859957770E+03  0.12499765994E+03 0.  0.
         25    2    1    2    0    0 -0.25332905624E+02  0.26807883821E+01 -0.20877148291E+03  0.24465886594E+03  0.12499394335E+03 0.  0.
          5    1    3    3  501    0  0.64599778287E+02 -0.17017008397E+02 -0.33036662454E+02  0.74674098559E+02  0.47000000000E+01 0. -1.
         -5    1    3    3    0  501 -0.39266872663E+02  0.14336220015E+02 -0.10587497487E+03  0.11392547914E+03  0.47000000000E+01 0. -1.
          5    1    4    4  502    0 -0.32260693678E+02  0.60668563644E+02 -0.11765238634E+03  0.13632901739E+03  0.47000000000E+01 0.  1.
         -5    1    4    4    0  502  0.69277880536E+01 -0.57987775262E+02 -0.91119096571E+02  0.10832984855E+03  0.47000000000E+01 0.  1.
<mgrwt>
<rscale>  0 0.25851369E+03</rscale>
<asrwt>0</asrwt>
<pdfrwt beam="1">  1       21 0.65827170E-02 0.25851369E+03</pdfrwt>
<pdfrwt beam="2">  1       21 0.60072429E-01 0.25851369E+03</pdfrwt>
<totfact> 0.42835166E+05</totfact>
</mgrwt>
</event>
<event>
 8    1  0.9691636E-006  0.2944172E+03  0.7546771E-02  0.1088065E+00
         21   -1    0    0  504  503  0.00000000000E+00  0.00000000000E+00  0.12383835804E+03  0.12383835804E+03  0.00000000000E+00 0. -1.
         21   -1    0    0  503  504 -0.00000000000E+00 -0.00000000000E+00 -0.17498920829E+03  0.17498920829E+03  0.00000000000E+00 0. -1.
         25    2    1    2    0    0  0.16869034874E+02  0.55678976937E+02 -0.77900728589E+02  0.15837462580E+03  0.12501714191E+03 0.  0.
         25    2    1    2    0    0 -0.16869034874E+02 -0.55678976937E+02  0.26749878332E+02  0.14045294053E+03  0.12500703861E+03 0.  0.
          5    1    3    3  501    0 -0.43378103198E+02 -0.13612973291E+02 -0.30347757478E+02  0.54863915853E+02  0.47000000000E+01 0.  1.
         -5    1    3    3    0  501  0.60247138072E+02  0.69291950228E+02 -0.47552971111E+02  0.10351070995E+03  0.47000000000E+01 0.  1.
          5    1    4    4  502    0 -0.60836462532E+02  0.66610740951E+01  0.96587108534E+01  0.62135543587E+02  0.47000000000E+01 0.  1.
         -5    1    4    4    0  502  0.43967427658E+02 -0.62340051032E+02  0.17091167479E+02  0.78317396940E+02  0.47000000000E+01 0.  1.
<mgrwt>
<rscale>  0 0.29441723E+03</rscale>
<asrwt>0</asrwt>
<pdfrwt beam="1">  1       21 0.19052055E-01 0.29441723E+03</pdfrwt>
<pdfrwt beam="2">  1       21 0.26921417E-01 0.29441723E+03</pdfrwt>
<totfact> 0.32462890E+05</totfact>
</mgrwt>
</event>
<event>
 8    1  0.9691636E-006  0.2970875E+03  0.7546771E-02  0.1086706E+00
         21   -1    0    0  504  503  0.00000000000E+00  0.00000000000E+00  0.10997111289E+04  0.10997111289E+04  0.00000000000E+00 0.  1.
         21   -1    0    0  503  504 -0.00000000000E+00 -0.00000000000E+00 -0.20064585380E+02  0.20064585380E+02  0.00000000000E+00 0.  1.
         25    2    1    2    0    0  0.79340870943E+02 -0.11695565523E+02  0.52928164208E+03  0.54972354883E+03  0.12500065376E+03 0.  0.
         25    2    1    2    0    0 -0.79340870943E+02  0.11695565523E+02  0.55036490147E+03  0.57005216548E+03  0.12500474608E+03 0.  0.
          5    1    3    3  501    0  0.14047717991E+02 -0.44769855180E+02  0.38493383770E+03  0.38781158792E+03  0.47000000000E+01 0.  1.
         -5    1    3    3    0  501  0.65293152951E+02  0.33074289657E+02  0.14434780438E+03  0.16191196092E+03  0.47000000000E+01 0.  1.
          5    1    4    4  502    0 -0.91257363824E+02 -0.18587312283E+02  0.50767168057E+03  0.51616472166E+03  0.47000000000E+01 0.  1.
         -5    1    4    4    0  502  0.11916492881E+02  0.30282877807E+02  0.42693220896E+02  0.53887443819E+02  0.47000000000E+01 0.  1.
<mgrwt>
<rscale>  0 0.29708751E+03</rscale>
<asrwt>0</asrwt>
<pdfrwt beam="1">  1       21 0.16918628E+00 0.29708751E+03</pdfrwt>
<pdfrwt beam="2">  1       21 0.30868601E-02 0.29708751E+03</pdfrwt>
<totfact> 0.12493579E+05</totfact>
</mgrwt>
</event>
<event>
 8    1  0.9691636E-006  0.2843429E+03  0.7546771E-02  0.1093340E+00
         21   -1    0    0  504  503  0.00000000000E+00  0.00000000000E+00  0.42511779624E+03  0.42511779624E+03  0.00000000000E+00 0.  1.
         21   -1    0    0  503  504 -0.00000000000E+00 -0.00000000000E+00 -0.47546164940E+02  0.47546164940E+02  0.00000000000E+00 0.  1.
         25    2    1    2    0    0 -0.16163047409E+01 -0.60020675684E+02  0.13666302363E+03  0.19469578381E+03  0.12499828900E+03 0.  0.
         25    2    1    2    0    0  0.16163047409E+01  0.60020675684E+02  0.24090860766E+03  0.27796817737E+03  0.12499702569E+03 0.  0.
          5    1    3    3  501    0  0.40864409088E+02 -0.14866509399E+02 -0.88686407500E+00  0.43746880571E+02  0.47000000000E+01 0. -1.
         -5    1    3    3    0  501 -0.42480713829E+02 -0.45154166285E+02  0.13754988771E+03  0.15094890324E+03  0.47000000000E+01 0. -1.
          5    1    4    4  502    0 -0.36262861716E+01  0.18927520775E+02  0.23502785107E+03  0.23586348122E+03  0.47000000000E+01 0.  1.
         -5    1    4    4    0  502  0.52425909125E+01  0.41093154909E+02  0.58807565973E+01  0.42104696152E+02  0.47000000000E+01 0.  1.
<mgrwt>
<rscale>  0 0.28434290E+03</rscale>
<asrwt>0</asrwt>
<pdfrwt beam="1">  1       21 0.65402735E-01 0.28434290E+03</pdfrwt>
<pdfrwt beam="2">  1       21 0.73147949E-02 0.28434290E+03</pdfrwt>
<totfact> 0.29462411E+05</totfact>
</mgrwt>
</event>
<event>
 8    1  0.9691636E-006  0.3365194E+03  0.7546771E-02  0.1068288E+00
         21   -1    0    0  504  503  0.00000000000E+00  0.00000000000E+00  0.82339648649E+02  0.82339648649E+02  0.00000000000E+00 0. -1.
         21   -1    0    0  503  504 -0.00000000000E+00 -0.00000000000E+00 -0.34383587491E+03  0.34383587491E+03  0.00000000000E+00 0. -1.
         25    2    1    2    0    0  0.24439319755E+02 -0.37106016670E+02  0.32886169015E+00  0.13266336435E+03  0.12500129306E+03 0.  0.
         25    2    1    2    0    0 -0.24439319755E+02  0.37106016670E+02 -0.26182508795E+03  0.29351215921E+03  0.12499149611E+03 0.  0.
          5    1    3    3  501    0  0.31273368358E+02  0.20629771371E+02 -0.45036030263E+02  0.58770273584E+02  0.47000000000E+01 0. -1.
         -5    1    3    3    0  501 -0.68340486024E+01 -0.57735788041E+02  0.45364891953E+02  0.73893090766E+02  0.47000000000E+01 0. -1.
          5    1    4    4  502    0  0.77644871154E+01  0.50094166068E+02 -0.25204054740E+03  0.25713078437E+03  0.47000000000E+01 0. -1.
         -5    1    4    4    0  502 -0.32203806871E+02 -0.12988149398E+02 -0.97845405510E+01  0.36381374844E+02  0.47000000000E+01 0. -1.
<mgrwt>
<rscale>  0 0.33651939E+03</rscale>
<asrwt>0</asrwt>
<pdfrwt beam="1">  1       21 0.12667639E-01 0.33651939E+03</pdfrwt>
<pdfrwt beam="2">  1       21 0.52897825E-01 0.33651939E+03</pdfrwt>
<totfact> 0.17346204E+05</totfact>
</mgrwt>
</event>
<event>
 8    1  0.9691636E-006  0.5910131E+03  0.7546771E-02  0.9924228E-01
         21   -1    0    0  504  503  0.00000000000E+00  0.00000000000E+00  0.25500977635E+03  0.25500977635E+03  0.00000000000E+00 0.  1.
         21   -1    0    0  503  504 -0.00000000000E+00 -0.00000000000E+00 -0.34243437759E+03  0.34243437759E+03  0.00000000000E+00 0.  1.
         25    2    1    2    0    0 -0.18624118773E+03  0.50479180935E+02  0.14395488067E+03  0.27126062625E+03  0.12500156788E+03 0.  0.
         25    2    1    2    0    0  0.18624118773E+03 -0.50479180935E+02 -0.23137948191E+03  0.32618352768E+03  0.12500120546E+03 0.  0.
          5    1    3    3  501    0 -0.62201518579E+02 -0.30396742745E+02  0.89878963231E+02  0.11354870723E+03  0.47000000000E+01 0.  1.
         -5    1    3    3    0  501 -0.12403966915E+03  0.80875923680E+02  0.54075917441E+02  0.15771191902E+03  0.47000000000E+01 0.  1.
          5    1    4    4  502    0  0.21199449819E+02  0.26710391242E+02 -0.87333225500E+02  0.93872487712E+02  0.47000000000E+01 0. -1.
         -5    1    4    4    0  502  0.16504173791E+03 -0.77189572178E+02 -0.14404625641E+03  0.23231103997E+03  0.47000000000E+01 0. -1.
<mgrwt>
<rscale>  0 0.59101308E+03</rscale>
<asrwt>0</asrwt>
<pdfrwt beam="1">  1       21 0.39232273E-01 0.59101308E+03</pdfrwt>
<pdfrwt beam="2">  1       21 0.52682212E-01 0.59101308E+03</pdfrwt>
<totfact> 0.18736269E+04</totfact>
</mgrwt>
</event>
<event>
 8    1  0.9691636E-006  0.3737601E+03  0.7546771E-02  0.1053264E+00
         21   -1    0    0  504  503  0.00000000000E+00  0.00000000000E+00  0.94483279671E+02  0.94483279671E+02  0.00000000000E+00 0. -1.
         21   -1    0    0  503  504 -0.00000000000E+00 -0.00000000000E+00 -0.36963307749E+03  0.36963307749E+03  0.00000000000E+00 0. -1.
         25    2    1    2    0    0  0.85203254304E+02  0.10091976173E+02 -0.27325086364E+03  0.31249276564E+03  0.12499700625E+03 0.  0.
         25    2    1    2    0    0 -0.85203254304E+02 -0.10091976173E+02 -0.18989341807E+01  0.15162359152E+03  0.12499866010E+03 0.  0.
          5    1    3    3  501    0  0.68727064591E+02  0.45669964392E-02 -0.42618896498E+02  0.81005368754E+02  0.47000000000E+01 0.  1.
         -5    1    3    3    0  501  0.16476189712E+02  0.10087409177E+02 -0.23063196714E+03  0.23148739689E+03  0.47000000000E+01 0.  1.
          5    1    4    4  502    0 -0.86397592132E+02  0.35562409224E+02  0.27009074610E+02  0.97369445861E+02  0.47000000000E+01 0. -1.
         -5    1    4    4    0  502  0.11943378290E+01 -0.45654385397E+02 -0.28908008790E+02  0.54254145658E+02  0.47000000000E+01 0. -1.
<mgrwt>
<rscale>  0 0.37376006E+03</rscale>
<asrwt>0</asrwt>
<pdfrwt beam="1">  1       21 0.14535889E-01 0.37376006E+03</pdfrwt>
<pdfrwt beam="2">  1       21 0.56866626E-01 0.37376006E+03</pdfrwt>
<totfact> 0.11452168E+05</totfact>
</mgrwt>
</event>
<event>
 8    1  0.9691636E-006  0.3506222E+03  0.7546771E-02  0.1062360E+00
         21   -1    0    0  504  503  0.00000000000E+00  0.00000000000E+00  0.54904260137E+02  0.54904260137E+02  0.00000000000E+00 0.  1.
         21   -1    0    0  503  504 -0.00000000000E+00 -0.00000000000E+00 -0.55977397832E+03  0.55977397832E+03  0.00000000000E+00 0.  1.
         25    2    1    2    0    0  0.53841902492E+02  0.55286838022E+02 -0.42016412261E+03  0.44510611995E+03  0.12500393260E+03 0.  0.
         25    2    1    2    0    0 -0.53841902492E+02 -0.55286838022E+02 -0.84705595575E+02  0.16957211851E+03  0.12499632207E+03 0.  0.
          5    1    3    3  501    0  0.14037052795E+02  0.70673895899E+02 -0.10744806620E+03  0.12945661568E+03  0.47000000000E+01 0.  1.
         -5    1    3    3    0  501  0.39804849697E+02 -0.15387057877E+02 -0.31271605641E+03  0.31564950427E+03  0.47000000000E+01 0.  1.
          5    1    4    4  502    0 -0.35226457457E+02 -0.60658828105E+02  0.11574706589E+02  0.71249284660E+02  0.47000000000E+01 0.  1.
         -5    1    4    4    0  502 -0.18615445035E+02  0.53719900827E+01 -0.96280302164E+02  0.98322833849E+02  0.47000000000E+01 0.  1.
<mgrwt>
<rscale>  0 0.35062217E+03</rscale>
<asrwt>0</asrwt>
<pdfrwt beam="1">  1       21 0.84468092E-02 0.35062217E+03</pdfrwt>
<pdfrwt beam="2">  1       21 0.86119074E-01 0.35062217E+03</pdfrwt>
<totfact> 0.12090081E+05</totfact>
</mgrwt>
</event>
<event>
 8    1  0.9691636E-006  0.2661971E+03  0.7546771E-02  0.1103476E+00
         21   -1    0    0  504  503  0.00000000000E+00  0.00000000000E+00  0.89399847436E+02  0.89399847436E+02  0.00000000000E+00 0. -1.
         21   -1    0    0  503  504 -0.00000000000E+00 -0.00000000000E+00 -0.19815713287E+03  0.19815713287E+03  0.00000000000E+00 0. -1.
         25    2    1    2    0    0  0.20647834723E+01  0.23080084958E+02 -0.96946991034E+02  0.15987905081E+03  0.12500255263E+03 0.  0.
         25    2    1    2    0    0 -0.20647834723E+01 -0.23080084958E+02 -0.11810294397E+02  0.12767792950E+03  0.12500086789E+03 0.  0.
          5    1    3    3  501    0  0.41889974089E+02 -0.22301775025E+02 -0.85998817722E+02  0.98336289070E+02  0.47000000000E+01 0. -1.
         -5    1    3    3    0  501 -0.39825190617E+02  0.45381859983E+02 -0.10948173312E+02  0.61542761736E+02  0.47000000000E+01 0. -1.
          5    1    4    4  502    0 -0.33422143987E+02 -0.62538322824E+02  0.11430883427E+02  0.71978028774E+02  0.47000000000E+01 0. -1.
         -5    1    4    4    0  502  0.31357360515E+02  0.39458237866E+02 -0.23241177824E+02  0.55699900723E+02  0.47000000000E+01 0. -1.
<mgrwt>
<rscale>  0 0.26619705E+03</rscale>
<asrwt>0</asrwt>
<pdfrwt beam="1">  1       21 0.13753823E-01 0.26619705E+03</pdfrwt>
<pdfrwt beam="2">  1       21 0.30485713E-01 0.26619705E+03</pdfrwt>
<totfact> 0.46731163E+05</totfact>
</mgrwt>
</event>
<event>
 8    1  0.9691636E-006  0.3340420E+03  0.7546771E-02  0.1069362E+00
         21   -1    0    0  504  503  0.00000000000E+00  0.00000000000E+00  0.12105911775E+04  0.12105911775E+04  0.00000000000E+00 0.  1.
         21   -1    0    0  503  504 -0.00000000000E+00 -0.00000000000E+00 -0.23043297568E+02  0.23043297568E+02  0.00000000000E+00 0.  1.
         25    2    1    2    0    0 -0.83338841969E+02  0.58639856438E+02  0.75417886706E+03  0.77123019875E+03  0.12500504231E+03 0.  0.
         25    2    1    2    0    0  0.83338841969E+02 -0.58639856438E+02  0.43336901282E+03  0.46240427627E+03  0.12500007237E+03 0.  0.
          5    1    3    3  501    0 -0.30152312426E+02  0.39516482565E+01  0.58243257634E+03  0.58324486577E+03  0.47000000000E+01 0.  1.
         -5    1    3    3    0  501 -0.53186529543E+02  0.54688208182E+02  0.17174629072E+03  0.18798533298E+03  0.47000000000E+01 0.  1.
          5    1    4    4  502    0  0.20488522144E+02 -0.66148766449E+02  0.35418376044E+03  0.36092057991E+03  0.47000000000E+01 0. -1.
         -5    1    4    4    0  502  0.62850319825E+02  0.75089100114E+01  0.79185252382E+02  0.10148369636E+03  0.47000000000E+01 0. -1.
<mgrwt>
<rscale>  0 0.33404199E+03</rscale>
<asrwt>0</asrwt>
<pdfrwt beam="1">  1       21 0.18624475E+00 0.33404199E+03</pdfrwt>
<pdfrwt beam="2">  1       21 0.35451236E-02 0.33404199E+03</pdfrwt>
<totfact> 0.74247154E+04</totfact>
</mgrwt>
</event>
<event>
 8    1  0.9691636E-006  0.3472168E+03  0.7546771E-02  0.1063763E+00
         21   -1    0    0  504  503  0.00000000000E+00  0.00000000000E+00  0.14809754054E+04  0.14809754054E+04  0.00000000000E+00 0. -1.
         21   -1    0    0  503  504 -0.00000000000E+00 -0.00000000000E+00 -0.20351373355E+02  0.20351373355E+02  0.00000000000E+00 0. -1.
         25    2    1    2    0    0 -0.73931550652E+02  0.97190912626E+01  0.11394798271E+04  0.11487378510E+04  0.12499615651E+03 0.  0.
         25    2    1    2    0    0  0.73931550652E+02 -0.97190912626E+01  0.32114420503E+03  0.35258892780E+03  0.12500006664E+03 0.  0.
          5    1    3    3  501    0 -0.71221127307E+02  0.91057856473E+01  0.27552152585E+03  0.28476229651E+03  0.47000000000E+01 0. -1.
         -5    1    3    3    0  501 -0.27104233449E+01  0.61330561526E+00  0.86395830120E+03  0.86397555448E+03  0.47000000000E+01 0. -1.
          5    1    4    4  502    0  0.82241974661E+02  0.35336477891E+02  0.26624949851E+03  0.28093290039E+03  0.47000000000E+01 0. -1.
         -5    1    4    4    0  502 -0.83104240088E+01 -0.45055569154E+02  0.54894706526E+02  0.71656027406E+02  0.47000000000E+01 0. -1.
<mgrwt>
<rscale>  0 0.34721684E+03</rscale>
<asrwt>0</asrwt>
<pdfrwt beam="1">  1       21 0.22784228E+00 0.34721684E+03</pdfrwt>
<pdfrwt beam="2">  1       21 0.31309817E-02 0.34721684E+03</pdfrwt>
<totfact> 0.48856816E+04</totfact>
</mgrwt>
</event>
<event>
 8    1  0.9691636E-006  0.2695206E+03  0.7546771E-02  0.1101554E+00
         21   -1    0    0  504  503  0.00000000000E+00  0.00000000000E+00  0.70980924533E+02  0.70980924533E+02  0.00000000000E+00 0. -1.
         21   -1    0    0  503  504 -0.00000000000E+00 -0.00000000000E+00 -0.25584823799E+03  0.25584823799E+03  0.00000000000E+00 0. -1.
         25    2    1    2    0    0 -0.29037023331E+02  0.81976958472E+01 -0.14131174011E+03  0.19106670665E+03  0.12500850994E+03 0.  0.
         25    2    1    2    0    0  0.29037023331E+02 -0.81976958472E+01 -0.43555573349E+02  0.13576245587E+03  0.12499602199E+03 0.  0.
          5    1    3    3  501    0 -0.40786042213E+02 -0.33690164857E+02 -0.13719505429E+03  0.14711594532E+03  0.47000000000E+01 0.  1.
         -5    1    3    3    0  501  0.11749018882E+02  0.41887860704E+02 -0.41166858199E+01  0.43950761327E+02  0.47000000000E+01 0.  1.
          5    1    4    4  502    0  0.21682880547E+02  0.32891907148E+02  0.30890745927E+02  0.50282731117E+02  0.47000000000E+01 0.  1.
         -5    1    4    4    0  502  0.73541427832E+01 -0.41089602995E+02 -0.74446319275E+02  0.85479724754E+02  0.47000000000E+01 0.  1.
<mgrwt>
<rscale>  0 0.26952064E+03</rscale>
<asrwt>0</asrwt>
<pdfrwt beam="1">  1       21 0.10920142E-01 0.26952064E+03</pdfrwt>
<pdfrwt beam="2">  1       21 0.39361267E-01 0.26952064E+03</pdfrwt>
<totfact> 0.42510419E+05</totfact>
</mgrwt>
</event>
<event>
 8    1  0.9691636E-006  0.2748462E+03  0.7546771E-02  0.1098538E+00
         21   -1    0    0  504  503  0.00000000000E+00  0.00000000000E+00  0.79066071888E+02  0.79066071888E+02  0.00000000000E+00 0.  1.
         21   -1    0    0  503  504 -0.00000000000E+00 -0.00000000000E+00 -0.23885216623E+03  0.23885216623E+03  0.00000000000E+00 0.  1.
         25    2    1    2    0    0 -0.32510132631E+02  0.21522209794E+02 -0.12815032608E+03  0.18321368383E+03  0.12499853452E+03 0.  0.
         25    2    1    2    0    0  0.32510132631E+02 -0.21522209794E+02 -0.31635768260E+02  0.13470455428E+03  0.12499752347E+03 0.  0.
          5    1    3    3  501    0  0.17412003711E+01 -0.34616502069E+02  0.43202137170E+01  0.35243272277E+02  0.47000000000E+01 0. -1.
         -5    1    3    3    0  501 -0.34251333002E+02  0.56138711864E+02 -0.13247053980E+03  0.14797041156E+03  0.47000000000E+01 0. -1.
          5    1    4    4  502    0  0.75909676101E+02  0.26922242381E+01 -0.36773121905E+02  0.84521473554E+02  0.47000000000E+01 0. -1.
         -5    1    4    4    0  502 -0.43399543470E+02 -0.24214434032E+02  0.51373536457E+01  0.50183080728E+02  0.47000000000E+01 0. -1.
<mgrwt>
<rscale>  0 0.27484616E+03</rscale>
<asrwt>0</asrwt>
<pdfrwt beam="1">  1       21 0.12164011E-01 0.27484616E+03</pdfrwt>
<pdfrwt beam="2">  1       21 0.36746488E-01 0.27484616E+03</pdfrwt>
<totfact> 0.40199060E+05</totfact>
</mgrwt>
</event>
<event>
 8    1  0.9691636E-006  0.2773351E+03  0.7546771E-02  0.1097153E+00
         21   -1    0    0  504  503  0.00000000000E+00  0.00000000000E+00  0.15641567549E+03  0.15641567549E+03  0.00000000000E+00 0.  1.
         21   -1    0    0  503  504 -0.00000000000E+00 -0.00000000000E+00 -0.12293322886E+03  0.12293322886E+03  0.00000000000E+00 0.  1.
         25    2    1    2    0    0  0.54251705142E+02  0.72030910074E+01  0.41501114878E+02  0.14262036099E+03  0.12499237098E+03 0.  0.
         25    2    1    2    0    0 -0.54251705142E+02 -0.72030910074E+01 -0.80186682480E+01  0.13672854336E+03  0.12504104726E+03 0.  0.
          5    1    3    3  501    0 -0.20495118238E+02  0.25871112916E+02 -0.24250388996E+02  0.41225425669E+02  0.47000000000E+01 0.  1.
         -5    1    3    3    0  501  0.74746823380E+02 -0.18668021909E+02  0.65751503874E+02  0.10139493532E+03  0.47000000000E+01 0.  1.
          5    1    4    4  502    0  0.36320827680E+01 -0.28739047210E+02 -0.52724320134E+02  0.60341269405E+02  0.47000000000E+01 0. -1.
         -5    1    4    4    0  502 -0.57883787910E+02  0.21535956202E+02  0.44705651886E+02  0.76387273959E+02  0.47000000000E+01 0. -1.
<mgrwt>
<rscale>  0 0.27733506E+03</rscale>
<asrwt>0</asrwt>
<pdfrwt beam="1">  1       21 0.24063950E-01 0.27733506E+03</pdfrwt>
<pdfrwt beam="2">  1       21 0.18912804E-01 0.27733506E+03</pdfrwt>
<totfact> 0.41003095E+05</totfact>
</mgrwt>
</event>
<event>
 8    1  0.9691636E-006  0.2604586E+03  0.7546771E-02  0.1106868E+00
         21   -1    0    0  504  503  0.00000000000E+00  0.00000000000E+00  0.18328794340E+03  0.18328794340E+03  0.00000000000E+00 0. -1.
         21   -1    0    0  503  504 -0.00000000000E+00 -0.00000000000E+00 -0.92530207518E+02  0.92530207518E+02  0.00000000000E+00 0. -1.
         25    2    1    2    0    0  0.27688484882E+02  0.18593887093E+02  0.29558874710E+02  0.13270375138E+03  0.12499669486E+03 0.  0.
         25    2    1    2    0    0 -0.27688484882E+02 -0.18593887093E+02  0.61198861169E+02  0.14311439953E+03  0.12499618359E+03 0.  0.
          5    1    3    3  501    0  0.20613825456E+02  0.15003703705E+02 -0.48023870644E+02  0.54574930842E+02  0.47000000000E+01 0. -1.
         -5    1    3    3    0  501  0.70746594265E+01  0.35901833883E+01  0.77582745354E+02  0.78128820543E+02  0.47000000000E+01 0. -1.
          5    1    4    4  502    0 -0.37006043968E+02 -0.11751793868E+02  0.97327286499E+02  0.10489157567E+03  0.47000000000E+01 0. -1.
         -5    1    4    4    0  502  0.93175590860E+01 -0.68420932253E+01 -0.36128425330E+02  0.38222823860E+02  0.47000000000E+01 0. -1.
<mgrwt>
<rscale>  0 0.26045861E+03</rscale>
<asrwt>0</asrwt>
<pdfrwt beam="1">  1       21 0.28198145E-01 0.26045861E+03</pdfrwt>
<pdfrwt beam="2">  1       21 0.14235417E-01 0.26045861E+03</pdfrwt>
<totfact> 0.51182391E+05</totfact>
</mgrwt>
</event>
<event>
 8    1  0.9691636E-006  0.3101126E+03  0.7546771E-02  0.1080292E+00
         21   -1    0    0  504  503  0.00000000000E+00  0.00000000000E+00  0.91965117455E+02  0.91965117455E+02  0.00000000000E+00 0. -1.
         21   -1    0    0  503  504 -0.00000000000E+00 -0.00000000000E+00 -0.26143011720E+03  0.26143011720E+03  0.00000000000E+00 0. -1.
         25    2    1    2    0    0  0.51822998456E+02  0.37925302608E+02 -0.15940070021E+03  0.21250394598E+03  0.12500156832E+03 0.  0.
         25    2    1    2    0    0 -0.51822998456E+02 -0.37925302608E+02 -0.10064299534E+02  0.14089128868E+03  0.12500045341E+03 0.  0.
          5    1    3    3  501    0 -0.83032818458E+01 -0.27104636703E+02  0.15043626248E+01  0.28774275440E+02  0.47000000000E+01 0.  1.
         -5    1    3    3    0  501  0.60126280302E+02  0.65029939311E+02 -0.16090506283E+03  0.18372967054E+03  0.47000000000E+01 0.  1.
          5    1    4    4  502    0  0.21107327765E+02 -0.58511886793E+01 -0.47665282029E+02  0.52667113128E+02  0.47000000000E+01 0. -1.
         -5    1    4    4    0  502 -0.72930326220E+02 -0.32074113929E+02  0.37600982495E+02  0.88224175550E+02  0.47000000000E+01 0. -1.
<mgrwt>
<rscale>  0 0.31011257E+03</rscale>
<asrwt>0</asrwt>
<pdfrwt beam="1">  1       21 0.14148480E-01 0.31011257E+03</pdfrwt>
<pdfrwt beam="2">  1       21 0.40220018E-01 0.31011257E+03</pdfrwt>
<totfact> 0.25251618E+05</totfact>
</mgrwt>
</event>
<event>
 8    1  0.9691636E-006  0.9597873E+03  0.7546771E-02  0.9353783E-01
         21   -1    0    0  504  503  0.00000000000E+00  0.00000000000E+00  0.30326071372E+04  0.30326071372E+04  0.00000000000E+00 0.  1.
         21   -1    0    0  503  504 -0.00000000000E+00 -0.00000000000E+00 -0.75940572904E+02  0.75940572904E+02  0.00000000000E+00 0.  1.
         25    2    1    2    0    0 -0.58189051455E+02 -0.35819959377E+03  0.24113016528E+04  0.24416578693E+04  0.12499830119E+03 0.  0.
         25    2    1    2    0    0  0.58189051455E+02  0.35819959377E+03  0.54536491150E+03  0.66688984080E+03  0.12500503341E+03 0.  0.
          5    1    3    3  501    0 -0.47827035050E+01 -0.52283025180E+02  0.73073721798E+03  0.73263589914E+03  0.47000000000E+01 0. -1.
         -5    1    3    3    0  501 -0.53406347950E+02 -0.30591656859E+03  0.16805644348E+04  0.17090219701E+04  0.47000000000E+01 0. -1.
          5    1    4    4  502    0  0.35035807505E+02  0.22521933403E+03  0.23010329336E+03  0.32391491451E+03  0.47000000000E+01 0. -1.
         -5    1    4    4    0  502  0.23153243950E+02  0.13298025973E+03  0.31526161814E+03  0.34297492628E+03  0.47000000000E+01 0. -1.
<mgrwt>
<rscale>  0 0.95978732E+03</rscale>
<asrwt>0</asrwt>
<pdfrwt beam="1">  1       21 0.46655485E+00 0.95978732E+03</pdfrwt>
<pdfrwt beam="2">  1       21 0.11683167E-01 0.95978732E+03</pdfrwt>
<totfact> 0.11950326E+02</totfact>
</mgrwt>
</event>
<event>
 8    1  0.9691636E-006  0.2672983E+03  0.7546771E-02  0.1102836E+00
         21   -1    0    0  504  503  0.00000000000E+00  0.00000000000E+00  0.22152338248E+04  0.22152338248E+04  0.00000000000E+00 0.  1.
         21   -1    0    0  503  504 -0.00000000000E+00 -0.00000000000E+00 -0.80633005117E+01  0.80633005117E+01  0.00000000000E+00 0.  1.
         25    2    1    2    0    0 -0.13464467718E+02  0.34280752706E+02  0.13503858675E+04  0.13566596244E+04  0.12500753359E+03 0.  0.
         25    2    1    2    0    0  0.13464467718E+02 -0.34280752706E+02  0.85678465685E+03  0.86663750096E+03  0.12499659184E+03 0.  0.
          5    1    3    3  501    0 -0.62086780595E+02 -0.11517530693E+02  0.63975197032E+03  0.64287797860E+03  0.47000000000E+01 0. -1.
         -5    1    3    3    0  501  0.48622312877E+02  0.45798283399E+02  0.71063389714E+03  0.71378164577E+03  0.47000000000E+01 0. -1.
          5    1    4    4  502    0 -0.53321035037E+02 -0.33799820685E+02  0.42855710633E+03  0.43320762233E+03  0.47000000000E+01 0. -1.
         -5    1    4    4    0  502  0.66785502755E+02 -0.48093202129E+00  0.42822755052E+03  0.43342987864E+03  0.47000000000E+01 0. -1.
<mgrwt>
<rscale>  0 0.26729831E+03</rscale>
<asrwt>0</asrwt>
<pdfrwt beam="1">  1       21 0.34080472E+00 0.26729831E+03</pdfrwt>
<pdfrwt beam="2">  1       21 0.12405095E-02 0.26729831E+03</pdfrwt>
<totfact> 0.49448574E+04</totfact>
</mgrwt>
</event>
<event>
 8    1  0.9691636E-006  0.2813064E+03  0.7546771E-02  0.1094978E+00
         21   -1    0    0  504  503  0.00000000000E+00  0.00000000000E+00  0.12058732069E+04  0.12058732069E+04  0.00000000000E+00 0.  1.
         21   -1    0    0  503  504 -0.00000000000E+00 -0.00000000000E+00 -0.16405804672E+02  0.16405804672E+02  0.00000000000E+00 0.  1.
         25    2    1    2    0    0 -0.18980687025E+02 -0.61621651850E+02  0.60212764615E+03  0.61833683745E+03  0.12500099130E+03 0.  0.
         25    2    1    2    0    0  0.18980687025E+02  0.61621651850E+02  0.58733975604E+03  0.60394217409E+03  0.12498266344E+03 0.  0.
          5    1    3    3  501    0 -0.65740828839E+02 -0.74146732886E+01  0.23073073327E+03  0.24007414528E+03  0.47000000000E+01 0.  1.
         -5    1    3    3    0  501  0.46760141814E+02 -0.54206978561E+02  0.37139691288E+03  0.37826269216E+03  0.47000000000E+01 0.  1.
          5    1    4    4  502    0  0.17913088189E+02 -0.38345066108E+01  0.74129488575E+01  0.20313147963E+02  0.47000000000E+01 0. -1.
         -5    1    4    4    0  502  0.10675988362E+01  0.65456158460E+02  0.57992680718E+03  0.58362902612E+03  0.47000000000E+01 0. -1.
<mgrwt>
<rscale>  0 0.28130638E+03</rscale>
<asrwt>0</asrwt>
<pdfrwt beam="1">  1       21 0.18551889E+00 0.28130638E+03</pdfrwt>
<pdfrwt beam="2">  1       21 0.25239709E-02 0.28130638E+03</pdfrwt>
<totfact> 0.13504432E+05</totfact>
</mgrwt>
</event>
<event>
 8    1  0.9691636E-006  0.2878480E+03  0.7546771E-02  0.1091478E+00
         21   -1    0    0  504  503  0.00000000000E+00  0.00000000000E+00  0.86017583577E+03  0.86017583577E+03  0.00000000000E+00 0. -1.
         21   -1    0    0  503  504 -0.00000000000E+00 -0.00000000000E+00 -0.24081259219E+02  0.24081259219E+02  0.00000000000E+00 0. -1.
         25    2    1    2    0    0 -0.60210510507E+02 -0.36863681082E+02  0.38664794948E+03  0.41243888781E+03  0.12499985111E+03 0.  0.
         25    2    1    2    0    0  0.60210510507E+02  0.36863681082E+02  0.44944662707E+03  0.47181820718E+03  0.12500365390E+03 0.  0.
          5    1    3    3  501    0 -0.98976297133E+02 -0.22032915361E+02  0.26190465815E+03  0.28088769413E+03  0.47000000000E+01 0. -1.
         -5    1    3    3    0  501  0.38765786627E+02 -0.14830765721E+02  0.12474329133E+03  0.13155119367E+03  0.47000000000E+01 0. -1.
          5    1    4    4  502    0 -0.42291836453E+01  0.67535347873E+02  0.27581015431E+03  0.28402859086E+03  0.47000000000E+01 0. -1.
         -5    1    4    4    0  502  0.64439694152E+02 -0.30671666791E+02  0.17363647276E+03  0.18778961633E+03  0.47000000000E+01 0. -1.
<mgrwt>
<rscale>  0 0.28784800E+03</rscale>
<asrwt>0</asrwt>
<pdfrwt beam="1">  1       21 0.13233472E+00 0.28784800E+03</pdfrwt>
<pdfrwt beam="2">  1       21 0.37048098E-02 0.28784800E+03</pdfrwt>
<totfact> 0.17812775E+05</totfact>
</mgrwt>
</event>
<event>
 8    1  0.9691636E-006  0.3246201E+03  0.7546771E-02  0.1073542E+00
         21   -1    0    0  504  503  0.00000000000E+00  0.00000000000E+00  0.37114543315E+03  0.37114543315E+03  0.00000000000E+00 0.  1.
         21   -1    0    0  503  504 -0.00000000000E+00 -0.00000000000E+00 -0.70981765723E+02  0.70981765723E+02  0.00000000000E+00 0.  1.
         25    2    1    2    0    0 -0.87161415998E+02  0.52108319677E+01  0.22585065354E+03  0.27250343427E+03  0.12500135511E+03 0.  0.
         25    2    1    2    0    0  0.87161415998E+02 -0.52108319677E+01  0.74313013893E+02  0.16962376460E+03  0.12500212908E+03 0.  0.
          5    1    3    3  501    0 -0.24605961289E+02 -0.44935110869E+02  0.27116159558E+02  0.58154910618E+02  0.47000000000E+01 0. -1.
         -5    1    3    3    0  501 -0.62555454709E+02  0.50145942837E+02  0.19873449398E+03  0.21434852366E+03  0.47000000000E+01 0. -1.
          5    1    4    4  502    0  0.37123971804E+01  0.13950721440E+02  0.82127354499E+02  0.83518841458E+02  0.47000000000E+01 0.  1.
         -5    1    4    4    0  502  0.83449018817E+02 -0.19161553407E+02 -0.78143406058E+01  0.86104923144E+02  0.47000000000E+01 0.  1.
<mgrwt>
<rscale>  0 0.32462014E+03</rscale>
<asrwt>0</asrwt>
<pdfrwt beam="1">  1       21 0.57099296E-01 0.32462014E+03</pdfrwt>
<pdfrwt beam="2">  1       21 0.10920272E-01 0.32462014E+03</pdfrwt>
<totfact> 0.19306940E+05</totfact>
</mgrwt>
</event>
<event>
 8    1  0.9691636E-006  0.3231797E+03  0.7546771E-02  0.1074195E+00
         21   -1    0    0  504  503  0.00000000000E+00  0.00000000000E+00  0.58786094271E+03  0.58786094271E+03  0.00000000000E+00 0.  1.
         21   -1    0    0  503  504 -0.00000000000E+00 -0.00000000000E+00 -0.44417448644E+02  0.44417448644E+02  0.00000000000E+00 0.  1.
         25    2    1    2    0    0  0.83170227909E+02 -0.36760215747E+02  0.36385869177E+03  0.39533248491E+03  0.12500410304E+03 0.  0.
         25    2    1    2    0    0 -0.83170227909E+02  0.36760215747E+02  0.17958480230E+03  0.23694590645E+03  0.12499624431E+03 0.  0.
          5    1    3    3  501    0  0.35428016432E+02  0.34072149036E+02  0.50994748038E+02  0.70983167130E+02  0.47000000000E+01 0. -1.
         -5    1    3    3    0  501  0.47742211477E+02 -0.70832364783E+02  0.31286394373E+03  0.32434931778E+03  0.47000000000E+01 0. -1.
          5    1    4    4  502    0  0.15346852000E+02  0.51211518387E+02  0.77470005055E+02  0.94243499325E+02  0.47000000000E+01 0.  1.
         -5    1    4    4    0  502 -0.98517079910E+02 -0.14451302640E+02  0.10211479724E+03  0.14270240712E+03  0.47000000000E+01 0.  1.
<mgrwt>
<rscale>  0 0.32317972E+03</rscale>
<asrwt>0</asrwt>
<pdfrwt beam="1">  1       21 0.90440139E-01 0.32317972E+03</pdfrwt>
<pdfrwt beam="2">  1       21 0.68334541E-02 0.32317972E+03</pdfrwt>
<totfact> 0.15747195E+05</totfact>
</mgrwt>
</event>
<event>
 8    1  0.9691636E-006  0.2975339E+03  0.7546771E-02  0.1086480E+00
         21   -1    0    0  504  503  0.00000000000E+00  0.00000000000E+00  0.31374377589E+02  0.31374377589E+02  0.00000000000E+00 0. -1.
         21   -1    0    0  503  504 -0.00000000000E+00 -0.00000000000E+00 -0.70540401737E+03  0.70540401737E+03  0.00000000000E+00 0. -1.
         25    2    1    2    0    0  0.40484017225E+02 -0.62638257324E+02 -0.41310231468E+03  0.43799616567E+03  0.12499844724E+03 0.  0.
         25    2    1    2    0    0 -0.40484017225E+02  0.62638257324E+02 -0.26092732509E+03  0.29878222929E+03  0.12500097849E+03 0.  0.
          5    1    3    3  501    0 -0.22925673764E+02 -0.53918453894E+02 -0.31720349833E+03  0.32260337187E+03  0.47000000000E+01 0. -1.
         -5    1    3    3    0  501  0.63409690989E+02 -0.87198034304E+01 -0.95898816352E+02  0.11539279380E+03  0.47000000000E+01 0. -1.
          5    1    4    4  502    0  0.38027473260E+02  0.52741674630E+02 -0.99718023542E+02  0.11913667439E+03  0.47000000000E+01 0. -1.
         -5    1    4    4    0  502 -0.78511490485E+02  0.98965826944E+01 -0.16120930155E+03  0.17964555490E+03  0.47000000000E+01 0. -1.
<mgrwt>
<rscale>  0 0.29753394E+03</rscale>
<asrwt>0</asrwt>
<pdfrwt beam="1">  1       21 0.48268271E-02 0.29753394E+03</pdfrwt>
<pdfrwt beam="2">  1       21 0.10852370E+00 0.29753394E+03</pdfrwt>
<totfact> 0.18644306E+05</totfact>
</mgrwt>
</event>
<event>
 8    1  0.9691636E-006  0.4159828E+03  0.7546771E-02  0.1038382E+00
         21   -1    0    0  504  503  0.00000000000E+00  0.00000000000E+00  0.68285503648E+03  0.68285503648E+03  0.00000000000E+00 0.  1.
         21   -1    0    0  503  504 -0.00000000000E+00 -0.00000000000E+00 -0.63352279010E+02  0.63352279010E+02  0.00000000000E+00 0.  1.
         25    2    1    2    0    0  0.12288999215E+03 -0.85885030624E+02  0.18092246075E+03  0.26615153571E+03  0.12500205799E+03 0.  0.
         25    2    1    2    0    0 -0.12288999215E+03  0.85885030624E+02  0.43858029672E+03  0.48005577978E+03  0.12499074515E+03 0.  0.
          5    1    3    3  501    0  0.24692610014E+02 -0.93269768630E+02  0.91321071828E+02  0.13293081994E+03  0.47000000000E+01 0. -1.
         -5    1    3    3    0  501  0.98197382136E+02  0.73847380061E+01  0.89601388921E+02  0.13322071577E+03  0.47000000000E+01 0. -1.
          5    1    4    4  502    0 -0.14712350581E+02 -0.19149151731E+02  0.11578013325E+02  0.27189771316E+02  0.47000000000E+01 0.  1.
         -5    1    4    4    0  502 -0.10817764157E+03  0.10503418236E+03  0.42700228339E+03  0.45286600846E+03  0.47000000000E+01 0.  1.
<mgrwt>
<rscale>  0 0.41598280E+03</rscale>
<asrwt>0</asrwt>
<pdfrwt beam="1">  1       21 0.10505462E+00 0.41598280E+03</pdfrwt>
<pdfrwt beam="2">  1       21 0.97465049E-02 0.41598280E+03</pdfrwt>
<totfact> 0.57350724E+04</totfact>
</mgrwt>
</event>
<event>
 8    1  0.9691636E-006  0.3247429E+03  0.7546771E-02  0.1073487E+00
         21   -1    0    0  504  503  0.00000000000E+00  0.00000000000E+00  0.36398027111E+03  0.36398027111E+03  0.00000000000E+00 0. -1.
         21   -1    0    0  503  504 -0.00000000000E+00 -0.00000000000E+00 -0.72433840179E+02  0.72433840179E+02  0.00000000000E+00 0. -1.
         25    2    1    2    0    0  0.39009327543E+02  0.84330876610E+02  0.20746228189E+03  0.25941740433E+03  0.12499346735E+03 0.  0.
         25    2    1    2    0    0 -0.39009327543E+02 -0.84330876610E+02  0.84084149043E+02  0.17699670696E+03  0.12499706304E+03 0.  0.
          5    1    3    3  501    0 -0.30184084630E-01  0.78545913291E+02  0.41890927500E+02  0.89142589219E+02  0.47000000000E+01 0. -1.
         -5    1    3    3    0  501  0.39039511628E+02  0.57849633186E+01  0.16557135439E+03  0.17027481511E+03  0.47000000000E+01 0. -1.
          5    1    4    4  502    0 -0.93770279749E+01 -0.21213800053E+02  0.10211636294E+03  0.10482268622E+03  0.47000000000E+01 0. -1.
         -5    1    4    4    0  502 -0.29632299568E+02 -0.63117076557E+02 -0.18032213899E+02  0.72174020734E+02  0.47000000000E+01 0. -1.
<mgrwt>
<rscale>  0 0.32474291E+03</rscale>
<asrwt>0</asrwt>
<pdfrwt beam="1">  1       21 0.55996964E-01 0.32474291E+03</pdfrwt>
<pdfrwt beam="2">  1       21 0.11143668E-01 0.32474291E+03</pdfrwt>
<totfact> 0.19413327E+05</totfact>
</mgrwt>
</event>
<event>
 8    1  0.9691636E-006  0.2955681E+03  0.7546771E-02  0.1087477E+00
         21   -1    0    0  504  503  0.00000000000E+00  0.00000000000E+00  0.96851131966E+03  0.96851131966E+03  0.00000000000E+00 0. -1.
         21   -1    0    0  503  504 -0.00000000000E+00 -0.00000000000E+00 -0.22550199599E+02  0.22550199599E+02  0.00000000000E+00 0. -1.
         25    2    1    2    0    0 -0.27383167970E+02  0.45677539222E+02  0.66777051200E+03  0.68145326362E+03  0.12499927328E+03 0.  0.
         25    2    1    2    0    0  0.27383167970E+02 -0.45677539222E+02  0.27819060806E+03  0.30960825564E+03  0.12502392599E+03 0.  0.
          5    1    3    3  501    0  0.48075644005E+02  0.90344511142E+01  0.18442623591E+03  0.19086124631E+03  0.47000000000E+01 0.  1.
         -5    1    3    3    0  501 -0.75458811975E+02  0.36643088108E+02  0.48334427610E+03  0.49059201731E+03  0.47000000000E+01 0.  1.
          5    1    4    4  502    0 -0.26416184976E+02 -0.29697085555E+01  0.44715560277E+01  0.27362726671E+02  0.47000000000E+01 0. -1.
         -5    1    4    4    0  502  0.53799352946E+02 -0.42707830667E+02  0.27371905203E+03  0.28224552897E+03  0.47000000000E+01 0. -1.
<mgrwt>
<rscale>  0 0.29556809E+03</rscale>
<asrwt>0</asrwt>
<pdfrwt beam="1">  1       21 0.14900171E+00 0.29556809E+03</pdfrwt>
<pdfrwt beam="2">  1       21 0.34692622E-02 0.29556809E+03</pdfrwt>
<totfact> 0.14544167E+05</totfact>
</mgrwt>
</event>
<event>
 8    1  0.9691636E-006  0.3118496E+03  0.7546771E-02  0.1079463E+00
         21   -1    0    0  504  503  0.00000000000E+00  0.00000000000E+00  0.17764800492E+03  0.17764800492E+03  0.00000000000E+00 0.  1.
         21   -1    0    0  503  504 -0.00000000000E+00 -0.00000000000E+00 -0.13685794839E+03  0.13685794839E+03  0.00000000000E+00 0.  1.
         25    2    1    2    0    0  0.22375577918E+02  0.80767343335E+02 -0.20854152304E+02  0.15189832414E+03  0.12495669239E+03 0.  0.
         25    2    1    2    0    0 -0.22375577918E+02 -0.80767343335E+02  0.61644208833E+02  0.16260762917E+03  0.12496880549E+03 0.  0.
          5    1    3    3  501    0 -0.13092977575E+02 -0.30517369989E+02 -0.58435628400E+01  0.34043694856E+02  0.47000000000E+01 0.  1.
         -5    1    3    3    0  501  0.35468555493E+02  0.11128471332E+03 -0.15010589464E+02  0.11785462929E+03  0.47000000000E+01 0.  1.
          5    1    4    4  502    0  0.11558522415E+02  0.24801890270E+02  0.41308124255E+02  0.49771320365E+02  0.47000000000E+01 0. -1.
         -5    1    4    4    0  502 -0.33934100333E+02 -0.10556923361E+03  0.20336084578E+02  0.11283630881E+03  0.47000000000E+01 0. -1.
<mgrwt>
<rscale>  0 0.31184959E+03</rscale>
<asrwt>0</asrwt>
<pdfrwt beam="1">  1       21 0.27330462E-01 0.31184959E+03</pdfrwt>
<pdfrwt beam="2">  1       21 0.21055069E-01 0.31184959E+03</pdfrwt>
<totfact> 0.26014625E+05</totfact>
</mgrwt>
</event>
<event>
 8    1  0.9691636E-006  0.3287978E+03  0.7546771E-02  0.1071670E+00
         21   -1    0    0  504  503  0.00000000000E+00  0.00000000000E+00  0.10178894485E+03  0.10178894485E+03  0.00000000000E+00 0. -1.
         21   -1    0    0  503  504 -0.00000000000E+00 -0.00000000000E+00 -0.26551993606E+03  0.26551993606E+03  0.00000000000E+00 0. -1.
         25    2    1    2    0    0  0.82820307287E+02  0.65166221126E+02 -0.62640295168E+02  0.17508528326E+03  0.12500084064E+03 0.  0.
         25    2    1    2    0    0 -0.82820307287E+02 -0.65166221126E+02 -0.10109069605E+03  0.19222359765E+03  0.12499897196E+03 0.  0.
          5    1    3    3  501    0  0.17110873387E+02  0.19152189211E+02 -0.87227933619E+02  0.91051582869E+02  0.47000000000E+01 0.  1.
         -5    1    3    3    0  501  0.65709433900E+02  0.46014031915E+02  0.24587638451E+02  0.84033700390E+02  0.47000000000E+01 0.  1.
          5    1    4    4  502    0 -0.53040222843E+02  0.87506967175E+01  0.10544301057E+02  0.54982835659E+02  0.47000000000E+01 0.  1.
         -5    1    4    4    0  502 -0.29780084444E+02 -0.73916917843E+02 -0.11163499711E+03  0.13724076199E+03  0.47000000000E+01 0.  1.
<mgrwt>
<rscale>  0 0.32879777E+03</rscale>
<asrwt>0</asrwt>
<pdfrwt beam="1">  1       21 0.15659838E-01 0.32879777E+03</pdfrwt>
<pdfrwt beam="2">  1       21 0.40849221E-01 0.32879777E+03</pdfrwt>
<totfact> 0.20216177E+05</totfact>
</mgrwt>
</event>
<event>
 8    1  0.9691636E-006  0.3053781E+03  0.7546771E-02  0.1082583E+00
         21   -1    0    0  504  503  0.00000000000E+00  0.00000000000E+00  0.50276501602E+02  0.50276501602E+02  0.00000000000E+00 0. -1.
         21   -1    0    0  503  504 -0.00000000000E+00 -0.00000000000E+00 -0.46371467793E+03  0.46371467793E+03  0.00000000000E+00 0. -1.
         25    2    1    2    0    0  0.94834464367E+00  0.58431247293E+02 -0.96681737957E+02  0.16848413555E+03  0.12499774182E+03 0.  0.
         25    2    1    2    0    0 -0.94834464367E+00 -0.58431247293E+02 -0.31675643837E+03  0.34550704398E+03  0.12500146470E+03 0.  0.
          5    1    3    3  501    0  0.38481830541E+02  0.59811250754E+02 -0.10762063869E+03  0.12908341826E+03  0.47000000000E+01 0. -1.
         -5    1    3    3    0  501 -0.37533485897E+02 -0.13800034609E+01  0.10938900734E+02  0.39400717283E+02  0.47000000000E+01 0. -1.
          5    1    4    4  502    0  0.38671777239E+02 -0.65324324249E+02 -0.28222035388E+03  0.29228956847E+03  0.47000000000E+01 0.  1.
         -5    1    4    4    0  502 -0.39620121882E+02  0.68930769553E+01 -0.34536084487E+02  0.53217475509E+02  0.47000000000E+01 0.  1.
<mgrwt>
<rscale>  0 0.30537814E+03</rscale>
<asrwt>0</asrwt>
<pdfrwt beam="1">  1       21 0.77348462E-02 0.30537814E+03</pdfrwt>
<pdfrwt beam="2">  1       21 0.71340721E-01 0.30537814E+03</pdfrwt>
<totfact> 0.21930801E+05</totfact>
</mgrwt>
</event>
<event>
 8    1  0.9691636E-006  0.3640535E+03  0.7546771E-02  0.1056990E+00
         21   -1    0    0  504  503  0.00000000000E+00  0.00000000000E+00  0.92037274478E+02  0.92037274478E+02  0.00000000000E+00 0.  1.
         21   -1    0    0  503  504 -0.00000000000E+00 -0.00000000000E+00 -0.36000345830E+03  0.36000345830E+03  0.00000000000E+00 0.  1.
         25    2    1    2    0    0  0.40154221932E+02 -0.11506737910E+03 -0.19798625074E+03  0.26396009342E+03  0.12499404851E+03 0.  0.
         25    2    1    2    0    0 -0.40154221932E+02  0.11506737910E+03 -0.69979933084E+02  0.18808063936E+03  0.12499709035E+03 0.  0.
          5    1    3    3  501    0 -0.37996181370E+02 -0.80199326858E+02 -0.10044072659E+03  0.13411215972E+03  0.47000000000E+01 0.  1.
         -5    1    3    3    0  501  0.78150403302E+02 -0.34868052244E+02 -0.97545524146E+02  0.12984793369E+03  0.47000000000E+01 0.  1.
          5    1    4    4  502    0 -0.88544508148E+01  0.10191886698E+03  0.81796421552E+01  0.10273681566E+03  0.47000000000E+01 0.  1.
         -5    1    4    4    0  502 -0.31299771117E+02  0.13148512123E+02 -0.78159575239E+02  0.85343823705E+02  0.47000000000E+01 0.  1.
<mgrwt>
<rscale>  0 0.36405350E+03</rscale>
<asrwt>0</asrwt>
<pdfrwt beam="1">  1       21 0.14159581E-01 0.36405350E+03</pdfrwt>
<pdfrwt beam="2">  1       21 0.55385148E-01 0.36405350E+03</pdfrwt>
<totfact> 0.12749230E+05</totfact>
</mgrwt>
</event>
<event>
 8    1  0.9691636E-006  0.3236431E+03  0.7546771E-02  0.1073985E+00
         21   -1    0    0  504  503  0.00000000000E+00  0.00000000000E+00  0.42231065351E+02  0.42231065351E+02  0.00000000000E+00 0.  1.
         21   -1    0    0  503  504 -0.00000000000E+00 -0.00000000000E+00 -0.62006991068E+03  0.62006991068E+03  0.00000000000E+00 0.  1.
         25    2    1    2    0    0  0.96512728324E+02 -0.35229321176E+02 -0.28447049658E+03  0.32726734230E+03  0.12499855243E+03 0.  0.
         25    2    1    2    0    0 -0.96512728324E+02  0.35229321176E+02 -0.29336834874E+03  0.33503363373E+03  0.12500694336E+03 0.  0.
          5    1    3    3  501    0 -0.26817594480E+02 -0.26622433301E+02 -0.68037613107E+02  0.77968866388E+02  0.47000000000E+01 0. -1.
         -5    1    3    3    0  501  0.12333032280E+03 -0.86068878752E+01 -0.21643288348E+03  0.24929847591E+03  0.47000000000E+01 0. -1.
          5    1    4    4  502    0  0.59706436660E+01  0.27589818041E+02 -0.52431740535E+01  0.29093427427E+02  0.47000000000E+01 0. -1.
         -5    1    4    4    0  502 -0.10248337199E+03  0.76395031353E+01 -0.28812517469E+03  0.30594020630E+03  0.47000000000E+01 0. -1.
<mgrwt>
<rscale>  0 0.32364309E+03</rscale>
<asrwt>0</asrwt>
<pdfrwt beam="1">  1       21 0.64970876E-02 0.32364309E+03</pdfrwt>
<pdfrwt beam="2">  1       21 0.95395362E-01 0.32364309E+03</pdfrwt>
<totfact> 0.15155369E+05</totfact>
</mgrwt>
</event>
<event>
 8    1  0.9691636E-006  0.2614104E+03  0.7546771E-02  0.1106299E+00
         21   -1    0    0  504  503  0.00000000000E+00  0.00000000000E+00  0.13202555546E+03  0.13202555546E+03  0.00000000000E+00 0. -1.
         21   -1    0    0  503  504 -0.00000000000E+00 -0.00000000000E+00 -0.12939807555E+03  0.12939807555E+03  0.00000000000E+00 0. -1.
         25    2    1    2    0    0  0.22268272091E+02 -0.22439682421E+02 -0.20112534017E+02  0.13049939065E+03  0.12500464650E+03 0.  0.
         25    2    1    2    0    0 -0.22268272091E+02  0.22439682421E+02  0.22740013926E+02  0.13092424037E+03  0.12499853277E+03 0.  0.
          5    1    3    3  501    0  0.64460519552E+02  0.20393208870E+02 -0.18148084781E+02  0.70160419969E+02  0.47000000000E+01 0. -1.
         -5    1    3    3    0  501 -0.42192247462E+02 -0.42832891291E+02 -0.19644492358E+01  0.60338970682E+02  0.47000000000E+01 0. -1.
          5    1    4    4  502    0 -0.20986067193E+02  0.10617211954E+02  0.74158091277E+02  0.77940058428E+02  0.47000000000E+01 0.  1.
         -5    1    4    4    0  502 -0.12822048976E+01  0.11822470467E+02 -0.51418077351E+02  0.52984181940E+02  0.47000000000E+01 0.  1.
<mgrwt>
<rscale>  0 0.26141043E+03</rscale>
<asrwt>0</asrwt>
<pdfrwt beam="1">  1       21 0.20311624E-01 0.26141043E+03</pdfrwt>
<pdfrwt beam="2">  1       21 0.19907396E-01 0.26141043E+03</pdfrwt>
<totfact> 0.51543026E+05</totfact>
</mgrwt>
</event>
<event>
 8    1  0.9691636E-006  0.5375558E+03  0.7546771E-02  0.1004416E+00
         21   -1    0    0  504  503  0.00000000000E+00  0.00000000000E+00  0.35769992138E+03  0.35769992138E+03  0.00000000000E+00 0.  1.
         21   -1    0    0  503  504 -0.00000000000E+00 -0.00000000000E+00 -0.20196138714E+03  0.20196138714E+03  0.00000000000E+00 0.  1.
         25    2    1    2    0    0  0.23038044123E+03  0.30536989234E+02  0.24689491120E+02  0.26503204524E+03  0.12499903446E+03 0.  0.
         25    2    1    2    0    0 -0.23038044123E+03 -0.30536989234E+02  0.13104904312E+03  0.29462926328E+03  0.12499958266E+03 0.  0.
          5    1    3    3  501    0  0.58721270937E+02  0.53995412164E+02  0.43005930462E+02  0.90748511008E+02  0.47000000000E+01 0. -1.
         -5    1    3    3    0  501  0.17165917030E+03 -0.23458422930E+02 -0.18316439341E+02  0.17428353423E+03  0.47000000000E+01 0. -1.
          5    1    4    4  502    0  0.31852540217E+01  0.22236414660E+02  0.20797423577E+02  0.30971386917E+02  0.47000000000E+01 0. -1.
         -5    1    4    4    0  502 -0.23356569525E+03 -0.52773403894E+02  0.11025161954E+03  0.26365787636E+03  0.47000000000E+01 0. -1.
<mgrwt>
<rscale>  0 0.53755585E+03</rscale>
<asrwt>0</asrwt>
<pdfrwt beam="1">  1       21 0.55030757E-01 0.53755585E+03</pdfrwt>
<pdfrwt beam="2">  1       21 0.31070983E-01 0.53755585E+03</pdfrwt>
<totfact> 0.27689587E+04</totfact>
</mgrwt>
</event>
<event>
 8    1  0.9691636E-006  0.3776921E+03  0.7546771E-02  0.1051790E+00
         21   -1    0    0  504  503  0.00000000000E+00  0.00000000000E+00  0.55315164104E+03  0.55315164104E+03  0.00000000000E+00 0. -1.
         21   -1    0    0  503  504 -0.00000000000E+00 -0.00000000000E+00 -0.64472080061E+02  0.64472080061E+02  0.00000000000E+00 0. -1.
         25    2    1    2    0    0  0.11930836518E+03  0.20820553031E+02  0.12455339608E+03  0.21403910411E+03  0.12502483025E+03 0.  0.
         25    2    1    2    0    0 -0.11930836518E+03 -0.20820553031E+02  0.36412616490E+03  0.40358461700E+03  0.12499879073E+03 0.  0.
          5    1    3    3  501    0 -0.42609715605E+01  0.45119417015E+02  0.17937900207E+02  0.48967090318E+02  0.47000000000E+01 0. -1.
         -5    1    3    3    0  501  0.12356933675E+03 -0.24298863984E+02  0.10661549588E+03  0.16507201379E+03  0.47000000000E+01 0. -1.
          5    1    4    4  502    0 -0.59668994537E+02  0.34797857685E+02  0.70511409682E+02  0.98819171743E+02  0.47000000000E+01 0.  1.
         -5    1    4    4    0  502 -0.59639370648E+02 -0.55618410716E+02  0.29361475521E+03  0.30476544525E+03  0.47000000000E+01 0.  1.
<mgrwt>
<rscale>  0 0.37769213E+03</rscale>
<asrwt>0</asrwt>
<pdfrwt beam="1">  1       21 0.85100250E-01 0.37769213E+03</pdfrwt>
<pdfrwt beam="2">  1       21 0.99187819E-02 0.37769213E+03</pdfrwt>
<totfact> 0.92788177E+04</totfact>
</mgrwt>
</event>
<event>
 8    1  0.9691636E-006  0.5168584E+03  0.7546771E-02  0.1009470E+00
         21   -1    0    0  504  503  0.00000000000E+00  0.00000000000E+00  0.46519928188E+02  0.46519928188E+02  0.00000000000E+00 0.  1.
         21   -1    0    0  503  504 -0.00000000000E+00 -0.00000000000E+00 -0.14356353229E+04  0.14356353229E+04  0.00000000000E+00 0.  1.
         25    2    1    2    0    0  0.16138526557E+03  0.15700001281E+03 -0.63264916420E+03  0.68305490055E+03  0.12499929696E+03 0.  0.
         25    2    1    2    0    0 -0.16138526557E+03 -0.15700001281E+03 -0.75646623054E+03  0.79910035056E+03  0.12500401734E+03 0.  0.
          5    1    3    3  501    0  0.14075841125E+03  0.80102475534E+02 -0.29976388937E+03  0.34074890505E+03  0.47000000000E+01 0. -1.
         -5    1    3    3    0  501  0.20626854327E+02  0.76897537278E+02 -0.33288527482E+03  0.34230599550E+03  0.47000000000E+01 0. -1.
          5    1    4    4  502    0 -0.77121241714E+02 -0.83273565807E+02 -0.18768970220E+03  0.21938935024E+03  0.47000000000E+01 0.  1.
         -5    1    4    4    0  502 -0.84264023860E+02 -0.73726447005E+02 -0.56877652834E+03  0.57971100032E+03  0.47000000000E+01 0.  1.
<mgrwt>
<rscale>  0 0.51685840E+03</rscale>
<asrwt>0</asrwt>
<pdfrwt beam="1">  1       21 0.71569122E-02 0.51685840E+03</pdfrwt>
<pdfrwt beam="2">  1       21 0.22086697E+00 0.51685840E+03</pdfrwt>
<totfact> 0.12289076E+04</totfact>
</mgrwt>
</event>
<event>
 8    1  0.9691636E-006  0.4097672E+03  0.7546771E-02  0.1040449E+00
         21   -1    0    0  504  503  0.00000000000E+00  0.00000000000E+00  0.26258091264E+03  0.26258091264E+03  0.00000000000E+00 0.  1.
         21   -1    0    0  503  504 -0.00000000000E+00 -0.00000000000E+00 -0.15986422986E+03  0.15986422986E+03  0.00000000000E+00 0.  1.
         25    2    1    2    0    0  0.94795614044E+02 -0.63210139692E+01  0.18705115802E+03  0.24422037280E+03  0.12501716327E+03 0.  0.
         25    2    1    2    0    0 -0.94795614044E+02  0.63210139692E+01 -0.84334475242E+02  0.17822476971E+03  0.12500240463E+03 0.  0.
          5    1    3    3  501    0  0.21616503343E+02  0.56352648260E+02  0.73913384901E+02  0.95541470840E+02  0.47000000000E+01 0.  1.
         -5    1    3    3    0  501  0.73179110700E+02 -0.62673662229E+02  0.11313777312E+03  0.14867890196E+03  0.47000000000E+01 0.  1.
          5    1    4    4  502    0 -0.27154199129E+02 -0.39278816123E+02 -0.83738249261E+02  0.96510933659E+02  0.47000000000E+01 0. -1.
         -5    1    4    4    0  502 -0.67641414915E+02  0.45599830092E+02 -0.59622598128E+00  0.81713836047E+02  0.47000000000E+01 0. -1.
<mgrwt>
<rscale>  0 0.40976723E+03</rscale>
<asrwt>0</asrwt>
<pdfrwt beam="1">  1       21 0.40397064E-01 0.40976723E+03</pdfrwt>
<pdfrwt beam="2">  1       21 0.24594497E-01 0.40976723E+03</pdfrwt>
<totfact> 0.86557173E+04</totfact>
</mgrwt>
</event>
<event>
 8    1  0.9691636E-006  0.2764323E+03  0.7546771E-02  0.1097654E+00
         21   -1    0    0  504  503  0.00000000000E+00  0.00000000000E+00  0.24729371801E+02  0.24729371801E+02  0.00000000000E+00 0. -1.
         21   -1    0    0  503  504 -0.00000000000E+00 -0.00000000000E+00 -0.77251085036E+03  0.77251085036E+03  0.00000000000E+00 0. -1.
         25    2    1    2    0    0 -0.34328123986E+02  0.69366229468E+00 -0.23534368690E+03  0.26866069145E+03  0.12495205041E+03 0.  0.
         25    2    1    2    0    0  0.34328123986E+02 -0.69366229468E+00 -0.51243779166E+03  0.52857953072E+03  0.12499971483E+03 0.  0.
          5    1    3    3  501    0  0.32797853840E+02 -0.13545609844E+02 -0.16785078184E+02  0.39534941662E+02  0.47000000000E+01 0.  1.
         -5    1    3    3    0  501 -0.67125977826E+02  0.14239272139E+02 -0.21855860872E+03  0.22912574979E+03  0.47000000000E+01 0.  1.
          5    1    4    4  502    0  0.21509279156E+02 -0.62222330788E+02 -0.28750188016E+03  0.29498082757E+03  0.47000000000E+01 0.  1.
         -5    1    4    4    0  502  0.12818844830E+02  0.61528668493E+02 -0.22493591150E+03  0.23359870315E+03  0.47000000000E+01 0.  1.
<mgrwt>
<rscale>  0 0.27643233E+03</rscale>
<asrwt>0</asrwt>
<pdfrwt beam="1">  1       21 0.38045194E-02 0.27643233E+03</pdfrwt>
<pdfrwt beam="2">  1       21 0.11884780E+00 0.27643233E+03</pdfrwt>
<totfact> 0.22443518E+05</totfact>
</mgrwt>
</event>
<event>
 8    1  0.9691636E-006  0.7037278E+03  0.7546771E-02  0.9710878E-01
         21   -1    0    0  504  503  0.00000000000E+00  0.00000000000E+00  0.13027396796E+04  0.13027396796E+04  0.00000000000E+00 0.  1.
         21   -1    0    0  503  504 -0.00000000000E+00 -0.00000000000E+00 -0.95036802687E+02  0.95036802687E+02  0.00000000000E+00 0.  1.
         25    2    1    2    0    0 -0.86223547082E+02 -0.31540652949E+03  0.53308320161E+03  0.63774286720E+03  0.12498994328E+03 0.  0.
         25    2    1    2    0    0  0.86223547082E+02  0.31540652949E+03  0.67461967530E+03  0.76003361507E+03  0.12499444321E+03 0.  0.
          5    1    3    3  501    0 -0.10969189622E+02 -0.17684329934E+02 -0.13188970794E+01  0.21374941770E+02  0.47000000000E+01 0.  1.
         -5    1    3    3    0  501 -0.75254357460E+02 -0.29772219955E+03  0.53440209869E+03  0.61636792543E+03  0.47000000000E+01 0.  1.
          5    1    4    4  502    0 -0.12239113027E+02  0.89495211453E+02  0.10032152692E+03  0.13507659873E+03  0.47000000000E+01 0. -1.
         -5    1    4    4    0  502  0.98462660108E+02  0.22591131803E+03  0.57429814837E+03  0.62495701634E+03  0.47000000000E+01 0. -1.
<mgrwt>
<rscale>  0 0.70372783E+03</rscale>
<asrwt>0</asrwt>
<pdfrwt beam="1">  1       21 0.20042148E+00 0.70372783E+03</pdfrwt>
<pdfrwt beam="2">  1       21 0.14621048E-01 0.70372783E+03</pdfrwt>
<totfact> 0.43604702E+03</totfact>
</mgrwt>
</event>
<event>
 8    1  0.9691636E-006  0.2803573E+03  0.7546771E-02  0.1095494E+00
         21   -1    0    0  504  503  0.00000000000E+00  0.00000000000E+00  0.40015399544E+02  0.40015399544E+02  0.00000000000E+00 0. -1.
         21   -1    0    0  503  504 -0.00000000000E+00 -0.00000000000E+00 -0.49106218656E+03  0.49106218656E+03  0.00000000000E+00 0. -1.
         25    2    1    2    0    0  0.19990681636E+02 -0.53726984381E+02 -0.27701858068E+03  0.30927340153E+03  0.12499810658E+03 0.  0.
         25    2    1    2    0    0 -0.19990681636E+02  0.53726984381E+02 -0.17402820634E+03  0.22180418457E+03  0.12500025396E+03 0.  0.
          5    1    3    3  501    0  0.67903965618E+02 -0.66728991159E+01 -0.16454473194E+03  0.17819240988E+03  0.47000000000E+01 0.  1.
         -5    1    3    3    0  501 -0.47913283983E+02 -0.47054085265E+02 -0.11247384874E+03  0.13108099166E+03  0.47000000000E+01 0.  1.
          5    1    4    4  502    0 -0.54968306853E+02  0.34257531235E+02 -0.16917020624E+03  0.18120635167E+03  0.47000000000E+01 0.  1.
         -5    1    4    4    0  502  0.34977625217E+02  0.19469453145E+02 -0.48580000919E+01  0.40597832904E+02  0.47000000000E+01 0.  1.
<mgrwt>
<rscale>  0 0.28035727E+03</rscale>
<asrwt>0</asrwt>
<pdfrwt beam="1">  1       21 0.61562150E-02 0.28035727E+03</pdfrwt>
<pdfrwt beam="2">  1       21 0.75548032E-01 0.28035727E+03</pdfrwt>
<totfact> 0.28852908E+05</totfact>
</mgrwt>
</event>
<event>
 8    1  0.9691636E-006  0.2660256E+03  0.7546771E-02  0.1103576E+00
         21   -1    0    0  504  503  0.00000000000E+00  0.00000000000E+00  0.20176164639E+03  0.20176164639E+03  0.00000000000E+00 0.  1.
         21   -1    0    0  503  504 -0.00000000000E+00 -0.00000000000E+00 -0.87689621120E+02  0.87689621120E+02  0.00000000000E+00 0.  1.
         25    2    1    2    0    0 -0.19797647466E+02  0.39565079435E+02  0.45426329498E+02  0.14016833252E+03  0.12500507059E+03 0.  0.
         25    2    1    2    0    0  0.19797647466E+02 -0.39565079435E+02  0.68645695772E+02  0.14928293499E+03  0.12496327770E+03 0.  0.
          5    1    3    3  501    0 -0.51982451841E+02 -0.14746621204E+01  0.65780810059E+02  0.83985444571E+02  0.47000000000E+01 0.  1.
         -5    1    3    3    0  501  0.32184804375E+02  0.41039741556E+02 -0.20354480560E+02  0.56182887951E+02  0.47000000000E+01 0.  1.
          5    1    4    4  502    0  0.27375228894E+02  0.27985343484E+02  0.70881157930E+02  0.81109870894E+02  0.47000000000E+01 0.  1.
         -5    1    4    4    0  502 -0.75775814280E+01 -0.67550422919E+02 -0.22354621579E+01  0.68173064094E+02  0.47000000000E+01 0.  1.
<mgrwt>
<rscale>  0 0.26602558E+03</rscale>
<asrwt>0</asrwt>
<pdfrwt beam="1">  1       21 0.31040253E-01 0.26602558E+03</pdfrwt>
<pdfrwt beam="2">  1       21 0.13490711E-01 0.26602558E+03</pdfrwt>
<totfact> 0.46716560E+05</totfact>
</mgrwt>
</event>
<event>
 8    1  0.9691636E-006  0.2938561E+03  0.7546771E-02  0.1088353E+00
         21   -1    0    0  504  503  0.00000000000E+00  0.00000000000E+00  0.58632841941E+02  0.58632841941E+02  0.00000000000E+00 0. -1.
         21   -1    0    0  503  504 -0.00000000000E+00 -0.00000000000E+00 -0.36818701759E+03  0.36818701759E+03  0.00000000000E+00 0. -1.
         25    2    1    2    0    0 -0.35107436625E+02 -0.59517680299E+02 -0.10477378147E+03  0.17714917246E+03  0.12501758935E+03 0.  0.
         25    2    1    2    0    0  0.35107436625E+02  0.59517680299E+02 -0.20478039418E+03  0.24967068707E+03  0.12500222304E+03 0.  0.
          5    1    3    3  501    0  0.44097999036E+02 -0.11134266066E+02 -0.55671405781E+02  0.72041660318E+02  0.47000000000E+01 0.  1.
         -5    1    3    3    0  501 -0.79205435661E+02 -0.48383414233E+02 -0.49102375686E+02  0.10510751214E+03  0.47000000000E+01 0.  1.
          5    1    4    4  502    0  0.70205536955E+02  0.82258414992E+01 -0.15312965075E+03  0.16872244020E+03  0.47000000000E+01 0.  1.
         -5    1    4    4    0  502 -0.35098100330E+02  0.51291838800E+02 -0.51650743433E+02  0.80948246871E+02  0.47000000000E+01 0.  1.
<mgrwt>
<rscale>  0 0.29385610E+03</rscale>
<asrwt>0</asrwt>
<pdfrwt beam="1">  1       21 0.90204371E-02 0.29385610E+03</pdfrwt>
<pdfrwt beam="2">  1       21 0.56644157E-01 0.29385610E+03</pdfrwt>
<totfact> 0.27805757E+05</totfact>
</mgrwt>
</event>
<event>
 8    1  0.9691636E-006  0.4065941E+03  0.7546771E-02  0.1041520E+00
         21   -1    0    0  504  503  0.00000000000E+00  0.00000000000E+00  0.18005499395E+03  0.18005499395E+03  0.00000000000E+00 0.  1.
         21   -1    0    0  503  504 -0.00000000000E+00 -0.00000000000E+00 -0.22953929451E+03  0.22953929451E+03  0.00000000000E+00 0.  1.
         25    2    1    2    0    0 -0.55682258030E+01  0.10862318734E+03 -0.14339844697E+03  0.21913423551E+03  0.12500678626E+03 0.  0.
         25    2    1    2    0    0  0.55682258030E+01 -0.10862318734E+03  0.93914146406E+02  0.19046005295E+03  0.12500065163E+03 0.  0.
          5    1    3    3  501    0  0.13649590166E+02  0.70559955637E+02 -0.15814486109E+03  0.17377256901E+03  0.47000000000E+01 0.  1.
         -5    1    3    3    0  501 -0.19217815969E+02  0.38063231702E+02  0.14746414118E+02  0.45361666499E+02  0.47000000000E+01 0.  1.
          5    1    4    4  502    0 -0.54066887506E+02 -0.70037104000E+02  0.76779743232E+02  0.11724181520E+03  0.47000000000E+01 0. -1.
         -5    1    4    4    0  502  0.59635113309E+02 -0.38586083338E+02  0.17134403175E+02  0.73218237748E+02  0.47000000000E+01 0. -1.
<mgrwt>
<rscale>  0 0.40659413E+03</rscale>
<asrwt>0</asrwt>
<pdfrwt beam="1">  1       21 0.27700769E-01 0.40659413E+03</pdfrwt>
<pdfrwt beam="2">  1       21 0.35313737E-01 0.40659413E+03</pdfrwt>
<totfact> 0.90351497E+04</totfact>
</mgrwt>
</event>
<event>
 8    1  0.9691636E-006  0.3207624E+03  0.7546771E-02  0.1075299E+00
         21   -1    0    0  504  503  0.00000000000E+00  0.00000000000E+00  0.62361721318E+02  0.62361721318E+02  0.00000000000E+00 0. -1.
         21   -1    0    0  503  504 -0.00000000000E+00 -0.00000000000E+00 -0.41246660055E+03  0.41246660055E+03  0.00000000000E+00 0. -1.
         25    2    1    2    0    0  0.10693613312E+01  0.88072533850E+02 -0.10349066684E+03  0.18465086782E+03  0.12501083997E+03 0.  0.
         25    2    1    2    0    0 -0.10693613312E+01 -0.88072533850E+02 -0.24661421240E+03  0.29017745406E+03  0.12500588119E+03 0.  0.
          5    1    3    3  501    0  0.49800587466E+02  0.17274005587E+02 -0.39693506991E+01  0.53069157954E+02  0.47000000000E+01 0.  1.
         -5    1    3    3    0  501 -0.48731226134E+02  0.70798528263E+02 -0.99521316137E+02  0.13158170986E+03  0.47000000000E+01 0.  1.
          5    1    4    4  502    0 -0.39298819694E+02 -0.21759624670E+02 -0.18883041434E+03  0.19415687955E+03  0.47000000000E+01 0. -1.
         -5    1    4    4    0  502  0.38229458363E+02 -0.66312909180E+02 -0.57783798057E+02  0.96020574506E+02  0.47000000000E+01 0. -1.
<mgrwt>
<rscale>  0 0.32076239E+03</rscale>
<asrwt>0</asrwt>
<pdfrwt beam="1">  1       21 0.95941113E-02 0.32076239E+03</pdfrwt>
<pdfrwt beam="2">  1       21 0.63456398E-01 0.32076239E+03</pdfrwt>
<totfact> 0.19361621E+05</totfact>
</mgrwt>
</event>
<event>
 8    1  0.9691636E-006  0.2771668E+03  0.7546771E-02  0.1097247E+00
         21   -1    0    0  504  503  0.00000000000E+00  0.00000000000E+00  0.18918499301E+03  0.18918499301E+03  0.00000000000E+00 0.  1.
         21   -1    0    0  503  504 -0.00000000000E+00 -0.00000000000E+00 -0.10151625878E+03  0.10151625878E+03  0.00000000000E+00 0.  1.
         25    2    1    2    0    0  0.23985543016E+02 -0.44150782833E+01 -0.13473609033E+02  0.12806866495E+03  0.12500098244E+03 0.  0.
         25    2    1    2    0    0 -0.23985543016E+02  0.44150782833E+01  0.10114234326E+03  0.16263258683E+03  0.12499914204E+03 0.  0.
          5    1    3    3  501    0  0.19905110949E+02  0.59165252964E+02  0.81549092037E+00  0.62605875329E+02  0.47000000000E+01 0. -1.
         -5    1    3    3    0  501  0.40804320673E+01 -0.63580331248E+02 -0.14289099953E+02  0.65462789621E+02  0.47000000000E+01 0. -1.
          5    1    4    4  502    0 -0.54440312580E+02 -0.36627910501E+02  0.24097209208E+02  0.70057954246E+02  0.47000000000E+01 0.  1.
         -5    1    4    4    0  502  0.30454769563E+02  0.41042988784E+02  0.77045134054E+02  0.92574632588E+02  0.47000000000E+01 0.  1.
<mgrwt>
<rscale>  0 0.27716676E+03</rscale>
<asrwt>0</asrwt>
<pdfrwt beam="1">  1       21 0.29105384E-01 0.27716676E+03</pdfrwt>
<pdfrwt beam="2">  1       21 0.15617886E-01 0.27716676E+03</pdfrwt>
<totfact> 0.40471229E+05</totfact>
</mgrwt>
</event>
<event>
 8    1  0.9691636E-006  0.3163486E+03  0.7546771E-02  0.1077342E+00
         21   -1    0    0  504  503  0.00000000000E+00  0.00000000000E+00  0.14334867031E+03  0.14334867031E+03  0.00000000000E+00 0.  1.
         21   -1    0    0  503  504 -0.00000000000E+00 -0.00000000000E+00 -0.17453329444E+03  0.17453329444E+03  0.00000000000E+00 0.  1.
         25    2    1    2    0    0  0.54876373538E+02 -0.77656254215E+02 -0.34477570374E+02  0.16079331218E+03  0.12499550469E+03 0.  0.
         25    2    1    2    0    0 -0.54876373538E+02  0.77656254215E+02  0.32929462492E+01  0.15708865257E+03  0.12499636427E+03 0.  0.
          5    1    3    3  501    0 -0.30835845543E+02 -0.38386584838E+02  0.18186644385E+02  0.52699367168E+02  0.47000000000E+01 0.  1.
         -5    1    3    3    0  501  0.85712219081E+02 -0.39269669377E+02 -0.52664214759E+02  0.10809394502E+03  0.47000000000E+01 0.  1.
          5    1    4    4  502    0  0.21471193074E+02  0.30382991053E+01  0.38620948449E+02  0.44541116427E+02  0.47000000000E+01 0.  1.
         -5    1    4    4    0  502 -0.76347566612E+02  0.74617955110E+02 -0.35328002199E+02  0.11254753614E+03  0.47000000000E+01 0.  1.
<mgrwt>
<rscale>  0 0.31634864E+03</rscale>
<asrwt>0</asrwt>
<pdfrwt beam="1">  1       21 0.22053642E-01 0.31634864E+03</pdfrwt>
<pdfrwt beam="2">  1       21 0.26851276E-01 0.31634864E+03</pdfrwt>
<totfact> 0.24632788E+05</totfact>
</mgrwt>
</event>
<event>
 8    1  0.9691636E-006  0.2889542E+03  0.7546771E-02  0.1090896E+00
         21   -1    0    0  504  503  0.00000000000E+00  0.00000000000E+00  0.12705291226E+02  0.12705291226E+02  0.00000000000E+00 0.  1.
         21   -1    0    0  503  504 -0.00000000000E+00 -0.00000000000E+00 -0.16429091357E+04  0.16429091357E+04  0.00000000000E+00 0.  1.
         25    2    1    2    0    0  0.63920608269E+02 -0.37940912479E+01 -0.10092391331E+04  0.10189646158E+04  0.12500008457E+03 0.  0.
         25    2    1    2    0    0 -0.63920608269E+02  0.37940912479E+01 -0.62096471141E+03  0.63664981118E+03  0.12500227987E+03 0.  0.
          5    1    3    3  501    0 -0.82932951701E+01  0.42369161330E+02 -0.17446415699E+03  0.17978808817E+03  0.47000000000E+01 0.  1.
         -5    1    3    3    0  501  0.72213903439E+02 -0.46163252578E+02 -0.83477497612E+03  0.83917652762E+03  0.47000000000E+01 0.  1.
          5    1    4    4  502    0  0.29547067292E+02  0.18200079932E+02 -0.29918911209E+03  0.30123161669E+03  0.47000000000E+01 0.  1.
         -5    1    4    4    0  502 -0.93467675561E+02 -0.14405988684E+02 -0.32177559932E+03  0.33541819450E+03  0.47000000000E+01 0.  1.
<mgrwt>
<rscale>  0 0.28895425E+03</rscale>
<asrwt>0</asrwt>
<pdfrwt beam="1">  1       21 0.19546615E-02 0.28895425E+03</pdfrwt>
<pdfrwt beam="2">  1       21 0.25275508E+00 0.28895425E+03</pdfrwt>
<totfact> 0.77183916E+04</totfact>
</mgrwt>
</event>
<event>
 8    1  0.9691636E-006  0.2790804E+03  0.7546771E-02  0.1096192E+00
         21   -1    0    0  504  503  0.00000000000E+00  0.00000000000E+00  0.38832628953E+03  0.38832628953E+03  0.00000000000E+00 0.  1.
         21   -1    0    0  503  504 -0.00000000000E+00 -0.00000000000E+00 -0.50142013139E+02  0.50142013139E+02  0.00000000000E+00 0.  1.
         25    2    1    2    0    0 -0.45798256638E+01 -0.13360423049E+02  0.26402346362E+03  0.29246410460E+03  0.12500954936E+03 0.  0.
         25    2    1    2    0    0  0.45798256638E+01  0.13360423049E+02  0.74160812771E+02  0.14600419807E+03  0.12497169278E+03 0.  0.
          5    1    3    3  501    0 -0.55675745869E+01 -0.21149154641E+02  0.27627138756E+03  0.27717549353E+03  0.47000000000E+01 0. -1.
         -5    1    3    3    0  501  0.98774892307E+00  0.77887315917E+01 -0.12247923938E+02  0.15288611073E+02  0.47000000000E+01 0. -1.
          5    1    4    4  502    0 -0.48242876574E+02 -0.25829507170E+02  0.54065382501E+02  0.77069411350E+02  0.47000000000E+01 0.  1.
         -5    1    4    4    0  502  0.52822702238E+02  0.39189930219E+02  0.20095430270E+02  0.68934786719E+02  0.47000000000E+01 0.  1.
<mgrwt>
<rscale>  0 0.27908036E+03</rscale>
<asrwt>0</asrwt>
<pdfrwt beam="1">  1       21 0.59742504E-01 0.27908036E+03</pdfrwt>
<pdfrwt beam="2">  1       21 0.77141561E-02 0.27908036E+03</pdfrwt>
<totfact> 0.32748717E+05</totfact>
</mgrwt>
</event>
<event>
 8    1  0.9691636E-006  0.3160309E+03  0.7546771E-02  0.1077491E+00
         21   -1    0    0  504  503  0.00000000000E+00  0.00000000000E+00  0.12299402833E+04  0.12299402833E+04  0.00000000000E+00 0.  1.
         21   -1    0    0  503  504 -0.00000000000E+00 -0.00000000000E+00 -0.20300890315E+02  0.20300890315E+02  0.00000000000E+00 0.  1.
         25    2    1    2    0    0  0.83971833252E+02  0.59918442536E+01  0.41688827801E+03  0.44329226992E+03  0.12500011699E+03 0.  0.
         25    2    1    2    0    0 -0.83971833252E+02 -0.59918442536E+01  0.79275111493E+03  0.80694890366E+03  0.12500012764E+03 0.  0.
          5    1    3    3  501    0  0.95418458116E+02  0.47639548254E+02  0.31216645170E+03  0.32991543201E+03  0.47000000000E+01 0.  1.
         -5    1    3    3    0  501 -0.11446624864E+02 -0.41647704000E+02  0.10472182631E+03  0.11337683791E+03  0.47000000000E+01 0.  1.
          5    1    4    4  502    0 -0.11171712155E+03  0.13163029732E+02  0.51782910614E+03  0.52992740424E+03  0.47000000000E+01 0.  1.
         -5    1    4    4    0  502  0.27745288301E+02 -0.19154873986E+02  0.27492200879E+03  0.27702149941E+03  0.47000000000E+01 0.  1.
<mgrwt>
<rscale>  0 0.31603090E+03</rscale>
<asrwt>0</asrwt>
<pdfrwt beam="1">  1       21 0.18922152E+00 0.31603090E+03</pdfrwt>
<pdfrwt beam="2">  1       21 0.31232149E-02 0.31603090E+03</pdfrwt>
<totfact> 0.88266849E+04</totfact>
</mgrwt>
</event>
<event>
 8    1  0.9691636E-006  0.3009931E+03  0.7546771E-02  0.1084745E+00
         21   -1    0    0  504  503  0.00000000000E+00  0.00000000000E+00  0.15852396555E+03  0.15852396555E+03  0.00000000000E+00 0.  1.
         21   -1    0    0  503  504 -0.00000000000E+00 -0.00000000000E+00 -0.14287567250E+03  0.14287567250E+03  0.00000000000E+00 0.  1.
         25    2    1    2    0    0 -0.75586247808E+02  0.29620130122E+02 -0.13094610541E+02  0.14959963687E+03  0.12497179506E+03 0.  0.
         25    2    1    2    0    0  0.75586247808E+02 -0.29620130122E+02  0.28742903592E+02  0.15180000118E+03  0.12500581141E+03 0.  0.
          5    1    3    3  501    0 -0.31380963157E+02 -0.46640855445E+02  0.12322196679E+02  0.57741326416E+02  0.47000000000E+01 0.  1.
         -5    1    3    3    0  501 -0.44205284651E+02  0.76260985567E+02 -0.25416807221E+02  0.91858310457E+02  0.47000000000E+01 0.  1.
          5    1    4    4  502    0  0.82254861589E+02 -0.37338104254E+00 -0.28353488097E+02  0.87132152250E+02  0.47000000000E+01 0. -1.
         -5    1    4    4    0  502 -0.66686137817E+01 -0.29246749079E+02  0.57096391689E+02  0.64667848931E+02  0.47000000000E+01 0. -1.
<mgrwt>
<rscale>  0 0.30099314E+03</rscale>
<asrwt>0</asrwt>
<pdfrwt beam="1">  1       21 0.24388302E-01 0.30099314E+03</pdfrwt>
<pdfrwt beam="2">  1       21 0.21980873E-01 0.30099314E+03</pdfrwt>
<totfact> 0.29949499E+05</totfact>
</mgrwt>
</event>
<event>
 8    1  0.9691636E-006  0.3146731E+03  0.7546771E-02  0.1078127E+00
         21   -1    0    0  504  503  0.00000000000E+00  0.00000000000E+00  0.10657142026E+04  0.10657142026E+04  0.00000000000E+00 0. -1.
         21   -1    0    0  503  504 -0.00000000000E+00 -0.00000000000E+00 -0.23228361728E+02  0.23228361728E+02  0.00000000000E+00 0. -1.
         25    2    1    2    0    0  0.68247604749E+02  0.32155061458E+02  0.31839537017E+03  0.35027323979E+03  0.12499618888E+03 0.  0.
         25    2    1    2    0    0 -0.68247604749E+02 -0.32155061458E+02  0.72409047069E+03  0.73866932453E+03  0.12503470607E+03 0.  0.
          5    1    3    3  501    0  0.70780070868E+02 -0.61453443987E+01  0.73458976853E+02  0.10230295680E+03  0.47000000000E+01 0.  1.
         -5    1    3    3    0  501 -0.25324661198E+01  0.38300405856E+02  0.24493639332E+03  0.24797028299E+03  0.47000000000E+01 0.  1.
          5    1    4    4  502    0 -0.28036511454E+02 -0.40842276856E+02  0.86932068866E+02  0.10016692144E+03  0.47000000000E+01 0. -1.
         -5    1    4    4    0  502 -0.40211093295E+02  0.86872153981E+01  0.63715840182E+03  0.63850240309E+03  0.47000000000E+01 0. -1.
<mgrwt>
<rscale>  0 0.31467313E+03</rscale>
<asrwt>0</asrwt>
<pdfrwt beam="1">  1       21 0.16395599E+00 0.31467313E+03</pdfrwt>
<pdfrwt beam="2">  1       21 0.35735949E-02 0.31467313E+03</pdfrwt>
<totfact> 0.10601620E+05</totfact>
</mgrwt>
</event>
<event>
 8    1  0.9691636E-006  0.2992202E+03  0.7546771E-02  0.1085631E+00
         21   -1    0    0  504  503  0.00000000000E+00  0.00000000000E+00  0.55332638796E+03  0.55332638796E+03  0.00000000000E+00 0. -1.
         21   -1    0    0  503  504 -0.00000000000E+00 -0.00000000000E+00 -0.40452034393E+02  0.40452034393E+02  0.00000000000E+00 0. -1.
         25    2    1    2    0    0  0.70223479070E+02 -0.19282831899E+02  0.33211741607E+03  0.36226025470E+03  0.12500939749E+03 0.  0.
         25    2    1    2    0    0 -0.70223479070E+02  0.19282831899E+02  0.18075693749E+03  0.23151816764E+03  0.12499770750E+03 0.  0.
          5    1    3    3  501    0 -0.31677328486E+02 -0.19500541449E+02  0.13760790888E+03  0.14262450997E+03  0.47000000000E+01 0. -1.
         -5    1    3    3    0  501  0.10190080756E+03  0.21770954923E+00  0.19450950719E+03  0.21963574474E+03  0.47000000000E+01 0. -1.
          5    1    4    4  502    0 -0.36427313898E+02 -0.48493768832E+02  0.43854360580E+02  0.74992598003E+02  0.47000000000E+01 0.  1.
         -5    1    4    4    0  502 -0.33796165172E+02  0.67776600732E+02  0.13690257691E+03  0.15652556964E+03  0.47000000000E+01 0.  1.
<mgrwt>
<rscale>  0 0.29922017E+03</rscale>
<asrwt>0</asrwt>
<pdfrwt beam="1">  1       21 0.85127131E-01 0.29922017E+03</pdfrwt>
<pdfrwt beam="2">  1       21 0.62233903E-02 0.29922017E+03</pdfrwt>
<totfact> 0.21459707E+05</totfact>
</mgrwt>
</event>
<event>
 8    1  0.9691636E-006  0.3207955E+03  0.7546771E-02  0.1075284E+00
         21   -1    0    0  504  503  0.00000000000E+00  0.00000000000E+00  0.37675486321E+02  0.37675486321E+02  0.00000000000E+00 0.  1.
         21   -1    0    0  503  504 -0.00000000000E+00 -0.00000000000E+00 -0.68286941471E+03  0.68286941471E+03  0.00000000000E+00 0.  1.
         25    2    1    2    0    0 -0.27874459062E+01 -0.56381982027E+02 -0.13581022727E+03  0.19301903195E+03  0.12500092444E+03 0.  0.
         25    2    1    2    0    0  0.27874459062E+01  0.56381982027E+02 -0.50938370112E+03  0.52752586909E+03  0.12500035934E+03 0.  0.
          5    1    3    3  501    0  0.38177268243E+02 -0.36741862630E+02 -0.13738132197E+03  0.14732001190E+03  0.47000000000E+01 0. -1.
         -5    1    3    3    0  501 -0.40964714149E+02 -0.19640119397E+02  0.15710946935E+01  0.45699020053E+02  0.47000000000E+01 0. -1.
          5    1    4    4  502    0  0.35340726414E+02  0.29754188133E+02 -0.46064189889E+03  0.46297659516E+03  0.47000000000E+01 0.  1.
         -5    1    4    4    0  502 -0.32553280507E+02  0.26627793894E+02 -0.48741802234E+02  0.64549273927E+02  0.47000000000E+01 0.  1.
<mgrwt>
<rscale>  0 0.32079549E+03</rscale>
<asrwt>0</asrwt>
<pdfrwt beam="1">  1       21 0.57962289E-02 0.32079549E+03</pdfrwt>
<pdfrwt beam="2">  1       21 0.10505683E+00 0.32079549E+03</pdfrwt>
<totfact> 0.14650893E+05</totfact>
</mgrwt>
</event>
<event>
 8    1  0.9691636E-006  0.2824725E+03  0.7546771E-02  0.1094346E+00
         21   -1    0    0  504  503  0.00000000000E+00  0.00000000000E+00  0.11424355299E+02  0.11424355299E+02  0.00000000000E+00 0.  1.
         21   -1    0    0  503  504 -0.00000000000E+00 -0.00000000000E+00 -0.17460660001E+04  0.17460660001E+04  0.00000000000E+00 0.  1.
         25    2    1    2    0    0 -0.33167552921E+02 -0.55329389573E+02 -0.94652932210E+03  0.95692353850E+03  0.12499389195E+03 0.  0.
         25    2    1    2    0    0  0.33167552921E+02  0.55329389573E+02 -0.78811232273E+03  0.80056681692E+03  0.12499906883E+03 0.  0.
          5    1    3    3  501    0  0.78029746690E+01 -0.38491060150E+01 -0.74106247170E+03  0.74112844973E+03  0.47000000000E+01 0. -1.
         -5    1    3    3    0  501 -0.40970527590E+02 -0.51480283558E+02 -0.20546685040E+03  0.21579508877E+03  0.47000000000E+01 0. -1.
          5    1    4    4  502    0  0.32448545939E+01  0.89021517512E+02 -0.40040923748E+03  0.41022555640E+03  0.47000000000E+01 0. -1.
         -5    1    4    4    0  502  0.29922698327E+02 -0.33692127939E+02 -0.38770308524E+03  0.39034126052E+03  0.47000000000E+01 0. -1.
<mgrwt>
<rscale>  0 0.28247250E+03</rscale>
<asrwt>0</asrwt>
<pdfrwt beam="1">  1       21 0.17575926E-02 0.28247250E+03</pdfrwt>
<pdfrwt beam="2">  1       21 0.26862562E+00 0.28247250E+03</pdfrwt>
<totfact> 0.74125468E+04</totfact>
</mgrwt>
</event>
<event>
 8    1  0.9691636E-006  0.2881490E+03  0.7546771E-02  0.1091320E+00
         21   -1    0    0  504  503  0.00000000000E+00  0.00000000000E+00  0.81461049008E+02  0.81461049008E+02  0.00000000000E+00 0.  1.
         21   -1    0    0  503  504 -0.00000000000E+00 -0.00000000000E+00 -0.25481463013E+03  0.25481463013E+03  0.00000000000E+00 0.  1.
         25    2    1    2    0    0  0.66464527238E+01 -0.27321927085E+02 -0.97748852432E+01  0.12849447563E+03  0.12499847540E+03 0.  0.
         25    2    1    2    0    0 -0.66464527238E+01  0.27321927085E+02 -0.16357869588E+03  0.20778120351E+03  0.12499750298E+03 0.  0.
          5    1    3    3  501    0  0.26214595006E+02 -0.71893625163E+02  0.65250724524E+01  0.76945207134E+02  0.47000000000E+01 0.  1.
         -5    1    3    3    0  501 -0.19568142282E+02  0.44571698078E+02 -0.16299957696E+02  0.51549268500E+02  0.47000000000E+01 0.  1.
          5    1    4    4  502    0  0.98336638486E+00  0.63012194079E+02 -0.15850081629E+03  0.17063441147E+03  0.47000000000E+01 0.  1.
         -5    1    4    4    0  502 -0.76298191086E+01 -0.35690266994E+02 -0.50778795915E+01  0.37146792040E+02  0.47000000000E+01 0.  1.
<mgrwt>
<rscale>  0 0.28814904E+03</rscale>
<asrwt>0</asrwt>
<pdfrwt beam="1">  1       21 0.12532469E-01 0.28814904E+03</pdfrwt>
<pdfrwt beam="2">  1       21 0.39202251E-01 0.28814904E+03</pdfrwt>
<totfact> 0.33330158E+05</totfact>
</mgrwt>
</event>
<event>
 8    1  0.9691636E-006  0.4665886E+03  0.7546771E-02  0.1022887E+00
         21   -1    0    0  504  503  0.00000000000E+00  0.00000000000E+00  0.97457892711E+02  0.97457892711E+02  0.00000000000E+00 0. -1.
         21   -1    0    0  503  504 -0.00000000000E+00 -0.00000000000E+00 -0.55845891333E+03  0.55845891333E+03  0.00000000000E+00 0. -1.
         25    2    1    2    0    0 -0.11000869413E+03 -0.15743186436E+03 -0.16898045128E+03  0.28472034936E+03  0.12499831888E+03 0.  0.
         25    2    1    2    0    0  0.11000869413E+03  0.15743186436E+03 -0.29202056934E+03  0.37119645668E+03  0.12499636730E+03 0.  0.
          5    1    3    3  501    0 -0.11652740674E+03 -0.67405645130E+02 -0.12674280056E+03  0.18495400783E+03  0.47000000000E+01 0. -1.
         -5    1    3    3    0  501  0.65187126185E+01 -0.90026219232E+02 -0.42237650719E+02  0.99766341527E+02  0.47000000000E+01 0. -1.
          5    1    4    4  502    0  0.81349608656E+01  0.17373693304E+02 -0.13791852129E+03  0.13932563053E+03  0.47000000000E+01 0. -1.
         -5    1    4    4    0  502  0.10187373326E+03  0.14005817106E+03 -0.15410204805E+03  0.23187082615E+03  0.47000000000E+01 0. -1.
<mgrwt>
<rscale>  0 0.46658859E+03</rscale>
<asrwt>0</asrwt>
<pdfrwt beam="1">  1       21 0.14993522E-01 0.46658859E+03</pdfrwt>
<pdfrwt beam="2">  1       21 0.85916756E-01 0.46658859E+03</pdfrwt>
<totfact> 0.41866553E+04</totfact>
</mgrwt>
</event>
<event>
 8    1  0.9691636E-006  0.2604846E+03  0.7546771E-02  0.1106852E+00
         21   -1    0    0  504  503  0.00000000000E+00  0.00000000000E+00  0.39553985502E+03  0.39553985502E+03  0.00000000000E+00 0. -1.
         21   -1    0    0  503  504 -0.00000000000E+00 -0.00000000000E+00 -0.42885833651E+02  0.42885833651E+02  0.00000000000E+00 0. -1.
         25    2    1    2    0    0  0.18337664736E+02  0.18689011624E+01  0.22948052266E+03  0.26196955455E+03  0.12500789771E+03 0.  0.
         25    2    1    2    0    0 -0.18337664736E+02 -0.18689011624E+01  0.12317349871E+03  0.17645613412E+03  0.12500117498E+03 0.  0.
          5    1    3    3  501    0  0.29451942906E+02  0.34907313085E+02  0.20903868561E+02  0.50447984782E+02  0.47000000000E+01 0.  1.
         -5    1    3    3    0  501 -0.11114278169E+02 -0.33038411922E+02  0.20857665410E+03  0.21152156976E+03  0.47000000000E+01 0.  1.
          5    1    4    4  502    0 -0.44647521227E+01 -0.23428626109E+02 -0.19659928879E+02  0.31263994249E+02  0.47000000000E+01 0. -1.
         -5    1    4    4    0  502 -0.13872912614E+02  0.21559724946E+02  0.14283342759E+03  0.14519213987E+03  0.47000000000E+01 0. -1.
<mgrwt>
<rscale>  0 0.26048460E+03</rscale>
<asrwt>0</asrwt>
<pdfrwt beam="1">  1       21 0.60852283E-01 0.26048460E+03</pdfrwt>
<pdfrwt beam="2">  1       21 0.65978208E-02 0.26048460E+03</pdfrwt>
<totfact> 0.41473479E+05</totfact>
</mgrwt>
</event>
<event>
 8    1  0.9691636E-006  0.2948190E+03  0.7546771E-02  0.1087860E+00
         21   -1    0    0  504  503  0.00000000000E+00  0.00000000000E+00  0.47364517900E+03  0.47364517900E+03  0.00000000000E+00 0.  1.
         21   -1    0    0  503  504 -0.00000000000E+00 -0.00000000000E+00 -0.45877282717E+02  0.45877282717E+02  0.00000000000E+00 0.  1.
         25    2    1    2    0    0  0.17133316812E+02  0.69518342232E+02  0.26900857074E+03  0.30514989395E+03  0.12499798474E+03 0.  0.
         25    2    1    2    0    0 -0.17133316812E+02 -0.69518342232E+02  0.15875932553E+03  0.21437256777E+03  0.12499889566E+03 0.  0.
          5    1    3    3  501    0 -0.50861785211E+02  0.17149170379E+02  0.14116485746E+03  0.15109805499E+03  0.47000000000E+01 0. -1.
         -5    1    3    3    0  501  0.67995102024E+02  0.52369171853E+02  0.12784371328E+03  0.15405183895E+03  0.47000000000E+01 0. -1.
          5    1    4    4  502    0 -0.53000023186E+02  0.10219801761E+02  0.42674827368E+02  0.68968671849E+02  0.47000000000E+01 0.  1.
         -5    1    4    4    0  502  0.35866706373E+02 -0.79738143993E+02  0.11608449817E+03  0.14540389592E+03  0.47000000000E+01 0.  1.
<mgrwt>
<rscale>  0 0.29481895E+03</rscale>
<asrwt>0</asrwt>
<pdfrwt beam="1">  1       21 0.72868486E-01 0.29481895E+03</pdfrwt>
<pdfrwt beam="2">  1       21 0.70580438E-02 0.29481895E+03</pdfrwt>
<totfact> 0.24604501E+05</totfact>
</mgrwt>
</event>
<event>
 8    1  0.9691636E-006  0.2564204E+03  0.7546771E-02  0.1109313E+00
         21   -1    0    0  504  503  0.00000000000E+00  0.00000000000E+00  0.10475496369E+03  0.10475496369E+03  0.00000000000E+00 0. -1.
         21   -1    0    0  503  504 -0.00000000000E+00 -0.00000000000E+00 -0.15691714939E+03  0.15691714939E+03  0.00000000000E+00 0. -1.
         25    2    1    2    0    0 -0.25398491583E+02 -0.12081943094E+02 -0.21317325889E+02  0.12988493496E+03  0.12499844488E+03 0.  0.
         25    2    1    2    0    0  0.25398491583E+02  0.12081943094E+02 -0.30844859818E+02  0.13178717812E+03  0.12500159285E+03 0.  0.
          5    1    3    3  501    0 -0.30346600780E+02 -0.57928260103E+02  0.19203397454E+02  0.68318811255E+02  0.47000000000E+01 0.  1.
         -5    1    3    3    0  501  0.49481091975E+01  0.45846317009E+02 -0.40520723343E+02  0.61566123706E+02  0.47000000000E+01 0.  1.
          5    1    4    4  502    0  0.12215281611E+02 -0.55814726482E+02 -0.40734528572E+01  0.57473296540E+02  0.47000000000E+01 0.  1.
         -5    1    4    4    0  502  0.13183209972E+02  0.67896669575E+02 -0.26771406961E+02  0.74313881579E+02  0.47000000000E+01 0.  1.
<mgrwt>
<rscale>  0 0.25642036E+03</rscale>
<asrwt>0</asrwt>
<pdfrwt beam="1">  1       21 0.16116148E-01 0.25642036E+03</pdfrwt>
<pdfrwt beam="2">  1       21 0.24141100E-01 0.25642036E+03</pdfrwt>
<totfact> 0.55061383E+05</totfact>
</mgrwt>
</event>
<event>
 8    1  0.9691636E-006  0.4202685E+03  0.7546771E-02  0.1036979E+00
         21   -1    0    0  504  503  0.00000000000E+00  0.00000000000E+00  0.64413267022E+03  0.64413267022E+03  0.00000000000E+00 0.  1.
         21   -1    0    0  503  504 -0.00000000000E+00 -0.00000000000E+00 -0.68551722181E+02  0.68551722181E+02  0.00000000000E+00 0.  1.
         25    2    1    2    0    0  0.19939684756E+02  0.16189172341E+03  0.21338820942E+03  0.29625318845E+03  0.12499961043E+03 0.  0.
         25    2    1    2    0    0 -0.19939684756E+02 -0.16189172341E+03  0.36219273862E+03  0.41643120395E+03  0.12499938633E+03 0.  0.
          5    1    3    3  501    0 -0.51517046864E+02  0.84055010097E+02  0.88186442567E+02  0.13235629752E+03  0.47000000000E+01 0.  1.
         -5    1    3    3    0  501  0.71456731619E+02  0.77836713311E+02  0.12520176685E+03  0.16389689093E+03  0.47000000000E+01 0.  1.
          5    1    4    4  502    0  0.41019567931E+02 -0.48175910514E+02  0.19579582056E+03  0.20581937872E+03  0.47000000000E+01 0.  1.
         -5    1    4    4    0  502 -0.60959252687E+02 -0.11371581289E+03  0.16639691805E+03  0.21061182523E+03  0.47000000000E+01 0.  1.
<mgrwt>
<rscale>  0 0.42026850E+03</rscale>
<asrwt>0</asrwt>
<pdfrwt beam="1">  1       21 0.99097330E-01 0.42026850E+03</pdfrwt>
<pdfrwt beam="2">  1       21 0.10546419E-01 0.42026850E+03</pdfrwt>
<totfact> 0.57328161E+04</totfact>
</mgrwt>
</event>
<event>
 8    1  0.9691636E-006  0.2986071E+03  0.7546771E-02  0.1085939E+00
         21   -1    0    0  504  503  0.00000000000E+00  0.00000000000E+00  0.32962527037E+02  0.32962527037E+02  0.00000000000E+00 0. -1.
         21   -1    0    0  503  504 -0.00000000000E+00 -0.00000000000E+00 -0.67626924342E+03  0.67626924342E+03  0.00000000000E+00 0. -1.
         25    2    1    2    0    0  0.60082490431E+02  0.52804615401E+02 -0.36052901404E+03  0.38987867995E+03  0.12500392814E+03 0.  0.
         25    2    1    2    0    0 -0.60082490431E+02 -0.52804615401E+02 -0.28277770234E+03  0.31935309050E+03  0.12499973764E+03 0.  0.
          5    1    3    3  501    0 -0.19860706698E+02  0.34210081718E+02 -0.31645054404E+02  0.50875110122E+02  0.47000000000E+01 0.  1.
         -5    1    3    3    0  501  0.79943197128E+02  0.18594533682E+02 -0.32888395964E+03  0.33900356983E+03  0.47000000000E+01 0.  1.
          5    1    4    4  502    0  0.12180361196E+02 -0.32126605145E+02 -0.95966441029E+01  0.35981460991E+02  0.47000000000E+01 0.  1.
         -5    1    4    4    0  502 -0.72262851626E+02 -0.20678010255E+02 -0.27318105823E+03  0.28337162951E+03  0.47000000000E+01 0.  1.
<mgrwt>
<rscale>  0 0.29860705E+03</rscale>
<asrwt>0</asrwt>
<pdfrwt beam="1">  1       21 0.50711585E-02 0.29860705E+03</pdfrwt>
<pdfrwt beam="2">  1       21 0.10404141E+00 0.29860705E+03</pdfrwt>
<totfact> 0.18984688E+05</totfact>
</mgrwt>
</event>
<event>
 8    1  0.9691636E-006  0.2821089E+03  0.7546771E-02  0.1094543E+00
         21   -1    0    0  504  503  0.00000000000E+00  0.00000000000E+00  0.92024436324E+02  0.92024436324E+02  0.00000000000E+00 0. -1.
         21   -1    0    0  503  504 -0.00000000000E+00 -0.00000000000E+00 -0.21620729022E+03  0.21620729022E+03  0.00000000000E+00 0. -1.
         25    2    1    2    0    0 -0.61620668009E+02 -0.20631646455E+02 -0.69662024468E+02  0.15716573618E+03  0.12500199764E+03 0.  0.
         25    2    1    2    0    0  0.61620668009E+02  0.20631646455E+02 -0.54520829429E+02  0.15106599037E+03  0.12500256414E+03 0.  0.
          5    1    3    3  501    0 -0.43952698155E+02 -0.69816532996E+02 -0.20224744371E+02  0.85072429373E+02  0.47000000000E+01 0.  1.
         -5    1    3    3    0  501 -0.17667969855E+02  0.49184886541E+02 -0.49437280097E+02  0.72093306806E+02  0.47000000000E+01 0.  1.
          5    1    4    4  502    0 -0.16087773162E+02  0.62520054170E+01 -0.68391936836E+02  0.70692651960E+02  0.47000000000E+01 0. -1.
         -5    1    4    4    0  502  0.77708441171E+02  0.14379641038E+02  0.13871107407E+02  0.80373338405E+02  0.47000000000E+01 0. -1.
<mgrwt>
<rscale>  0 0.28210887E+03</rscale>
<asrwt>0</asrwt>
<pdfrwt beam="1">  1       21 0.14157606E-01 0.28210887E+03</pdfrwt>
<pdfrwt beam="2">  1       21 0.33262660E-01 0.28210887E+03</pdfrwt>
<totfact> 0.37195805E+05</totfact>
</mgrwt>
</event>
<event>
 8    1  0.9691636E-006  0.3186252E+03  0.7546771E-02  0.1076284E+00
         21   -1    0    0  504  503  0.00000000000E+00  0.00000000000E+00  0.17205769803E+03  0.17205769803E+03  0.00000000000E+00 0. -1.
         21   -1    0    0  503  504 -0.00000000000E+00 -0.00000000000E+00 -0.14751155397E+03  0.14751155397E+03  0.00000000000E+00 0. -1.
         25    2    1    2    0    0 -0.49177308498E+02  0.96930763724E-01 -0.73637036592E+02  0.15318303874E+03  0.12499685249E+03 0.  0.
         25    2    1    2    0    0  0.49177308498E+02 -0.96930763724E-01  0.98183180650E+02  0.16638621326E+03  0.12500407166E+03 0.  0.
          5    1    3    3  501    0 -0.36471813372E+02  0.59956709036E+02 -0.24224827065E+02  0.74390405130E+02  0.47000000000E+01 0. -1.
         -5    1    3    3    0  501 -0.12705495126E+02 -0.59859778272E+02 -0.49412209528E+02  0.78792633613E+02  0.47000000000E+01 0. -1.
          5    1    4    4  502    0  0.27582277679E+02 -0.61965235895E+02  0.58053956045E+02  0.89402596796E+02  0.47000000000E+01 0.  1.
         -5    1    4    4    0  502  0.21595030819E+02  0.61868305131E+02  0.40129224604E+02  0.76983616460E+02  0.47000000000E+01 0.  1.
<mgrwt>
<rscale>  0 0.31862516E+03</rscale>
<asrwt>0</asrwt>
<pdfrwt beam="1">  1       21 0.26470415E-01 0.31862516E+03</pdfrwt>
<pdfrwt beam="2">  1       21 0.22694085E-01 0.31862516E+03</pdfrwt>
<totfact> 0.23968388E+05</totfact>
</mgrwt>
</event>
<event>
 8    1  0.9691636E-006  0.3260750E+03  0.7546771E-02  0.1072887E+00
         21   -1    0    0  504  503  0.00000000000E+00  0.00000000000E+00  0.24237926645E+03  0.24237926645E+03  0.00000000000E+00 0. -1.
         21   -1    0    0  503  504 -0.00000000000E+00 -0.00000000000E+00 -0.10966787401E+03  0.10966787401E+03  0.00000000000E+00 0. -1.
         25    2    1    2    0    0  0.66790760350E+02  0.44294325918E+02 -0.63396830632E+01  0.14861862877E+03  0.12499724901E+03 0.  0.
         25    2    1    2    0    0 -0.66790760350E+02 -0.44294325918E+02  0.13905107551E+03  0.20342851169E+03  0.12499985917E+03 0.  0.
          5    1    3    3  501    0 -0.43362125546E+01 -0.38412130254E+02 -0.62107693752E+01  0.39432957614E+02  0.47000000000E+01 0.  1.
         -5    1    3    3    0  501  0.71126972905E+02  0.82706456172E+02 -0.12891368802E+00  0.10918567116E+03  0.47000000000E+01 0.  1.
          5    1    4    4  502    0 -0.79155311566E+02  0.19043228338E+02  0.59837786729E+02  0.10114770692E+03  0.47000000000E+01 0. -1.
         -5    1    4    4    0  502  0.12364551215E+02 -0.63337554256E+02  0.79213288779E+02  0.10228080477E+03  0.47000000000E+01 0. -1.
<mgrwt>
<rscale>  0 0.32607495E+03</rscale>
<asrwt>0</asrwt>
<pdfrwt beam="1">  1       21 0.37289118E-01 0.32607495E+03</pdfrwt>
<pdfrwt beam="2">  1       21 0.16871981E-01 0.32607495E+03</pdfrwt>
<totfact> 0.21213327E+05</totfact>
</mgrwt>
</event>
<event>
 8    1  0.9691636E-006  0.2513648E+03  0.7546771E-02  0.1112445E+00
         21   -1    0    0  504  503  0.00000000000E+00  0.00000000000E+00  0.14787825619E+04  0.14787825619E+04  0.00000000000E+00 0.  1.
         21   -1    0    0  503  504 -0.00000000000E+00 -0.00000000000E+00 -0.10681806135E+02  0.10681806135E+02  0.00000000000E+00 0.  1.
         25    2    1    2    0    0 -0.97434968607E+01 -0.75545769826E+00  0.68262637939E+03  0.69404532722E+03  0.12499854375E+03 0.  0.
         25    2    1    2    0    0  0.97434968607E+01  0.75545769826E+00  0.78547437641E+03  0.79541904086E+03  0.12500379239E+03 0.  0.
          5    1    3    3  501    0 -0.53473610070E+02  0.29128511624E+02  0.50357769439E+03  0.50726766253E+03  0.47000000000E+01 0.  1.
         -5    1    3    3    0  501  0.43730113210E+02 -0.29883969323E+02  0.17904868501E+03  0.18677766469E+03  0.47000000000E+01 0.  1.
          5    1    4    4  502    0 -0.15898822285E+02  0.48505742184E+02  0.17039887031E+03  0.17794225068E+03  0.47000000000E+01 0.  1.
         -5    1    4    4    0  502  0.25642319146E+02 -0.47750284486E+02  0.61507550610E+03  0.61747679018E+03  0.47000000000E+01 0.  1.
<mgrwt>
<rscale>  0 0.25136482E+03</rscale>
<asrwt>0</asrwt>
<pdfrwt beam="1">  1       21 0.22750485E+00 0.25136482E+03</pdfrwt>
<pdfrwt beam="2">  1       21 0.16433560E-02 0.25136482E+03</pdfrwt>
<totfact> 0.14844761E+05</totfact>
</mgrwt>
</event>
<event>
 8    1  0.9691636E-006  0.2580888E+03  0.7546771E-02  0.1108297E+00
         21   -1    0    0  504  503  0.00000000000E+00  0.00000000000E+00  0.20655656326E+03  0.20655656326E+03  0.00000000000E+00 0. -1.
         21   -1    0    0  503  504 -0.00000000000E+00 -0.00000000000E+00 -0.80619357354E+02  0.80619357354E+02  0.00000000000E+00 0. -1.
         25    2    1    2    0    0  0.27685536730E+02 -0.14890749091E+02  0.69452545397E+02  0.14642167468E+03  0.12500970923E+03 0.  0.
         25    2    1    2    0    0 -0.27685536730E+02  0.14890749091E+02  0.56484660506E+02  0.14075424593E+03  0.12503206597E+03 0.  0.
          5    1    3    3  501    0 -0.19606570705E+02 -0.11238362592E+02  0.91166684220E+02  0.94043461868E+02  0.47000000000E+01 0.  1.
         -5    1    3    3    0  501  0.47292107436E+02 -0.36523864989E+01 -0.21714138822E+02  0.52378212815E+02  0.47000000000E+01 0.  1.
          5    1    4    4  502    0 -0.74986501910E+01 -0.50920896646E+00  0.94436195148E+02  0.94851325782E+02  0.47000000000E+01 0. -1.
         -5    1    4    4    0  502 -0.20186886539E+02  0.15399958057E+02 -0.37951534642E+02  0.45902920147E+02  0.47000000000E+01 0. -1.
<mgrwt>
<rscale>  0 0.25808880E+03</rscale>
<asrwt>0</asrwt>
<pdfrwt beam="1">  1       21 0.31777933E-01 0.25808880E+03</pdfrwt>
<pdfrwt beam="2">  1       21 0.12402978E-01 0.25808880E+03</pdfrwt>
<totfact> 0.52011468E+05</totfact>
</mgrwt>
</event>
<event>
 8    1  0.9691636E-006  0.3115922E+03  0.7546771E-02  0.1079585E+00
         21   -1    0    0  504  503  0.00000000000E+00  0.00000000000E+00  0.31066121286E+02  0.31066121286E+02  0.00000000000E+00 0.  1.
         21   -1    0    0  503  504 -0.00000000000E+00 -0.00000000000E+00 -0.78131488364E+03  0.78131488364E+03  0.00000000000E+00 0.  1.
         25    2    1    2    0    0 -0.75402630039E+02 -0.41805081653E+01 -0.23371459587E+03  0.27559268940E+03  0.12500313941E+03 0.  0.
         25    2    1    2    0    0  0.75402630039E+02  0.41805081653E+01 -0.51653416648E+03  0.53678831553E+03  0.12502446672E+03 0.  0.
          5    1    3    3  501    0  0.11085639182E+02  0.44088704094E+02 -0.90720779176E+02  0.10158274952E+03  0.47000000000E+01 0. -1.
         -5    1    3    3    0  501 -0.86488269222E+02 -0.48269212259E+02 -0.14299381670E+03  0.17400993988E+03  0.47000000000E+01 0. -1.
          5    1    4    4  502    0 -0.34722387429E+02 -0.31229079834E+01 -0.10814941612E+03  0.11372679082E+03  0.47000000000E+01 0. -1.
         -5    1    4    4    0  502  0.11012501747E+03  0.73034161487E+01 -0.40838475036E+03  0.42306152471E+03  0.47000000000E+01 0. -1.
<mgrwt>
<rscale>  0 0.31159219E+03</rscale>
<asrwt>0</asrwt>
<pdfrwt beam="1">  1       21 0.47794038E-02 0.31159219E+03</pdfrwt>
<pdfrwt beam="2">  1       21 0.12020228E+00 0.31159219E+03</pdfrwt>
<totfact> 0.14670313E+05</totfact>
</mgrwt>
</event>
<event>
 8    1  0.9691636E-006  0.4196120E+03  0.7546771E-02  0.1037193E+00
         21   -1    0    0  504  503  0.00000000000E+00  0.00000000000E+00  0.53256587520E+02  0.53256587520E+02  0.00000000000E+00 0. -1.
         21   -1    0    0  503  504 -0.00000000000E+00 -0.00000000000E+00 -0.82653731998E+03  0.82653731998E+03  0.00000000000E+00 0. -1.
         25    2    1    2    0    0 -0.16655839002E+03 -0.25265418893E+02 -0.39442689796E+03  0.44674085750E+03  0.12499910899E+03 0.  0.
         25    2    1    2    0    0  0.16655839002E+03  0.25265418893E+02 -0.37885383450E+03  0.43305305000E+03  0.12499871008E+03 0.  0.
          5    1    3    3  501    0 -0.91260186472E+02 -0.75422368380E+02 -0.20539571764E+03  0.23712116336E+03  0.47000000000E+01 0. -1.
         -5    1    3    3    0  501 -0.75298203548E+02  0.50156949487E+02 -0.18903118032E+03  0.20961969414E+03  0.47000000000E+01 0. -1.
          5    1    4    4  502    0  0.18159604802E+02 -0.13964378875E+02 -0.18144637509E+03  0.18294712940E+03  0.47000000000E+01 0.  1.
         -5    1    4    4    0  502  0.14839878522E+03  0.39229797768E+02 -0.19740745941E+03  0.25010592060E+03  0.47000000000E+01 0.  1.
<mgrwt>
<rscale>  0 0.41961200E+03</rscale>
<asrwt>0</asrwt>
<pdfrwt beam="1">  1       21 0.81933209E-02 0.41961200E+03</pdfrwt>
<pdfrwt beam="2">  1       21 0.12715959E+00 0.41961200E+03</pdfrwt>
<totfact> 0.48350941E+04</totfact>
</mgrwt>
</event>
<event>
 8    1  0.9691636E-006  0.4591512E+03  0.7546771E-02  0.1025028E+00
         21   -1    0    0  504  503  0.00000000000E+00  0.00000000000E+00  0.20992002058E+03  0.20992002058E+03  0.00000000000E+00 0.  1.
         21   -1    0    0  503  504 -0.00000000000E+00 -0.00000000000E+00 -0.25107161611E+03  0.25107161611E+03  0.00000000000E+00 0.  1.
         25    2    1    2    0    0 -0.45280566865E+02  0.13306143484E+03 -0.15272553508E+03  0.24229138907E+03  0.12499741186E+03 0.  0.
         25    2    1    2    0    0  0.45280566865E+02 -0.13306143484E+03  0.11157393955E+03  0.21870024763E+03  0.12500151658E+03 0.  0.
          5    1    3    3  501    0 -0.30450070632E+02  0.15242394245E+03 -0.15198245031E+03  0.21744199281E+03  0.47000000000E+01 0. -1.
         -5    1    3    3    0  501 -0.14830496233E+02 -0.19362507609E+02 -0.74308476770E+00  0.24849396258E+02  0.47000000000E+01 0. -1.
          5    1    4    4  502    0  0.43412145468E+00 -0.14203777850E+03  0.83579660342E+02  0.16487136988E+03  0.47000000000E+01 0. -1.
         -5    1    4    4    0  502  0.44846445410E+02  0.89763436557E+01  0.27994279209E+02  0.53828877750E+02  0.47000000000E+01 0. -1.
<mgrwt>
<rscale>  0 0.45915121E+03</rscale>
<asrwt>0</asrwt>
<pdfrwt beam="1">  1       21 0.32295388E-01 0.45915121E+03</pdfrwt>
<pdfrwt beam="2">  1       21 0.38626402E-01 0.45915121E+03</pdfrwt>
<totfact> 0.54908543E+04</totfact>
</mgrwt>
</event>
<event>
 8    1  0.9691636E-006  0.3101343E+03  0.7546771E-02  0.1080281E+00
         21   -1    0    0  504  503  0.00000000000E+00  0.00000000000E+00  0.35735810293E+02  0.35735810293E+02  0.00000000000E+00 0. -1.
         21   -1    0    0  503  504 -0.00000000000E+00 -0.00000000000E+00 -0.67287764580E+03  0.67287764580E+03  0.00000000000E+00 0. -1.
         25    2    1    2    0    0 -0.37438381498E+02  0.14321462931E+02 -0.50718005499E+03  0.52389442816E+03  0.12500810759E+03 0.  0.
         25    2    1    2    0    0  0.37438381498E+02 -0.14321462931E+02 -0.12996178051E+03  0.18471902793E+03  0.12499727268E+03 0.  0.
          5    1    3    3  501    0  0.71628992790E+01 -0.44114995572E+02 -0.31303938617E+03  0.31624861621E+03  0.47000000000E+01 0.  1.
         -5    1    3    3    0  501 -0.44601280777E+02  0.58436458503E+02 -0.19414066882E+03  0.20764581195E+03  0.47000000000E+01 0.  1.
          5    1    4    4  502    0  0.55721385266E+02  0.28932209729E+02 -0.21661482282E+02  0.66582695578E+02  0.47000000000E+01 0. -1.
         -5    1    4    4    0  502 -0.18283003768E+02 -0.43253672660E+02 -0.10830029823E+03  0.11813633236E+03  0.47000000000E+01 0. -1.
<mgrwt>
<rscale>  0 0.31013434E+03</rscale>
<asrwt>0</asrwt>
<pdfrwt beam="1">  1       21 0.54978169E-02 0.31013434E+03</pdfrwt>
<pdfrwt beam="2">  1       21 0.10351964E+00 0.31013434E+03</pdfrwt>
<totfact> 0.16680221E+05</totfact>
</mgrwt>
</event>
<event>
 8    1  0.9691636E-006  0.3099123E+03  0.7546771E-02  0.1080388E+00
         21   -1    0    0  504  503  0.00000000000E+00  0.00000000000E+00  0.20201743126E+03  0.20201743126E+03  0.00000000000E+00 0.  1.
         21   -1    0    0  503  504 -0.00000000000E+00 -0.00000000000E+00 -0.11885812711E+03  0.11885812711E+03  0.00000000000E+00 0.  1.
         25    2    1    2    0    0 -0.80575773643E+02 -0.13507357579E+02 -0.12376318286E+01  0.14933874935E+03  0.12500250525E+03 0.  0.
         25    2    1    2    0    0  0.80575773643E+02  0.13507357579E+02  0.84396935972E+02  0.17153680902E+03  0.12500851987E+03 0.  0.
          5    1    3    3  501    0 -0.25188232992E+02  0.54932944405E+02  0.57805190739E+01  0.60889899516E+02  0.47000000000E+01 0. -1.
         -5    1    3    3    0  501 -0.55387540650E+02 -0.68440301984E+02 -0.70181509025E+01  0.88448849834E+02  0.47000000000E+01 0. -1.
          5    1    4    4  502    0  0.23601087150E+01 -0.35419272468E+02  0.69202998184E+02  0.77918161766E+02  0.47000000000E+01 0. -1.
         -5    1    4    4    0  502  0.78215664928E+02  0.48926630047E+02  0.15193937788E+02  0.93618647252E+02  0.47000000000E+01 0. -1.
<mgrwt>
<rscale>  0 0.30991233E+03</rscale>
<asrwt>0</asrwt>
<pdfrwt beam="1">  1       21 0.31079605E-01 0.30991233E+03</pdfrwt>
<pdfrwt beam="2">  1       21 0.18285866E-01 0.30991233E+03</pdfrwt>
<totfact> 0.26372169E+05</totfact>
</mgrwt>
</event>
<event>
 8    1  0.9691636E-006  0.3449384E+03  0.7546771E-02  0.1064712E+00
         21   -1    0    0  504  503  0.00000000000E+00  0.00000000000E+00  0.11960460651E+04  0.11960460651E+04  0.00000000000E+00 0.  1.
         21   -1    0    0  503  504 -0.00000000000E+00 -0.00000000000E+00 -0.24869959731E+02  0.24869959731E+02  0.00000000000E+00 0.  1.
         25    2    1    2    0    0  0.99956290881E+02 -0.49819366666E+02  0.44187502828E+03  0.47260059336E+03  0.12499820338E+03 0.  0.
         25    2    1    2    0    0 -0.99956290881E+02  0.49819366666E+02  0.72930107711E+03  0.74831543149E+03  0.12499077785E+03 0.  0.
          5    1    3    3  501    0  0.46532425090E+02 -0.52520114880E+02  0.78972471792E+02  0.10574672739E+03  0.47000000000E+01 0.  1.
         -5    1    3    3    0  501  0.53423865791E+02  0.27007482139E+01  0.36290255649E+03  0.36685386598E+03  0.47000000000E+01 0.  1.
          5    1    4    4  502    0  0.61215736117E+01 -0.25479629328E+02  0.25794782941E+03  0.25931806314E+03  0.47000000000E+01 0. -1.
         -5    1    4    4    0  502 -0.10607786449E+03  0.75298995994E+02  0.47135324770E+03  0.48899736834E+03  0.47000000000E+01 0. -1.
<mgrwt>
<rscale>  0 0.34493836E+03</rscale>
<asrwt>0</asrwt>
<pdfrwt beam="1">  1       21 0.18400704E+00 0.34493836E+03</pdfrwt>
<pdfrwt beam="2">  1       21 0.38261486E-02 0.34493836E+03</pdfrwt>
<totfact> 0.67358448E+04</totfact>
</mgrwt>
</event>
<event>
 8    1  0.9691636E-006  0.2724386E+03  0.7546771E-02  0.1099892E+00
         21   -1    0    0  504  503  0.00000000000E+00  0.00000000000E+00  0.15762526645E+02  0.15762526645E+02  0.00000000000E+00 0.  1.
         21   -1    0    0  503  504 -0.00000000000E+00 -0.00000000000E+00 -0.11772028828E+04  0.11772028828E+04  0.00000000000E+00 0.  1.
         25    2    1    2    0    0  0.36906659623E+02 -0.26239358403E+02 -0.45074717483E+03  0.46994434078E+03  0.12499624938E+03 0.  0.
         25    2    1    2    0    0 -0.36906659623E+02  0.26239358403E+02 -0.71069318131E+03  0.72302106865E+03  0.12499624913E+03 0.  0.
          5    1    3    3  501    0 -0.39652297778E+02 -0.36473183261E+02 -0.22076745450E+03  0.22729486748E+03  0.47000000000E+01 0.  1.
         -5    1    3    3    0  501  0.76558957401E+02  0.10233824858E+02 -0.22997972033E+03  0.24264947330E+03  0.47000000000E+01 0.  1.
          5    1    4    4  502    0  0.30855636995E+02  0.49184031150E+02 -0.39618295559E+03  0.40044245973E+03  0.47000000000E+01 0. -1.
         -5    1    4    4    0  502 -0.67762296617E+02 -0.22944672747E+02 -0.31451022572E+03  0.32257860892E+03  0.47000000000E+01 0. -1.
<mgrwt>
<rscale>  0 0.27243856E+03</rscale>
<asrwt>0</asrwt>
<pdfrwt beam="1">  1       21 0.24250044E-02 0.27243856E+03</pdfrwt>
<pdfrwt beam="2">  1       21 0.18110811E+00 0.27243856E+03</pdfrwt>
<totfact> 0.15518167E+05</totfact>
</mgrwt>
</event>
<event>
 8    1  0.9691636E-006  0.4257176E+03  0.7546771E-02  0.1035221E+00
         21   -1    0    0  504  503  0.00000000000E+00  0.00000000000E+00  0.21862116464E+02  0.21862116464E+02  0.00000000000E+00 0.  1.
         21   -1    0    0  503  504 -0.00000000000E+00 -0.00000000000E+00 -0.20724831716E+04  0.20724831716E+04  0.00000000000E+00 0.  1.
         25    2    1    2    0    0  0.15864408854E+03  0.34985977625E+02 -0.13074148278E+04  0.13233859359E+04  0.12499935250E+03 0.  0.
         25    2    1    2    0    0 -0.15864408854E+03 -0.34985977625E+02 -0.74320622733E+03  0.77095935209E+03  0.12502344085E+03 0.  0.
          5    1    3    3  501    0  0.15777315914E+03  0.49429573952E+02 -0.86280683301E+03  0.87851771388E+03  0.47000000000E+01 0.  1.
         -5    1    3    3    0  501  0.87092940932E+00 -0.14443596327E+02 -0.44460799476E+03  0.44486822206E+03  0.47000000000E+01 0.  1.
          5    1    4    4  502    0 -0.17387922041E+03 -0.27861113581E+02 -0.56318097953E+03  0.59008908704E+03  0.47000000000E+01 0. -1.
         -5    1    4    4    0  502  0.15235131867E+02 -0.71248640441E+01 -0.18002524780E+03  0.18087026504E+03  0.47000000000E+01 0. -1.
<mgrwt>
<rscale>  0 0.42571760E+03</rscale>
<asrwt>0</asrwt>
<pdfrwt beam="1">  1       21 0.33634029E-02 0.42571760E+03</pdfrwt>
<pdfrwt beam="2">  1       21 0.31884353E+00 0.42571760E+03</pdfrwt>
<totfact> 0.11790293E+04</totfact>
</mgrwt>
</event>
<event>
 8    1  0.9691636E-006  0.2772336E+03  0.7546771E-02  0.1097210E+00
         21   -1    0    0  504  503  0.00000000000E+00  0.00000000000E+00  0.39621871959E+02  0.39621871959E+02  0.00000000000E+00 0.  1.
         21   -1    0    0  503  504 -0.00000000000E+00 -0.00000000000E+00 -0.48494972879E+03  0.48494972879E+03  0.00000000000E+00 0.  1.
         25    2    1    2    0    0 -0.11623921534E+02  0.57366258178E+02 -0.19846806187E+03  0.24174564382E+03  0.12500152637E+03 0.  0.
         25    2    1    2    0    0  0.11623921534E+02 -0.57366258178E+02 -0.24685979496E+03  0.28282595693E+03  0.12499904166E+03 0.  0.
          5    1    3    3  501    0  0.33890516210E+02 -0.16482956970E+02 -0.11562557046E+03  0.12170298888E+03  0.47000000000E+01 0. -1.
         -5    1    3    3    0  501 -0.45514437745E+02  0.73849215148E+02 -0.82842491412E+02  0.12004265494E+03  0.47000000000E+01 0. -1.
          5    1    4    4  502    0  0.17302611989E+02 -0.53595076928E+02 -0.26066878101E+03  0.26672479458E+03  0.47000000000E+01 0.  1.
         -5    1    4    4    0  502 -0.56786904546E+01 -0.37711812499E+01  0.13808986046E+02  0.16101162347E+02  0.47000000000E+01 0.  1.
<mgrwt>
<rscale>  0 0.27723359E+03</rscale>
<asrwt>0</asrwt>
<pdfrwt beam="1">  1       21 0.60956723E-02 0.27723359E+03</pdfrwt>
<pdfrwt beam="2">  1       21 0.74607654E-01 0.27723359E+03</pdfrwt>
<totfact> 0.30211480E+05</totfact>
</mgrwt>
</event>
<event>
 8    1  0.9691636E-006  0.4909872E+03  0.7546771E-02  0.1016159E+00
         21   -1    0    0  504  503  0.00000000000E+00  0.00000000000E+00  0.23978589076E+03  0.23978589076E+03  0.00000000000E+00 0. -1.
         21   -1    0    0  503  504 -0.00000000000E+00 -0.00000000000E+00 -0.25133719308E+03  0.25133719308E+03  0.00000000000E+00 0. -1.
         25    2    1    2    0    0  0.73446685454E+02  0.13338446648E+03  0.14071712394E+03  0.24209924531E+03  0.12499961642E+03 0.  0.
         25    2    1    2    0    0 -0.73446685454E+02 -0.13338446648E+03 -0.15226842626E+03  0.24902383853E+03  0.12506545094E+03 0.  0.
          5    1    3    3  501    0 -0.25509657082E+02  0.18820815866E+02 -0.43918811975E+01  0.32347246170E+02  0.47000000000E+01 0.  1.
         -5    1    3    3    0  501  0.98956342536E+02  0.11456365062E+03  0.14510900513E+03  0.20975199914E+03  0.47000000000E+01 0.  1.
          5    1    4    4  502    0  0.45958513715E+00 -0.49282868221E+02 -0.12390599798E+03  0.13343087594E+03  0.47000000000E+01 0.  1.
         -5    1    4    4    0  502 -0.73906270591E+02 -0.84101598263E+02 -0.28362428283E+02  0.11559296259E+03  0.47000000000E+01 0.  1.
<mgrwt>
<rscale>  0 0.49098722E+03</rscale>
<asrwt>0</asrwt>
<pdfrwt beam="1">  1       21 0.36890137E-01 0.49098722E+03</pdfrwt>
<pdfrwt beam="2">  1       21 0.38667261E-01 0.49098722E+03</pdfrwt>
<totfact> 0.41589697E+04</totfact>
</mgrwt>
</event>
<event>
 8    1  0.9691636E-006  0.3097054E+03  0.7546771E-02  0.1080487E+00
         21   -1    0    0  504  503  0.00000000000E+00  0.00000000000E+00  0.16349105616E+03  0.16349105616E+03  0.00000000000E+00 0. -1.
         21   -1    0    0  503  504 -0.00000000000E+00 -0.00000000000E+00 -0.14667081158E+03  0.14667081158E+03  0.00000000000E+00 0. -1.
         25    2    1    2    0    0 -0.42827752660E+02 -0.43346798055E+02  0.76625432669E+02  0.15877398936E+03  0.12499824586E+03 0.  0.
         25    2    1    2    0    0  0.42827752660E+02  0.43346798055E+02 -0.59805188093E+02  0.15138787838E+03  0.12501387082E+03 0.  0.
          5    1    3    3  501    0 -0.66687644098E+02  0.20890380805E+02  0.33195377867E+02  0.77509180084E+02  0.47000000000E+01 0.  1.
         -5    1    3    3    0  501  0.23859891438E+02 -0.64237178861E+02  0.43430054802E+02  0.81264809281E+02  0.47000000000E+01 0.  1.
          5    1    4    4  502    0 -0.44858884488E+01 -0.87492759996E+01 -0.77830406673E+02  0.78589663624E+02  0.47000000000E+01 0.  1.
         -5    1    4    4    0  502  0.47313641109E+02  0.52096074055E+02  0.18025218579E+02  0.72798214757E+02  0.47000000000E+01 0.  1.
<mgrwt>
<rscale>  0 0.30970545E+03</rscale>
<asrwt>0</asrwt>
<pdfrwt beam="1">  1       21 0.25152470E-01 0.30970545E+03</pdfrwt>
<pdfrwt beam="2">  1       21 0.22564740E-01 0.30970545E+03</pdfrwt>
<totfact> 0.26798555E+05</totfact>
</mgrwt>
</event>
<event>
 8    1  0.9691636E-006  0.3295587E+03  0.7546771E-02  0.1071332E+00
         21   -1    0    0  504  503  0.00000000000E+00  0.00000000000E+00  0.43699324846E+03  0.43699324846E+03  0.00000000000E+00 0. -1.
         21   -1    0    0  503  504 -0.00000000000E+00 -0.00000000000E+00 -0.62134236976E+02  0.62134236976E+02  0.00000000000E+00 0. -1.
         25    2    1    2    0    0 -0.29449658511E+02  0.65429339402E+02  0.30841578882E+03  0.34043073760E+03  0.12499802984E+03 0.  0.
         25    2    1    2    0    0  0.29449658511E+02 -0.65429339402E+02  0.66443222656E+02  0.15869674783E+03  0.12498669967E+03 0.  0.
          5    1    3    3  501    0 -0.14723866492E+02  0.14618549280E+02  0.27882147460E+03  0.27963189897E+03  0.47000000000E+01 0.  1.
         -5    1    3    3    0  501 -0.14725792019E+02  0.50810790122E+02  0.29594314227E+02  0.60798838624E+02  0.47000000000E+01 0.  1.
          5    1    4    4  502    0  0.71230921831E+02 -0.88906692664E+01  0.45787827156E+02  0.85273110302E+02  0.47000000000E+01 0.  1.
         -5    1    4    4    0  502 -0.41781263320E+02 -0.56538670136E+02  0.20655395501E+02  0.73423637533E+02  0.47000000000E+01 0.  1.
<mgrwt>
<rscale>  0 0.32955875E+03</rscale>
<asrwt>0</asrwt>
<pdfrwt beam="1">  1       21 0.67229728E-01 0.32955875E+03</pdfrwt>
<pdfrwt beam="2">  1       21 0.95591137E-02 0.32955875E+03</pdfrwt>
<totfact> 0.17122171E+05</totfact>
</mgrwt>
</event>
<event>
 8    1  0.9691636E-006  0.2830108E+03  0.7546771E-02  0.1094056E+00
         21   -1    0    0  504  503  0.00000000000E+00  0.00000000000E+00  0.15532754011E+03  0.15532754011E+03  0.00000000000E+00 0. -1.
         21   -1    0    0  503  504 -0.00000000000E+00 -0.00000000000E+00 -0.12891321288E+03  0.12891321288E+03  0.00000000000E+00 0. -1.
         25    2    1    2    0    0  0.61811926437E+02 -0.21284404124E+02  0.20053906531E+01  0.14108597405E+03  0.12500996109E+03 0.  0.
         25    2    1    2    0    0 -0.61811926437E+02  0.21284404124E+02  0.24408936582E+02  0.14315477894E+03  0.12499501766E+03 0.  0.
          5    1    3    3  501    0 -0.10840952681E+02  0.28579170561E+02  0.35154878000E+02  0.46821476826E+02  0.47000000000E+01 0. -1.
         -5    1    3    3    0  501  0.72652879119E+02 -0.49863574686E+02 -0.33149487347E+02  0.94264497219E+02  0.47000000000E+01 0. -1.
          5    1    4    4  502    0 -0.40596778797E+02 -0.51102072027E+02  0.13167177974E+02  0.66745672444E+02  0.47000000000E+01 0.  1.
         -5    1    4    4    0  502 -0.21215147640E+02  0.72386476151E+02  0.11241758608E+02  0.76409106497E+02  0.47000000000E+01 0.  1.
<mgrwt>
<rscale>  0 0.28301076E+03</rscale>
<asrwt>0</asrwt>
<pdfrwt beam="1">  1       21 0.23896544E-01 0.28301076E+03</pdfrwt>
<pdfrwt beam="2">  1       21 0.19832802E-01 0.28301076E+03</pdfrwt>
<totfact> 0.37969200E+05</totfact>
</mgrwt>
</event>
<event>
 8    1  0.9691636E-006  0.3074563E+03  0.7546771E-02  0.1081572E+00
         21   -1    0    0  504  503  0.00000000000E+00  0.00000000000E+00  0.14856905644E+02  0.14856905644E+02  0.00000000000E+00 0.  1.
         21   -1    0    0  503  504 -0.00000000000E+00 -0.00000000000E+00 -0.15906643233E+04  0.15906643233E+04  0.00000000000E+00 0.  1.
         25    2    1    2    0    0  0.11870615011E+02  0.12809403410E+02 -0.32959989542E+03  0.35293852445E+03  0.12499807464E+03 0.  0.
         25    2    1    2    0    0 -0.11870615011E+02 -0.12809403410E+02 -0.12462075222E+04  0.12525827045E+04  0.12500100322E+03 0.  0.
          5    1    3    3  501    0 -0.15620237108E+02 -0.42869479516E+02 -0.23666356724E+03  0.24106745558E+03  0.47000000000E+01 0.  1.
         -5    1    3    3    0  501  0.27490852119E+02  0.55678882926E+02 -0.92936328181E+02  0.11187106887E+03  0.47000000000E+01 0.  1.
          5    1    4    4  502    0 -0.50871949317E+02 -0.23354400432E+02 -0.28324198080E+03  0.28875853742E+03  0.47000000000E+01 0.  1.
         -5    1    4    4    0  502  0.39001334306E+02  0.10544997022E+02 -0.96296554143E+03  0.96382416707E+03  0.47000000000E+01 0.  1.
<mgrwt>
<rscale>  0 0.30745634E+03</rscale>
<asrwt>0</asrwt>
<pdfrwt beam="1">  1       21 0.22856783E-02 0.30745634E+03</pdfrwt>
<pdfrwt beam="2">  1       21 0.24471753E+00 0.30745634E+03</pdfrwt>
<totfact> 0.66116567E+04</totfact>
</mgrwt>
</event>
<event>
 8    1  0.9691636E-006  0.2591346E+03  0.7546771E-02  0.1107664E+00
         21   -1    0    0  504  503  0.00000000000E+00  0.00000000000E+00  0.26030770532E+03  0.26030770532E+03  0.00000000000E+00 0.  1.
         21   -1    0    0  503  504 -0.00000000000E+00 -0.00000000000E+00 -0.64491689404E+02  0.64491689404E+02  0.00000000000E+00 0.  1.
         25    2    1    2    0    0 -0.25676839310E+02 -0.21956327039E+02  0.91607687286E+02  0.15861593986E+03  0.12500267051E+03 0.  0.
         25    2    1    2    0    0  0.25676839310E+02  0.21956327039E+02  0.10420832863E+03  0.16618345486E+03  0.12496473318E+03 0.  0.
          5    1    3    3  501    0 -0.58434295253E+01 -0.73592181121E+02  0.52000858259E+02  0.90421977696E+02  0.47000000000E+01 0. -1.
         -5    1    3    3    0  501 -0.19833409784E+02  0.51635854082E+02  0.39606829027E+02  0.68193962167E+02  0.47000000000E+01 0. -1.
          5    1    4    4  502    0 -0.38797564370E+02  0.42169311342E+02  0.27128979085E+02  0.63573369631E+02  0.47000000000E+01 0.  1.
         -5    1    4    4    0  502  0.64474403680E+02 -0.20212984303E+02  0.77079349541E+02  0.10261008523E+03  0.47000000000E+01 0.  1.
<mgrwt>
<rscale>  0 0.25913459E+03</rscale>
<asrwt>0</asrwt>
<pdfrwt beam="1">  1       21 0.40047339E-01 0.25913459E+03</pdfrwt>
<pdfrwt beam="2">  1       21 0.99217985E-02 0.25913459E+03</pdfrwt>
<totfact> 0.48790537E+05</totfact>
</mgrwt>
</event>
<event>
 8    1  0.9691636E-006  0.2893003E+03  0.7546771E-02  0.1090715E+00
         21   -1    0    0  504  503  0.00000000000E+00  0.00000000000E+00  0.35631419747E+03  0.35631419747E+03  0.00000000000E+00 0. -1.
         21   -1    0    0  503  504 -0.00000000000E+00 -0.00000000000E+00 -0.58722531654E+02  0.58722531654E+02  0.00000000000E+00 0. -1.
         25    2    1    2    0    0  0.50742753940E+02  0.17248399135E+02  0.78094851491E+02  0.15682827829E+03  0.12499587470E+03 0.  0.
         25    2    1    2    0    0 -0.50742753940E+02 -0.17248399135E+02  0.21949681433E+03  0.25820845084E+03  0.12498167159E+03 0.  0.
          5    1    3    3  501    0  0.59924484712E+01 -0.49151708987E+02  0.81431740054E+01  0.50400408906E+02  0.47000000000E+01 0. -1.
         -5    1    3    3    0  501  0.44750305469E+02  0.66400108122E+02  0.69951677485E+02  0.10642786938E+03  0.47000000000E+01 0. -1.
          5    1    4    4  502    0 -0.17268319305E+02  0.13258959858E+02  0.21064869161E+03  0.21182293583E+03  0.47000000000E+01 0. -1.
         -5    1    4    4    0  502 -0.33474434635E+02 -0.30507358993E+02  0.88481227199E+01  0.46385515008E+02  0.47000000000E+01 0. -1.
<mgrwt>
<rscale>  0 0.28930034E+03</rscale>
<asrwt>0</asrwt>
<pdfrwt beam="1">  1       21 0.54817568E-01 0.28930034E+03</pdfrwt>
<pdfrwt beam="2">  1       21 0.90342358E-02 0.28930034E+03</pdfrwt>
<totfact> 0.29775417E+05</totfact>
</mgrwt>
</event>
<event>
 8    1  0.9691636E-006  0.2703118E+03  0.7546771E-02  0.1101101E+00
         21   -1    0    0  504  503  0.00000000000E+00  0.00000000000E+00  0.30322566468E+03  0.30322566468E+03  0.00000000000E+00 0.  1.
         21   -1    0    0  503  504 -0.00000000000E+00 -0.00000000000E+00 -0.60242631393E+02  0.60242631393E+02  0.00000000000E+00 0.  1.
         25    2    1    2    0    0  0.95501898508E+01  0.12022794289E+02  0.18744420100E+03  0.22582390199E+03  0.12500141004E+03 0.  0.
         25    2    1    2    0    0 -0.95501898508E+01 -0.12022794289E+02  0.55538832289E+02  0.13764439408E+03  0.12500265446E+03 0.  0.
          5    1    3    3  501    0 -0.45550024909E+02 -0.44535430343E+01  0.15033768108E+03  0.15722005969E+03  0.47000000000E+01 0.  1.
         -5    1    3    3    0  501  0.55100214759E+02  0.16476337323E+02  0.37106519913E+02  0.68603842299E+02  0.47000000000E+01 0.  1.
          5    1    4    4  502    0  0.27003636823E+02  0.92210093042E+01  0.82404754677E+02  0.87331878530E+02  0.47000000000E+01 0.  1.
         -5    1    4    4    0  502 -0.36553826674E+02 -0.21243803593E+02 -0.26865922388E+02  0.50312515554E+02  0.47000000000E+01 0.  1.
<mgrwt>
<rscale>  0 0.27031176E+03</rscale>
<asrwt>0</asrwt>
<pdfrwt beam="1">  1       21 0.46650101E-01 0.27031176E+03</pdfrwt>
<pdfrwt beam="2">  1       21 0.92680973E-02 0.27031176E+03</pdfrwt>
<totfact> 0.40137158E+05</totfact>
</mgrwt>
</event>
<event>
 8    1  0.9691636E-006  0.2931213E+03  0.7546771E-02  0.1088731E+00
         21   -1    0    0  504  503  0.00000000000E+00  0.00000000000E+00  0.10742262446E+04  0.10742262446E+04  0.00000000000E+00 0.  1.
         21   -1    0    0  503  504 -0.00000000000E+00 -0.00000000000E+00 -0.19995803687E+02  0.19995803687E+02  0.00000000000E+00 0.  1.
         25    2    1    2    0    0 -0.47525380335E+02 -0.27211869683E+02  0.72661353462E+03  0.73931741139E+03  0.12499543379E+03 0.  0.
         25    2    1    2    0    0  0.47525380335E+02  0.27211869683E+02  0.32761690629E+03  0.35490463689E+03  0.12500126548E+03 0.  0.
          5    1    3    3  501    0 -0.25814305430E+01  0.37637794712E+02  0.88406848088E+02  0.96234755485E+02  0.47000000000E+01 0. -1.
         -5    1    3    3    0  501 -0.44943949792E+02 -0.64849664395E+02  0.63820668653E+03  0.64308265590E+03  0.47000000000E+01 0. -1.
          5    1    4    4  502    0 -0.58837371824E+01 -0.15826956574E+01 -0.95641134586E+01  0.12275404475E+02  0.47000000000E+01 0.  1.
         -5    1    4    4    0  502  0.53409117518E+02  0.28794565340E+02  0.33718101975E+03  0.34262923241E+03  0.47000000000E+01 0.  1.
<mgrwt>
<rscale>  0 0.29312125E+03</rscale>
<asrwt>0</asrwt>
<pdfrwt beam="1">  1       21 0.16526553E+00 0.29312125E+03</pdfrwt>
<pdfrwt beam="2">  1       21 0.30762783E-02 0.29312125E+03</pdfrwt>
<totfact> 0.13431194E+05</totfact>
</mgrwt>
</event>
<event>
 8    1  0.9691636E-006  0.3666214E+03  0.7546771E-02  0.1055992E+00
         21   -1    0    0  504  503  0.00000000000E+00  0.00000000000E+00  0.92221536963E+03  0.92221536963E+03  0.00000000000E+00 0. -1.
         21   -1    0    0  503  504 -0.00000000000E+00 -0.00000000000E+00 -0.36437065184E+02  0.36437065184E+02  0.00000000000E+00 0. -1.
         25    2    1    2    0    0  0.12195712123E+03  0.47837286383E+02  0.36813573671E+03  0.41025779319E+03  0.12500236336E+03 0.  0.
         25    2    1    2    0    0 -0.12195712123E+03 -0.47837286383E+02  0.51764256774E+03  0.54839464162E+03  0.12498363747E+03 0.  0.
          5    1    3    3  501    0 -0.10032363460E+02  0.73317554092E+01 -0.35322507892E+01  0.13746626845E+02  0.47000000000E+01 0.  1.
         -5    1    3    3    0  501  0.13198948469E+03  0.40505530974E+02  0.37166798750E+03  0.39651116635E+03  0.47000000000E+01 0.  1.
          5    1    4    4  502    0 -0.12704983137E+01  0.33142162124E+02  0.67627884691E+02  0.75469449872E+02  0.47000000000E+01 0.  1.
         -5    1    4    4    0  502 -0.12068662292E+03 -0.80979448508E+02  0.45001468305E+03  0.47292519175E+03  0.47000000000E+01 0.  1.
<mgrwt>
<rscale>  0 0.36662145E+03</rscale>
<asrwt>0</asrwt>
<pdfrwt beam="1">  1       21 0.14187927E+00 0.36662145E+03</pdfrwt>
<pdfrwt beam="2">  1       21 0.56057030E-02 0.36662145E+03</pdfrwt>
<totfact> 0.71613582E+04</totfact>
</mgrwt>
</event>
<event>
 8    1  0.9691636E-006  0.2620941E+03  0.7546771E-02  0.1105892E+00
         21   -1    0    0  504  503  0.00000000000E+00  0.00000000000E+00  0.37539029642E+02  0.37539029642E+02  0.00000000000E+00 0.  1.
         21   -1    0    0  503  504 -0.00000000000E+00 -0.00000000000E+00 -0.45747945108E+03  0.45747945108E+03  0.00000000000E+00 0.  1.
         25    2    1    2    0    0 -0.25933277647E+02  0.20414567325E+02 -0.16966499836E+03  0.21332151069E+03  0.12502226125E+03 0.  0.
         25    2    1    2    0    0  0.25933277647E+02 -0.20414567325E+02 -0.25027542308E+03  0.28169697003E+03  0.12500442423E+03 0.  0.
          5    1    3    3  501    0 -0.17788877148E+02  0.16956081076E+02  0.14476962147E+02  0.28907183685E+02  0.47000000000E+01 0.  1.
         -5    1    3    3    0  501 -0.81444004993E+01  0.34584862492E+01 -0.18414196051E+03  0.18441432701E+03  0.47000000000E+01 0.  1.
          5    1    4    4  502    0  0.84270316932E+00 -0.60793987679E+02 -0.21166135457E+03  0.22027082900E+03  0.47000000000E+01 0. -1.
         -5    1    4    4    0  502  0.25090574478E+02  0.40379420355E+02 -0.38614068506E+02  0.61426141034E+02  0.47000000000E+01 0. -1.
<mgrwt>
<rscale>  0 0.26209414E+03</rscale>
<asrwt>0</asrwt>
<pdfrwt beam="1">  1       21 0.57752354E-02 0.26209414E+03</pdfrwt>
<pdfrwt beam="2">  1       21 0.70381454E-01 0.26209414E+03</pdfrwt>
<totfact> 0.37904192E+05</totfact>
</mgrwt>
</event>
<event>
 8    1  0.9691636E-006  0.2674358E+03  0.7546771E-02  0.1102756E+00
         21   -1    0    0  504  503  0.00000000000E+00  0.00000000000E+00  0.13531470211E+02  0.13531470211E+02  0.00000000000E+00 0. -1.
         21   -1    0    0  503  504 -0.00000000000E+00 -0.00000000000E+00 -0.13213994350E+04  0.13213994350E+04  0.00000000000E+00 0. -1.
         25    2    1    2    0    0 -0.23933653497E+02  0.27000230489E+02 -0.80815365707E+03  0.81855888170E+03  0.12499790863E+03 0.  0.
         25    2    1    2    0    0  0.23933653497E+02 -0.27000230489E+02 -0.49971430775E+03  0.51637202354E+03  0.12499538035E+03 0.  0.
          5    1    3    3  501    0 -0.63129543420E+02  0.20614966400E+02 -0.24188564679E+03  0.25088059354E+03  0.47000000000E+01 0. -1.
         -5    1    3    3    0  501  0.39195889923E+02  0.63852640888E+01 -0.56626801028E+03  0.56767828817E+03  0.47000000000E+01 0. -1.
          5    1    4    4  502    0  0.50382934595E+02 -0.65666183754E+02 -0.32905524067E+03  0.33933748570E+03  0.47000000000E+01 0. -1.
         -5    1    4    4    0  502 -0.26449281098E+02  0.38665953265E+02 -0.17065906708E+03  0.17703453784E+03  0.47000000000E+01 0. -1.
<mgrwt>
<rscale>  0 0.26743580E+03</rscale>
<asrwt>0</asrwt>
<pdfrwt beam="1">  1       21 0.20817627E-02 0.26743580E+03</pdfrwt>
<pdfrwt beam="2">  1       21 0.20329241E+00 0.26743580E+03</pdfrwt>
<totfact> 0.14225501E+05</totfact>
</mgrwt>
</event>
<event>
 8    1  0.9691636E-006  0.3271237E+03  0.7546771E-02  0.1072417E+00
         21   -1    0    0  504  503  0.00000000000E+00  0.00000000000E+00  0.11813650423E+04  0.11813650423E+04  0.00000000000E+00 0.  1.
         21   -1    0    0  503  504 -0.00000000000E+00 -0.00000000000E+00 -0.22645401831E+02  0.22645401831E+02  0.00000000000E+00 0.  1.
         25    2    1    2    0    0 -0.65869647178E+02  0.81946214605E+02  0.61181376619E+03  0.63324233974E+03  0.12500313530E+03 0.  0.
         25    2    1    2    0    0  0.65869647178E+02 -0.81946214605E+02  0.54690587431E+03  0.57076810442E+03  0.12496479969E+03 0.  0.
          5    1    3    3  501    0 -0.77130137350E+02  0.73235291796E+02  0.60868692561E+03  0.61792744676E+03  0.47000000000E+01 0.  1.
         -5    1    3    3    0  501  0.11260490172E+02  0.87109228094E+01  0.31268405847E+01  0.15314892985E+02  0.47000000000E+01 0.  1.
          5    1    4    4  502    0  0.35225945201E+02  0.30240587752E+02  0.17130509591E+03  0.17754685648E+03  0.47000000000E+01 0. -1.
         -5    1    4    4    0  502  0.30643701977E+02 -0.11218680236E+03  0.37560077840E+03  0.39322124793E+03  0.47000000000E+01 0. -1.
<mgrwt>
<rscale>  0 0.32712374E+03</rscale>
<asrwt>0</asrwt>
<pdfrwt beam="1">  1       21 0.18174842E+00 0.32712374E+03</pdfrwt>
<pdfrwt beam="2">  1       21 0.34839089E-02 0.32712374E+03</pdfrwt>
<totfact> 0.82302262E+04</totfact>
</mgrwt>
</event>
<event>
 8    1  0.9691636E-006  0.3238794E+03  0.7546771E-02  0.1073878E+00
         21   -1    0    0  504  503  0.00000000000E+00  0.00000000000E+00  0.46968397748E+03  0.46968397748E+03  0.00000000000E+00 0. -1.
         21   -1    0    0  503  504 -0.00000000000E+00 -0.00000000000E+00 -0.55834263246E+02  0.55834263246E+02  0.00000000000E+00 0. -1.
         25    2    1    2    0    0  0.38516893786E+02  0.57463614868E+02  0.33064108080E+03  0.36018562533E+03  0.12499816895E+03 0.  0.
         25    2    1    2    0    0 -0.38516893786E+02 -0.57463614868E+02  0.83208633439E+02  0.16533261540E+03  0.12500231556E+03 0.  0.
          5    1    3    3  501    0  0.82967942299E+02  0.26620973593E+02  0.22666104555E+03  0.24287790195E+03  0.47000000000E+01 0.  1.
         -5    1    3    3    0  501 -0.44451048514E+02  0.30842641276E+02  0.10398003524E+03  0.11730772338E+03  0.47000000000E+01 0.  1.
          5    1    4    4  502    0 -0.39491173791E+02  0.23741236923E+02  0.68465462122E+02  0.82660804748E+02  0.47000000000E+01 0. -1.
         -5    1    4    4    0  502  0.97428000554E+00 -0.81204851791E+02  0.14743171317E+02  0.82671810652E+02  0.47000000000E+01 0. -1.
<mgrwt>
<rscale>  0 0.32387935E+03</rscale>
<asrwt>0</asrwt>
<pdfrwt beam="1">  1       21 0.72259071E-01 0.32387935E+03</pdfrwt>
<pdfrwt beam="2">  1       21 0.85898870E-02 0.32387935E+03</pdfrwt>
<totfact> 0.17643256E+05</totfact>
</mgrwt>
</event>
<event>
 8    1  0.9691636E-006  0.2964231E+03  0.7546771E-02  0.1087042E+00
         21   -1    0    0  504  503  0.00000000000E+00  0.00000000000E+00  0.66464171198E+03  0.66464171198E+03  0.00000000000E+00 0. -1.
         21   -1    0    0  503  504 -0.00000000000E+00 -0.00000000000E+00 -0.33050394028E+02  0.33050394028E+02  0.00000000000E+00 0. -1.
         25    2    1    2    0    0  0.13920565815E+01 -0.44572612224E+02  0.16048671768E+03  0.20825078285E+03  0.12499498560E+03 0.  0.
         25    2    1    2    0    0 -0.13920565815E+01  0.44572612224E+02  0.47110460027E+03  0.48944132316E+03  0.12499843533E+03 0.  0.
          5    1    3    3  501    0 -0.34621569885E+02  0.22904282617E+02  0.10681426135E+03  0.11469366021E+03  0.47000000000E+01 0. -1.
         -5    1    3    3    0  501  0.36013626467E+02 -0.67476894842E+02  0.53672456326E+02  0.93557122641E+02  0.47000000000E+01 0. -1.
          5    1    4    4  502    0  0.61558933093E+02  0.20575271887E+02  0.22146402996E+03  0.23082731776E+03  0.47000000000E+01 0. -1.
         -5    1    4    4    0  502 -0.62950989674E+02  0.23997340337E+02  0.24964057031E+03  0.25861400540E+03  0.47000000000E+01 0. -1.
<mgrwt>
<rscale>  0 0.29642315E+03</rscale>
<asrwt>0</asrwt>
<pdfrwt beam="1">  1       21 0.10225256E+00 0.29642315E+03</pdfrwt>
<pdfrwt beam="2">  1       21 0.50846765E-02 0.29642315E+03</pdfrwt>
<totfact> 0.19720767E+05</totfact>
</mgrwt>
</event>
<event>
 8    1  0.9691636E-006  0.2670605E+03  0.7546771E-02  0.1102974E+00
         21   -1    0    0  504  503  0.00000000000E+00  0.00000000000E+00  0.68438062334E+03  0.68438062334E+03  0.00000000000E+00 0.  1.
         21   -1    0    0  503  504 -0.00000000000E+00 -0.00000000000E+00 -0.26053240814E+02  0.26053240814E+02  0.00000000000E+00 0.  1.
         25    2    1    2    0    0 -0.29436266154E+02  0.35371042437E+02  0.30456996562E+03  0.33243152920E+03  0.12502101119E+03 0.  0.
         25    2    1    2    0    0  0.29436266154E+02 -0.35371042437E+02  0.35375741690E+03  0.37800233495E+03  0.12499540315E+03 0.  0.
          5    1    3    3  501    0 -0.11740639121E+00  0.35861493175E+02  0.30025134082E+03  0.30242192074E+03  0.47000000000E+01 0.  1.
         -5    1    3    3    0  501 -0.29318859763E+02 -0.49045073788E+00  0.43186247974E+01  0.30009608459E+02  0.47000000000E+01 0.  1.
          5    1    4    4  502    0  0.48579548547E+02  0.30483973957E+02  0.22265677084E+03  0.22997254794E+03  0.47000000000E+01 0.  1.
         -5    1    4    4    0  502 -0.19143282393E+02 -0.65855016395E+02  0.13110064606E+03  0.14802978701E+03  0.47000000000E+01 0.  1.
<mgrwt>
<rscale>  0 0.26706054E+03</rscale>
<asrwt>0</asrwt>
<pdfrwt beam="1">  1       21 0.10528931E+00 0.26706054E+03</pdfrwt>
<pdfrwt beam="2">  1       21 0.40081914E-02 0.26706054E+03</pdfrwt>
<totfact> 0.27736316E+05</totfact>
</mgrwt>
</event>
<event>
 8    1  0.9691636E-006  0.3585622E+03  0.7546771E-02  0.1059155E+00
         21   -1    0    0  504  503  0.00000000000E+00  0.00000000000E+00  0.82001778986E+03  0.82001778986E+03  0.00000000000E+00 0.  1.
         21   -1    0    0  503  504 -0.00000000000E+00 -0.00000000000E+00 -0.39196362560E+02  0.39196362560E+02  0.00000000000E+00 0.  1.
         25    2    1    2    0    0  0.26450261702E+02  0.75183552267E+02  0.63200327249E+03  0.64915851832E+03  0.12500585028E+03 0.  0.
         25    2    1    2    0    0 -0.26450261702E+02 -0.75183552267E+02  0.14881815481E+03  0.21005563410E+03  0.12499737332E+03 0.  0.
          5    1    3    3  501    0  0.94751065913E+00  0.86376936267E+02  0.22317115408E+03  0.23935188929E+03  0.47000000000E+01 0. -1.
         -5    1    3    3    0  501  0.25502751043E+02 -0.11193384001E+02  0.40883211841E+03  0.40980662903E+03  0.47000000000E+01 0. -1.
          5    1    4    4  502    0  0.17396359147E+02 -0.94932797452E+01 -0.16869551627E+02  0.26446690606E+02  0.47000000000E+01 0.  1.
         -5    1    4    4    0  502 -0.43846620848E+02 -0.65690272521E+02  0.16568770644E+03  0.18360894349E+03  0.47000000000E+01 0.  1.
<mgrwt>
<rscale>  0 0.35856221E+03</rscale>
<asrwt>0</asrwt>
<pdfrwt beam="1">  1       21 0.12615657E+00 0.35856221E+03</pdfrwt>
<pdfrwt beam="2">  1       21 0.60302102E-02 0.35856221E+03</pdfrwt>
<totfact> 0.85849343E+04</totfact>
</mgrwt>
</event>
<event>
 8    1  0.9691636E-006  0.2537759E+03  0.7546771E-02  0.1110942E+00
         21   -1    0    0  504  503  0.00000000000E+00  0.00000000000E+00  0.32953070810E+03  0.32953070810E+03  0.00000000000E+00 0.  1.
         21   -1    0    0  503  504 -0.00000000000E+00 -0.00000000000E+00 -0.48859038190E+02  0.48859038190E+02  0.00000000000E+00 0.  1.
         25    2    1    2    0    0  0.13923160447E+01  0.21783556244E+00  0.10813907273E+03  0.16529151162E+03  0.12500095507E+03 0.  0.
         25    2    1    2    0    0 -0.13923160447E+01 -0.21783556244E+00  0.17253259718E+03  0.21309823466E+03  0.12506548097E+03 0.  0.
          5    1    3    3  501    0 -0.32823620144E+02  0.34940754899E+02  0.17847776659E+01  0.48202923392E+02  0.47000000000E+01 0.  1.
         -5    1    3    3    0  501  0.34215936188E+02 -0.34722919337E+02  0.10635429506E+03  0.11708858823E+03  0.47000000000E+01 0.  1.
          5    1    4    4  502    0  0.33616621990E+02 -0.46017524422E+02  0.43998335719E+02  0.72150075357E+02  0.47000000000E+01 0. -1.
         -5    1    4    4    0  502 -0.35008938035E+02  0.45799688860E+02  0.12853426146E+03  0.14094815931E+03  0.47000000000E+01 0. -1.
<mgrwt>
<rscale>  0 0.25377591E+03</rscale>
<asrwt>0</asrwt>
<pdfrwt beam="1">  1       21 0.50697030E-01 0.25377591E+03</pdfrwt>
<pdfrwt beam="2">  1       21 0.75167753E-02 0.25377591E+03</pdfrwt>
<totfact> 0.48884080E+05</totfact>
</mgrwt>
</event>
<event>
 8    1  0.9691636E-006  0.3097581E+03  0.7546771E-02  0.1080462E+00
         21   -1    0    0  504  503  0.00000000000E+00  0.00000000000E+00  0.15753433698E+03  0.15753433698E+03  0.00000000000E+00 0.  1.
         21   -1    0    0  503  504 -0.00000000000E+00 -0.00000000000E+00 -0.15226852080E+03  0.15226852080E+03  0.00000000000E+00 0.  1.
         25    2    1    2    0    0 -0.77533615782E+02 -0.47997427527E+02 -0.43175417298E+01  0.15478430915E+03  0.12499730624E+03 0.  0.
         25    2    1    2    0    0  0.77533615782E+02  0.47997427527E+02  0.95833579072E+01  0.15501854864E+03  0.12499478008E+03 0.  0.
          5    1    3    3  501    0  0.19154595002E+02 -0.20500702969E+02 -0.39062307740E+02  0.48323195443E+02  0.47000000000E+01 0. -1.
         -5    1    3    3    0  501 -0.96688210784E+02 -0.27496724558E+02  0.34744766010E+02  0.10646111370E+03  0.47000000000E+01 0. -1.
          5    1    4    4  502    0 -0.27204467019E+01 -0.36800280379E+01  0.50597397275E+02  0.51020878546E+02  0.47000000000E+01 0. -1.
         -5    1    4    4    0  502  0.80254062484E+02  0.51677455565E+02 -0.41014039367E+02  0.10399767009E+03  0.47000000000E+01 0. -1.
<mgrwt>
<rscale>  0 0.30975810E+03</rscale>
<asrwt>0</asrwt>
<pdfrwt beam="1">  1       21 0.24236052E-01 0.30975810E+03</pdfrwt>
<pdfrwt beam="2">  1       21 0.23425926E-01 0.30975810E+03</pdfrwt>
<totfact> 0.26794589E+05</totfact>
</mgrwt>
</event>
<event>
 8    1  0.9691636E-006  0.2719871E+03  0.7546771E-02  0.1100148E+00
         21   -1    0    0  504  503  0.00000000000E+00  0.00000000000E+00  0.84650102632E+02  0.84650102632E+02  0.00000000000E+00 0. -1.
         21   -1    0    0  503  504 -0.00000000000E+00 -0.00000000000E+00 -0.21847879087E+03  0.21847879087E+03  0.00000000000E+00 0. -1.
         25    2    1    2    0    0 -0.49241502698E+02 -0.52078131531E+01 -0.89672292189E+02  0.16160798374E+03  0.12499669403E+03 0.  0.
         25    2    1    2    0    0  0.49241502698E+02  0.52078131531E+01 -0.44156396051E+02  0.14152090976E+03  0.12500613457E+03 0.  0.
          5    1    3    3  501    0  0.75577379676E+01 -0.56845547737E+02 -0.37943883924E+02  0.68922884646E+02  0.47000000000E+01 0. -1.
         -5    1    3    3    0  501 -0.56799240666E+02  0.51637734584E+02 -0.51728408266E+02  0.92685099099E+02  0.47000000000E+01 0. -1.
          5    1    4    4  502    0 -0.81392913438E+01 -0.49227311102E+02 -0.36336487205E+02  0.61903202860E+02  0.47000000000E+01 0.  1.
         -5    1    4    4    0  502  0.57380794042E+02  0.54435124255E+02 -0.78199088467E+01  0.79617706899E+02  0.47000000000E+01 0.  1.
<mgrwt>
<rscale>  0 0.27198715E+03</rscale>
<asrwt>0</asrwt>
<pdfrwt beam="1">  1       21 0.13023093E-01 0.27198715E+03</pdfrwt>
<pdfrwt beam="2">  1       21 0.33612122E-01 0.27198715E+03</pdfrwt>
<totfact> 0.42495874E+05</totfact>
</mgrwt>
</event>
<event>
 8    1  0.9691636E-006  0.2576330E+03  0.7546771E-02  0.1108574E+00
         21   -1    0    0  504  503  0.00000000000E+00  0.00000000000E+00  0.34530263650E+02  0.34530263650E+02  0.00000000000E+00 0. -1.
         21   -1    0    0  503  504 -0.00000000000E+00 -0.00000000000E+00 -0.48055483793E+03  0.48055483793E+03  0.00000000000E+00 0. -1.
         25    2    1    2    0    0 -0.63241588075E+00 -0.43699258372E+01 -0.28462310761E+03  0.31089381500E+03  0.12500061846E+03 0.  0.
         25    2    1    2    0    0  0.63241588075E+00  0.43699258372E+01 -0.16140146666E+03  0.20419128658E+03  0.12499660744E+03 0.  0.
          5    1    3    3  501    0  0.11708329623E+02 -0.39810055712E+02 -0.25300017152E+02  0.48827311888E+02  0.47000000000E+01 0.  1.
         -5    1    3    3    0  501 -0.12340745504E+02  0.35440129875E+02 -0.25932309046E+03  0.26206650311E+03  0.47000000000E+01 0.  1.
          5    1    4    4  502    0 -0.47512919540E+02  0.42104245599E+02 -0.85495162217E+02  0.10659154649E+03  0.47000000000E+01 0.  1.
         -5    1    4    4    0  502  0.48145335421E+02 -0.37734319761E+02 -0.75906304446E+02  0.97599740088E+02  0.47000000000E+01 0.  1.
<mgrwt>
<rscale>  0 0.25763296E+03</rscale>
<asrwt>0</asrwt>
<pdfrwt beam="1">  1       21 0.53123484E-02 0.25763296E+03</pdfrwt>
<pdfrwt beam="2">  1       21 0.73931512E-01 0.25763296E+03</pdfrwt>
<totfact> 0.39227653E+05</totfact>
</mgrwt>
</event>
<event>
 8    1  0.9691636E-006  0.3056394E+03  0.7546771E-02  0.1082455E+00
         21   -1    0    0  504  503  0.00000000000E+00  0.00000000000E+00  0.36299886309E+03  0.36299886309E+03  0.00000000000E+00 0.  1.
         21   -1    0    0  503  504 -0.00000000000E+00 -0.00000000000E+00 -0.64335899948E+02  0.64335899948E+02  0.00000000000E+00 0.  1.
         25    2    1    2    0    0 -0.18894438666E+02 -0.25607210199E+02  0.26391779780E+03  0.29375153643E+03  0.12499852852E+03 0.  0.
         25    2    1    2    0    0  0.18894438666E+02  0.25607210199E+02  0.34745165346E+02  0.13358322661E+03  0.12499809155E+03 0.  0.
          5    1    3    3  501    0 -0.51229884596E+02 -0.31268688502E+02  0.52894133911E+02  0.80138076834E+02  0.47000000000E+01 0. -1.
         -5    1    3    3    0  501  0.32335445931E+02  0.56614783025E+01  0.21102366389E+03  0.21361345960E+03  0.47000000000E+01 0. -1.
          5    1    4    4  502    0  0.44815447861E+02  0.62578330407E+02  0.11756190503E+01  0.77122914129E+02  0.47000000000E+01 0. -1.
         -5    1    4    4    0  502 -0.25921009195E+02 -0.36971120208E+02  0.33569546295E+02  0.56460312482E+02  0.47000000000E+01 0. -1.
<mgrwt>
<rscale>  0 0.30563939E+03</rscale>
<asrwt>0</asrwt>
<pdfrwt beam="1">  1       21 0.55845978E-01 0.30563939E+03</pdfrwt>
<pdfrwt beam="2">  1       21 0.98978310E-02 0.30563939E+03</pdfrwt>
<totfact> 0.24245989E+05</totfact>
</mgrwt>
</event>
<event>
 8    1  0.9691636E-006  0.3290058E+03  0.7546771E-02  0.1071578E+00
         21   -1    0    0  504  503  0.00000000000E+00  0.00000000000E+00  0.10215862998E+03  0.10215862998E+03  0.00000000000E+00 0. -1.
         21   -1    0    0  503  504 -0.00000000000E+00 -0.00000000000E+00 -0.26489396842E+03  0.26489396842E+03  0.00000000000E+00 0. -1.
         25    2    1    2    0    0  0.17306406460E+02  0.10534477846E+03 -0.88391288710E+02  0.18663958004E+03  0.12499711542E+03 0.  0.
         25    2    1    2    0    0 -0.17306406460E+02 -0.10534477846E+03 -0.74344049725E+02  0.18041301836E+03  0.12499914165E+03 0.  0.
          5    1    3    3  501    0  0.20221513397E+02 -0.15655745944E+02 -0.55246707838E+02  0.61059812578E+02  0.47000000000E+01 0. -1.
         -5    1    3    3    0  501 -0.29151069377E+01  0.12100052440E+03 -0.33144580872E+02  0.12557976746E+03  0.47000000000E+01 0. -1.
          5    1    4    4  502    0 -0.27021174958E+02 -0.12843554287E+03 -0.80700156776E+02  0.15414421129E+03  0.47000000000E+01 0.  1.
         -5    1    4    4    0  502  0.97147684987E+01  0.23090764416E+02  0.63561070510E+01  0.26268807075E+02  0.47000000000E+01 0.  1.
<mgrwt>
<rscale>  0 0.32900580E+03</rscale>
<asrwt>0</asrwt>
<pdfrwt beam="1">  1       21 0.15716713E-01 0.32900580E+03</pdfrwt>
<pdfrwt beam="2">  1       21 0.40752918E-01 0.32900580E+03</pdfrwt>
<totfact> 0.20177706E+05</totfact>
</mgrwt>
</event>
<event>
 8    1  0.9691636E-006  0.4181376E+03  0.7546771E-02  0.1037674E+00
         21   -1    0    0  504  503  0.00000000000E+00  0.00000000000E+00  0.17063814307E+03  0.17063814307E+03  0.00000000000E+00 0.  1.
         21   -1    0    0  503  504 -0.00000000000E+00 -0.00000000000E+00 -0.25615473563E+03  0.25615473563E+03  0.00000000000E+00 0.  1.
         25    2    1    2    0    0  0.13087030389E+03 -0.19735025417E+02  0.62169301821E+02  0.19237099848E+03  0.12500028520E+03 0.  0.
         25    2    1    2    0    0 -0.13087030389E+03  0.19735025417E+02 -0.14768589439E+03  0.23442188022E+03  0.12500394737E+03 0.  0.
          5    1    3    3  501    0 -0.12086289357E+02 -0.32527715543E+02 -0.20147456003E+01  0.35075345596E+02  0.47000000000E+01 0.  1.
         -5    1    3    3    0  501  0.14295659324E+03  0.12792690126E+02  0.64184047421E+02  0.15729565288E+03  0.47000000000E+01 0.  1.
          5    1    4    4  502    0 -0.76924179405E+02  0.18030319357E+02 -0.16031797853E+03  0.17879140369E+03  0.47000000000E+01 0.  1.
         -5    1    4    4    0  502 -0.53946124482E+02  0.17047060605E+01  0.12632084146E+02  0.55630476533E+02  0.47000000000E+01 0.  1.
<mgrwt>
<rscale>  0 0.41813763E+03</rscale>
<asrwt>0</asrwt>
<pdfrwt beam="1">  1       21 0.26252022E-01 0.41813763E+03</pdfrwt>
<pdfrwt beam="2">  1       21 0.39408421E-01 0.41813763E+03</pdfrwt>
<totfact> 0.80086613E+04</totfact>
</mgrwt>
</event>
<event>
 8    1  0.9691636E-006  0.2580835E+03  0.7546771E-02  0.1108300E+00
         21   -1    0    0  504  503  0.00000000000E+00  0.00000000000E+00  0.10317718994E+03  0.10317718994E+03  0.00000000000E+00 0. -1.
         21   -1    0    0  503  504 -0.00000000000E+00 -0.00000000000E+00 -0.16139007879E+03  0.16139007879E+03  0.00000000000E+00 0. -1.
         25    2    1    2    0    0  0.18473583317E+02 -0.12475744824E+02 -0.55043993359E+01  0.12709023215E+03  0.12499884482E+03 0.  0.
         25    2    1    2    0    0 -0.18473583317E+02  0.12475744824E+02 -0.52708489517E+02  0.13747703657E+03  0.12499933291E+03 0.  0.
          5    1    3    3  501    0  0.62470239083E+02  0.17578742341E+02 -0.25641182540E+02  0.69936422524E+02  0.47000000000E+01 0.  1.
         -5    1    3    3    0  501 -0.43996655767E+02 -0.30054487165E+02  0.20136783204E+02  0.57153809630E+02  0.47000000000E+01 0.  1.
          5    1    4    4  502    0 -0.21867128132E+02 -0.54184184622E+02 -0.14348248666E+02  0.60349477178E+02  0.47000000000E+01 0.  1.
         -5    1    4    4    0  502  0.33935448151E+01  0.66659929446E+02 -0.38360240852E+02  0.77127559396E+02  0.47000000000E+01 0.  1.
<mgrwt>
<rscale>  0 0.25808351E+03</rscale>
<asrwt>0</asrwt>
<pdfrwt beam="1">  1       21 0.15873414E-01 0.25808351E+03</pdfrwt>
<pdfrwt beam="2">  1       21 0.24829243E-01 0.25808351E+03</pdfrwt>
<totfact> 0.53636295E+05</totfact>
</mgrwt>
</event>
<event>
 8    1  0.9691636E-006  0.2719399E+03  0.7546771E-02  0.1100174E+00
         21   -1    0    0  504  503  0.00000000000E+00  0.00000000000E+00  0.65614771731E+02  0.65614771731E+02  0.00000000000E+00 0. -1.
         21   -1    0    0  503  504 -0.00000000000E+00 -0.00000000000E+00 -0.28176320679E+03  0.28176320679E+03  0.00000000000E+00 0. -1.
         25    2    1    2    0    0  0.15230544640E+02  0.45105266548E+02 -0.76884843768E+02  0.15428474359E+03  0.12500419330E+03 0.  0.
         25    2    1    2    0    0 -0.15230544640E+02 -0.45105266548E+02 -0.13926359129E+03  0.19309323493E+03  0.12499677979E+03 0.  0.
          5    1    3    3  501    0  0.66909705439E+02  0.32055887285E+02 -0.21757667700E+02  0.77459503583E+02  0.47000000000E+01 0.  1.
         -5    1    3    3    0  501 -0.51679160800E+02  0.13049379263E+02 -0.55127176068E+02  0.76825240002E+02  0.47000000000E+01 0.  1.
          5    1    4    4  502    0 -0.33891140680E+02  0.78418713953E+01 -0.13164513944E+03  0.13624476908E+03  0.47000000000E+01 0.  1.
         -5    1    4    4    0  502  0.18660596040E+02 -0.52947137943E+02 -0.76184518445E+01  0.56848465850E+02  0.47000000000E+01 0.  1.
<mgrwt>
<rscale>  0 0.27193991E+03</rscale>
<asrwt>0</asrwt>
<pdfrwt beam="1">  1       21 0.10094580E-01 0.27193991E+03</pdfrwt>
<pdfrwt beam="2">  1       21 0.43348186E-01 0.27193991E+03</pdfrwt>
<totfact> 0.40135838E+05</totfact>
</mgrwt>
</event>
<event>
 8    1  0.9691636E-006  0.2705380E+03  0.7546771E-02  0.1100972E+00
         21   -1    0    0  504  503  0.00000000000E+00  0.00000000000E+00  0.83222743061E+02  0.83222743061E+02  0.00000000000E+00 0. -1.
         21   -1    0    0  503  504 -0.00000000000E+00 -0.00000000000E+00 -0.21986413523E+03  0.21986413523E+03  0.00000000000E+00 0. -1.
         25    2    1    2    0    0 -0.25990721121E+02 -0.44616975674E+02 -0.70974117820E+02  0.15274444956E+03  0.12500939712E+03 0.  0.
         25    2    1    2    0    0  0.25990721121E+02  0.44616975674E+02 -0.65667274345E+02  0.15034242872E+03  0.12499785139E+03 0.  0.
          5    1    3    3  501    0  0.40534885668E+02  0.16869326544E+02 -0.17882051074E+02  0.47639362766E+02  0.47000000000E+01 0. -1.
         -5    1    3    3    0  501 -0.66525606789E+02 -0.61486302219E+02 -0.53092066747E+02  0.10510508680E+03  0.47000000000E+01 0. -1.
          5    1    4    4  502    0 -0.22740912287E+02  0.58697012916E+02 -0.75550580681E+02  0.98450335998E+02  0.47000000000E+01 0. -1.
         -5    1    4    4    0  502  0.48731633408E+02 -0.14080037241E+02  0.98833063355E+01  0.51892092726E+02  0.47000000000E+01 0. -1.
<mgrwt>
<rscale>  0 0.27053796E+03</rscale>
<asrwt>0</asrwt>
<pdfrwt beam="1">  1       21 0.12803499E-01 0.27053796E+03</pdfrwt>
<pdfrwt beam="2">  1       21 0.33825251E-01 0.27053796E+03</pdfrwt>
<totfact> 0.43289618E+05</totfact>
</mgrwt>
</event>
<event>
 8    1  0.9691636E-006  0.3224203E+03  0.7546771E-02  0.1074541E+00
         21   -1    0    0  504  503  0.00000000000E+00  0.00000000000E+00  0.65991903101E+03  0.65991903101E+03  0.00000000000E+00 0. -1.
         21   -1    0    0  503  504 -0.00000000000E+00 -0.00000000000E+00 -0.39381660836E+02  0.39381660836E+02  0.00000000000E+00 0. -1.
         25    2    1    2    0    0 -0.29996929710E+02  0.27395489417E+02  0.51271861193E+03  0.52929518278E+03  0.12499074710E+03 0.  0.
         25    2    1    2    0    0  0.29996929710E+02 -0.27395489417E+02  0.10781875825E+03  0.17000550907E+03  0.12500663923E+03 0.  0.
          5    1    3    3  501    0 -0.58036153777E+02  0.41342233733E+02  0.16066347634E+03  0.17581870795E+03  0.47000000000E+01 0.  1.
         -5    1    3    3    0  501  0.28039224067E+02 -0.13946744316E+02  0.35205513558E+03  0.35347647482E+03  0.47000000000E+01 0.  1.
          5    1    4    4  502    0  0.61336717706E+02  0.22446116747E+02  0.83541521137E+02  0.10614752399E+03  0.47000000000E+01 0.  1.
         -5    1    4    4    0  502 -0.31339787996E+02 -0.49841606164E+02  0.24277237114E+02  0.63857985081E+02  0.47000000000E+01 0.  1.
<mgrwt>
<rscale>  0 0.32242027E+03</rscale>
<asrwt>0</asrwt>
<pdfrwt beam="1">  1       21 0.10152600E+00 0.32242027E+03</pdfrwt>
<pdfrwt beam="2">  1       21 0.60587175E-02 0.32242027E+03</pdfrwt>
<totfact> 0.14740235E+05</totfact>
</mgrwt>
</event>
<event>
 8    1  0.9691636E-006  0.2854927E+03  0.7546771E-02  0.1092726E+00
         21   -1    0    0  504  503  0.00000000000E+00  0.00000000000E+00  0.22049475810E+03  0.22049475810E+03  0.00000000000E+00 0. -1.
         21   -1    0    0  503  504 -0.00000000000E+00 -0.00000000000E+00 -0.92412696183E+02  0.92412696183E+02  0.00000000000E+00 0. -1.
         25    2    1    2    0    0 -0.14407047629E-01  0.65568711913E+01  0.13923025927E+03  0.18724075243E+03  0.12502416369E+03 0.  0.
         25    2    1    2    0    0  0.14407047629E-01 -0.65568711913E+01 -0.11148197359E+02  0.12566670185E+03  0.12499937953E+03 0.  0.
          5    1    3    3  501    0 -0.57294043056E+02  0.93391886395E+01  0.34354855543E+02  0.67617852033E+02  0.47000000000E+01 0.  1.
         -5    1    3    3    0  501  0.57279636008E+02 -0.27823174482E+01  0.10487540373E+03  0.11962290040E+03  0.47000000000E+01 0.  1.
          5    1    4    4  502    0 -0.52025365205E+02  0.11968030411E+02 -0.36363755916E+02  0.64763300726E+02  0.47000000000E+01 0.  1.
         -5    1    4    4    0  502  0.52039772252E+02 -0.18524901602E+02  0.25215558557E+02  0.60903401126E+02  0.47000000000E+01 0.  1.
<mgrwt>
<rscale>  0 0.28549266E+03</rscale>
<asrwt>0</asrwt>
<pdfrwt beam="1">  1       21 0.33922270E-01 0.28549266E+03</pdfrwt>
<pdfrwt beam="2">  1       21 0.14217338E-01 0.28549266E+03</pdfrwt>
<totfact> 0.35470913E+05</totfact>
</mgrwt>
</event>
<event>
 8    1  0.9691636E-006  0.3024190E+03  0.7546771E-02  0.1084038E+00
         21   -1    0    0  504  503  0.00000000000E+00  0.00000000000E+00  0.56148360341E+02  0.56148360341E+02  0.00000000000E+00 0. -1.
         21   -1    0    0  503  504 -0.00000000000E+00 -0.00000000000E+00 -0.40721252936E+03  0.40721252936E+03  0.00000000000E+00 0. -1.
         25    2    1    2    0    0  0.27782624881E+02  0.67373170736E+02 -0.10825481896E+03  0.18070867387E+03  0.12500200240E+03 0.  0.
         25    2    1    2    0    0 -0.27782624881E+02 -0.67373170736E+02 -0.24280935006E+03  0.28265221583E+03  0.12499950502E+03 0.  0.
          5    1    3    3  501    0  0.54964116561E+02  0.90072690672E+02 -0.96589452810E+02  0.14312846016E+03  0.47000000000E+01 0.  1.
         -5    1    3    3    0  501 -0.27181491680E+02 -0.22699519935E+02 -0.11665366149E+02  0.37580213712E+02  0.47000000000E+01 0.  1.
          5    1    4    4  502    0  0.44796046336E+02 -0.54164289697E+02 -0.12798380242E+03  0.14609038205E+03  0.47000000000E+01 0. -1.
         -5    1    4    4    0  502 -0.72578671217E+02 -0.13208881040E+02 -0.11482554764E+03  0.13656183377E+03  0.47000000000E+01 0. -1.
<mgrwt>
<rscale>  0 0.30241902E+03</rscale>
<asrwt>0</asrwt>
<pdfrwt beam="1">  1       21 0.86382092E-02 0.30241902E+03</pdfrwt>
<pdfrwt beam="2">  1       21 0.62648082E-01 0.30241902E+03</pdfrwt>
<totfact> 0.24084696E+05</totfact>
</mgrwt>
</event>
<event>
 8    1  0.9691636E-006  0.3306459E+03  0.7546771E-02  0.1070851E+00
         21   -1    0    0  504  503  0.00000000000E+00  0.00000000000E+00  0.27109389085E+02  0.27109389085E+02  0.00000000000E+00 0. -1.
         21   -1    0    0  503  504 -0.00000000000E+00 -0.00000000000E+00 -0.10081996539E+04  0.10081996539E+04  0.00000000000E+00 0. -1.
         25    2    1    2    0    0  0.90222565441E+02 -0.36846433672E+02 -0.34338331265E+03  0.37819900270E+03  0.12499846100E+03 0.  0.
         25    2    1    2    0    0 -0.90222565441E+02  0.36846433672E+02 -0.63770695212E+03  0.65711004024E+03  0.12500270879E+03 0.  0.
          5    1    3    3  501    0 -0.30667028108E+02 -0.56088085367E+01 -0.96121428552E+02  0.10115999394E+03  0.47000000000E+01 0.  1.
         -5    1    3    3    0  501  0.12088959355E+03 -0.31237625136E+02 -0.24726188410E+03  0.27703900877E+03  0.47000000000E+01 0.  1.
          5    1    4    4  502    0  0.27694364583E+02  0.12052336242E+02 -0.22755518623E+03  0.22959897521E+03  0.47000000000E+01 0. -1.
         -5    1    4    4    0  502 -0.11791693002E+03  0.24794097430E+02 -0.41015176590E+03  0.42751106503E+03  0.47000000000E+01 0. -1.
<mgrwt>
<rscale>  0 0.33064589E+03</rscale>
<asrwt>0</asrwt>
<pdfrwt beam="1">  1       21 0.41706760E-02 0.33064589E+03</pdfrwt>
<pdfrwt beam="2">  1       21 0.15510761E+00 0.33064589E+03</pdfrwt>
<totfact> 0.94594831E+04</totfact>
</mgrwt>
</event>
<event>
 8    1  0.9691636E-006  0.2800698E+03  0.7546771E-02  0.1095651E+00
         21   -1    0    0  504  503  0.00000000000E+00  0.00000000000E+00  0.70438933470E+02  0.70438933470E+02  0.00000000000E+00 0.  1.
         21   -1    0    0  503  504 -0.00000000000E+00 -0.00000000000E+00 -0.27839392164E+03  0.27839392164E+03  0.00000000000E+00 0.  1.
         25    2    1    2    0    0  0.25318549814E+02  0.57745682202E+02 -0.10762300748E+03  0.17659101071E+03  0.12500432211E+03 0.  0.
         25    2    1    2    0    0 -0.25318549814E+02 -0.57745682202E+02 -0.10033198069E+03  0.17224184440E+03  0.12500061535E+03 0.  0.
          5    1    3    3  501    0  0.66401620462E+02 -0.27743801252E+01 -0.48221087139E+02  0.82244973280E+02  0.47000000000E+01 0. -1.
         -5    1    3    3    0  501 -0.41083070647E+02  0.60520062328E+02 -0.59401920342E+02  0.94346037427E+02  0.47000000000E+01 0. -1.
          5    1    4    4  502    0 -0.66594419880E+02 -0.29472439956E+02 -0.97667909329E+02  0.12192026898E+03  0.47000000000E+01 0.  1.
         -5    1    4    4    0  502  0.41275870065E+02 -0.28273242247E+02 -0.26640713630E+01  0.50321575423E+02  0.47000000000E+01 0.  1.
<mgrwt>
<rscale>  0 0.28006978E+03</rscale>
<asrwt>0</asrwt>
<pdfrwt beam="1">  1       21 0.10836759E-01 0.28006978E+03</pdfrwt>
<pdfrwt beam="2">  1       21 0.42829834E-01 0.28006978E+03</pdfrwt>
<totfact> 0.36189387E+05</totfact>
</mgrwt>
</event>
<event>
 8    1  0.9691636E-006  0.2663287E+03  0.7546771E-02  0.1103399E+00
         21   -1    0    0  504  503  0.00000000000E+00  0.00000000000E+00  0.15033167967E+04  0.15033167967E+04  0.00000000000E+00 0. -1.
         21   -1    0    0  503  504 -0.00000000000E+00 -0.00000000000E+00 -0.11795742883E+02  0.11795742883E+02  0.00000000000E+00 0. -1.
         25    2    1    2    0    0 -0.12047809753E+02 -0.34949881123E+02  0.59176950159E+03  0.60595576731E+03  0.12499842007E+03 0.  0.
         25    2    1    2    0    0  0.12047809753E+02  0.34949881123E+02  0.89975155223E+03  0.90915677226E+03  0.12508611798E+03 0.  0.
          5    1    3    3  501    0 -0.15288105319E+02  0.43321867848E+02  0.31155137901E+03  0.31495533360E+03  0.47000000000E+01 0.  1.
         -5    1    3    3    0  501  0.32402955662E+01 -0.78271748971E+02  0.28021812257E+03  0.29100043371E+03  0.47000000000E+01 0.  1.
          5    1    4    4  502    0 -0.23679328741E+01 -0.40468657894E+02  0.14944187971E+03  0.15491379793E+03  0.47000000000E+01 0.  1.
         -5    1    4    4    0  502  0.14415742627E+02  0.75418539017E+02  0.75030967252E+03  0.75424297434E+03  0.47000000000E+01 0.  1.
<mgrwt>
<rscale>  0 0.26632866E+03</rscale>
<asrwt>0</asrwt>
<pdfrwt beam="1">  1       21 0.23127936E+00 0.26632866E+03</pdfrwt>
<pdfrwt beam="2">  1       21 0.18147309E-02 0.26632866E+03</pdfrwt>
<totfact> 0.11888685E+05</totfact>
</mgrwt>
</event>
<event>
 8    1  0.9691636E-006  0.3206369E+03  0.7546771E-02  0.1075357E+00
         21   -1    0    0  504  503  0.00000000000E+00  0.00000000000E+00  0.73848049520E+03  0.73848049520E+03  0.00000000000E+00 0. -1.
         21   -1    0    0  503  504 -0.00000000000E+00 -0.00000000000E+00 -0.34803911322E+02  0.34803911322E+02  0.00000000000E+00 0. -1.
         25    2    1    2    0    0 -0.95996025675E+02  0.12781507049E+01  0.42235648710E+03  0.45081339831E+03  0.12502338695E+03 0.  0.
         25    2    1    2    0    0  0.95996025675E+02 -0.12781507049E+01  0.28132009678E+03  0.32247100822E+03  0.12501873329E+03 0.  0.
          5    1    3    3  501    0 -0.78709246415E+01  0.18560164288E+02  0.18324435428E+01  0.20781698738E+02  0.47000000000E+01 0. -1.
         -5    1    3    3    0  501 -0.88125101034E+02 -0.17282013583E+02  0.42052404356E+03  0.43003169957E+03  0.47000000000E+01 0. -1.
          5    1    4    4  502    0  0.87792834265E+02  0.32860674508E+01  0.29349311818E+03  0.30639628002E+03  0.47000000000E+01 0.  1.
         -5    1    4    4    0  502  0.82031914104E+01 -0.45642181557E+01 -0.12173021401E+02  0.16074728201E+02  0.47000000000E+01 0.  1.
<mgrwt>
<rscale>  0 0.32063693E+03</rscale>
<asrwt>0</asrwt>
<pdfrwt beam="1">  1       21 0.11361237E+00 0.32063693E+03</pdfrwt>
<pdfrwt beam="2">  1       21 0.53544485E-02 0.32063693E+03</pdfrwt>
<totfact> 0.13859798E+05</totfact>
</mgrwt>
</event>
<event>
 8    1  0.9691636E-006  0.3107960E+03  0.7546771E-02  0.1079965E+00
         21   -1    0    0  504  503  0.00000000000E+00  0.00000000000E+00  0.37186331438E+03  0.37186331438E+03  0.00000000000E+00 0. -1.
         21   -1    0    0  503  504 -0.00000000000E+00 -0.00000000000E+00 -0.64939296928E+02  0.64939296928E+02  0.00000000000E+00 0. -1.
         25    2    1    2    0    0 -0.44689286079E+02 -0.66019882502E+02  0.88203860010E+02  0.17257032811E+03  0.12507933501E+03 0.  0.
         25    2    1    2    0    0  0.44689286079E+02  0.66019882502E+02  0.21872015744E+03  0.26423228320E+03  0.12499774013E+03 0.  0.
          5    1    3    3  501    0 -0.77433484581E+02 -0.80644194125E+02  0.62204997754E+02  0.12802727181E+03  0.47000000000E+01 0.  1.
         -5    1    3    3    0  501  0.32744198502E+02  0.14624311624E+02  0.25998862256E+02  0.44543056301E+02  0.47000000000E+01 0.  1.
          5    1    4    4  502    0  0.65206811121E+02 -0.12805418926E+02  0.94854889492E+02  0.11591137576E+03  0.47000000000E+01 0. -1.
         -5    1    4    4    0  502 -0.20517525042E+02  0.78825301428E+02  0.12386526795E+03  0.14832090744E+03  0.47000000000E+01 0. -1.
<mgrwt>
<rscale>  0 0.31079602E+03</rscale>
<asrwt>0</asrwt>
<pdfrwt beam="1">  1       21 0.57209739E-01 0.31079602E+03</pdfrwt>
<pdfrwt beam="2">  1       21 0.99906613E-02 0.31079602E+03</pdfrwt>
<totfact> 0.22615716E+05</totfact>
</mgrwt>
</event>
<event>
 8    1  0.9691636E-006  0.3529497E+03  0.7546771E-02  0.1061411E+00
         21   -1    0    0  504  503  0.00000000000E+00  0.00000000000E+00  0.15315051938E+03  0.15315051938E+03  0.00000000000E+00 0. -1.
         21   -1    0    0  503  504 -0.00000000000E+00 -0.00000000000E+00 -0.20335141122E+03  0.20335141122E+03  0.00000000000E+00 0. -1.
         25    2    1    2    0    0  0.11620847194E+02  0.98016256387E+02  0.51703523693E+02  0.16741843215E+03  0.12495377727E+03 0.  0.
         25    2    1    2    0    0 -0.11620847194E+02 -0.98016256387E+02 -0.10190441554E+03  0.18908349845E+03  0.12500331546E+03 0.  0.
          5    1    3    3  501    0  0.32448724390E+01  0.11081623002E+03 -0.24088000012E+01  0.11098945153E+03  0.47000000000E+01 0. -1.
         -5    1    3    3    0  501  0.83759747553E+01 -0.12799973633E+02  0.54112323694E+02  0.56428980618E+02  0.47000000000E+01 0. -1.
          5    1    4    4  502    0 -0.58013067139E+02 -0.87373116370E+02 -0.93372776930E+02  0.14049961884E+03  0.47000000000E+01 0. -1.
         -5    1    4    4    0  502  0.46392219945E+02 -0.10643140017E+02 -0.85316386105E+01  0.48583879612E+02  0.47000000000E+01 0. -1.
<mgrwt>
<rscale>  0 0.35294971E+03</rscale>
<asrwt>0</asrwt>
<pdfrwt beam="1">  1       21 0.23561619E-01 0.35294971E+03</pdfrwt>
<pdfrwt beam="2">  1       21 0.31284832E-01 0.35294971E+03</pdfrwt>
<totfact> 0.15950759E+05</totfact>
</mgrwt>
</event>
<event>
 8    1  0.9691636E-006  0.4039125E+03  0.7546771E-02  0.1042433E+00
         21   -1    0    0  504  503  0.00000000000E+00  0.00000000000E+00  0.22303112823E+03  0.22303112823E+03  0.00000000000E+00 0.  1.
         21   -1    0    0  503  504 -0.00000000000E+00 -0.00000000000E+00 -0.18287276793E+03  0.18287276793E+03  0.00000000000E+00 0.  1.
         25    2    1    2    0    0  0.11767197914E+03  0.90703363839E+02 -0.35762169758E+02  0.19742667051E+03  0.12499825021E+03 0.  0.
         25    2    1    2    0    0 -0.11767197914E+03 -0.90703363839E+02  0.75920530060E+02  0.20847722565E+03  0.12500012737E+03 0.  0.
          5    1    3    3  501    0  0.10935684534E+03  0.49372745583E+02  0.25651318604E+02  0.12278708310E+03  0.47000000000E+01 0.  1.
         -5    1    3    3    0  501  0.83151337973E+01  0.41330618257E+02 -0.61413488362E+02  0.74639587407E+02  0.47000000000E+01 0.  1.
          5    1    4    4  502    0 -0.39871368207E+02 -0.69078808792E+02  0.96234183384E+02  0.12507883865E+03  0.47000000000E+01 0. -1.
         -5    1    4    4    0  502 -0.77800610934E+02 -0.21624555048E+02 -0.20313653324E+02  0.83398387000E+02  0.47000000000E+01 0. -1.
<mgrwt>
<rscale>  0 0.40391246E+03</rscale>
<asrwt>0</asrwt>
<pdfrwt beam="1">  1       21 0.34312481E-01 0.40391246E+03</pdfrwt>
<pdfrwt beam="2">  1       21 0.28134272E-01 0.40391246E+03</pdfrwt>
<totfact> 0.92923021E+04</totfact>
</mgrwt>
</event>
<event>
 8    1  0.9691636E-006  0.2893827E+03  0.7546771E-02  0.1090672E+00
         21   -1    0    0  504  503  0.00000000000E+00  0.00000000000E+00  0.58194452133E+03  0.58194452133E+03  0.00000000000E+00 0.  1.
         21   -1    0    0  503  504 -0.00000000000E+00 -0.00000000000E+00 -0.35975236271E+02  0.35975236271E+02  0.00000000000E+00 0.  1.
         25    2    1    2    0    0 -0.51522111226E+02  0.51333058285E+02  0.28261434487E+03  0.31746790496E+03  0.12500156773E+03 0.  0.
         25    2    1    2    0    0  0.51522111226E+02 -0.51333058285E+02  0.26335494019E+03  0.30045185264E+03  0.12500352162E+03 0.  0.
          5    1    3    3  501    0 -0.91657018233E+02  0.33848816704E+02  0.16415756888E+03  0.19109303704E+03  0.47000000000E+01 0. -1.
         -5    1    3    3    0  501  0.40134907006E+02  0.17484241581E+02  0.11845677599E+03  0.12637486792E+03  0.47000000000E+01 0. -1.
          5    1    4    4  502    0  0.90411433840E+02 -0.20068775292E+02  0.14759911534E+03  0.17431170919E+03  0.47000000000E+01 0. -1.
         -5    1    4    4    0  502 -0.38889322614E+02 -0.31264282993E+02  0.11575582485E+03  0.12614014346E+03  0.47000000000E+01 0. -1.
<mgrwt>
<rscale>  0 0.28938273E+03</rscale>
<asrwt>0</asrwt>
<pdfrwt beam="1">  1       21 0.89529920E-01 0.28938273E+03</pdfrwt>
<pdfrwt beam="2">  1       21 0.55346522E-02 0.28938273E+03</pdfrwt>
<totfact> 0.23417947E+05</totfact>
</mgrwt>
</event>
<event>
 8    1  0.9691636E-006  0.2549302E+03  0.7546771E-02  0.1110228E+00
         21   -1    0    0  504  503  0.00000000000E+00  0.00000000000E+00  0.31815741137E+03  0.31815741137E+03  0.00000000000E+00 0. -1.
         21   -1    0    0  503  504 -0.00000000000E+00 -0.00000000000E+00 -0.51067018802E+02  0.51067018802E+02  0.00000000000E+00 0. -1.
         25    2    1    2    0    0 -0.15282257227E+02 -0.10801869075E+02  0.15740610817E+03  0.20187324080E+03  0.12500357875E+03 0.  0.
         25    2    1    2    0    0  0.15282257227E+02  0.10801869075E+02  0.10968428440E+03  0.16735118937E+03  0.12500220230E+03 0.  0.
          5    1    3    3  501    0  0.50676177000E+02  0.16296061015E+02  0.52292323421E+02  0.74767731066E+02  0.47000000000E+01 0.  1.
         -5    1    3    3    0  501 -0.65958434227E+02 -0.27097930089E+02  0.10511378475E+03  0.12710550974E+03  0.47000000000E+01 0.  1.
          5    1    4    4  502    0  0.31688998410E+02  0.11696434413E+02 -0.17976306048E+02  0.38551741561E+02  0.47000000000E+01 0. -1.
         -5    1    4    4    0  502 -0.16406741184E+02 -0.89456533877E+00  0.12766059045E+03  0.12879944781E+03  0.47000000000E+01 0. -1.
<mgrwt>
<rscale>  0 0.25493019E+03</rscale>
<asrwt>0</asrwt>
<pdfrwt beam="1">  1       21 0.48947293E-01 0.25493019E+03</pdfrwt>
<pdfrwt beam="2">  1       21 0.78564647E-02 0.25493019E+03</pdfrwt>
<totfact> 0.48701258E+05</totfact>
</mgrwt>
</event>
<event>
 8    1  0.9691636E-006  0.2739237E+03  0.7546771E-02  0.1099055E+00
         21   -1    0    0  504  503  0.00000000000E+00  0.00000000000E+00  0.37738875807E+02  0.37738875807E+02  0.00000000000E+00 0. -1.
         21   -1    0    0  503  504 -0.00000000000E+00 -0.00000000000E+00 -0.49706155091E+03  0.49706155091E+03  0.00000000000E+00 0. -1.
         25    2    1    2    0    0 -0.54570862400E+02  0.12679936954E+02 -0.23142110004E+03  0.26890795406E+03  0.12496800546E+03 0.  0.
         25    2    1    2    0    0  0.54570862400E+02 -0.12679936954E+02 -0.22790157505E+03  0.26589247265E+03  0.12498367604E+03 0.  0.
          5    1    3    3  501    0 -0.74343191522E+02  0.30457922122E+02 -0.22788216202E+03  0.24167532955E+03  0.47000000000E+01 0. -1.
         -5    1    3    3    0  501  0.19772329122E+02 -0.17777985168E+02 -0.35389380230E+01  0.27232624513E+02  0.47000000000E+01 0. -1.
          5    1    4    4  502    0 -0.23488913220E+02 -0.47905465297E+01 -0.16051046498E+03  0.16235879326E+03  0.47000000000E+01 0.  1.
         -5    1    4    4    0  502  0.78059775620E+02 -0.78893904242E+01 -0.67391110074E+02  0.10353367939E+03  0.47000000000E+01 0.  1.
<mgrwt>
<rscale>  0 0.27392367E+03</rscale>
<asrwt>0</asrwt>
<pdfrwt beam="1">  1       21 0.58059811E-02 0.27392367E+03</pdfrwt>
<pdfrwt beam="2">  1       21 0.76471005E-01 0.27392367E+03</pdfrwt>
<totfact> 0.31100693E+05</totfact>
</mgrwt>
</event>
<event>
 8    1  0.9691636E-006  0.2977091E+03  0.7546771E-02  0.1086391E+00
         21   -1    0    0  504  503  0.00000000000E+00  0.00000000000E+00  0.52646502873E+03  0.52646502873E+03  0.00000000000E+00 0.  1.
         21   -1    0    0  503  504 -0.00000000000E+00 -0.00000000000E+00 -0.42087661683E+02  0.42087661683E+02  0.00000000000E+00 0.  1.
         25    2    1    2    0    0  0.51273703066E+02  0.22230476533E+02  0.35372127074E+03  0.37929865628E+03  0.12500218627E+03 0.  0.
         25    2    1    2    0    0 -0.51273703066E+02 -0.22230476533E+02  0.13065609631E+03  0.18925403413E+03  0.12499154859E+03 0.  0.
          5    1    3    3  501    0  0.17028169780E+02  0.31101131835E+02  0.15136943257E+02  0.38838846773E+02  0.47000000000E+01 0.  1.
         -5    1    3    3    0  501  0.34245533285E+02 -0.88706553015E+01  0.33858432748E+03  0.34045980951E+03  0.47000000000E+01 0.  1.
          5    1    4    4  502    0  0.57983834621E+01 -0.27976975592E+02  0.12843474197E+03  0.13165829013E+03  0.47000000000E+01 0. -1.
         -5    1    4    4    0  502 -0.57072086528E+02  0.57464990594E+01  0.22213543356E+01  0.57595744002E+02  0.47000000000E+01 0. -1.
<mgrwt>
<rscale>  0 0.29770913E+03</rscale>
<asrwt>0</asrwt>
<pdfrwt beam="1">  1       21 0.80994615E-01 0.29770913E+03</pdfrwt>
<pdfrwt beam="2">  1       21 0.64750253E-02 0.29770913E+03</pdfrwt>
<totfact> 0.22476087E+05</totfact>
</mgrwt>
</event>
<event>
 8    1  0.9691636E-006  0.2773543E+03  0.7546771E-02  0.1097143E+00
         21   -1    0    0  504  503  0.00000000000E+00  0.00000000000E+00  0.70862902462E+02  0.70862902462E+02  0.00000000000E+00 0. -1.
         21   -1    0    0  503  504 -0.00000000000E+00 -0.00000000000E+00 -0.27138806164E+03  0.27138806164E+03  0.00000000000E+00 0. -1.
         25    2    1    2    0    0  0.20226616035E+02 -0.19731993817E+02 -0.16563788197E+03  0.20942221665E+03  0.12499315704E+03 0.  0.
         25    2    1    2    0    0 -0.20226616035E+02  0.19731993817E+02 -0.34887277204E+02  0.13282874745E+03  0.12501154532E+03 0.  0.
          5    1    3    3  501    0 -0.40443461153E+02  0.13568999738E+00 -0.12985110651E+03  0.13608486993E+03  0.47000000000E+01 0.  1.
         -5    1    3    3    0  501  0.60670077189E+02 -0.19867683814E+02 -0.35786775463E+02  0.73337346722E+02  0.47000000000E+01 0.  1.
          5    1    4    4  502    0  0.20232618694E+02  0.54275958550E+02 -0.50708229007E+02  0.77127511465E+02  0.47000000000E+01 0. -1.
         -5    1    4    4    0  502 -0.40459234729E+02 -0.34543964733E+02  0.15820951803E+02  0.55701235985E+02  0.47000000000E+01 0. -1.
<mgrwt>
<rscale>  0 0.27735426E+03</rscale>
<asrwt>0</asrwt>
<pdfrwt beam="1">  1       21 0.10901985E-01 0.27735426E+03</pdfrwt>
<pdfrwt beam="2">  1       21 0.41752009E-01 0.27735426E+03</pdfrwt>
<totfact> 0.37746413E+05</totfact>
</mgrwt>
</event>
<event>
 8    1  0.9691636E-006  0.3473441E+03  0.7546771E-02  0.1063710E+00
         21   -1    0    0  504  503  0.00000000000E+00  0.00000000000E+00  0.26000126029E+03  0.26000126029E+03  0.00000000000E+00 0. -1.
         21   -1    0    0  503  504 -0.00000000000E+00 -0.00000000000E+00 -0.11600705440E+03  0.11600705440E+03  0.00000000000E+00 0. -1.
         25    2    1    2    0    0 -0.21626868266E+02  0.61044439483E+02 -0.38099602268E+02  0.14584284931E+03  0.12499764790E+03 0.  0.
         25    2    1    2    0    0  0.21626868266E+02 -0.61044439483E+02  0.18209380816E+03  0.23016546538E+03  0.12499536574E+03 0.  0.
          5    1    3    3  501    0  0.96226338244E+00  0.97421317498E+02 -0.29635333719E+02  0.10194205245E+03  0.47000000000E+01 0.  1.
         -5    1    3    3    0  501 -0.22589131648E+02 -0.36376878015E+02 -0.84642685491E+01  0.43900796858E+02  0.47000000000E+01 0.  1.
          5    1    4    4  502    0 -0.10375223823E+02 -0.89329529127E+02  0.84320576930E+02  0.12336717447E+03  0.47000000000E+01 0.  1.
         -5    1    4    4    0  502  0.32002092089E+02  0.28285089644E+02  0.97773231233E+02  0.10679829090E+03  0.47000000000E+01 0.  1.
<mgrwt>
<rscale>  0 0.34734410E+03</rscale>
<asrwt>0</asrwt>
<pdfrwt beam="1">  1       21 0.40000194E-01 0.34734410E+03</pdfrwt>
<pdfrwt beam="2">  1       21 0.17847239E-01 0.34734410E+03</pdfrwt>
<totfact> 0.16485015E+05</totfact>
</mgrwt>
</event>
<event>
 8    1  0.9691636E-006  0.2801626E+03  0.7546771E-02  0.1095600E+00
         21   -1    0    0  504  503  0.00000000000E+00  0.00000000000E+00  0.48397006204E+03  0.48397006204E+03  0.00000000000E+00 0.  1.
         21   -1    0    0  503  504 -0.00000000000E+00 -0.00000000000E+00 -0.40545411319E+02  0.40545411319E+02  0.00000000000E+00 0.  1.
         25    2    1    2    0    0  0.30588097024E+02 -0.25368231367E+02  0.31379879830E+03  0.34011453171E+03  0.12501611905E+03 0.  0.
         25    2    1    2    0    0 -0.30588097024E+02  0.25368231367E+02  0.12962585242E+03  0.18440094165E+03  0.12498666658E+03 0.  0.
          5    1    3    3  501    0 -0.33154141338E+02  0.22574243115E+02  0.48852918858E+02  0.63383682608E+02  0.47000000000E+01 0. -1.
         -5    1    3    3    0  501  0.63742238361E+02 -0.47942474482E+02  0.26494587944E+03  0.27673084910E+03  0.47000000000E+01 0. -1.
          5    1    4    4  502    0 -0.75813343058E+02  0.32689995223E+02  0.65719205994E+02  0.10562860791E+03  0.47000000000E+01 0.  1.
         -5    1    4    4    0  502  0.45225246034E+02 -0.73217638557E+01  0.63906646423E+02  0.78772333733E+02  0.47000000000E+01 0.  1.
<mgrwt>
<rscale>  0 0.28016256E+03</rscale>
<asrwt>0</asrwt>
<pdfrwt beam="1">  1       21 0.74456928E-01 0.28016256E+03</pdfrwt>
<pdfrwt beam="2">  1       21 0.62377559E-02 0.28016256E+03</pdfrwt>
<totfact> 0.29145503E+05</totfact>
</mgrwt>
</event>
<event>
 8    1  0.9691636E-006  0.3190008E+03  0.7546771E-02  0.1076110E+00
         21   -1    0    0  504  503  0.00000000000E+00  0.00000000000E+00  0.16970306219E+03  0.16970306219E+03  0.00000000000E+00 0.  1.
         21   -1    0    0  503  504 -0.00000000000E+00 -0.00000000000E+00 -0.14991112817E+03  0.14991112817E+03  0.00000000000E+00 0.  1.
         25    2    1    2    0    0 -0.66858018344E+02 -0.28006268752E+02  0.77562587878E+02  0.16399776597E+03  0.12499986599E+03 0.  0.
         25    2    1    2    0    0  0.66858018344E+02  0.28006268752E+02 -0.57770653856E+02  0.15561642440E+03  0.12499870955E+03 0.  0.
          5    1    3    3  501    0  0.38664389346E+01 -0.60953157469E+02  0.13005902226E+02  0.62621723453E+02  0.47000000000E+01 0. -1.
         -5    1    3    3    0  501 -0.70724457279E+02  0.32946888717E+02  0.64556685652E+02  0.10137604251E+03  0.47000000000E+01 0. -1.
          5    1    4    4  502    0 -0.16624419511E+02  0.13628754973E+02  0.27572695031E+02  0.35276873408E+02  0.47000000000E+01 0. -1.
         -5    1    4    4    0  502  0.83482437855E+02  0.14377513779E+02 -0.85343348887E+02  0.12033955099E+03  0.47000000000E+01 0. -1.
<mgrwt>
<rscale>  0 0.31900080E+03</rscale>
<asrwt>0</asrwt>
<pdfrwt beam="1">  1       21 0.26108163E-01 0.31900080E+03</pdfrwt>
<pdfrwt beam="2">  1       21 0.23063250E-01 0.31900080E+03</pdfrwt>
<totfact> 0.23867784E+05</totfact>
</mgrwt>
</event>
<event>
 8    1  0.9691636E-006  0.2866132E+03  0.7546771E-02  0.1092131E+00
         21   -1    0    0  504  503  0.00000000000E+00  0.00000000000E+00  0.46589239573E+02  0.46589239573E+02  0.00000000000E+00 0. -1.
         21   -1    0    0  503  504 -0.00000000000E+00 -0.00000000000E+00 -0.44080519395E+03  0.44080519395E+03  0.00000000000E+00 0. -1.
         25    2    1    2    0    0  0.15043872476E+02 -0.68414405391E+02 -0.19466793630E+03  0.24172294438E+03  0.12501010941E+03 0.  0.
         25    2    1    2    0    0 -0.15043872476E+02  0.68414405391E+02 -0.19954801808E+03  0.24567148915E+03  0.12501287971E+03 0.  0.
          5    1    3    3  501    0 -0.10559297182E+02 -0.99321610629E+02 -0.11499425103E+03  0.15238782387E+03  0.47000000000E+01 0.  1.
         -5    1    3    3    0  501  0.25603169658E+02  0.30907205238E+02 -0.79673685268E+02  0.89335120509E+02  0.47000000000E+01 0.  1.
          5    1    4    4  502    0 -0.35705771975E+02 -0.89328123527E+01 -0.79230544014E+01  0.37941561379E+02  0.47000000000E+01 0.  1.
         -5    1    4    4    0  502  0.20661899499E+02  0.77347217743E+02 -0.19162496368E+03  0.20772992777E+03  0.47000000000E+01 0.  1.
<mgrwt>
<rscale>  0 0.28661318E+03</rscale>
<asrwt>0</asrwt>
<pdfrwt beam="1">  1       21 0.71675755E-02 0.28661318E+03</pdfrwt>
<pdfrwt beam="2">  1       21 0.67816182E-01 0.28661318E+03</pdfrwt>
<totfact> 0.28166015E+05</totfact>
</mgrwt>
</event>
<event>
 8    1  0.9691636E-006  0.2594760E+03  0.7546771E-02  0.1107458E+00
         21   -1    0    0  504  503  0.00000000000E+00  0.00000000000E+00  0.16559047229E+03  0.16559047229E+03  0.00000000000E+00 0. -1.
         21   -1    0    0  503  504 -0.00000000000E+00 -0.00000000000E+00 -0.10164804598E+03  0.10164804598E+03  0.00000000000E+00 0. -1.
         25    2    1    2    0    0 -0.17089448176E+02 -0.11081103698E+02  0.60946346083E+02  0.14055352243E+03  0.12500398181E+03 0.  0.
         25    2    1    2    0    0  0.17089448176E+02  0.11081103698E+02  0.29960802319E+01  0.12668499584E+03  0.12500108630E+03 0.  0.
          5    1    3    3  501    0 -0.66063422366E+02 -0.44011079178E+01  0.62299961627E+01  0.66668196149E+02  0.47000000000E+01 0. -1.
         -5    1    3    3    0  501  0.48973974190E+02 -0.66799957798E+01  0.54716349920E+02  0.73885326285E+02  0.47000000000E+01 0. -1.
          5    1    4    4  502    0  0.27449115001E+02  0.41805208322E+02 -0.45755843348E+02  0.67947160041E+02  0.47000000000E+01 0.  1.
         -5    1    4    4    0  502 -0.10359666824E+02 -0.30724104624E+02  0.48751923580E+02  0.58737835799E+02  0.47000000000E+01 0.  1.
<mgrwt>
<rscale>  0 0.25947599E+03</rscale>
<asrwt>0</asrwt>
<pdfrwt beam="1">  1       21 0.25475457E-01 0.25947599E+03</pdfrwt>
<pdfrwt beam="2">  1       21 0.15638161E-01 0.25947599E+03</pdfrwt>
<totfact> 0.52459963E+05</totfact>
</mgrwt>
</event>
<event>
 8    1  0.9691636E-006  0.4596343E+03  0.7546771E-02  0.1024887E+00
         21   -1    0    0  504  503  0.00000000000E+00  0.00000000000E+00  0.55930976654E+03  0.55930976654E+03  0.00000000000E+00 0.  1.
         21   -1    0    0  503  504 -0.00000000000E+00 -0.00000000000E+00 -0.94430543439E+02  0.94430543439E+02  0.00000000000E+00 0.  1.
         25    2    1    2    0    0 -0.42425762559E+02 -0.16600574470E+03  0.10661569893E+03  0.23738038744E+03  0.12499875393E+03 0.  0.
         25    2    1    2    0    0  0.42425762559E+02  0.16600574470E+03  0.35826352418E+03  0.41635992254E+03  0.12507989342E+03 0.  0.
          5    1    3    3  501    0  0.22064582259E+02 -0.13647639906E+03  0.52165639677E+02  0.14783773961E+03  0.47000000000E+01 0.  1.
         -5    1    3    3    0  501 -0.64490344818E+02 -0.29529345635E+02  0.54450059248E+02  0.89542647830E+02  0.47000000000E+01 0.  1.
          5    1    4    4  502    0  0.45489711835E+02  0.90568045182E+02  0.83584050989E+02  0.13145443420E+03  0.47000000000E+01 0. -1.
         -5    1    4    4    0  502 -0.30639492756E+01  0.75437699515E+02  0.27467947319E+03  0.28490548834E+03  0.47000000000E+01 0. -1.
<mgrwt>
<rscale>  0 0.45963431E+03</rscale>
<asrwt>0</asrwt>
<pdfrwt beam="1">  1       21 0.86047654E-01 0.45963431E+03</pdfrwt>
<pdfrwt beam="2">  1       21 0.14527776E-01 0.45963431E+03</pdfrwt>
<totfact> 0.44299380E+04</totfact>
</mgrwt>
</event>
<event>
 8    1  0.9691636E-006  0.2831347E+03  0.7546771E-02  0.1093989E+00
         21   -1    0    0  504  503  0.00000000000E+00  0.00000000000E+00  0.28848637729E+02  0.28848637729E+02  0.00000000000E+00 0. -1.
         21   -1    0    0  503  504 -0.00000000000E+00 -0.00000000000E+00 -0.69470594358E+03  0.69470594358E+03  0.00000000000E+00 0. -1.
         25    2    1    2    0    0  0.14566073472E+02  0.34759083923E+02 -0.19305882159E+03  0.23306094858E+03  0.12500133098E+03 0.  0.
         25    2    1    2    0    0 -0.14566073472E+02 -0.34759083923E+02 -0.47279848426E+03  0.49049363273E+03  0.12500093047E+03 0.  0.
          5    1    3    3  501    0 -0.34987340078E+01  0.37847191218E+02  0.77504181933E+00  0.38305896577E+02  0.47000000000E+01 0. -1.
         -5    1    3    3    0  501  0.18064807480E+02 -0.30881072958E+01 -0.19383386341E+03  0.19475505200E+03  0.47000000000E+01 0. -1.
          5    1    4    4  502    0 -0.62799701403E+02 -0.16297222512E+02 -0.14917206916E+03  0.16273843484E+03  0.47000000000E+01 0. -1.
         -5    1    4    4    0  502  0.48233627931E+02 -0.18461861411E+02 -0.32362641510E+03  0.32775519789E+03  0.47000000000E+01 0. -1.
<mgrwt>
<rscale>  0 0.28313474E+03</rscale>
<asrwt>0</asrwt>
<pdfrwt beam="1">  1       21 0.44382520E-02 0.28313474E+03</pdfrwt>
<pdfrwt beam="2">  1       21 0.10687784E+00 0.28313474E+03</pdfrwt>
<totfact> 0.22411236E+05</totfact>
</mgrwt>
</event>
<event>
 8    1  0.9691636E-006  0.3348922E+03  0.7546771E-02  0.1068992E+00
         21   -1    0    0  504  503  0.00000000000E+00  0.00000000000E+00  0.11442537879E+03  0.11442537879E+03  0.00000000000E+00 0.  1.
         21   -1    0    0  503  504 -0.00000000000E+00 -0.00000000000E+00 -0.24503482838E+03  0.24503482838E+03  0.00000000000E+00 0.  1.
         25    2    1    2    0    0  0.43957967923E+02  0.12718693440E+02 -0.17434601351E+03  0.21935262127E+03  0.12499988769E+03 0.  0.
         25    2    1    2    0    0 -0.43957967923E+02 -0.12718693440E+02  0.43736563922E+02  0.14010758590E+03  0.12499272177E+03 0.  0.
          5    1    3    3  501    0  0.15369720147E+02  0.40218341455E+02 -0.17410044693E+03  0.17940679727E+03  0.47000000000E+01 0. -1.
         -5    1    3    3    0  501  0.28588247777E+02 -0.27499648015E+02 -0.24556658339E+00  0.39945823997E+02  0.47000000000E+01 0. -1.
          5    1    4    4  502    0 -0.91192919292E+01 -0.38431194151E+02 -0.33124991785E+02  0.51763628640E+02  0.47000000000E+01 0.  1.
         -5    1    4    4    0  502 -0.34838675994E+02  0.25712500711E+02  0.76861555707E+02  0.88343957255E+02  0.47000000000E+01 0.  1.
<mgrwt>
<rscale>  0 0.33489224E+03</rscale>
<asrwt>0</asrwt>
<pdfrwt beam="1">  1       21 0.17603904E-01 0.33489224E+03</pdfrwt>
<pdfrwt beam="2">  1       21 0.37697666E-01 0.33489224E+03</pdfrwt>
<totfact> 0.19135848E+05</totfact>
</mgrwt>
</event>
<event>
 8    1  0.9691636E-006  0.3337305E+03  0.7546771E-02  0.1069498E+00
         21   -1    0    0  504  503  0.00000000000E+00  0.00000000000E+00  0.17311861974E+02  0.17311861974E+02  0.00000000000E+00 0. -1.
         21   -1    0    0  503  504 -0.00000000000E+00 -0.00000000000E+00 -0.16083771880E+04  0.16083771880E+04  0.00000000000E+00 0. -1.
         25    2    1    2    0    0 -0.98641329329E+02 -0.17538643177E+02 -0.10231500716E+04  0.10356151497E+04  0.12499981360E+03 0.  0.
         25    2    1    2    0    0  0.98641329329E+02  0.17538643177E+02 -0.56791525445E+03  0.59007390031E+03  0.12498702224E+03 0.  0.
          5    1    3    3  501    0  0.38575895752E+01 -0.51390767093E+02 -0.36647042483E+03  0.37010613912E+03  0.47000000000E+01 0.  1.
         -5    1    3    3    0  501 -0.10249891890E+03  0.33852123917E+02 -0.65667964676E+03  0.66550901056E+03  0.47000000000E+01 0.  1.
          5    1    4    4  502    0  0.13825970075E+02  0.59395274815E+02 -0.29269404925E+03  0.29901647544E+03  0.47000000000E+01 0.  1.
         -5    1    4    4    0  502  0.84815359255E+02 -0.41856631638E+02 -0.27522120521E+03  0.29105742487E+03  0.47000000000E+01 0.  1.
<mgrwt>
<rscale>  0 0.33373045E+03</rscale>
<asrwt>0</asrwt>
<pdfrwt beam="1">  1       21 0.26633642E-02 0.33373045E+03</pdfrwt>
<pdfrwt beam="2">  1       21 0.24744257E+00 0.33373045E+03</pdfrwt>
<totfact> 0.48792240E+04</totfact>
</mgrwt>
</event>
<event>
 8    1  0.9691636E-006  0.2775720E+03  0.7546771E-02  0.1097022E+00
         21   -1    0    0  504  503  0.00000000000E+00  0.00000000000E+00  0.15440196797E+02  0.15440196797E+02  0.00000000000E+00 0.  1.
         21   -1    0    0  503  504 -0.00000000000E+00 -0.00000000000E+00 -0.12474944246E+04  0.12474944246E+04  0.00000000000E+00 0.  1.
         25    2    1    2    0    0  0.13140141709E+01  0.26076912995E+02 -0.86333988863E+03  0.87273287233E+03  0.12500068449E+03 0.  0.
         25    2    1    2    0    0 -0.13140141709E+01 -0.26076912995E+02 -0.36871433914E+03  0.39020174903E+03  0.12500163613E+03 0.  0.
          5    1    3    3  501    0 -0.25221699574E+01 -0.13898744393E+02 -0.77960271068E+03  0.77974483835E+03  0.47000000000E+01 0. -1.
         -5    1    3    3    0  501  0.38361841284E+01  0.39975657388E+02 -0.83737177954E+02  0.92988033983E+02  0.47000000000E+01 0. -1.
          5    1    4    4  502    0 -0.52519663411E+02  0.19129010129E+02 -0.20973263476E+03  0.21710389715E+03  0.47000000000E+01 0.  1.
         -5    1    4    4    0  502  0.51205649240E+02 -0.45205923124E+02 -0.15898170438E+03  0.17309785188E+03  0.47000000000E+01 0.  1.
<mgrwt>
<rscale>  0 0.27757204E+03</rscale>
<asrwt>0</asrwt>
<pdfrwt beam="1">  1       21 0.23754150E-02 0.27757204E+03</pdfrwt>
<pdfrwt beam="2">  1       21 0.19192221E+00 0.27757204E+03</pdfrwt>
<totfact> 0.13539397E+05</totfact>
</mgrwt>
</event>
<event>
 8    1  0.9691636E-006  0.3138506E+03  0.7546771E-02  0.1078515E+00
         21   -1    0    0  504  503  0.00000000000E+00  0.00000000000E+00  0.48785714115E+03  0.48785714115E+03  0.00000000000E+00 0. -1.
         21   -1    0    0  503  504 -0.00000000000E+00 -0.00000000000E+00 -0.50476982651E+02  0.50476982651E+02  0.00000000000E+00 0. -1.
         25    2    1    2    0    0  0.17697048518E+02 -0.57063978566E+02  0.34508821501E+03  0.37186153619E+03  0.12500257110E+03 0.  0.
         25    2    1    2    0    0 -0.17697048518E+02  0.57063978566E+02  0.92291943497E+02  0.16647258762E+03  0.12500334563E+03 0.  0.
          5    1    3    3  501    0  0.40599248738E+02 -0.53804507800E+01  0.28222792179E+02  0.49958625352E+02  0.47000000000E+01 0. -1.
         -5    1    3    3    0  501 -0.22902200220E+02 -0.51683527786E+02  0.31686542283E+03  0.32190291083E+03  0.47000000000E+01 0. -1.
          5    1    4    4  502    0  0.11061649541E+02  0.81067649315E+02  0.98582297446E+02  0.12819860852E+03  0.47000000000E+01 0.  1.
         -5    1    4    4    0  502 -0.28758698060E+02 -0.24003670749E+02 -0.62903539491E+01  0.38273979102E+02  0.47000000000E+01 0.  1.
<mgrwt>
<rscale>  0 0.31385064E+03</rscale>
<asrwt>0</asrwt>
<pdfrwt beam="1">  1       21 0.75054942E-01 0.31385064E+03</pdfrwt>
<pdfrwt beam="2">  1       21 0.77656900E-02 0.31385064E+03</pdfrwt>
<totfact> 0.19390832E+05</totfact>
</mgrwt>
</event>
<event>
 8    1  0.9691636E-006  0.2597039E+03  0.7546771E-02  0.1107321E+00
         21   -1    0    0  504  503  0.00000000000E+00  0.00000000000E+00  0.19705149781E+03  0.19705149781E+03  0.00000000000E+00 0.  1.
         21   -1    0    0  503  504 -0.00000000000E+00 -0.00000000000E+00 -0.85569165551E+02  0.85569165551E+02  0.00000000000E+00 0.  1.
         25    2    1    2    0    0 -0.28009817957E+02  0.21188165442E+02  0.54104232960E+02  0.14066286311E+03  0.12500113910E+03 0.  0.
         25    2    1    2    0    0  0.28009817957E+02 -0.21188165442E+02  0.57378099302E+02  0.14195780025E+03  0.12500512996E+03 0.  0.
          5    1    3    3  501    0  0.13605595913E+02  0.64778196296E+02  0.13153679711E+02  0.67649362491E+02  0.47000000000E+01 0. -1.
         -5    1    3    3    0  501 -0.41615413869E+02 -0.43590030854E+02  0.40950553249E+02  0.73013500620E+02  0.47000000000E+01 0. -1.
          5    1    4    4  502    0  0.34661656709E+02 -0.20426178998E+02 -0.32361530917E+02  0.51846098383E+02  0.47000000000E+01 0. -1.
         -5    1    4    4    0  502 -0.66518387519E+01 -0.76198644401E+00  0.89739630218E+02  0.90111701870E+02  0.47000000000E+01 0. -1.
<mgrwt>
<rscale>  0 0.25970393E+03</rscale>
<asrwt>0</asrwt>
<pdfrwt beam="1">  1       21 0.30315615E-01 0.25970393E+03</pdfrwt>
<pdfrwt beam="2">  1       21 0.13164487E-01 0.25970393E+03</pdfrwt>
<totfact> 0.51222296E+05</totfact>
</mgrwt>
</event>
<event>
 8    1  0.9691636E-006  0.3829085E+03  0.7546771E-02  0.1049864E+00
         21   -1    0    0  504  503  0.00000000000E+00  0.00000000000E+00  0.18607515437E+03  0.18607515437E+03  0.00000000000E+00 0.  1.
         21   -1    0    0  503  504 -0.00000000000E+00 -0.00000000000E+00 -0.19698881787E+03  0.19698881787E+03  0.00000000000E+00 0.  1.
         25    2    1    2    0    0 -0.99665201121E+02 -0.10528585802E+03 -0.19514716470E+01  0.19143285907E+03  0.12499786829E+03 0.  0.
         25    2    1    2    0    0  0.99665201121E+02  0.10528585802E+03 -0.89621918543E+01  0.19163111318E+03  0.12499559369E+03 0.  0.
          5    1    3    3  501    0 -0.12736949066E+03 -0.77217744698E+02  0.11586298398E+02  0.14947206949E+03  0.47000000000E+01 0. -1.
         -5    1    3    3    0  501  0.27704289538E+02 -0.28068113318E+02 -0.13537770045E+02  0.41960789576E+02  0.47000000000E+01 0. -1.
          5    1    4    4  502    0  0.41671095345E+02  0.14655059408E+01 -0.50426919961E+02  0.65601769425E+02  0.47000000000E+01 0. -1.
         -5    1    4    4    0  502  0.57994105777E+02  0.10382035208E+03  0.41464728107E+02  0.12602934375E+03  0.47000000000E+01 0. -1.
<mgrwt>
<rscale>  0 0.38290847E+03</rscale>
<asrwt>0</asrwt>
<pdfrwt beam="1">  1       21 0.28626947E-01 0.38290847E+03</pdfrwt>
<pdfrwt beam="2">  1       21 0.30305972E-01 0.38290847E+03</pdfrwt>
<totfact> 0.11559077E+05</totfact>
</mgrwt>
</event>
<event>
 8    1  0.9691636E-006  0.2787583E+03  0.7546771E-02  0.1096369E+00
         21   -1    0    0  504  503  0.00000000000E+00  0.00000000000E+00  0.57326089179E+02  0.57326089179E+02  0.00000000000E+00 0. -1.
         21   -1    0    0  503  504 -0.00000000000E+00 -0.00000000000E+00 -0.33887788481E+03  0.33887788481E+03  0.00000000000E+00 0. -1.
         25    2    1    2    0    0  0.39119553890E+02  0.41703316597E+02 -0.17355479113E+03  0.22139575538E+03  0.12500123546E+03 0.  0.
         25    2    1    2    0    0 -0.39119553890E+02 -0.41703316597E+02 -0.10799700450E+03  0.17480821861E+03  0.12500021680E+03 0.  0.
          5    1    3    3  501    0  0.55030206097E+02  0.27591310742E+02 -0.17980046076E+02  0.64303779581E+02  0.47000000000E+01 0. -1.
         -5    1    3    3    0  501 -0.15910652206E+02  0.14112005855E+02 -0.15557474505E+03  0.15709197580E+03  0.47000000000E+01 0. -1.
          5    1    4    4  502    0 -0.28729964703E+02  0.40517487799E+02 -0.63084709521E+02  0.80429150590E+02  0.47000000000E+01 0. -1.
         -5    1    4    4    0  502 -0.10389589188E+02 -0.82220804396E+02 -0.44912294982E+02  0.94379068016E+02  0.47000000000E+01 0. -1.
<mgrwt>
<rscale>  0 0.27875827E+03</rscale>
<asrwt>0</asrwt>
<pdfrwt beam="1">  1       21 0.88193983E-02 0.27875827E+03</pdfrwt>
<pdfrwt beam="2">  1       21 0.52135059E-01 0.27875827E+03</pdfrwt>
<totfact> 0.34642531E+05</totfact>
</mgrwt>
</event>
<event>
 8    1  0.9691636E-006  0.4893338E+03  0.7546771E-02  0.1016601E+00
         21   -1    0    0  504  503  0.00000000000E+00  0.00000000000E+00  0.20797152676E+03  0.20797152676E+03  0.00000000000E+00 0. -1.
         21   -1    0    0  503  504 -0.00000000000E+00 -0.00000000000E+00 -0.28783690657E+03  0.28783690657E+03  0.00000000000E+00 0. -1.
         25    2    1    2    0    0  0.16785612929E+03  0.93379622969E+02 -0.12675211831E+03  0.26189044250E+03  0.12500028102E+03 0.  0.
         25    2    1    2    0    0 -0.16785612929E+03 -0.93379622969E+02  0.46886738499E+02  0.23391799082E+03  0.12499530414E+03 0.  0.
          5    1    3    3  501    0  0.17367722646E+03  0.99425694462E+02 -0.14089150468E+03  0.24478920279E+03  0.47000000000E+01 0. -1.
         -5    1    3    3    0  501 -0.58210971758E+01 -0.60460714933E+01  0.14139386371E+02  0.17101239715E+02  0.47000000000E+01 0. -1.
          5    1    4    4  502    0 -0.14610755171E+03 -0.84629024419E+02 -0.13022201836E+02  0.16941415579E+03  0.47000000000E+01 0.  1.
         -5    1    4    4    0  502 -0.21748577576E+02 -0.87505985502E+01  0.59908940335E+02  0.64503835030E+02  0.47000000000E+01 0.  1.
<mgrwt>
<rscale>  0 0.48933375E+03</rscale>
<asrwt>0</asrwt>
<pdfrwt beam="1">  1       21 0.31995619E-01 0.48933375E+03</pdfrwt>
<pdfrwt beam="2">  1       21 0.44282601E-01 0.48933375E+03</pdfrwt>
<totfact> 0.41884202E+04</totfact>
</mgrwt>
</event>
<event>
 8    1  0.9691636E-006  0.2564051E+03  0.7546771E-02  0.1109323E+00
         21   -1    0    0  504  503  0.00000000000E+00  0.00000000000E+00  0.42875402941E+03  0.42875402941E+03  0.00000000000E+00 0. -1.
         21   -1    0    0  503  504 -0.00000000000E+00 -0.00000000000E+00 -0.38334086990E+02  0.38334086990E+02  0.00000000000E+00 0. -1.
         25    2    1    2    0    0  0.89314391006E+01  0.15676486183E+02  0.23533593763E+03  0.26708308570E+03  0.12499939322E+03 0.  0.
         25    2    1    2    0    0 -0.89314391006E+01 -0.15676486183E+02  0.15508400479E+03  0.20000503069E+03  0.12500176374E+03 0.  0.
          5    1    3    3  501    0 -0.42365610769E+02  0.16454955062E+02  0.19865252211E+03  0.20383945904E+03  0.47000000000E+01 0. -1.
         -5    1    3    3    0  501  0.51297049869E+02 -0.77846887989E+00  0.36683415516E+02  0.63243626659E+02  0.47000000000E+01 0. -1.
          5    1    4    4  502    0 -0.17530721555E+02 -0.46818359898E+02  0.15935539769E+03  0.16707937573E+03  0.47000000000E+01 0.  1.
         -5    1    4    4    0  502  0.85992824549E+01  0.31141873716E+02 -0.42713929021E+01  0.32925654961E+02  0.47000000000E+01 0.  1.
<mgrwt>
<rscale>  0 0.25640510E+03</rscale>
<asrwt>0</asrwt>
<pdfrwt beam="1">  1       21 0.65962155E-01 0.25640510E+03</pdfrwt>
<pdfrwt beam="2">  1       21 0.58975521E-02 0.25640510E+03</pdfrwt>
<totfact> 0.42249424E+05</totfact>
</mgrwt>
</event>
<event>
 8    1  0.9691636E-006  0.7319622E+03  0.7546771E-02  0.9664082E-01
         21   -1    0    0  504  503  0.00000000000E+00  0.00000000000E+00  0.46507497670E+03  0.46507497670E+03  0.00000000000E+00 0.  1.
         21   -1    0    0  503  504 -0.00000000000E+00 -0.00000000000E+00 -0.28800122993E+03  0.28800122993E+03  0.00000000000E+00 0.  1.
         25    2    1    2    0    0 -0.27519285853E+03 -0.20188206896E+03  0.44598046075E+02  0.36619971017E+03  0.12500305141E+03 0.  0.
         25    2    1    2    0    0  0.27519285853E+03  0.20188206896E+03  0.13247570070E+03  0.38687649646E+03  0.12504452440E+03 0.  0.
          5    1    3    3  501    0 -0.23877932425E+03 -0.16474924984E+03 -0.10447006774E+02  0.29032587029E+03  0.47000000000E+01 0. -1.
         -5    1    3    3    0  501 -0.36413534282E+02 -0.37132819123E+02  0.55045052849E+02  0.75873839879E+02  0.47000000000E+01 0. -1.
          5    1    4    4  502    0  0.20626111137E+03  0.17450062211E+03  0.48145114679E+02  0.27447068195E+03  0.47000000000E+01 0.  1.
         -5    1    4    4    0  502  0.68931747160E+02  0.27381446851E+02  0.84330586019E+02  0.11240581451E+03  0.47000000000E+01 0.  1.
<mgrwt>
<rscale>  0 0.73196220E+03</rscale>
<asrwt>0</asrwt>
<pdfrwt beam="1">  1       21 0.71549997E-01 0.73196220E+03</pdfrwt>
<pdfrwt beam="2">  1       21 0.44307881E-01 0.73196220E+03</pdfrwt>
<totfact> 0.71705955E+03</totfact>
</mgrwt>
</event>
<event>
 8    1  0.9691636E-006  0.2700668E+03  0.7546771E-02  0.1101241E+00
         21   -1    0    0  504  503  0.00000000000E+00  0.00000000000E+00  0.10722353279E+03  0.10722353279E+03  0.00000000000E+00 0. -1.
         21   -1    0    0  503  504 -0.00000000000E+00 -0.00000000000E+00 -0.17005617755E+03  0.17005617755E+03  0.00000000000E+00 0. -1.
         25    2    1    2    0    0  0.44379300285E+02 -0.19155244255E+02 -0.14489474780E+02  0.13479973789E+03  0.12499831511E+03 0.  0.
         25    2    1    2    0    0 -0.44379300285E+02  0.19155244255E+02 -0.48343169976E+02  0.14247997246E+03  0.12500813890E+03 0.  0.
          5    1    3    3  501    0 -0.12228555914E+02 -0.12711040901E+02  0.47252805140E+02  0.50655954577E+02  0.47000000000E+01 0.  1.
         -5    1    3    3    0  501  0.56607856199E+02 -0.64442033540E+01 -0.61742279921E+02  0.84143783312E+02  0.47000000000E+01 0.  1.
          5    1    4    4  502    0 -0.23746764544E+02  0.45836712060E+02  0.27978869939E+02  0.58905179414E+02  0.47000000000E+01 0.  1.
         -5    1    4    4    0  502 -0.20632535740E+02 -0.26681467805E+02 -0.76322039914E+02  0.83574793042E+02  0.47000000000E+01 0.  1.
<mgrwt>
<rscale>  0 0.27006684E+03</rscale>
<asrwt>0</asrwt>
<pdfrwt beam="1">  1       21 0.16495928E-01 0.27006684E+03</pdfrwt>
<pdfrwt beam="2">  1       21 0.26162489E-01 0.27006684E+03</pdfrwt>
<totfact> 0.45077017E+05</totfact>
</mgrwt>
</event>
<event>
 8    1  0.9691636E-006  0.2768870E+03  0.7546771E-02  0.1097401E+00
         21   -1    0    0  504  503  0.00000000000E+00  0.00000000000E+00  0.60188749218E+02  0.60188749218E+02  0.00000000000E+00 0.  1.
         21   -1    0    0  503  504 -0.00000000000E+00 -0.00000000000E+00 -0.31844171283E+03  0.31844171283E+03  0.00000000000E+00 0.  1.
         25    2    1    2    0    0  0.57752360787E+02 -0.13818567192E+02 -0.13442154701E+03  0.19292717916E+03  0.12500182472E+03 0.  0.
         25    2    1    2    0    0 -0.57752360787E+02  0.13818567192E+02 -0.12383141661E+03  0.18570328289E+03  0.12500080625E+03 0.  0.
          5    1    3    3  501    0  0.89975499040E+02 -0.31481408881E+02 -0.11963302179E+03  0.15303862073E+03  0.47000000000E+01 0. -1.
         -5    1    3    3    0  501 -0.32223138253E+02  0.17662841689E+02 -0.14788525218E+02  0.39888558429E+02  0.47000000000E+01 0. -1.
          5    1    4    4  502    0 -0.75975516726E+02 -0.27907871240E+01 -0.13745059352E+03  0.15714586629E+03  0.47000000000E+01 0. -1.
         -5    1    4    4    0  502  0.18223155939E+02  0.16609354316E+02  0.13619176909E+02  0.28557416600E+02  0.47000000000E+01 0. -1.
<mgrwt>
<rscale>  0 0.27688704E+03</rscale>
<asrwt>0</asrwt>
<pdfrwt beam="1">  1       21 0.92598075E-02 0.27688704E+03</pdfrwt>
<pdfrwt beam="2">  1       21 0.48991033E-01 0.27688704E+03</pdfrwt>
<totfact> 0.36245688E+05</totfact>
</mgrwt>
</event>
<event>
 8    1  0.9691636E-006  0.3369807E+03  0.7546771E-02  0.1068089E+00
         21   -1    0    0  504  503  0.00000000000E+00  0.00000000000E+00  0.15879505611E+03  0.15879505611E+03  0.00000000000E+00 0. -1.
         21   -1    0    0  503  504 -0.00000000000E+00 -0.00000000000E+00 -0.17877759705E+03  0.17877759705E+03  0.00000000000E+00 0. -1.
         25    2    1    2    0    0  0.71143742974E+02  0.87731149154E+02 -0.74726402488E+01  0.16863626643E+03  0.12499665319E+03 0.  0.
         25    2    1    2    0    0 -0.71143742974E+02 -0.87731149154E+02 -0.12509900687E+02  0.16893638673E+03  0.12499927380E+03 0.  0.
          5    1    3    3  501    0  0.71431032101E+02  0.85270906509E+02 -0.52643421118E+02  0.12315412957E+03  0.47000000000E+01 0.  1.
         -5    1    3    3    0  501 -0.28728912652E+00  0.24602426444E+01  0.45170780869E+02  0.45482136859E+02  0.47000000000E+01 0.  1.
          5    1    4    4  502    0  0.35975394906E+01 -0.92963670645E+02 -0.11491073138E+02  0.93857983741E+02  0.47000000000E+01 0. -1.
         -5    1    4    4    0  502 -0.74741282465E+02  0.52325214909E+01 -0.10188275490E+01  0.75078402988E+02  0.47000000000E+01 0. -1.
<mgrwt>
<rscale>  0 0.33698070E+03</rscale>
<asrwt>0</asrwt>
<pdfrwt beam="1">  1       21 0.24430009E-01 0.33698070E+03</pdfrwt>
<pdfrwt beam="2">  1       21 0.27504246E-01 0.33698070E+03</pdfrwt>
<totfact> 0.19236832E+05</totfact>
</mgrwt>
</event>
<event>
 8    1  0.9691636E-006  0.3216889E+03  0.7546771E-02  0.1074875E+00
         21   -1    0    0  504  503  0.00000000000E+00  0.00000000000E+00  0.43153086929E+03  0.43153086929E+03  0.00000000000E+00 0.  1.
         21   -1    0    0  503  504 -0.00000000000E+00 -0.00000000000E+00 -0.59951521813E+02  0.59951521813E+02  0.00000000000E+00 0.  1.
         25    2    1    2    0    0 -0.76994428956E+02  0.65037835187E+02  0.17140042029E+03  0.23486260843E+03  0.12499711463E+03 0.  0.
         25    2    1    2    0    0  0.76994428956E+02 -0.65037835187E+02  0.20017892718E+03  0.25661978267E+03  0.12499619144E+03 0.  0.
          5    1    3    3  501    0 -0.81876385790E+02 -0.11147257700E+02  0.74022602970E+02  0.11103800995E+03  0.47000000000E+01 0. -1.
         -5    1    3    3    0  501  0.48819568333E+01  0.76185092887E+02  0.97377817322E+02  0.12382459847E+03  0.47000000000E+01 0. -1.
          5    1    4    4  502    0  0.10169111480E+03 -0.58946037179E+02  0.19844941111E+03  0.23069455325E+03  0.47000000000E+01 0. -1.
         -5    1    4    4    0  502 -0.24696685845E+02 -0.60917980084E+01  0.17295160696E+01  0.25925229421E+02  0.47000000000E+01 0. -1.
<mgrwt>
<rscale>  0 0.32168887E+03</rscale>
<asrwt>0</asrwt>
<pdfrwt beam="1">  1       21 0.66389362E-01 0.32168887E+03</pdfrwt>
<pdfrwt beam="2">  1       21 0.92233113E-02 0.32168887E+03</pdfrwt>
<totfact> 0.18795868E+05</totfact>
</mgrwt>
</event>
<event>
 8    1  0.9691636E-006  0.2660352E+03  0.7546771E-02  0.1103570E+00
         21   -1    0    0  504  503  0.00000000000E+00  0.00000000000E+00  0.21852207485E+03  0.21852207485E+03  0.00000000000E+00 0. -1.
         21   -1    0    0  503  504 -0.00000000000E+00 -0.00000000000E+00 -0.80969786520E+02  0.80969786520E+02  0.00000000000E+00 0. -1.
         25    2    1    2    0    0 -0.37787466688E+02  0.13525604806E+02  0.44664716898E+02  0.13866878549E+03  0.12499304184E+03 0.  0.
         25    2    1    2    0    0  0.37787466688E+02 -0.13525604806E+02  0.92887571437E+02  0.16082307589E+03  0.12500050475E+03 0.  0.
          5    1    3    3  501    0 -0.55574054721E+01  0.45235046295E+02  0.72208763345E+02  0.85517774017E+02  0.47000000000E+01 0.  1.
         -5    1    3    3    0  501 -0.32230061216E+02 -0.31709441489E+02 -0.27544046447E+02  0.53151011470E+02  0.47000000000E+01 0.  1.
          5    1    4    4  502    0 -0.38677257342E+02 -0.13496933795E+02  0.10757699281E+01  0.41247360380E+02  0.47000000000E+01 0.  1.
         -5    1    4    4    0  502  0.76464724030E+02 -0.28671011786E-01  0.91811801508E+02  0.11957571551E+03  0.47000000000E+01 0.  1.
<mgrwt>
<rscale>  0 0.26603523E+03</rscale>
<asrwt>0</asrwt>
<pdfrwt beam="1">  1       21 0.33618781E-01 0.26603523E+03</pdfrwt>
<pdfrwt beam="2">  1       21 0.12456890E-01 0.26603523E+03</pdfrwt>
<totfact> 0.46088691E+05</totfact>
</mgrwt>
</event>
<event>
 8    1  0.9691636E-006  0.5683710E+03  0.7546771E-02  0.9973290E-01
         21   -1    0    0  504  503  0.00000000000E+00  0.00000000000E+00  0.50486336466E+02  0.50486336466E+02  0.00000000000E+00 0. -1.
         21   -1    0    0  503  504 -0.00000000000E+00 -0.00000000000E+00 -0.15996682309E+04  0.15996682309E+04  0.00000000000E+00 0. -1.
         25    2    1    2    0    0  0.21755691191E+03 -0.13342281410E+03 -0.76957583596E+03  0.82036942035E+03  0.12500544517E+03 0.  0.
         25    2    1    2    0    0 -0.21755691191E+03  0.13342281410E+03 -0.77960605848E+03  0.82978514702E+03  0.12500050620E+03 0.  0.
          5    1    3    3  501    0  0.45606763528E+02 -0.95920228608E+02 -0.33578994083E+03  0.35221817315E+03  0.47000000000E+01 0. -1.
         -5    1    3    3    0  501  0.17195014838E+03 -0.37502585487E+02 -0.43378589513E+03  0.46815124721E+03  0.47000000000E+01 0. -1.
          5    1    4    4  502    0 -0.10467331073E+03 -0.20199677809E+01 -0.35086061538E+03  0.36617733911E+03  0.47000000000E+01 0. -1.
         -5    1    4    4    0  502 -0.11288360117E+03  0.13544278188E+03 -0.42874544310E+03  0.46360780791E+03  0.47000000000E+01 0. -1.
<mgrwt>
<rscale>  0 0.56837097E+03</rscale>
<asrwt>0</asrwt>
<pdfrwt beam="1">  1       21 0.77671290E-02 0.56837097E+03</pdfrwt>
<pdfrwt beam="2">  1       21 0.24610279E+00 0.56837097E+03</pdfrwt>
<totfact> 0.72466686E+03</totfact>
</mgrwt>
</event>
<event>
 8    1  0.9691636E-006  0.3449954E+03  0.7546771E-02  0.1064688E+00
         21   -1    0    0  504  503  0.00000000000E+00  0.00000000000E+00  0.29523383747E+03  0.29523383747E+03  0.00000000000E+00 0.  1.
         21   -1    0    0  503  504 -0.00000000000E+00 -0.00000000000E+00 -0.10078605170E+03  0.10078605170E+03  0.00000000000E+00 0.  1.
         25    2    1    2    0    0 -0.67880254408E+02 -0.45028841106E+02 -0.21561142113E+01  0.14921631805E+03  0.12500214108E+03 0.  0.
         25    2    1    2    0    0  0.67880254408E+02  0.45028841106E+02  0.19660389998E+03  0.24680357112E+03  0.12499433491E+03 0.  0.
          5    1    3    3  501    0 -0.45244376248E+02  0.22723629527E+01 -0.57153500985E+02  0.73080981728E+02  0.47000000000E+01 0. -1.
         -5    1    3    3    0  501 -0.22635878160E+02 -0.47301204059E+02  0.54997386774E+02  0.76135336326E+02  0.47000000000E+01 0. -1.
          5    1    4    4  502    0  0.10308210432E+03  0.42462024915E+02  0.13034565446E+03  0.17158386704E+03  0.47000000000E+01 0.  1.
         -5    1    4    4    0  502 -0.35201849911E+02  0.25668161904E+01  0.66258245522E+02  0.75219704082E+02  0.47000000000E+01 0.  1.
<mgrwt>
<rscale>  0 0.34499538E+03</rscale>
<asrwt>0</asrwt>
<pdfrwt beam="1">  1       21 0.45420590E-01 0.34499538E+03</pdfrwt>
<pdfrwt beam="2">  1       21 0.15505547E-01 0.34499538E+03</pdfrwt>
<totfact> 0.16477685E+05</totfact>
</mgrwt>
</event>
<event>
 8    1  0.9691636E-006  0.2933622E+03  0.7546771E-02  0.1088607E+00
         21   -1    0    0  504  503  0.00000000000E+00  0.00000000000E+00  0.51955864327E+03  0.51955864327E+03  0.00000000000E+00 0.  1.
         21   -1    0    0  503  504 -0.00000000000E+00 -0.00000000000E+00 -0.41410815832E+02  0.41410815832E+02  0.00000000000E+00 0.  1.
         25    2    1    2    0    0 -0.24426677452E+02  0.53553725944E+02  0.33325517846E+03  0.36075786341E+03  0.12499023123E+03 0.  0.
         25    2    1    2    0    0  0.24426677452E+02 -0.53553725944E+02  0.14489264898E+03  0.20021159570E+03  0.12500455668E+03 0.  0.
          5    1    3    3  501    0 -0.34799932363E+02  0.88787676480E+02  0.18798759541E+03  0.21084523427E+03  0.47000000000E+01 0. -1.
         -5    1    3    3    0  501  0.10373254911E+02 -0.35233950536E+02  0.14526758305E+03  0.14991262913E+03  0.47000000000E+01 0. -1.
          5    1    4    4  502    0  0.29779527479E+02 -0.73486136714E+02  0.15691157123E+03  0.17587030373E+03  0.47000000000E+01 0.  1.
         -5    1    4    4    0  502 -0.53528500274E+01  0.19932410770E+02 -0.12018922258E+02  0.24341291970E+02  0.47000000000E+01 0.  1.
<mgrwt>
<rscale>  0 0.29336221E+03</rscale>
<asrwt>0</asrwt>
<pdfrwt beam="1">  1       21 0.79932094E-01 0.29336221E+03</pdfrwt>
<pdfrwt beam="2">  1       21 0.63708951E-02 0.29336221E+03</pdfrwt>
<totfact> 0.23850345E+05</totfact>
</mgrwt>
</event>
<event>
 8    1  0.9691636E-006  0.5009913E+03  0.7546771E-02  0.1013520E+00
         21   -1    0    0  504  503  0.00000000000E+00  0.00000000000E+00  0.34815151569E+02  0.34815151569E+02  0.00000000000E+00 0.  1.
         21   -1    0    0  503  504 -0.00000000000E+00 -0.00000000000E+00 -0.18023208016E+04  0.18023208016E+04  0.00000000000E+00 0.  1.
         25    2    1    2    0    0  0.17618551292E+03 -0.10076128152E+03 -0.60136294346E+03  0.64688158524E+03  0.12499689894E+03 0.  0.
         25    2    1    2    0    0 -0.17618551292E+03  0.10076128152E+03 -0.11661427066E+04  0.11902543680E+04  0.12498990943E+03 0.  0.
          5    1    3    3  501    0 -0.18038223951E+02 -0.20695255244E+01 -0.72444870044E+02  0.74833212245E+02  0.47000000000E+01 0. -1.
         -5    1    3    3    0  501  0.19422373687E+03 -0.98691755997E+02 -0.52891807341E+03  0.57204837300E+03  0.47000000000E+01 0. -1.
          5    1    4    4  502    0 -0.14697603658E+03  0.95658386502E+02 -0.65053083594E+03  0.67376920436E+03  0.47000000000E+01 0. -1.
         -5    1    4    4    0  502 -0.29209476342E+02  0.51028950203E+01 -0.51561187066E+03  0.51648516360E+03  0.47000000000E+01 0. -1.
<mgrwt>
<rscale>  0 0.50099130E+03</rscale>
<asrwt>0</asrwt>
<pdfrwt beam="1">  1       21 0.53561763E-02 0.50099130E+03</pdfrwt>
<pdfrwt beam="2">  1       21 0.27728017E+00 0.50099130E+03</pdfrwt>
<totfact> 0.91662327E+03</totfact>
</mgrwt>
</event>
<event>
 8    1  0.9691636E-006  0.2860800E+03  0.7546771E-02  0.1092414E+00
         21   -1    0    0  504  503  0.00000000000E+00  0.00000000000E+00  0.19392843983E+03  0.19392843983E+03  0.00000000000E+00 0. -1.
         21   -1    0    0  503  504 -0.00000000000E+00 -0.00000000000E+00 -0.10550508206E+03  0.10550508206E+03  0.00000000000E+00 0. -1.
         25    2    1    2    0    0  0.95146053482E+01  0.33584232401E+02 -0.18753175171E+02  0.13113241525E+03  0.12500240146E+03 0.  0.
         25    2    1    2    0    0 -0.95146053482E+01 -0.33584232401E+02  0.10717653294E+03  0.16830110664E+03  0.12498009803E+03 0.  0.
          5    1    3    3  501    0  0.63528561578E+02  0.24665260443E+02 -0.30715651265E+02  0.74898561011E+02  0.47000000000E+01 0.  1.
         -5    1    3    3    0  501 -0.54013956230E+02  0.89189719588E+01  0.11962476094E+02  0.56233854240E+02  0.47000000000E+01 0.  1.
          5    1    4    4  502    0 -0.60169214448E+02 -0.40994242389E+02  0.38437834156E+02  0.82464655284E+02  0.47000000000E+01 0. -1.
         -5    1    4    4    0  502  0.50654609100E+02  0.74100099881E+01  0.68738698783E+02  0.85836451356E+02  0.47000000000E+01 0. -1.
<mgrwt>
<rscale>  0 0.28607996E+03</rscale>
<asrwt>0</asrwt>
<pdfrwt beam="1">  1       21 0.29835145E-01 0.28607996E+03</pdfrwt>
<pdfrwt beam="2">  1       21 0.16231551E-01 0.28607996E+03</pdfrwt>
<totfact> 0.35845116E+05</totfact>
</mgrwt>
</event>
<event>
 8    1  0.9691636E-006  0.2841492E+03  0.7546771E-02  0.1093444E+00
         21   -1    0    0  504  503  0.00000000000E+00  0.00000000000E+00  0.19302510379E+03  0.19302510379E+03  0.00000000000E+00 0. -1.
         21   -1    0    0  503  504 -0.00000000000E+00 -0.00000000000E+00 -0.10457292049E+03  0.10457292049E+03  0.00000000000E+00 0. -1.
         25    2    1    2    0    0  0.22961990128E+02  0.46765543990E+02 -0.77372967126E+00  0.13542572031E+03  0.12500103188E+03 0.  0.
         25    2    1    2    0    0 -0.22961990128E+02 -0.46765543990E+02  0.89225912970E+02  0.16217230396E+03  0.12499729410E+03 0.  0.
          5    1    3    3  501    0 -0.86801526404E+00 -0.19731694095E+02 -0.46780104663E+02  0.50995699766E+02  0.47000000000E+01 0.  1.
         -5    1    3    3    0  501  0.23830005392E+02  0.66497238085E+02  0.46006374992E+02  0.84430020548E+02  0.47000000000E+01 0.  1.
          5    1    4    4  502    0  0.50927742154E+02 -0.84624645365E+01  0.29748319760E+02  0.59768727236E+02  0.47000000000E+01 0.  1.
         -5    1    4    4    0  502 -0.73889732281E+02 -0.38303079454E+02  0.59477593210E+02  0.10240357673E+03  0.47000000000E+01 0.  1.
<mgrwt>
<rscale>  0 0.28414925E+03</rscale>
<asrwt>0</asrwt>
<pdfrwt beam="1">  1       21 0.29696170E-01 0.28414925E+03</pdfrwt>
<pdfrwt beam="2">  1       21 0.16088142E-01 0.28414925E+03</pdfrwt>
<totfact> 0.36787275E+05</totfact>
</mgrwt>
</event>
<event>
 8    1  0.9691636E-006  0.2780324E+03  0.7546771E-02  0.1096769E+00
         21   -1    0    0  504  503  0.00000000000E+00  0.00000000000E+00  0.24396946144E+03  0.24396946144E+03  0.00000000000E+00 0. -1.
         21   -1    0    0  503  504 -0.00000000000E+00 -0.00000000000E+00 -0.79212775509E+02  0.79212775509E+02  0.00000000000E+00 0. -1.
         25    2    1    2    0    0  0.34127853037E+02 -0.72102633514E+00  0.23848177804E+02  0.13175834924E+03  0.12500518701E+03 0.  0.
         25    2    1    2    0    0 -0.34127853037E+02  0.72102633514E+00  0.14090850813E+03  0.19142388771E+03  0.12499066721E+03 0.  0.
          5    1    3    3  501    0  0.37948893762E+02  0.50176774710E+01  0.72647988120E+02  0.82250324029E+02  0.47000000000E+01 0.  1.
         -5    1    3    3    0  501 -0.38210407244E+01 -0.57387038061E+01 -0.48799810317E+02  0.49508025213E+02  0.47000000000E+01 0.  1.
          5    1    4    4  502    0  0.41250159378E+02  0.25128844414E+02  0.68768348394E+02  0.84167750423E+02  0.47000000000E+01 0. -1.
         -5    1    4    4    0  502 -0.75378012415E+02 -0.24407818079E+02  0.72140159737E+02  0.10725613729E+03  0.47000000000E+01 0. -1.
<mgrwt>
<rscale>  0 0.27803236E+03</rscale>
<asrwt>0</asrwt>
<pdfrwt beam="1">  1       21 0.37533763E-01 0.27803236E+03</pdfrwt>
<pdfrwt beam="2">  1       21 0.12186581E-01 0.27803236E+03</pdfrwt>
<totfact> 0.38365198E+05</totfact>
</mgrwt>
</event>
<event>
 8    1  0.9691636E-006  0.4423367E+03  0.7546771E-02  0.1030032E+00
         21   -1    0    0  504  503  0.00000000000E+00  0.00000000000E+00  0.19228328815E+03  0.19228328815E+03  0.00000000000E+00 0.  1.
         21   -1    0    0  503  504 -0.00000000000E+00 -0.00000000000E+00 -0.25439256686E+03  0.25439256686E+03  0.00000000000E+00 0.  1.
         25    2    1    2    0    0 -0.13670861787E+03 -0.24302385098E+02  0.88470267782E+02  0.20671689791E+03  0.12500014192E+03 0.  0.
         25    2    1    2    0    0  0.13670861787E+03  0.24302385098E+02 -0.15057954648E+03  0.23995895710E+03  0.12500499650E+03 0.  0.
          5    1    3    3  501    0 -0.11068326530E+03  0.32650412263E+02  0.26503818049E+02  0.11849631643E+03  0.47000000000E+01 0.  1.
         -5    1    3    3    0  501 -0.26025352575E+02 -0.56952797361E+02  0.61966449733E+02  0.88220581479E+02  0.47000000000E+01 0.  1.
          5    1    4    4  502    0  0.90620325411E+02  0.73539152532E+02 -0.11345183514E+03  0.16282954041E+03  0.47000000000E+01 0.  1.
         -5    1    4    4    0  502  0.46088292459E+02 -0.49236767434E+02 -0.37127711339E+02  0.77129416686E+02  0.47000000000E+01 0.  1.
<mgrwt>
<rscale>  0 0.44233670E+03</rscale>
<asrwt>0</asrwt>
<pdfrwt beam="1">  1       21 0.29582044E-01 0.44233670E+03</pdfrwt>
<pdfrwt beam="2">  1       21 0.39137318E-01 0.44233670E+03</pdfrwt>
<totfact> 0.63891819E+04</totfact>
</mgrwt>
</event>
<event>
 8    1  0.9691636E-006  0.4037332E+03  0.7546771E-02  0.1042495E+00
         21   -1    0    0  504  503  0.00000000000E+00  0.00000000000E+00  0.48748305957E+02  0.48748305957E+02  0.00000000000E+00 0.  1.
         21   -1    0    0  503  504 -0.00000000000E+00 -0.00000000000E+00 -0.83592913147E+03  0.83592913147E+03  0.00000000000E+00 0.  1.
         25    2    1    2    0    0 -0.85889909559E+02 -0.13279966013E+03 -0.41677938715E+03  0.46297139700E+03  0.12499852235E+03 0.  0.
         25    2    1    2    0    0  0.85889909559E+02  0.13279966013E+03 -0.37040143836E+03  0.42170604043E+03  0.12500373074E+03 0.  0.
          5    1    3    3  501    0  0.25205958002E+02  0.30082947513E+01 -0.46127855675E+02  0.52860753166E+02  0.47000000000E+01 0.  1.
         -5    1    3    3    0  501 -0.11109586756E+03 -0.13580795489E+03 -0.37065153148E+03  0.41011064383E+03  0.47000000000E+01 0.  1.
          5    1    4    4  502    0  0.28676987488E+02  0.16666009886E+02 -0.22285364364E+03  0.22535740942E+03  0.47000000000E+01 0.  1.
         -5    1    4    4    0  502  0.57212922072E+02  0.11613365025E+03 -0.14754779472E+03  0.19634863101E+03  0.47000000000E+01 0.  1.
<mgrwt>
<rscale>  0 0.40373322E+03</rscale>
<asrwt>0</asrwt>
<pdfrwt beam="1">  1       21 0.74997404E-02 0.40373322E+03</pdfrwt>
<pdfrwt beam="2">  1       21 0.12860446E+00 0.40373322E+03</pdfrwt>
<totfact> 0.55135466E+04</totfact>
</mgrwt>
</event>
<event>
 8    1  0.9691636E-006  0.2922481E+03  0.7546771E-02  0.1089181E+00
         21   -1    0    0  504  503  0.00000000000E+00  0.00000000000E+00  0.85443239705E+02  0.85443239705E+02  0.00000000000E+00 0.  1.
         21   -1    0    0  503  504 -0.00000000000E+00 -0.00000000000E+00 -0.24989960505E+03  0.24989960505E+03  0.00000000000E+00 0.  1.
         25    2    1    2    0    0 -0.44981490689E+02 -0.52354316223E+02 -0.11783142501E+03  0.18513136220E+03  0.12500027048E+03 0.  0.
         25    2    1    2    0    0  0.44981490689E+02  0.52354316223E+02 -0.46624940337E+02  0.15021148255E+03  0.12500118198E+03 0.  0.
          5    1    3    3  501    0 -0.39313070301E+02  0.32185540397E+02 -0.18000132600E+02  0.54106573360E+02  0.47000000000E+01 0. -1.
         -5    1    3    3    0  501 -0.56684203875E+01 -0.84539856621E+02 -0.99831292406E+02  0.13102478884E+03  0.47000000000E+01 0. -1.
          5    1    4    4  502    0 -0.17065807653E+02  0.87590135461E+01 -0.68385015323E+02  0.71179789476E+02  0.47000000000E+01 0. -1.
         -5    1    4    4    0  502  0.62047298342E+02  0.43595302677E+02  0.21760074986E+02  0.79031693076E+02  0.47000000000E+01 0. -1.
<mgrwt>
<rscale>  0 0.29224806E+03</rscale>
<asrwt>0</asrwt>
<pdfrwt beam="1">  1       21 0.13145114E-01 0.29224806E+03</pdfrwt>
<pdfrwt beam="2">  1       21 0.38446093E-01 0.29224806E+03</pdfrwt>
<totfact> 0.31772206E+05</totfact>
</mgrwt>
</event>
<event>
 8    1  0.9691636E-006  0.2779353E+03  0.7546771E-02  0.1096822E+00
         21   -1    0    0  504  503  0.00000000000E+00  0.00000000000E+00  0.25613120824E+04  0.25613120824E+04  0.00000000000E+00 0. -1.
         21   -1    0    0  503  504 -0.00000000000E+00 -0.00000000000E+00 -0.75398907029E+01  0.75398907029E+01  0.00000000000E+00 0. -1.
         25    2    1    2    0    0 -0.30953739633E+02  0.37653022308E+02  0.16116056287E+04  0.16171806606E+04  0.12499880979E+03 0.  0.
         25    2    1    2    0    0  0.30953739633E+02 -0.37653022308E+02  0.94216656298E+03  0.95167131249E+03  0.12499828215E+03 0.  0.
          5    1    3    3  501    0 -0.38186213272E+02  0.30446300558E+02  0.21489679170E+03  0.22042659818E+03  0.47000000000E+01 0.  1.
         -5    1    3    3    0  501  0.72324736392E+01  0.72067217499E+01  0.13967088370E+04  0.13967540624E+04  0.47000000000E+01 0.  1.
          5    1    4    4  502    0  0.33288132385E+02  0.31795111040E+02  0.16425408342E+03  0.17064736377E+03  0.47000000000E+01 0. -1.
         -5    1    4    4    0  502 -0.23343927523E+01 -0.69448133349E+02  0.77791247956E+03  0.78102394872E+03  0.47000000000E+01 0. -1.
<mgrwt>
<rscale>  0 0.27793534E+03</rscale>
<asrwt>0</asrwt>
<pdfrwt beam="1">  1       21 0.39404732E+00 0.27793534E+03</pdfrwt>
<pdfrwt beam="2">  1       21 0.11599852E-02 0.27793534E+03</pdfrwt>
<totfact> 0.25855282E+04</totfact>
</mgrwt>
</event>
<event>
 8    1  0.9691636E-006  0.3154978E+03  0.7546771E-02  0.1077740E+00
         21   -1    0    0  504  503  0.00000000000E+00  0.00000000000E+00  0.14364721149E+02  0.14364721149E+02  0.00000000000E+00 0.  1.
         21   -1    0    0  503  504 -0.00000000000E+00 -0.00000000000E+00 -0.17323488309E+04  0.17323488309E+04  0.00000000000E+00 0.  1.
         25    2    1    2    0    0  0.43470228847E+02 -0.85990411932E+01 -0.38604357645E+03  0.40818698696E+03  0.12499347626E+03 0.  0.
         25    2    1    2    0    0 -0.43470228847E+02  0.85990411932E+01 -0.13319405333E+04  0.13385265651E+04  0.12499670744E+03 0.  0.
          5    1    3    3  501    0  0.69935014850E+02  0.10797456221E+02 -0.35743186803E+03  0.36439967295E+03  0.47000000000E+01 0.  1.
         -5    1    3    3    0  501 -0.26464786003E+02 -0.19396497414E+02 -0.28611708414E+02  0.43787314013E+02  0.47000000000E+01 0.  1.
          5    1    4    4  502    0 -0.37414416702E+02  0.45724230572E+02 -0.29507312073E+03  0.30096641077E+03  0.47000000000E+01 0.  1.
         -5    1    4    4    0  502 -0.60558121449E+01 -0.37125189379E+02 -0.10368674126E+04  0.10375601543E+04  0.47000000000E+01 0.  1.
<mgrwt>
<rscale>  0 0.31549775E+03</rscale>
<asrwt>0</asrwt>
<pdfrwt beam="1">  1       21 0.22099573E-02 0.31549775E+03</pdfrwt>
<pdfrwt beam="2">  1       21 0.26651518E+00 0.31549775E+03</pdfrwt>
<totfact> 0.51508960E+04</totfact>
</mgrwt>
</event>
<event>
 8    1  0.9691636E-006  0.3118928E+03  0.7546771E-02  0.1079442E+00
         21   -1    0    0  504  503  0.00000000000E+00  0.00000000000E+00  0.19244890753E+03  0.19244890753E+03  0.00000000000E+00 0.  1.
         21   -1    0    0  503  504 -0.00000000000E+00 -0.00000000000E+00 -0.12636748337E+03  0.12636748337E+03  0.00000000000E+00 0.  1.
         25    2    1    2    0    0 -0.70026532923E+02  0.61552603028E+02  0.33992553316E+02  0.15955489108E+03  0.12493931060E+03 0.  0.
         25    2    1    2    0    0  0.70026532923E+02 -0.61552603028E+02  0.32088870836E+02  0.15926149982E+03  0.12506834708E+03 0.  0.
          5    1    3    3  501    0  0.10559504186E+02  0.44194610792E+02  0.57753594003E+02  0.73635822614E+02  0.47000000000E+01 0. -1.
         -5    1    3    3    0  501 -0.80586037109E+02  0.17357992236E+02 -0.23761040687E+02  0.85919068465E+02  0.47000000000E+01 0. -1.
          5    1    4    4  502    0  0.36283878604E+02 -0.81469926299E+02  0.62865858305E+02  0.10921572633E+03  0.47000000000E+01 0.  1.
         -5    1    4    4    0  502  0.33742654319E+02  0.19917323271E+02 -0.30776987469E+02  0.50045773492E+02  0.47000000000E+01 0.  1.
<mgrwt>
<rscale>  0 0.31189283E+03</rscale>
<asrwt>0</asrwt>
<pdfrwt beam="1">  1       21 0.29607524E-01 0.31189283E+03</pdfrwt>
<pdfrwt beam="2">  1       21 0.19441151E-01 0.31189283E+03</pdfrwt>
<totfact> 0.25858591E+05</totfact>
</mgrwt>
</event>
<event>
 8    1  0.9691636E-006  0.3154547E+03  0.7546771E-02  0.1077760E+00
         21   -1    0    0  504  503  0.00000000000E+00  0.00000000000E+00  0.48519450748E+03  0.48519450748E+03  0.00000000000E+00 0. -1.
         21   -1    0    0  503  504 -0.00000000000E+00 -0.00000000000E+00 -0.51274102692E+02  0.51274102692E+02  0.00000000000E+00 0. -1.
         25    2    1    2    0    0  0.38579281222E+02 -0.70137422121E+02  0.30767911770E+03  0.34161149631E+03  0.12499742405E+03 0.  0.
         25    2    1    2    0    0 -0.38579281222E+02  0.70137422121E+02  0.12624128709E+03  0.19485711387E+03  0.12499925335E+03 0.  0.
          5    1    3    3  501    0  0.94777636751E+01 -0.70162572450E+02  0.62169641092E+02  0.94338586223E+02  0.47000000000E+01 0. -1.
         -5    1    3    3    0  501  0.29101517547E+02  0.25150328867E-01  0.24550947661E+03  0.24727291008E+03  0.47000000000E+01 0. -1.
          5    1    4    4  502    0  0.18854247310E+02  0.83313953898E+02  0.95548873333E+02  0.12825121735E+03  0.47000000000E+01 0.  1.
         -5    1    4    4    0  502 -0.57433528532E+02 -0.13176531776E+02  0.30692413755E+02  0.66605896521E+02  0.47000000000E+01 0.  1.
<mgrwt>
<rscale>  0 0.31545468E+03</rscale>
<asrwt>0</asrwt>
<pdfrwt beam="1">  1       21 0.74645306E-01 0.31545468E+03</pdfrwt>
<pdfrwt beam="2">  1       21 0.78883238E-02 0.31545468E+03</pdfrwt>
<totfact> 0.19092112E+05</totfact>
</mgrwt>
</event>
<event>
 8    1  0.9691636E-006  0.2629422E+03  0.7546771E-02  0.1105388E+00
         21   -1    0    0  504  503  0.00000000000E+00  0.00000000000E+00  0.22301123736E+03  0.22301123736E+03  0.00000000000E+00 0.  1.
         21   -1    0    0  503  504 -0.00000000000E+00 -0.00000000000E+00 -0.77505733377E+02  0.77505733377E+02  0.00000000000E+00 0.  1.
         25    2    1    2    0    0 -0.23176256426E+02  0.30729070392E+02  0.57364855171E+02  0.14281558584E+03  0.12499660124E+03 0.  0.
         25    2    1    2    0    0  0.23176256426E+02 -0.30729070392E+02  0.88140648815E+02  0.15770138490E+03  0.12497815087E+03 0.  0.
          5    1    3    3  501    0 -0.31484412632E+01  0.56221526048E+02 -0.19086414381E+02  0.59641880315E+02  0.47000000000E+01 0. -1.
         -5    1    3    3    0  501 -0.20027815163E+02 -0.25492455656E+02  0.76451269552E+02  0.83173705530E+02  0.47000000000E+01 0. -1.
          5    1    4    4  502    0 -0.96927421426E+01 -0.21537643157E+02 -0.27782796446E+02  0.36766739063E+02  0.47000000000E+01 0.  1.
         -5    1    4    4    0  502  0.32868998569E+02 -0.91914272352E+01  0.11592344526E+03  0.12093464583E+03  0.47000000000E+01 0.  1.
<mgrwt>
<rscale>  0 0.26294220E+03</rscale>
<asrwt>0</asrwt>
<pdfrwt beam="1">  1       21 0.34309421E-01 0.26294220E+03</pdfrwt>
<pdfrwt beam="2">  1       21 0.11923959E-01 0.26294220E+03</pdfrwt>
<totfact> 0.47917127E+05</totfact>
</mgrwt>
</event>
<event>
 8    1  0.9691636E-006  0.2691915E+03  0.7546771E-02  0.1101743E+00
         21   -1    0    0  504  503  0.00000000000E+00  0.00000000000E+00  0.29838448686E+02  0.29838448686E+02  0.00000000000E+00 0.  1.
         21   -1    0    0  503  504 -0.00000000000E+00 -0.00000000000E+00 -0.60713653281E+03  0.60713653281E+03  0.00000000000E+00 0.  1.
         25    2    1    2    0    0  0.17751540783E+02  0.73927200036E+01 -0.39766849277E+03  0.41729500601E+03  0.12500048958E+03 0.  0.
         25    2    1    2    0    0 -0.17751540783E+02 -0.73927200036E+01 -0.17962959136E+03  0.21967997548E+03  0.12499092778E+03 0.  0.
          5    1    3    3  501    0 -0.12401904289E+02  0.45427734924E+02 -0.61461423585E+02  0.77569858318E+02  0.47000000000E+01 0. -1.
         -5    1    3    3    0  501  0.30153445072E+02 -0.38035014920E+02 -0.33620706918E+03  0.33972514770E+03  0.47000000000E+01 0. -1.
          5    1    4    4  502    0 -0.27779041475E+02  0.48851276157E+02 -0.13727282803E+03  0.14840499198E+03  0.47000000000E+01 0.  1.
         -5    1    4    4    0  502  0.10027500692E+02 -0.56243996161E+02 -0.42356763325E+02  0.71274983505E+02  0.47000000000E+01 0.  1.
<mgrwt>
<rscale>  0 0.26919147E+03</rscale>
<asrwt>0</asrwt>
<pdfrwt beam="1">  1       21 0.45905307E-02 0.26919147E+03</pdfrwt>
<pdfrwt beam="2">  1       21 0.93405617E-01 0.26919147E+03</pdfrwt>
<totfact> 0.29331528E+05</totfact>
</mgrwt>
</event>
<event>
 8    1  0.9691636E-006  0.2939641E+03  0.7546771E-02  0.1088297E+00
         21   -1    0    0  504  503  0.00000000000E+00  0.00000000000E+00  0.45206889940E+03  0.45206889940E+03  0.00000000000E+00 0. -1.
         21   -1    0    0  503  504 -0.00000000000E+00 -0.00000000000E+00 -0.47788548709E+02  0.47788548709E+02  0.00000000000E+00 0. -1.
         25    2    1    2    0    0  0.26989837764E+02 -0.68896881952E+02  0.16398575056E+03  0.21906647610E+03  0.12499425137E+03 0.  0.
         25    2    1    2    0    0 -0.26989837764E+02  0.68896881952E+02  0.24029460012E+03  0.28079097201E+03  0.12500737350E+03 0.  0.
          5    1    3    3  501    0 -0.23918403709E+02 -0.33930793972E+02  0.14981001085E+03  0.15552658347E+03  0.47000000000E+01 0.  1.
         -5    1    3    3    0  501  0.50908241473E+02 -0.34966087980E+02  0.14175739718E+02  0.63539892627E+02  0.47000000000E+01 0.  1.
          5    1    4    4  502    0  0.11808605722E+02 -0.22790765086E+02  0.12804791049E+03  0.13067983595E+03  0.47000000000E+01 0. -1.
         -5    1    4    4    0  502 -0.38798443486E+02  0.91687647038E+02  0.11224668963E+03  0.15011113606E+03  0.47000000000E+01 0. -1.
<mgrwt>
<rscale>  0 0.29396406E+03</rscale>
<asrwt>0</asrwt>
<pdfrwt beam="1">  1       21 0.69549059E-01 0.29396406E+03</pdfrwt>
<pdfrwt beam="2">  1       21 0.73520847E-02 0.29396406E+03</pdfrwt>
<totfact> 0.25434192E+05</totfact>
</mgrwt>
</event>
<event>
 8    1  0.9691636E-006  0.3688673E+03  0.7546771E-02  0.1055127E+00
         21   -1    0    0  504  503  0.00000000000E+00  0.00000000000E+00  0.58263149796E+02  0.58263149796E+02  0.00000000000E+00 0. -1.
         21   -1    0    0  503  504 -0.00000000000E+00 -0.00000000000E+00 -0.58383003360E+03  0.58383003360E+03  0.00000000000E+00 0. -1.
         25    2    1    2    0    0  0.84574505639E+02  0.10224674021E+03 -0.21403282279E+03  0.28114213061E+03  0.12499442180E+03 0.  0.
         25    2    1    2    0    0 -0.84574505639E+02 -0.10224674021E+03 -0.31153406101E+03  0.36095105279E+03  0.12499979380E+03 0.  0.
          5    1    3    3  501    0  0.88376853322E+02  0.59990245186E+02 -0.21313150889E+03  0.23844585927E+03  0.47000000000E+01 0. -1.
         -5    1    3    3    0  501 -0.38023476829E+01  0.42256495028E+02 -0.90131390819E+00  0.42696271345E+02  0.47000000000E+01 0. -1.
          5    1    4    4  502    0 -0.50302663794E+02  0.10837674587E+02 -0.41901686217E+02  0.66525592692E+02  0.47000000000E+01 0. -1.
         -5    1    4    4    0  502 -0.34271841845E+02 -0.11308441480E+03 -0.26963237480E+03  0.29442546010E+03  0.47000000000E+01 0. -1.
<mgrwt>
<rscale>  0 0.36886733E+03</rscale>
<asrwt>0</asrwt>
<pdfrwt beam="1">  1       21 0.89635616E-02 0.36886733E+03</pdfrwt>
<pdfrwt beam="2">  1       21 0.89820005E-01 0.36886733E+03</pdfrwt>
<totfact> 0.98173220E+04</totfact>
</mgrwt>
</event>
<event>
 8    1  0.9691636E-006  0.3005094E+03  0.7546771E-02  0.1084986E+00
         21   -1    0    0  504  503  0.00000000000E+00  0.00000000000E+00  0.15879950528E+03  0.15879950528E+03  0.00000000000E+00 0.  1.
         21   -1    0    0  503  504 -0.00000000000E+00 -0.00000000000E+00 -0.14216966298E+03  0.14216966298E+03  0.00000000000E+00 0.  1.
         25    2    1    2    0    0  0.64668456494E+02 -0.48802804811E+02  0.28027868347E+02  0.15157319263E+03  0.12500059319E+03 0.  0.
         25    2    1    2    0    0 -0.64668456494E+02  0.48802804811E+02 -0.11398026050E+02  0.14939597563E+03  0.12500207804E+03 0.  0.
          5    1    3    3  501    0 -0.28917440013E+02  0.17091449779E+02  0.12986621486E+01  0.33942782972E+02  0.47000000000E+01 0. -1.
         -5    1    3    3    0  501  0.93585896508E+02 -0.65894254590E+02  0.26729206199E+02  0.11763040966E+03  0.47000000000E+01 0. -1.
          5    1    4    4  502    0  0.31065972455E+02  0.18782715953E+02 -0.29900156829E+02  0.47265150391E+02  0.47000000000E+01 0. -1.
         -5    1    4    4    0  502 -0.95734428949E+02  0.30020088857E+02  0.18502130778E+02  0.10213082524E+03  0.47000000000E+01 0. -1.
<mgrwt>
<rscale>  0 0.30050938E+03</rscale>
<asrwt>0</asrwt>
<pdfrwt beam="1">  1       21 0.24430693E-01 0.30050938E+03</pdfrwt>
<pdfrwt beam="2">  1       21 0.21872256E-01 0.30050938E+03</pdfrwt>
<totfact> 0.30135222E+05</totfact>
</mgrwt>
</event>
<event>
 8    1  0.9691636E-006  0.4095831E+03  0.7546771E-02  0.1040511E+00
         21   -1    0    0  504  503  0.00000000000E+00  0.00000000000E+00  0.42529104379E+02  0.42529104379E+02  0.00000000000E+00 0.  1.
         21   -1    0    0  503  504 -0.00000000000E+00 -0.00000000000E+00 -0.98613810997E+03  0.98613810997E+03  0.00000000000E+00 0.  1.
         25    2    1    2    0    0 -0.14381830132E+03  0.70791950663E+02 -0.53436215817E+03  0.57171683202E+03  0.12498806289E+03 0.  0.
         25    2    1    2    0    0  0.14381830132E+03 -0.70791950663E+02 -0.40924684742E+03  0.45695038232E+03  0.12500186281E+03 0.  0.
          5    1    3    3  501    0 -0.15410758482E+03  0.44118198225E+02 -0.34871771765E+03  0.38382509001E+03  0.47000000000E+01 0. -1.
         -5    1    3    3    0  501  0.10289283500E+02  0.26673752437E+02 -0.18564444051E+03  0.18789174201E+03  0.47000000000E+01 0. -1.
          5    1    4    4  502    0  0.28135926932E+02 -0.82130266316E+02 -0.17482180637E+03  0.19524795777E+03  0.47000000000E+01 0. -1.
         -5    1    4    4    0  502  0.11568237439E+03  0.11338315653E+02 -0.23442504105E+03  0.26170242456E+03  0.47000000000E+01 0. -1.
<mgrwt>
<rscale>  0 0.40958306E+03</rscale>
<asrwt>0</asrwt>
<pdfrwt beam="1">  1       21 0.65429390E-02 0.40958306E+03</pdfrwt>
<pdfrwt beam="2">  1       21 0.15171356E+00 0.40958306E+03</pdfrwt>
<totfact> 0.45165998E+04</totfact>
</mgrwt>
</event>
<event>
 8    1  0.9691636E-006  0.2913516E+03  0.7546771E-02  0.1089646E+00
         21   -1    0    0  504  503  0.00000000000E+00  0.00000000000E+00  0.12150018550E+03  0.12150018550E+03  0.00000000000E+00 0.  1.
         21   -1    0    0  503  504 -0.00000000000E+00 -0.00000000000E+00 -0.17466179620E+03  0.17466179620E+03  0.00000000000E+00 0.  1.
         25    2    1    2    0    0  0.38630005045E+02 -0.13899242447E+02 -0.90200236196E+02  0.15951573161E+03  0.12499487906E+03 0.  0.
         25    2    1    2    0    0 -0.38630005045E+02  0.13899242447E+02  0.37038625493E+02  0.13664625010E+03  0.12495948006E+03 0.  0.
          5    1    3    3  501    0  0.56105616041E+02 -0.53707137828E+02 -0.26396589800E+02  0.82165483983E+02  0.47000000000E+01 0. -1.
         -5    1    3    3    0  501 -0.17475610997E+02  0.39807895381E+02 -0.63803646396E+02  0.77350247626E+02  0.47000000000E+01 0. -1.
          5    1    4    4  502    0  0.35453284567E+02 -0.32070734492E+01  0.47723234849E+02  0.59722841955E+02  0.47000000000E+01 0. -1.
         -5    1    4    4    0  502 -0.74083289611E+02  0.17106315897E+02 -0.10684609356E+02  0.76923408143E+02  0.47000000000E+01 0. -1.
<mgrwt>
<rscale>  0 0.29135161E+03</rscale>
<asrwt>0</asrwt>
<pdfrwt beam="1">  1       21 0.18692336E-01 0.29135161E+03</pdfrwt>
<pdfrwt beam="2">  1       21 0.26871045E-01 0.29135161E+03</pdfrwt>
<totfact> 0.33786924E+05</totfact>
</mgrwt>
</event>
<event>
 8    1  0.9691636E-006  0.5708862E+03  0.7546771E-02  0.9967719E-01
         21   -1    0    0  504  503  0.00000000000E+00  0.00000000000E+00  0.27030688977E+03  0.27030688977E+03  0.00000000000E+00 0. -1.
         21   -1    0    0  503  504 -0.00000000000E+00 -0.00000000000E+00 -0.30142692331E+03  0.30142692331E+03  0.00000000000E+00 0. -1.
         25    2    1    2    0    0  0.11437663147E+03  0.20358900063E+03 -0.12212592752E+03  0.29166730387E+03  0.12499831587E+03 0.  0.
         25    2    1    2    0    0 -0.11437663147E+03 -0.20358900063E+03  0.91005893970E+02  0.28006650921E+03  0.12499872734E+03 0.  0.
          5    1    3    3  501    0  0.15838960568E+02  0.12207884706E+03 -0.10632035581E+03  0.16272745813E+03  0.47000000000E+01 0.  1.
         -5    1    3    3    0  501  0.98537670900E+02  0.81510153577E+02 -0.15805571709E+02  0.12893984574E+03  0.47000000000E+01 0.  1.
          5    1    4    4  502    0 -0.60105797475E+02 -0.19956719287E+03  0.58598231967E+02  0.21655395205E+03  0.47000000000E+01 0.  1.
         -5    1    4    4    0  502 -0.54270833993E+02 -0.40218077653E+01  0.32407662004E+02  0.63512557157E+02  0.47000000000E+01 0.  1.
<mgrwt>
<rscale>  0 0.57088624E+03</rscale>
<asrwt>0</asrwt>
<pdfrwt beam="1">  1       21 0.41585675E-01 0.57088624E+03</pdfrwt>
<pdfrwt beam="2">  1       21 0.46373373E-01 0.57088624E+03</pdfrwt>
<totfact> 0.21889139E+04</totfact>
</mgrwt>
</event>
<event>
 8    1  0.9691636E-006  0.3189864E+03  0.7546771E-02  0.1076117E+00
         21   -1    0    0  504  503  0.00000000000E+00  0.00000000000E+00  0.25656604811E+02  0.25656604811E+02  0.00000000000E+00 0. -1.
         21   -1    0    0  503  504 -0.00000000000E+00 -0.00000000000E+00 -0.99148253732E+03  0.99148253732E+03  0.00000000000E+00 0. -1.
         25    2    1    2    0    0  0.45181704031E+02  0.84025738912E+02 -0.39791599897E+03  0.42786368444E+03  0.12501391542E+03 0.  0.
         25    2    1    2    0    0 -0.45181704031E+02 -0.84025738912E+02 -0.56790993354E+03  0.58927545769E+03  0.12498864446E+03 0.  0.
          5    1    3    3  501    0 -0.17367105752E+01  0.89558357566E+02 -0.34632246205E+03  0.35774998713E+03  0.47000000000E+01 0.  1.
         -5    1    3    3    0  501  0.46918414607E+02 -0.55326186539E+01 -0.51593536920E+02  0.70113697308E+02  0.47000000000E+01 0.  1.
          5    1    4    4  502    0 -0.45715448240E+02 -0.62381671488E+02 -0.13391104514E+03  0.15471145127E+03  0.47000000000E+01 0. -1.
         -5    1    4    4    0  502  0.53374420903E+00 -0.21644067424E+02 -0.43399888840E+03  0.43456400641E+03  0.47000000000E+01 0. -1.
<mgrwt>
<rscale>  0 0.31898637E+03</rscale>
<asrwt>0</asrwt>
<pdfrwt beam="1">  1       21 0.39471703E-02 0.31898637E+03</pdfrwt>
<pdfrwt beam="2">  1       21 0.15253576E+00 0.31898637E+03</pdfrwt>
<totfact> 0.10905944E+05</totfact>
</mgrwt>
</event>
<event>
 8    1  0.9691636E-006  0.3190918E+03  0.7546771E-02  0.1076068E+00
         21   -1    0    0  504  503  0.00000000000E+00  0.00000000000E+00  0.19543263431E+03  0.19543263431E+03  0.00000000000E+00 0. -1.
         21   -1    0    0  503  504 -0.00000000000E+00 -0.00000000000E+00 -0.13024894171E+03  0.13024894171E+03  0.00000000000E+00 0. -1.
         25    2    1    2    0    0 -0.60052656673E+02 -0.17487380755E+02  0.11110852643E+03  0.17855702786E+03  0.12500150996E+03 0.  0.
         25    2    1    2    0    0  0.60052656673E+02  0.17487380755E+02 -0.45924833831E+02  0.14712454816E+03  0.12499764898E+03 0.  0.
          5    1    3    3  501    0 -0.14941970371E+02  0.51222414720E+02  0.23987661644E+02  0.58689830120E+02  0.47000000000E+01 0. -1.
         -5    1    3    3    0  501 -0.45110686302E+02 -0.68709795475E+02  0.87120864787E+02  0.11986719774E+03  0.47000000000E+01 0. -1.
          5    1    4    4  502    0 -0.53993225980E+01  0.35695940697E+02  0.28507331547E+02  0.46239710409E+02  0.47000000000E+01 0. -1.
         -5    1    4    4    0  502  0.65451979271E+02 -0.18208559942E+02 -0.74432165378E+02  0.10088483775E+03  0.47000000000E+01 0. -1.
<mgrwt>
<rscale>  0 0.31909180E+03</rscale>
<asrwt>0</asrwt>
<pdfrwt beam="1">  1       21 0.30066559E-01 0.31909180E+03</pdfrwt>
<pdfrwt beam="2">  1       21 0.20038299E-01 0.31909180E+03</pdfrwt>
<totfact> 0.23660920E+05</totfact>
</mgrwt>
</event>
<event>
 8    1  0.9691636E-006  0.2643841E+03  0.7546771E-02  0.1104537E+00
         21   -1    0    0  504  503  0.00000000000E+00  0.00000000000E+00  0.41632828250E+03  0.41632828250E+03  0.00000000000E+00 0. -1.
         21   -1    0    0  503  504 -0.00000000000E+00 -0.00000000000E+00 -0.41973458291E+02  0.41973458291E+02  0.00000000000E+00 0. -1.
         25    2    1    2    0    0 -0.55856769635E+01 -0.24409617841E+02  0.24777135888E+03  0.27864970394E+03  0.12501192740E+03 0.  0.
         25    2    1    2    0    0  0.55856769635E+01  0.24409617841E+02  0.12658346532E+03  0.17965203684E+03  0.12499780566E+03 0.  0.
          5    1    3    3  501    0  0.37034828826E+02  0.36568184352E+02  0.88068654799E+02  0.10240599890E+03  0.47000000000E+01 0. -1.
         -5    1    3    3    0  501 -0.42620505790E+02 -0.60977802194E+02  0.15970270409E+03  0.17624370504E+03  0.47000000000E+01 0. -1.
          5    1    4    4  502    0  0.57402608027E+02 -0.13702205515E+02  0.82446909021E+02  0.10150070271E+03  0.47000000000E+01 0.  1.
         -5    1    4    4    0  502 -0.51816931064E+02  0.38111823357E+02  0.44136556299E+02  0.78151334130E+02  0.47000000000E+01 0.  1.
<mgrwt>
<rscale>  0 0.26438410E+03</rscale>
<asrwt>0</asrwt>
<pdfrwt beam="1">  1       21 0.64050502E-01 0.26438410E+03</pdfrwt>
<pdfrwt beam="2">  1       21 0.64574554E-02 0.26438410E+03</pdfrwt>
<totfact> 0.38471394E+05</totfact>
</mgrwt>
</event>
<event>
 8    1  0.9691636E-006  0.2585541E+03  0.7546771E-02  0.1108015E+00
         21   -1    0    0  504  503  0.00000000000E+00  0.00000000000E+00  0.50065901738E+03  0.50065901738E+03  0.00000000000E+00 0. -1.
         21   -1    0    0  503  504 -0.00000000000E+00 -0.00000000000E+00 -0.33381114514E+02  0.33381114514E+02  0.00000000000E+00 0. -1.
         25    2    1    2    0    0 -0.16835760221E+02 -0.27003665211E+02  0.21576630017E+03  0.25138081397E+03  0.12499830634E+03 0.  0.
         25    2    1    2    0    0  0.16835760221E+02  0.27003665211E+02  0.25151160269E+03  0.28265931792E+03  0.12500225182E+03 0.  0.
          5    1    3    3  501    0 -0.39157696994E+02  0.21319404733E+02  0.21166879197E+02  0.49577908659E+02  0.47000000000E+01 0.  1.
         -5    1    3    3    0  501  0.22321936773E+02 -0.48323069944E+02  0.19459942098E+03  0.20180290532E+03  0.47000000000E+01 0.  1.
          5    1    4    4  502    0 -0.52514601592E+02  0.71774888350E+01  0.13999191200E+03  0.14976356417E+03  0.47000000000E+01 0.  1.
         -5    1    4    4    0  502  0.69350361813E+02  0.19826176376E+02  0.11151969069E+03  0.13289575375E+03  0.47000000000E+01 0.  1.
<mgrwt>
<rscale>  0 0.25855410E+03</rscale>
<asrwt>0</asrwt>
<pdfrwt beam="1">  1       21 0.77024459E-01 0.25855410E+03</pdfrwt>
<pdfrwt beam="2">  1       21 0.51355564E-02 0.25855410E+03</pdfrwt>
<totfact> 0.37891912E+05</totfact>
</mgrwt>
</event>
<event>
 8    1  0.9691636E-006  0.6904483E+03  0.7546771E-02  0.9733708E-01
         21   -1    0    0  504  503  0.00000000000E+00  0.00000000000E+00  0.28513233254E+03  0.28513233254E+03  0.00000000000E+00 0.  1.
         21   -1    0    0  503  504 -0.00000000000E+00 -0.00000000000E+00 -0.41798032437E+03  0.41798032437E+03  0.00000000000E+00 0.  1.
         25    2    1    2    0    0 -0.21066393853E+03 -0.23609705180E+03 -0.12609295563E+03  0.36282987896E+03  0.12499989897E+03 0.  0.
         25    2    1    2    0    0  0.21066393853E+03  0.23609705180E+03 -0.67550362055E+01  0.34028277795E+03  0.12500250234E+03 0.  0.
          5    1    3    3  501    0 -0.97425042838E+02 -0.48440587741E+02  0.20030614344E+01  0.10892305435E+03  0.47000000000E+01 0.  1.
         -5    1    3    3    0  501 -0.11323889569E+03 -0.18765646406E+03 -0.12809601706E+03  0.25390682462E+03  0.47000000000E+01 0.  1.
          5    1    4    4  502    0  0.18510746438E+03  0.21259020191E+03  0.36872992369E+02  0.28432564936E+03  0.47000000000E+01 0. -1.
         -5    1    4    4    0  502  0.25556474149E+02  0.23506849883E+02 -0.43628028574E+02  0.55957128586E+02  0.47000000000E+01 0. -1.
<mgrwt>
<rscale>  0 0.69044827E+03</rscale>
<asrwt>0</asrwt>
<pdfrwt beam="1">  1       21 0.43866513E-01 0.69044827E+03</pdfrwt>
<pdfrwt beam="2">  1       21 0.64304665E-01 0.69044827E+03</pdfrwt>
<totfact> 0.93968971E+03</totfact>
</mgrwt>
</event>
<event>
 8    1  0.9691636E-006  0.3005739E+03  0.7546771E-02  0.1084954E+00
         21   -1    0    0  504  503  0.00000000000E+00  0.00000000000E+00  0.14953057733E+03  0.14953057733E+03  0.00000000000E+00 0. -1.
         21   -1    0    0  503  504 -0.00000000000E+00 -0.00000000000E+00 -0.15104718308E+03  0.15104718308E+03  0.00000000000E+00 0. -1.
         25    2    1    2    0    0 -0.77507025003E+02 -0.23066967400E+02  0.19783430305E+02  0.15018823161E+03  0.12500278753E+03 0.  0.
         25    2    1    2    0    0  0.77507025003E+02  0.23066967400E+02 -0.21300036060E+02  0.15038952880E+03  0.12499557963E+03 0.  0.
          5    1    3    3  501    0 -0.10715888268E+03 -0.36067277525E+02  0.27750253133E+02  0.11651627008E+03  0.47000000000E+01 0. -1.
         -5    1    3    3    0  501  0.29651857678E+02  0.13000310125E+02 -0.79668228276E+01  0.33671961527E+02  0.47000000000E+01 0. -1.
          5    1    4    4  502    0  0.33413688012E+02 -0.39624813736E+02  0.28037247878E+02  0.59116644685E+02  0.47000000000E+01 0.  1.
         -5    1    4    4    0  502  0.44093336990E+02  0.62691781136E+02 -0.49337283938E+02  0.91272884119E+02  0.47000000000E+01 0.  1.
<mgrwt>
<rscale>  0 0.30057393E+03</rscale>
<asrwt>0</asrwt>
<pdfrwt beam="1">  1       21 0.23004704E-01 0.30057393E+03</pdfrwt>
<pdfrwt beam="2">  1       21 0.23238028E-01 0.30057393E+03</pdfrwt>
<totfact> 0.30127472E+05</totfact>
</mgrwt>
</event>
<event>
 8    1  0.9691636E-006  0.3101105E+03  0.7546771E-02  0.1080293E+00
         21   -1    0    0  504  503  0.00000000000E+00  0.00000000000E+00  0.98940419373E+03  0.98940419373E+03  0.00000000000E+00 0. -1.
         21   -1    0    0  503  504 -0.00000000000E+00 -0.00000000000E+00 -0.24299605423E+02  0.24299605423E+02  0.00000000000E+00 0. -1.
         25    2    1    2    0    0 -0.16964435810E+02  0.89962285329E+02  0.46156759642E+03  0.48686748927E+03  0.12495719739E+03 0.  0.
         25    2    1    2    0    0  0.16964435810E+02 -0.89962285329E+02  0.50353699188E+03  0.52683630988E+03  0.12500396134E+03 0.  0.
          5    1    3    3  501    0  0.33538768515E+01  0.81050510403E+02  0.45643960094E+03  0.46361582483E+03  0.47000000000E+01 0. -1.
         -5    1    3    3    0  501 -0.20318312661E+02  0.89117749265E+01  0.51279954850E+01  0.23251664445E+02  0.47000000000E+01 0. -1.
          5    1    4    4  502    0  0.67189755576E+02 -0.76665984858E+02  0.30836139070E+03  0.32480913435E+03  0.47000000000E+01 0.  1.
         -5    1    4    4    0  502 -0.50225319766E+02 -0.13296300471E+02  0.19517560119E+03  0.20202717553E+03  0.47000000000E+01 0.  1.
<mgrwt>
<rscale>  0 0.31011051E+03</rscale>
<asrwt>0</asrwt>
<pdfrwt beam="1">  1       21 0.15221600E+00 0.31011051E+03</pdfrwt>
<pdfrwt beam="2">  1       21 0.37384016E-02 0.31011051E+03</pdfrwt>
<totfact> 0.12056515E+05</totfact>
</mgrwt>
</event>
<event>
 8    1  0.9691636E-006  0.2922426E+03  0.7546771E-02  0.1089184E+00
         21   -1    0    0  504  503  0.00000000000E+00  0.00000000000E+00  0.32820296061E+03  0.32820296061E+03  0.00000000000E+00 0. -1.
         21   -1    0    0  503  504 -0.00000000000E+00 -0.00000000000E+00 -0.65055571745E+02  0.65055571745E+02  0.00000000000E+00 0. -1.
         25    2    1    2    0    0 -0.24086063338E+01 -0.12523405552E+02  0.23194731645E+03  0.26379225603E+03  0.12499663862E+03 0.  0.
         25    2    1    2    0    0  0.24086063338E+01  0.12523405552E+02  0.31200072423E+02  0.12946627633E+03  0.12500174045E+03 0.  0.
          5    1    3    3  501    0 -0.44886967338E+02 -0.36224137193E+02  0.53633264383E+02  0.78902756610E+02  0.47000000000E+01 0.  1.
         -5    1    3    3    0  501  0.42478361004E+02  0.23700731642E+02  0.17831405206E+03  0.18488949942E+03  0.47000000000E+01 0.  1.
          5    1    4    4  502    0 -0.82073990085E+01  0.16740952756E+02  0.78375964287E+02  0.80700078535E+02  0.47000000000E+01 0.  1.
         -5    1    4    4    0  502  0.10616005342E+02 -0.42175472041E+01 -0.47175891864E+02  0.48766197791E+02  0.47000000000E+01 0.  1.
<mgrwt>
<rscale>  0 0.29224258E+03</rscale>
<asrwt>0</asrwt>
<pdfrwt beam="1">  1       21 0.50492762E-01 0.29224258E+03</pdfrwt>
<pdfrwt beam="2">  1       21 0.10008550E-01 0.29224258E+03</pdfrwt>
<totfact> 0.29533251E+05</totfact>
</mgrwt>
</event>
<event>
 8    1  0.9691636E-006  0.3148543E+03  0.7546771E-02  0.1078042E+00
         21   -1    0    0  504  503  0.00000000000E+00  0.00000000000E+00  0.21320390723E+03  0.21320390723E+03  0.00000000000E+00 0.  1.
         21   -1    0    0  503  504 -0.00000000000E+00 -0.00000000000E+00 -0.11624225801E+03  0.11624225801E+03  0.00000000000E+00 0.  1.
         25    2    1    2    0    0 -0.23446465845E+02 -0.75635277832E+02  0.10466818639E+03  0.18124644256E+03  0.12499764671E+03 0.  0.
         25    2    1    2    0    0  0.23446465845E+02  0.75635277832E+02 -0.77065371749E+01  0.14819972269E+03  0.12503333586E+03 0.  0.
          5    1    3    3  501    0  0.41975259484E+02  0.53686611692E+01  0.41006342993E+02  0.59113070443E+02  0.47000000000E+01 0. -1.
         -5    1    3    3    0  501 -0.65421725329E+02 -0.81003939002E+02  0.63661843401E+02  0.12213337211E+03  0.47000000000E+01 0. -1.
          5    1    4    4  502    0 -0.48006174807E+02  0.45630490912E+02  0.13410904859E+02  0.67739773321E+02  0.47000000000E+01 0. -1.
         -5    1    4    4    0  502  0.71452640652E+02  0.30004786921E+02 -0.21117442034E+02  0.80459949368E+02  0.47000000000E+01 0. -1.
<mgrwt>
<rscale>  0 0.31485427E+03</rscale>
<asrwt>0</asrwt>
<pdfrwt beam="1">  1       21 0.32800601E-01 0.31485427E+03</pdfrwt>
<pdfrwt beam="2">  1       21 0.17883424E-01 0.31485427E+03</pdfrwt>
<totfact> 0.24678731E+05</totfact>
</mgrwt>
</event>
<event>
 8    1  0.9691636E-006  0.6463923E+03  0.7546771E-02  0.9813572E-01
         21   -1    0    0  504  503  0.00000000000E+00  0.00000000000E+00  0.46686530234E+03  0.46686530234E+03  0.00000000000E+00 0.  1.
         21   -1    0    0  503  504 -0.00000000000E+00 -0.00000000000E+00 -0.22373850049E+03  0.22373850049E+03  0.00000000000E+00 0.  1.
         25    2    1    2    0    0 -0.92008832933E+02 -0.40647960139E+02 -0.17818380888E+03  0.23977434570E+03  0.12499754041E+03 0.  0.
         25    2    1    2    0    0  0.92008832933E+02  0.40647960139E+02  0.42131061073E+03  0.45082945714E+03  0.12500674667E+03 0.  0.
          5    1    3    3  501    0 -0.68126434276E+02 -0.66856128169E+02 -0.18017513566E+03  0.20395127465E+03  0.47000000000E+01 0.  1.
         -5    1    3    3    0  501 -0.23882398656E+02  0.26208168030E+02  0.19913267848E+01  0.35823071050E+02  0.47000000000E+01 0.  1.
          5    1    4    4  502    0  0.52488990376E+01 -0.30825546707E+02  0.29712358863E+02  0.43389855267E+02  0.47000000000E+01 0.  1.
         -5    1    4    4    0  502  0.86759933895E+02  0.71473506847E+02  0.39159825186E+03  0.40743960187E+03  0.47000000000E+01 0.  1.
<mgrwt>
<rscale>  0 0.64639227E+03</rscale>
<asrwt>0</asrwt>
<pdfrwt beam="1">  1       21 0.71825431E-01 0.64639227E+03</pdfrwt>
<pdfrwt beam="2">  1       21 0.34421308E-01 0.64639227E+03</pdfrwt>
<totfact> 0.12189445E+04</totfact>
</mgrwt>
</event>
<event>
 8    1  0.9691636E-006  0.2988215E+03  0.7546771E-02  0.1085831E+00
         21   -1    0    0  504  503  0.00000000000E+00  0.00000000000E+00  0.39746754285E+02  0.39746754285E+02  0.00000000000E+00 0.  1.
         21   -1    0    0  503  504 -0.00000000000E+00 -0.00000000000E+00 -0.56164509221E+03  0.56164509221E+03  0.00000000000E+00 0.  1.
         25    2    1    2    0    0  0.30459121131E+02  0.58830172278E+02 -0.16425504932E+03  0.21678428419E+03  0.12500782941E+03 0.  0.
         25    2    1    2    0    0 -0.30459121131E+02 -0.58830172278E+02 -0.35764328860E+03  0.38460756230E+03  0.12500203147E+03 0.  0.
          5    1    3    3  501    0 -0.55165374796E+01  0.85247785298E+02 -0.63689418195E+02  0.10665856306E+03  0.47000000000E+01 0. -1.
         -5    1    3    3    0  501  0.35975658611E+02 -0.26417613020E+02 -0.10056563113E+03  0.11012572113E+03  0.47000000000E+01 0. -1.
          5    1    4    4  502    0 -0.28687867672E+01 -0.65777735592E+02 -0.34799383502E+03  0.35419872904E+03  0.47000000000E+01 0.  1.
         -5    1    4    4    0  502 -0.27590334364E+02  0.69475633141E+01 -0.96494535748E+01  0.30408833266E+02  0.47000000000E+01 0.  1.
<mgrwt>
<rscale>  0 0.29882148E+03</rscale>
<asrwt>0</asrwt>
<pdfrwt beam="1">  1       21 0.61148855E-02 0.29882148E+03</pdfrwt>
<pdfrwt beam="2">  1       21 0.86406934E-01 0.29882148E+03</pdfrwt>
<totfact> 0.21372503E+05</totfact>
</mgrwt>
</event>
<event>
 8    1  0.9691636E-006  0.3631825E+03  0.7546771E-02  0.1057331E+00
         21   -1    0    0  504  503  0.00000000000E+00  0.00000000000E+00  0.21633226440E+03  0.21633226440E+03  0.00000000000E+00 0. -1.
         21   -1    0    0  503  504 -0.00000000000E+00 -0.00000000000E+00 -0.15242933910E+03  0.15242933910E+03  0.00000000000E+00 0. -1.
         25    2    1    2    0    0 -0.45295295595E+02  0.54233592311E+02 -0.80909696560E+02  0.16482720536E+03  0.12501472830E+03 0.  0.
         25    2    1    2    0    0  0.45295295595E+02 -0.54233592311E+02  0.14481262185E+03  0.20393439814E+03  0.12500238781E+03 0.  0.
          5    1    3    3  501    0 -0.22847655332E+02 -0.27639646186E+02  0.12733328179E+02  0.38343096405E+02  0.47000000000E+01 0.  1.
         -5    1    3    3    0  501 -0.22447640263E+02  0.81873238497E+02 -0.93643024738E+02  0.12648410895E+03  0.47000000000E+01 0.  1.
          5    1    4    4  502    0 -0.27425122059E+02  0.20628135186E+01 -0.47440438254E+01  0.28301739723E+02  0.47000000000E+01 0. -1.
         -5    1    4    4    0  502  0.72720417654E+02 -0.56296405830E+02  0.14955666568E+03  0.17563265842E+03  0.47000000000E+01 0. -1.
<mgrwt>
<rscale>  0 0.36318251E+03</rscale>
<asrwt>0</asrwt>
<pdfrwt beam="1">  1       21 0.33281887E-01 0.36318251E+03</pdfrwt>
<pdfrwt beam="2">  1       21 0.23450668E-01 0.36318251E+03</pdfrwt>
<totfact> 0.14197829E+05</totfact>
</mgrwt>
</event>
<event>
 8    1  0.9691636E-006  0.3961086E+03  0.7546771E-02  0.1045136E+00
         21   -1    0    0  504  503  0.00000000000E+00  0.00000000000E+00  0.17007626545E+04  0.17007626545E+04  0.00000000000E+00 0. -1.
         21   -1    0    0  503  504 -0.00000000000E+00 -0.00000000000E+00 -0.23063475440E+02  0.23063475440E+02  0.00000000000E+00 0. -1.
         25    2    1    2    0    0  0.86514376610E+02 -0.11573882488E+03  0.10658390115E+04  0.10828287643E+04  0.12500048602E+03 0.  0.
         25    2    1    2    0    0 -0.86514376610E+02  0.11573882488E+03  0.61186016760E+03  0.64099736564E+03  0.12499818045E+03 0.  0.
          5    1    3    3  501    0  0.36783434727E+02 -0.73733135960E+02  0.22847223929E+03  0.24292231378E+03  0.47000000000E+01 0.  1.
         -5    1    3    3    0  501  0.49730941883E+02 -0.42005688919E+02  0.83736677222E+03  0.83990645056E+03  0.47000000000E+01 0.  1.
          5    1    4    4  502    0 -0.66247843179E+01  0.61701653662E+02  0.43556714348E+03  0.43999069117E+03  0.47000000000E+01 0. -1.
         -5    1    4    4    0  502 -0.79889592292E+02  0.54037171217E+02  0.17629302412E+03  0.20100667447E+03  0.47000000000E+01 0. -1.
<mgrwt>
<rscale>  0 0.39610856E+03</rscale>
<asrwt>0</asrwt>
<pdfrwt beam="1">  1       21 0.26165569E+00 0.39610856E+03</pdfrwt>
<pdfrwt beam="2">  1       21 0.35482283E-02 0.39610856E+03</pdfrwt>
<totfact> 0.24063512E+04</totfact>
</mgrwt>
</event>
<event>
 8    1  0.9691636E-006  0.2632226E+03  0.7546771E-02  0.1105222E+00
         21   -1    0    0  504  503  0.00000000000E+00  0.00000000000E+00  0.64795146256E+03  0.64795146256E+03  0.00000000000E+00 0.  1.
         21   -1    0    0  503  504 -0.00000000000E+00 -0.00000000000E+00 -0.26732762564E+02  0.26732762564E+02  0.00000000000E+00 0.  1.
         25    2    1    2    0    0  0.14366182982E+02 -0.64664088212E+01  0.21303493843E+03  0.24749925749E+03  0.12499518315E+03 0.  0.
         25    2    1    2    0    0 -0.14366182982E+02  0.64664088212E+01  0.40818376157E+03  0.42718496764E+03  0.12499924684E+03 0.  0.
          5    1    3    3  501    0  0.47392846615E+02  0.16981979525E+02  0.27541355289E+02  0.57576781692E+02  0.47000000000E+01 0. -1.
         -5    1    3    3    0  501 -0.33026663633E+02 -0.23448388347E+02  0.18549358314E+03  0.18992247580E+03  0.47000000000E+01 0. -1.
          5    1    4    4  502    0  0.11423678875E+01 -0.21701935032E+02  0.38861563386E+03  0.38925117838E+03  0.47000000000E+01 0.  1.
         -5    1    4    4    0  502 -0.15508550869E+02  0.28168343853E+02  0.19568127710E+02  0.37933789259E+02  0.47000000000E+01 0.  1.
<mgrwt>
<rscale>  0 0.26322259E+03</rscale>
<asrwt>0</asrwt>
<pdfrwt beam="1">  1       21 0.99684829E-01 0.26322259E+03</pdfrwt>
<pdfrwt beam="2">  1       21 0.41127332E-02 0.26322259E+03</pdfrwt>
<totfact> 0.30330712E+05</totfact>
</mgrwt>
</event>
<event>
 8    1  0.9691636E-006  0.2772721E+03  0.7546771E-02  0.1097188E+00
         21   -1    0    0  504  503  0.00000000000E+00  0.00000000000E+00  0.68409676166E+03  0.68409676166E+03  0.00000000000E+00 0. -1.
         21   -1    0    0  503  504 -0.00000000000E+00 -0.00000000000E+00 -0.28095373381E+02  0.28095373381E+02  0.00000000000E+00 0. -1.
         25    2    1    2    0    0 -0.49120234055E+02 -0.19581797026E+02  0.25537815941E+03  0.28920274356E+03  0.12499591357E+03 0.  0.
         25    2    1    2    0    0  0.49120234055E+02  0.19581797026E+02  0.40062322888E+03  0.42298939149E+03  0.12499923851E+03 0.  0.
          5    1    3    3  501    0 -0.87355418816E+02  0.36116458830E+01  0.13718213496E+03  0.16274225430E+03  0.47000000000E+01 0. -1.
         -5    1    3    3    0  501  0.38235184761E+02 -0.23193442909E+02  0.11819602445E+03  0.12646048926E+03  0.47000000000E+01 0. -1.
          5    1    4    4  502    0 -0.16270758461E+02 -0.30866005856E+02  0.23744328180E+03  0.24003926756E+03  0.47000000000E+01 0. -1.
         -5    1    4    4    0  502  0.65390992516E+02  0.50447802881E+02  0.16317994708E+03  0.18295012393E+03  0.47000000000E+01 0. -1.
<mgrwt>
<rscale>  0 0.27727210E+03</rscale>
<asrwt>0</asrwt>
<pdfrwt beam="1">  1       21 0.10524564E+00 0.27727210E+03</pdfrwt>
<pdfrwt beam="2">  1       21 0.43223656E-02 0.27727210E+03</pdfrwt>
<totfact> 0.24371960E+05</totfact>
</mgrwt>
</event>
<event>
 8    1  0.9691636E-006  0.3502605E+03  0.7546771E-02  0.1062508E+00
         21   -1    0    0  504  503  0.00000000000E+00  0.00000000000E+00  0.84306291554E+02  0.84306291554E+02  0.00000000000E+00 0. -1.
         21   -1    0    0  503  504 -0.00000000000E+00 -0.00000000000E+00 -0.36379967281E+03  0.36379967281E+03  0.00000000000E+00 0. -1.
         25    2    1    2    0    0  0.38083791807E+02  0.43574193375E+02 -0.27811196774E+03  0.31035696301E+03  0.12500436937E+03 0.  0.
         25    2    1    2    0    0 -0.38083791807E+02 -0.43574193375E+02 -0.13814135163E+01  0.13774900135E+03  0.12499517408E+03 0.  0.
          5    1    3    3  501    0  0.51324485372E+02 -0.12449256071E+02 -0.43034770508E+02  0.68288126699E+02  0.47000000000E+01 0. -1.
         -5    1    3    3    0  501 -0.13240693565E+02  0.56023449446E+02 -0.23507719724E+03  0.24206883631E+03  0.47000000000E+01 0. -1.
          5    1    4    4  502    0 -0.38945594831E+02 -0.34603267868E+02  0.57652599623E+02  0.77846372729E+02  0.47000000000E+01 0. -1.
         -5    1    4    4    0  502  0.86180302460E+00 -0.89709255077E+01 -0.59034013139E+02  0.59902628625E+02  0.47000000000E+01 0. -1.
<mgrwt>
<rscale>  0 0.35026048E+03</rscale>
<asrwt>0</asrwt>
<pdfrwt beam="1">  1       21 0.12970199E-01 0.35026048E+03</pdfrwt>
<pdfrwt beam="2">  1       21 0.55969181E-01 0.35026048E+03</pdfrwt>
<totfact> 0.14681062E+05</totfact>
</mgrwt>
</event>
<event>
 8    1  0.9691636E-006  0.2607631E+03  0.7546771E-02  0.1106686E+00
         21   -1    0    0  504  503  0.00000000000E+00  0.00000000000E+00  0.65509670566E+02  0.65509670566E+02  0.00000000000E+00 0. -1.
         21   -1    0    0  503  504 -0.00000000000E+00 -0.00000000000E+00 -0.25949365870E+03  0.25949365870E+03  0.00000000000E+00 0. -1.
         25    2    1    2    0    0 -0.35173716741E+01  0.20416709600E+01 -0.14290811877E+03  0.18990622566E+03  0.12500041523E+03 0.  0.
         25    2    1    2    0    0  0.35173716741E+01 -0.20416709600E+01 -0.51075869366E+02  0.13509710361E+03  0.12500377054E+03 0.  0.
          5    1    3    3  501    0  0.40187545296E+02 -0.16214938064E+02 -0.13473698828E+03  0.14161253131E+03  0.47000000000E+01 0. -1.
         -5    1    3    3    0  501 -0.43704916970E+02  0.18256609024E+02 -0.81711304956E+01  0.48293694350E+02  0.47000000000E+01 0. -1.
          5    1    4    4  502    0  0.11853977716E+02  0.45411326952E+02  0.18222384114E+02  0.50565311094E+02  0.47000000000E+01 0.  1.
         -5    1    4    4    0  502 -0.83366060416E+01 -0.47452997912E+02 -0.69298253480E+02  0.84531792519E+02  0.47000000000E+01 0.  1.
<mgrwt>
<rscale>  0 0.26076307E+03</rscale>
<asrwt>0</asrwt>
<pdfrwt beam="1">  1       21 0.10078411E-01 0.26076307E+03</pdfrwt>
<pdfrwt beam="2">  1       21 0.39922100E-01 0.26076307E+03</pdfrwt>
<totfact> 0.47739709E+05</totfact>
</mgrwt>
</event>
<event>
 8    1  0.9691636E-006  0.2721267E+03  0.7546771E-02  0.1100069E+00
         21   -1    0    0  504  503  0.00000000000E+00  0.00000000000E+00  0.18955006449E+03  0.18955006449E+03  0.00000000000E+00 0.  1.
         21   -1    0    0  503  504 -0.00000000000E+00 -0.00000000000E+00 -0.97669365921E+02  0.97669365921E+02  0.00000000000E+00 0.  1.
         25    2    1    2    0    0  0.38115407102E+02  0.10602568125E+02  0.84334283656E+02  0.15589496388E+03  0.12500307858E+03 0.  0.
         25    2    1    2    0    0 -0.38115407102E+02 -0.10602568125E+02  0.75464149121E+01  0.13132446653E+03  0.12499587362E+03 0.  0.
          5    1    3    3  501    0  0.54106721611E+02 -0.46059995875E+02  0.37282427835E+02  0.80381154314E+02  0.47000000000E+01 0. -1.
         -5    1    3    3    0  501 -0.15991314509E+02  0.56662564000E+02  0.47051855821E+02  0.75513809565E+02  0.47000000000E+01 0. -1.
          5    1    4    4  502    0 -0.40544011989E+02 -0.62222231432E+02  0.21745746893E+02  0.77526708304E+02  0.47000000000E+01 0.  1.
         -5    1    4    4    0  502  0.24286048864E+01  0.51619663307E+02 -0.14199331981E+02  0.53797758227E+02  0.47000000000E+01 0.  1.
<mgrwt>
<rscale>  0 0.27212670E+03</rscale>
<asrwt>0</asrwt>
<pdfrwt beam="1">  1       21 0.29161548E-01 0.27212670E+03</pdfrwt>
<pdfrwt beam="2">  1       21 0.15026056E-01 0.27212670E+03</pdfrwt>
<totfact> 0.43326108E+05</totfact>
</mgrwt>
</event>
<event>
 8    1  0.9691636E-006  0.3515191E+03  0.7546771E-02  0.1061993E+00
         21   -1    0    0  504  503  0.00000000000E+00  0.00000000000E+00  0.14040900337E+03  0.14040900337E+03  0.00000000000E+00 0. -1.
         21   -1    0    0  503  504 -0.00000000000E+00 -0.00000000000E+00 -0.22001024857E+03  0.22001024857E+03  0.00000000000E+00 0. -1.
         25    2    1    2    0    0 -0.55083032115E+02 -0.11056888587E+03 -0.36872949993E+02  0.17955907647E+03  0.12498891371E+03 0.  0.
         25    2    1    2    0    0  0.55083032115E+02  0.11056888587E+03 -0.42728295212E+02  0.18086017547E+03  0.12500030764E+03 0.  0.
          5    1    3    3  501    0 -0.34431673391E+02 -0.35220252034E+02 -0.77059423575E+02  0.91576476497E+02  0.47000000000E+01 0.  1.
         -5    1    3    3    0  501 -0.20651358724E+02 -0.75348633841E+02  0.40186473582E+02  0.87982599972E+02  0.47000000000E+01 0.  1.
          5    1    4    4  502    0 -0.15982714471E+02  0.23434308278E+02  0.34095309662E+02  0.44600382367E+02  0.47000000000E+01 0.  1.
         -5    1    4    4    0  502  0.71065746586E+02  0.87134577597E+02 -0.76823604874E+02  0.13625979310E+03  0.47000000000E+01 0.  1.
<mgrwt>
<rscale>  0 0.35151910E+03</rscale>
<asrwt>0</asrwt>
<pdfrwt beam="1">  1       21 0.21601385E-01 0.35151910E+03</pdfrwt>
<pdfrwt beam="2">  1       21 0.33847730E-01 0.35151910E+03</pdfrwt>
<totfact> 0.16104439E+05</totfact>
</mgrwt>
</event>
<event>
 8    1  0.9691636E-006  0.2568965E+03  0.7546771E-02  0.1109022E+00
         21   -1    0    0  504  503  0.00000000000E+00  0.00000000000E+00  0.54816403501E+03  0.54816403501E+03  0.00000000000E+00 0. -1.
         21   -1    0    0  503  504 -0.00000000000E+00 -0.00000000000E+00 -0.30098559596E+02  0.30098559596E+02  0.00000000000E+00 0. -1.
         25    2    1    2    0    0  0.18085825716E+02 -0.28093595017E+01  0.31113392969E+03  0.33581477812E+03  0.12502901026E+03 0.  0.
         25    2    1    2    0    0 -0.18085825716E+02  0.28093595017E+01  0.20693154572E+03  0.24244781648E+03  0.12500115804E+03 0.  0.
          5    1    3    3  501    0 -0.40842244895E+02  0.36548898743E+02  0.12381464784E+03  0.13548456734E+03  0.47000000000E+01 0. -1.
         -5    1    3    3    0  501  0.58928070612E+02 -0.39358258245E+02  0.18731928185E+03  0.20033021078E+03  0.47000000000E+01 0. -1.
          5    1    4    4  502    0 -0.28683300807E+01  0.54421265669E+02  0.16570221160E+03  0.17449703265E+03  0.47000000000E+01 0.  1.
         -5    1    4    4    0  502 -0.15217495636E+02 -0.51611906167E+02  0.41229334118E+02  0.67950783832E+02  0.47000000000E+01 0.  1.
<mgrwt>
<rscale>  0 0.25689646E+03</rscale>
<asrwt>0</asrwt>
<pdfrwt beam="1">  1       21 0.84332921E-01 0.25689646E+03</pdfrwt>
<pdfrwt beam="2">  1       21 0.46305480E-02 0.25689646E+03</pdfrwt>
<totfact> 0.36769868E+05</totfact>
</mgrwt>
</event>
<event>
 8    1  0.9691636E-006  0.3366344E+03  0.7546771E-02  0.1068239E+00
         21   -1    0    0  504  503  0.00000000000E+00  0.00000000000E+00  0.94129481747E+03  0.94129481747E+03  0.00000000000E+00 0. -1.
         21   -1    0    0  503  504 -0.00000000000E+00 -0.00000000000E+00 -0.30097553813E+02  0.30097553813E+02  0.00000000000E+00 0. -1.
         25    2    1    2    0    0  0.93254214751E+01 -0.78903005297E+02  0.22487482645E+03  0.26926918793E+03  0.12499824105E+03 0.  0.
         25    2    1    2    0    0 -0.93254214751E+01  0.78903005297E+02  0.68632243720E+03  0.70212318335E+03  0.12500331620E+03 0.  0.
          5    1    3    3  501    0  0.25027329728E+02 -0.24132070462E+01 -0.53369412159E+01  0.26129748241E+02  0.47000000000E+01 0. -1.
         -5    1    3    3    0  501 -0.15701908253E+02 -0.76489798251E+02  0.23021176767E+03  0.24313943969E+03  0.47000000000E+01 0. -1.
          5    1    4    4  502    0  0.35706994402E+02 -0.11861328542E+02  0.31222093698E+03  0.31451499813E+03  0.47000000000E+01 0. -1.
         -5    1    4    4    0  502 -0.45032415877E+02  0.90764333840E+02  0.37410150023E+03  0.38760818522E+03  0.47000000000E+01 0. -1.
<mgrwt>
<rscale>  0 0.33663435E+03</rscale>
<asrwt>0</asrwt>
<pdfrwt beam="1">  1       21 0.14481456E+00 0.33663435E+03</pdfrwt>
<pdfrwt beam="2">  1       21 0.46303936E-02 0.33663435E+03</pdfrwt>
<totfact> 0.95015936E+04</totfact>
</mgrwt>
</event>
<event>
 8    1  0.9691636E-006  0.4881531E+03  0.7546771E-02  0.1016918E+00
         21   -1    0    0  504  503  0.00000000000E+00  0.00000000000E+00  0.81647467359E+02  0.81647467359E+02  0.00000000000E+00 0. -1.
         21   -1    0    0  503  504 -0.00000000000E+00 -0.00000000000E+00 -0.72964141951E+03  0.72964141951E+03  0.00000000000E+00 0. -1.
         25    2    1    2    0    0  0.15800190064E+03 -0.13778313890E+03 -0.32442158616E+03  0.40598352728E+03  0.12499785953E+03 0.  0.
         25    2    1    2    0    0 -0.15800190064E+03  0.13778313890E+03 -0.32357236599E+03  0.40530535959E+03  0.12499825802E+03 0.  0.
          5    1    3    3  501    0  0.11166679914E+03 -0.66323163452E+02 -0.28245892708E+03  0.31092341746E+03  0.47000000000E+01 0.  1.
         -5    1    3    3    0  501  0.46335101500E+02 -0.71459975447E+02 -0.41962659084E+02  0.95060109822E+02  0.47000000000E+01 0.  1.
          5    1    4    4  502    0 -0.13939837621E+03  0.79670056276E+02 -0.14448194459E+03  0.21604709549E+03  0.47000000000E+01 0. -1.
         -5    1    4    4    0  502 -0.18603524430E+02  0.58113082623E+02 -0.17909042140E+03  0.18925826410E+03  0.47000000000E+01 0. -1.
<mgrwt>
<rscale>  0 0.48815315E+03</rscale>
<asrwt>0</asrwt>
<pdfrwt beam="1">  1       21 0.12561149E-01 0.48815315E+03</pdfrwt>
<pdfrwt beam="2">  1       21 0.11225253E+00 0.48815315E+03</pdfrwt>
<totfact> 0.30209881E+04</totfact>
</mgrwt>
</event>
<event>
 8    1  0.9691636E-006  0.5512219E+03  0.7546771E-02  0.1001212E+00
         21   -1    0    0  504  503  0.00000000000E+00  0.00000000000E+00  0.22728200620E+03  0.22728200620E+03  0.00000000000E+00 0. -1.
         21   -1    0    0  503  504 -0.00000000000E+00 -0.00000000000E+00 -0.33421645326E+03  0.33421645326E+03  0.00000000000E+00 0. -1.
         25    2    1    2    0    0  0.17385806410E+03 -0.17071782003E+03 -0.21798102369E+02  0.27472227572E+03  0.12500388387E+03 0.  0.
         25    2    1    2    0    0 -0.17385806410E+03  0.17071782003E+03 -0.85136344697E+02  0.28677618373E+03  0.12498472642E+03 0.  0.
          5    1    3    3  501    0  0.11810820618E+02 -0.36149971687E+02 -0.49087158209E+02  0.62273228900E+02  0.47000000000E+01 0.  1.
         -5    1    3    3    0  501  0.16204724348E+03 -0.13456784834E+03  0.27289055840E+02  0.21244904682E+03  0.47000000000E+01 0.  1.
          5    1    4    4  502    0 -0.44536012102E+02  0.12693573113E+03 -0.22433743628E+02  0.13646061361E+03  0.47000000000E+01 0. -1.
         -5    1    4    4    0  502 -0.12932205200E+03  0.43782088896E+02 -0.62702601069E+02  0.15031557013E+03  0.47000000000E+01 0. -1.
<mgrwt>
<rscale>  0 0.55122186E+03</rscale>
<asrwt>0</asrwt>
<pdfrwt beam="1">  1       21 0.34966462E-01 0.55122186E+03</pdfrwt>
<pdfrwt beam="2">  1       21 0.51417916E-01 0.55122186E+03</pdfrwt>
<totfact> 0.25190625E+04</totfact>
</mgrwt>
</event>
<event>
 8    1  0.9691636E-006  0.2958783E+03  0.7546771E-02  0.1087319E+00
         21   -1    0    0  504  503  0.00000000000E+00  0.00000000000E+00  0.17174628927E+02  0.17174628927E+02  0.00000000000E+00 0. -1.
         21   -1    0    0  503  504 -0.00000000000E+00 -0.00000000000E+00 -0.12743215272E+04  0.12743215272E+04  0.00000000000E+00 0. -1.
         25    2    1    2    0    0  0.70988636162E+02 -0.30584361641E+02 -0.55461826824E+03  0.57375860813E+03  0.12499090888E+03 0.  0.
         25    2    1    2    0    0 -0.70988636162E+02  0.30584361641E+02 -0.70252863006E+03  0.71773754802E+03  0.12500368851E+03 0.  0.
          5    1    3    3  501    0  0.56238271486E+02  0.22317446890E+02 -0.46207855064E+03  0.46604665923E+03  0.47000000000E+01 0. -1.
         -5    1    3    3    0  501  0.14750364675E+02 -0.52901808530E+02 -0.92539717596E+02  0.10771194890E+03  0.47000000000E+01 0. -1.
          5    1    4    4  502    0 -0.22786414030E+01 -0.32312231702E+02 -0.39556806070E+03  0.39691995814E+03  0.47000000000E+01 0.  1.
         -5    1    4    4    0  502 -0.68709994759E+02  0.62896593342E+02 -0.30696056936E+03  0.32081758988E+03  0.47000000000E+01 0.  1.
<mgrwt>
<rscale>  0 0.29587835E+03</rscale>
<asrwt>0</asrwt>
<pdfrwt beam="1">  1       21 0.26422508E-02 0.29587835E+03</pdfrwt>
<pdfrwt beam="2">  1       21 0.19604945E+00 0.29587835E+03</pdfrwt>
<totfact> 0.10581375E+05</totfact>
</mgrwt>
</event>
<event>
 8    1  0.9691636E-006  0.3166986E+03  0.7546771E-02  0.1077179E+00
         21   -1    0    0  504  503  0.00000000000E+00  0.00000000000E+00  0.28847795546E+03  0.28847795546E+03  0.00000000000E+00 0.  1.
         21   -1    0    0  503  504 -0.00000000000E+00 -0.00000000000E+00 -0.86920012196E+02  0.86920012196E+02  0.00000000000E+00 0.  1.
         25    2    1    2    0    0  0.51633419034E+02 -0.82226602189E+02  0.10654297065E+03  0.19079222997E+03  0.12499218517E+03 0.  0.
         25    2    1    2    0    0 -0.51633419034E+02  0.82226602189E+02  0.95014972615E+02  0.18460573768E+03  0.12499683714E+03 0.  0.
          5    1    3    3  501    0 -0.32597622551E+02  0.24702064832E+00  0.50226141599E+02  0.60061812453E+02  0.47000000000E+01 0.  1.
         -5    1    3    3    0  501  0.84231041585E+02 -0.82473622838E+02  0.56316829051E+02  0.13073041752E+03  0.47000000000E+01 0.  1.
          5    1    4    4  502    0 -0.10080065100E+02  0.94848125759E+02  0.10271515087E+03  0.14025072866E+03  0.47000000000E+01 0.  1.
         -5    1    4    4    0  502 -0.41553353934E+02 -0.12621523570E+02 -0.77001782502E+01  0.44355009024E+02  0.47000000000E+01 0.  1.
<mgrwt>
<rscale>  0 0.31669864E+03</rscale>
<asrwt>0</asrwt>
<pdfrwt beam="1">  1       21 0.44381223E-01 0.31669864E+03</pdfrwt>
<pdfrwt beam="2">  1       21 0.13372310E-01 0.31669864E+03</pdfrwt>
<totfact> 0.22826952E+05</totfact>
</mgrwt>
</event>
<event>
 8    1  0.9691636E-006  0.3485171E+03  0.7546771E-02  0.1063225E+00
         21   -1    0    0  504  503  0.00000000000E+00  0.00000000000E+00  0.22314256680E+04  0.22314256680E+04  0.00000000000E+00 0.  1.
         21   -1    0    0  503  504 -0.00000000000E+00 -0.00000000000E+00 -0.13608359877E+02  0.13608359877E+02  0.00000000000E+00 0.  1.
         25    2    1    2    0    0  0.92830601078E+02  0.77184490832E+02  0.11921592684E+04  0.12047584624E+04  0.12499706089E+03 0.  0.
         25    2    1    2    0    0 -0.92830601078E+02 -0.77184490832E+02  0.10256580397E+04  0.10402755655E+04  0.12499548664E+03 0.  0.
          5    1    3    3  501    0 -0.85482067060E+01 -0.17791816603E+02  0.39873734744E+03  0.39925328154E+03  0.47000000000E+01 0. -1.
         -5    1    3    3    0  501  0.10137880778E+03  0.94976307435E+02  0.79342192098E+03  0.80550518082E+03  0.47000000000E+01 0. -1.
          5    1    4    4  502    0 -0.74709686176E+02 -0.45289477570E+02  0.27230599464E+03  0.28601629098E+03  0.47000000000E+01 0.  1.
         -5    1    4    4    0  502 -0.18120914902E+02 -0.31895013262E+02  0.75335204508E+03  0.75425927456E+03  0.47000000000E+01 0.  1.
<mgrwt>
<rscale>  0 0.34851711E+03</rscale>
<asrwt>0</asrwt>
<pdfrwt beam="1">  1       21 0.34329597E+00 0.34851711E+03</pdfrwt>
<pdfrwt beam="2">  1       21 0.20935956E-02 0.34851711E+03</pdfrwt>
<totfact> 0.19304743E+04</totfact>
</mgrwt>
</event>
<event>
 8    1  0.9691636E-006  0.3092931E+03  0.7546771E-02  0.1080685E+00
         21   -1    0    0  504  503  0.00000000000E+00  0.00000000000E+00  0.28955279184E+03  0.28955279184E+03  0.00000000000E+00 0.  1.
         21   -1    0    0  503  504 -0.00000000000E+00 -0.00000000000E+00 -0.82594797631E+02  0.82594797631E+02  0.00000000000E+00 0.  1.
         25    2    1    2    0    0  0.22519442989E+00 -0.55303443933E+02  0.19050029230E+03  0.23446575589E+03  0.12500123078E+03 0.  0.
         25    2    1    2    0    0 -0.22519442989E+00  0.55303443933E+02  0.16457701911E+02  0.13768183358E+03  0.12500763866E+03 0.  0.
          5    1    3    3  501    0 -0.17358734876E+02 -0.69936601661E+02  0.19733470889E+03  0.21013217569E+03  0.47000000000E+01 0.  1.
         -5    1    3    3    0  501  0.17583929306E+02  0.14633157728E+02 -0.68344165931E+01  0.24333580195E+02  0.47000000000E+01 0.  1.
          5    1    4    4  502    0 -0.31452098452E+02  0.80619456536E+02 -0.12984545888E+02  0.87632298276E+02  0.47000000000E+01 0.  1.
         -5    1    4    4    0  502  0.31226904023E+02 -0.25316012604E+02  0.29442247799E+02  0.50049535307E+02  0.47000000000E+01 0.  1.
<mgrwt>
<rscale>  0 0.30929309E+03</rscale>
<asrwt>0</asrwt>
<pdfrwt beam="1">  1       21 0.44546583E-01 0.30929309E+03</pdfrwt>
<pdfrwt beam="2">  1       21 0.12706892E-01 0.30929309E+03</pdfrwt>
<totfact> 0.24894749E+05</totfact>
</mgrwt>
</event>
<event>
 8    1  0.9691636E-006  0.2927437E+03  0.7546771E-02  0.1088925E+00
         21   -1    0    0  504  503  0.00000000000E+00  0.00000000000E+00  0.10180658579E+03  0.10180658579E+03  0.00000000000E+00 0. -1.
         21   -1    0    0  503  504 -0.00000000000E+00 -0.00000000000E+00 -0.21044531498E+03  0.21044531498E+03  0.00000000000E+00 0. -1.
         25    2    1    2    0    0  0.65892405947E+02  0.22556053906E+02 -0.21458118393E+02  0.14469424726E+03  0.12500155845E+03 0.  0.
         25    2    1    2    0    0 -0.65892405947E+02 -0.22556053906E+02 -0.87180610791E+02  0.16755765351E+03  0.12499809448E+03 0.  0.
          5    1    3    3  501    0 -0.31615411267E+02 -0.17873225926E+02 -0.12322647095E+02  0.38638375561E+02  0.47000000000E+01 0.  1.
         -5    1    3    3    0  501  0.97507817214E+02  0.40429279833E+02 -0.91354712988E+01  0.10605587170E+03  0.47000000000E+01 0.  1.
          5    1    4    4  502    0 -0.33091642278E+02  0.43415989587E+02 -0.19878043852E+01  0.54827422945E+02  0.47000000000E+01 0. -1.
         -5    1    4    4    0  502 -0.32800763669E+02 -0.65972043493E+02 -0.85192806406E+02  0.11273023056E+03  0.47000000000E+01 0. -1.
<mgrwt>
<rscale>  0 0.29274370E+03</rscale>
<asrwt>0</asrwt>
<pdfrwt beam="1">  1       21 0.15662552E-01 0.29274370E+03</pdfrwt>
<pdfrwt beam="2">  1       21 0.32376202E-01 0.29274370E+03</pdfrwt>
<totfact> 0.32535932E+05</totfact>
</mgrwt>
</event>
<event>
 8    1  0.9691636E-006  0.2666365E+03  0.7546771E-02  0.1103220E+00
         21   -1    0    0  504  503  0.00000000000E+00  0.00000000000E+00  0.40961659655E+03  0.40961659655E+03  0.00000000000E+00 0.  1.
         21   -1    0    0  503  504 -0.00000000000E+00 -0.00000000000E+00 -0.43391197259E+02  0.43391197259E+02  0.00000000000E+00 0.  1.
         25    2    1    2    0    0  0.44677612186E+02  0.19351719945E+01  0.16232099534E+03  0.20969487172E+03  0.12499599905E+03 0.  0.
         25    2    1    2    0    0 -0.44677612186E+02 -0.19351719945E+01  0.20390440396E+03  0.24331292209E+03  0.12499735270E+03 0.  0.
          5    1    3    3  501    0  0.67767966012E+02 -0.23513357053E+02  0.15943628399E+03  0.17489252079E+03  0.47000000000E+01 0. -1.
         -5    1    3    3    0  501 -0.23090353826E+02  0.25448529047E+02  0.28847113463E+01  0.34802350927E+02  0.47000000000E+01 0. -1.
          5    1    4    4  502    0 -0.74786810168E+02 -0.38544018421E+02  0.11663677992E+03  0.14389210111E+03  0.47000000000E+01 0. -1.
         -5    1    4    4    0  502  0.30109197982E+02  0.36608846426E+02  0.87267624035E+02  0.99420820981E+02  0.47000000000E+01 0. -1.
<mgrwt>
<rscale>  0 0.26663649E+03</rscale>
<asrwt>0</asrwt>
<pdfrwt beam="1">  1       21 0.63017935E-01 0.26663649E+03</pdfrwt>
<pdfrwt beam="2">  1       21 0.66755691E-02 0.26663649E+03</pdfrwt>
<totfact> 0.37615086E+05</totfact>
</mgrwt>
</event>
<event>
 8    1  0.9691636E-006  0.3005535E+03  0.7546771E-02  0.1084964E+00
         21   -1    0    0  504  503  0.00000000000E+00  0.00000000000E+00  0.63487777035E+03  0.63487777035E+03  0.00000000000E+00 0. -1.
         21   -1    0    0  503  504 -0.00000000000E+00 -0.00000000000E+00 -0.35570794787E+02  0.35570794787E+02  0.00000000000E+00 0. -1.
         25    2    1    2    0    0 -0.16036440968E+02 -0.75545560551E+02  0.22907430125E+03  0.27212459946E+03  0.12494984186E+03 0.  0.
         25    2    1    2    0    0  0.16036440968E+02  0.75545560551E+02  0.37023267431E+03  0.39832396568E+03  0.12500179737E+03 0.  0.
          5    1    3    3  501    0 -0.91425040373E+01 -0.18487512413E+02  0.21047368383E+03  0.21153400454E+03  0.47000000000E+01 0. -1.
         -5    1    3    3    0  501 -0.68939369307E+01 -0.57058048138E+02  0.18600617425E+02  0.60590594916E+02  0.47000000000E+01 0. -1.
          5    1    4    4  502    0 -0.81365950989E+01  0.10303838232E+03  0.21276535574E+03  0.23658888185E+03  0.47000000000E+01 0.  1.
         -5    1    4    4    0  502  0.24173036067E+02 -0.27492821773E+02  0.15746731858E+03  0.16173508383E+03  0.47000000000E+01 0.  1.
<mgrwt>
<rscale>  0 0.30055354E+03</rscale>
<asrwt>0</asrwt>
<pdfrwt beam="1">  1       21 0.97673495E-01 0.30055354E+03</pdfrwt>
<pdfrwt beam="2">  1       21 0.54724304E-02 0.30055354E+03</pdfrwt>
<totfact> 0.19387297E+05</totfact>
</mgrwt>
</event>
<event>
 8    1  0.9691636E-006  0.2549834E+03  0.7546771E-02  0.1110195E+00
         21   -1    0    0  504  503  0.00000000000E+00  0.00000000000E+00  0.51845813867E+02  0.51845813867E+02  0.00000000000E+00 0.  1.
         21   -1    0    0  503  504 -0.00000000000E+00 -0.00000000000E+00 -0.31350912663E+03  0.31350912663E+03  0.00000000000E+00 0.  1.
         25    2    1    2    0    0  0.80894954795E+01  0.10945468859E+01 -0.96826790575E+02  0.15832751276E+03  0.12500214380E+03 0.  0.
         25    2    1    2    0    0 -0.80894954795E+01 -0.10945468859E+01 -0.16483652219E+03  0.20702742773E+03  0.12499055491E+03 0.  0.
          5    1    3    3  501    0  0.61201773265E+02 -0.90040221651E+01 -0.80549459782E+02  0.10167120997E+03  0.47000000000E+01 0. -1.
         -5    1    3    3    0  501 -0.53112277785E+02  0.10098569051E+02 -0.16277330792E+02  0.56656302793E+02  0.47000000000E+01 0. -1.
          5    1    4    4  502    0 -0.57082299080E+02 -0.33122596622E+02 -0.95261661758E+02  0.11598435013E+03  0.47000000000E+01 0.  1.
         -5    1    4    4    0  502  0.48992803601E+02  0.32028049736E+02 -0.69574860428E+02  0.91043077596E+02  0.47000000000E+01 0.  1.
<mgrwt>
<rscale>  0 0.25498342E+03</rscale>
<asrwt>0</asrwt>
<pdfrwt beam="1">  1       21 0.79762791E-02 0.25498342E+03</pdfrwt>
<pdfrwt beam="2">  1       21 0.48232173E-01 0.25498342E+03</pdfrwt>
<totfact> 0.48909460E+05</totfact>
</mgrwt>
</event>
<event>
 8    1  0.9691636E-006  0.2902645E+03  0.7546771E-02  0.1090211E+00
         21   -1    0    0  504  503  0.00000000000E+00  0.00000000000E+00  0.24887815252E+04  0.24887815252E+04  0.00000000000E+00 0.  1.
         21   -1    0    0  503  504 -0.00000000000E+00 -0.00000000000E+00 -0.84633233481E+01  0.84633233481E+01  0.00000000000E+00 0.  1.
         25    2    1    2    0    0 -0.13109675634E+01 -0.66889482131E+02  0.97355520602E+03  0.98382564819E+03  0.12500898130E+03 0.  0.
         25    2    1    2    0    0  0.13109675634E+01  0.66889482131E+02  0.15067629959E+04  0.15134192004E+04  0.12500811557E+03 0.  0.
          5    1    3    3  501    0 -0.53301804349E+01 -0.44313706622E+02  0.96153229614E+02  0.10611149317E+03  0.47000000000E+01 0. -1.
         -5    1    3    3    0  501  0.40192128715E+01 -0.22575775509E+02  0.87740197641E+03  0.87771415502E+03  0.47000000000E+01 0. -1.
          5    1    4    4  502    0 -0.10753562266E+02 -0.19515107746E+01  0.11380012561E+04  0.11380634413E+04  0.47000000000E+01 0. -1.
         -5    1    4    4    0  502  0.12064529830E+02  0.68840992905E+02  0.36876173972E+03  0.37535575907E+03  0.47000000000E+01 0. -1.
<mgrwt>
<rscale>  0 0.29026445E+03</rscale>
<asrwt>0</asrwt>
<pdfrwt beam="1">  1       21 0.38288888E+00 0.29026445E+03</pdfrwt>
<pdfrwt beam="2">  1       21 0.13020517E-02 0.29026445E+03</pdfrwt>
<totfact> 0.24955624E+04</totfact>
</mgrwt>
</event>
<event>
 8    1  0.9691636E-006  0.3427161E+03  0.7546771E-02  0.1065645E+00
         21   -1    0    0  504  503  0.00000000000E+00  0.00000000000E+00  0.17908674068E+03  0.17908674068E+03  0.00000000000E+00 0.  1.
         21   -1    0    0  503  504 -0.00000000000E+00 -0.00000000000E+00 -0.16396293843E+03  0.16396293843E+03  0.00000000000E+00 0.  1.
         25    2    1    2    0    0 -0.46799502776E+02 -0.94238441556E+02  0.59255931072E+02  0.17380283547E+03  0.12500033169E+03 0.  0.
         25    2    1    2    0    0  0.46799502776E+02  0.94238441556E+02 -0.44132128820E+02  0.16924684364E+03  0.12500308781E+03 0.  0.
          5    1    3    3  501    0 -0.30874058420E+02 -0.11968396635E+03  0.21841273106E+02  0.12560489837E+03  0.47000000000E+01 0.  1.
         -5    1    3    3    0  501 -0.15925444356E+02  0.25445524791E+02  0.37414657966E+02  0.48197937098E+02  0.47000000000E+01 0.  1.
          5    1    4    4  502    0  0.55011074777E+02  0.57237852432E+02  0.30688781413E+02  0.85242485908E+02  0.47000000000E+01 0. -1.
         -5    1    4    4    0  502 -0.82115720013E+01  0.37000589124E+02 -0.74820910234E+02  0.84004357735E+02  0.47000000000E+01 0. -1.
<mgrwt>
<rscale>  0 0.34271614E+03</rscale>
<asrwt>0</asrwt>
<pdfrwt beam="1">  1       21 0.27551806E-01 0.34271614E+03</pdfrwt>
<pdfrwt beam="2">  1       21 0.25225067E-01 0.34271614E+03</pdfrwt>
<totfact> 0.18000261E+05</totfact>
</mgrwt>
</event>
<event>
 8    1  0.9691636E-006  0.2753049E+03  0.7546771E-02  0.1098281E+00
         21   -1    0    0  504  503  0.00000000000E+00  0.00000000000E+00  0.71768875469E+03  0.71768875469E+03  0.00000000000E+00 0. -1.
         21   -1    0    0  503  504 -0.00000000000E+00 -0.00000000000E+00 -0.26401681769E+02  0.26401681769E+02  0.00000000000E+00 0. -1.
         25    2    1    2    0    0 -0.55494660435E+02  0.15622709044E+01  0.38753528624E+03  0.41096430746E+03  0.12500386353E+03 0.  0.
         25    2    1    2    0    0  0.55494660435E+02 -0.15622709044E+01  0.30375178668E+03  0.33312612899E+03  0.12500308749E+03 0.  0.
          5    1    3    3  501    0  0.23055178533E+02 -0.30752402639E+02  0.21657521682E+03  0.22000946813E+03  0.47000000000E+01 0. -1.
         -5    1    3    3    0  501 -0.78549838967E+02  0.32314673544E+02  0.17096006942E+03  0.19095483933E+03  0.47000000000E+01 0. -1.
          5    1    4    4  502    0  0.75342080948E+02 -0.40687155639E+02  0.24552727337E+03  0.26007230873E+03  0.47000000000E+01 0. -1.
         -5    1    4    4    0  502 -0.19847420514E+02  0.39124884734E+02  0.58224513302E+02  0.73053820268E+02  0.47000000000E+01 0. -1.
<mgrwt>
<rscale>  0 0.27530485E+03</rscale>
<asrwt>0</asrwt>
<pdfrwt beam="1">  1       21 0.11041364E+00 0.27530485E+03</pdfrwt>
<pdfrwt beam="2">  1       21 0.40617977E-02 0.27530485E+03</pdfrwt>
<totfact> 0.24102929E+05</totfact>
</mgrwt>
</event>
<event>
 8    1  0.9691636E-006  0.4955687E+03  0.7546771E-02  0.1014942E+00
         21   -1    0    0  504  503  0.00000000000E+00  0.00000000000E+00  0.10806673976E+03  0.10806673976E+03  0.00000000000E+00 0.  1.
         21   -1    0    0  503  504 -0.00000000000E+00 -0.00000000000E+00 -0.56814039781E+03  0.56814039781E+03  0.00000000000E+00 0.  1.
         25    2    1    2    0    0  0.62045366434E+01  0.21339447079E+03 -0.24910866833E+03  0.35107834074E+03  0.12500070506E+03 0.  0.
         25    2    1    2    0    0 -0.62045366434E+01 -0.21339447079E+03 -0.21096498972E+03  0.32512879683E+03  0.12500724460E+03 0.  0.
          5    1    3    3  501    0 -0.54559175330E+02  0.94656042791E+02 -0.79225042848E+02  0.13503765202E+03  0.47000000000E+01 0. -1.
         -5    1    3    3    0  501  0.60763711973E+02  0.11873842799E+03 -0.16988362548E+03  0.21604068872E+03  0.47000000000E+01 0. -1.
          5    1    4    4  502    0 -0.24463716072E+02 -0.22416598158E+03 -0.18934643844E+03  0.29448773226E+03  0.47000000000E+01 0.  1.
         -5    1    4    4    0  502  0.18259179429E+02  0.10771510798E+02 -0.21618551278E+02  0.30641064564E+02  0.47000000000E+01 0.  1.
<mgrwt>
<rscale>  0 0.49556869E+03</rscale>
<asrwt>0</asrwt>
<pdfrwt beam="1">  1       21 0.16625653E-01 0.49556869E+03</pdfrwt>
<pdfrwt beam="2">  1       21 0.87406213E-01 0.49556869E+03</pdfrwt>
<totfact> 0.32944761E+04</totfact>
</mgrwt>
</event>
<event>
 8    1  0.9691636E-006  0.3425419E+03  0.7546771E-02  0.1065718E+00
         21   -1    0    0  504  503  0.00000000000E+00  0.00000000000E+00  0.12718749569E+04  0.12718749569E+04  0.00000000000E+00 0. -1.
         21   -1    0    0  503  504 -0.00000000000E+00 -0.00000000000E+00 -0.23063381957E+02  0.23063381957E+02  0.00000000000E+00 0. -1.
         25    2    1    2    0    0  0.99707988295E+02 -0.27862807781E+02  0.41766445999E+03  0.44809182913E+03  0.12499866884E+03 0.  0.
         25    2    1    2    0    0 -0.99707988295E+02  0.27862807781E+02  0.83114711491E+03  0.84684650968E+03  0.12500186137E+03 0.  0.
          5    1    3    3  501    0  0.86746596405E+02 -0.32843965438E+02  0.42255252476E+03  0.43263890745E+03  0.47000000000E+01 0.  1.
         -5    1    3    3    0  501  0.12961391890E+02  0.49811576574E+01 -0.48880647760E+01  0.15452921684E+02  0.47000000000E+01 0.  1.
          5    1    4    4  502    0 -0.74741478984E+02  0.76633770080E+02  0.53087329169E+03  0.54157877103E+03  0.47000000000E+01 0. -1.
         -5    1    4    4    0  502 -0.24966509311E+02 -0.48770962300E+02  0.30027382322E+03  0.30526773865E+03  0.47000000000E+01 0. -1.
<mgrwt>
<rscale>  0 0.34254190E+03</rscale>
<asrwt>0</asrwt>
<pdfrwt beam="1">  1       21 0.19567302E+00 0.34254190E+03</pdfrwt>
<pdfrwt beam="2">  1       21 0.35482136E-02 0.34254190E+03</pdfrwt>
<totfact> 0.63844135E+04</totfact>
</mgrwt>
</event>
<event>
 8    1  0.9691636E-006  0.4388735E+03  0.7546771E-02  0.1031093E+00
         21   -1    0    0  504  503  0.00000000000E+00  0.00000000000E+00  0.11990243303E+03  0.11990243303E+03  0.00000000000E+00 0.  1.
         21   -1    0    0  503  504 -0.00000000000E+00 -0.00000000000E+00 -0.40159728641E+03  0.40159728641E+03  0.00000000000E+00 0.  1.
         25    2    1    2    0    0  0.30254210471E+02 -0.42260424761E+02  0.64369627370E+02  0.14989799247E+03  0.12499879386E+03 0.  0.
         25    2    1    2    0    0 -0.30254210471E+02  0.42260424761E+02 -0.34606448075E+03  0.37160172697E+03  0.12500383152E+03 0.  0.
          5    1    3    3  501    0  0.42610961863E+02  0.40937950594E+00 -0.25255490079E+02  0.49757325507E+02  0.47000000000E+01 0. -1.
         -5    1    3    3    0  501 -0.12356751392E+02 -0.42669804267E+02  0.89625117449E+02  0.10014066696E+03  0.47000000000E+01 0. -1.
          5    1    4    4  502    0 -0.15952768275E+02 -0.44085217847E+02 -0.10462338412E+03  0.11474380050E+03  0.47000000000E+01 0.  1.
         -5    1    4    4    0  502 -0.14301442196E+02  0.86345642609E+02 -0.24144109663E+03  0.25685792647E+03  0.47000000000E+01 0.  1.
<mgrwt>
<rscale>  0 0.43887352E+03</rscale>
<asrwt>0</asrwt>
<pdfrwt beam="1">  1       21 0.18446528E-01 0.43887352E+03</pdfrwt>
<pdfrwt beam="2">  1       21 0.61784198E-01 0.43887352E+03</pdfrwt>
<totfact> 0.60426787E+04</totfact>
</mgrwt>
</event>
<event>
 8    1  0.9691636E-006  0.2971136E+03  0.7546771E-02  0.1086692E+00
         21   -1    0    0  504  503  0.00000000000E+00  0.00000000000E+00  0.48929143345E+03  0.48929143345E+03  0.00000000000E+00 0.  1.
         21   -1    0    0  503  504 -0.00000000000E+00 -0.00000000000E+00 -0.45104250843E+02  0.45104250843E+02  0.00000000000E+00 0.  1.
         25    2    1    2    0    0  0.31609354373E+02 -0.72048969949E+02  0.19345628103E+03  0.24339453923E+03  0.12500145481E+03 0.  0.
         25    2    1    2    0    0 -0.31609354373E+02  0.72048969949E+02  0.25073090158E+03  0.29100114506E+03  0.12500190425E+03 0.  0.
          5    1    3    3  501    0  0.10044078028E+02 -0.24257780221E+02 -0.13467589759E+02  0.29879581299E+02  0.47000000000E+01 0.  1.
         -5    1    3    3    0  501  0.21565276345E+02 -0.47791189728E+02  0.20692387079E+03  0.21351495793E+03  0.47000000000E+01 0.  1.
          5    1    4    4  502    0 -0.54864231400E+01  0.44788638140E+00  0.19816056433E+03  0.19829271469E+03  0.47000000000E+01 0.  1.
         -5    1    4    4    0  502 -0.26122931233E+02  0.71601083567E+02  0.52570337243E+02  0.92708430372E+02  0.47000000000E+01 0.  1.
<mgrwt>
<rscale>  0 0.29711360E+03</rscale>
<asrwt>0</asrwt>
<pdfrwt beam="1">  1       21 0.75275601E-01 0.29711360E+03</pdfrwt>
<pdfrwt beam="2">  1       21 0.69391159E-02 0.29711360E+03</pdfrwt>
<totfact> 0.23543116E+05</totfact>
</mgrwt>
</event>
<event>
 8    1  0.9691636E-006  0.2798709E+03  0.7546771E-02  0.1095759E+00
         21   -1    0    0  504  503  0.00000000000E+00  0.00000000000E+00  0.29183369898E+03  0.29183369898E+03  0.00000000000E+00 0. -1.
         21   -1    0    0  503  504 -0.00000000000E+00 -0.00000000000E+00 -0.67099643183E+02  0.67099643183E+02  0.00000000000E+00 0. -1.
         25    2    1    2    0    0 -0.14561089054E+02  0.12881863401E+01  0.33894833595E+02  0.13033489688E+03  0.12499856344E+03 0.  0.
         25    2    1    2    0    0  0.14561089054E+02 -0.12881863401E+01  0.19083922221E+03  0.22859844528E+03  0.12499582279E+03 0.  0.
          5    1    3    3  501    0  0.51513966797E+02  0.11579500604E+02 -0.42973970686E+01  0.53182057415E+02  0.47000000000E+01 0.  1.
         -5    1    3    3    0  501 -0.66075055851E+02 -0.10291314264E+02  0.38192230664E+02  0.77152839469E+02  0.47000000000E+01 0.  1.
          5    1    4    4  502    0 -0.38883309755E+02 -0.36234963111E+02  0.12892844085E+03  0.13953321178E+03  0.47000000000E+01 0.  1.
         -5    1    4    4    0  502  0.53444398810E+02  0.34946776771E+02  0.61910781351E+02  0.89065233499E+02  0.47000000000E+01 0.  1.
<mgrwt>
<rscale>  0 0.27987095E+03</rscale>
<asrwt>0</asrwt>
<pdfrwt beam="1">  1       21 0.44897491E-01 0.27987095E+03</pdfrwt>
<pdfrwt beam="2">  1       21 0.10323022E-01 0.27987095E+03</pdfrwt>
<totfact> 0.35812647E+05</totfact>
</mgrwt>
</event>
<event>
 8    1  0.9691636E-006  0.2938026E+03  0.7546771E-02  0.1088380E+00
         21   -1    0    0  504  503  0.00000000000E+00  0.00000000000E+00  0.22471661799E+02  0.22471661799E+02  0.00000000000E+00 0. -1.
         21   -1    0    0  503  504 -0.00000000000E+00 -0.00000000000E+00 -0.96032011148E+03  0.96032011148E+03  0.00000000000E+00 0. -1.
         25    2    1    2    0    0  0.45370711347E+02  0.60398430406E+02 -0.52146725139E+03  0.54153493574E+03  0.12500208203E+03 0.  0.
         25    2    1    2    0    0 -0.45370711347E+02 -0.60398430406E+02 -0.41638119829E+03  0.44125683754E+03  0.12501128965E+03 0.  0.
          5    1    3    3  501    0 -0.25847188459E+02  0.44623914523E+02 -0.36712430427E+03  0.37075829820E+03  0.47000000000E+01 0. -1.
         -5    1    3    3    0  501  0.71217899806E+02  0.15774515883E+02 -0.15434294712E+03  0.17077663754E+03  0.47000000000E+01 0. -1.
          5    1    4    4  502    0 -0.27180490096E+02 -0.78655855938E+02 -0.40358263144E+03  0.41210017364E+03  0.47000000000E+01 0. -1.
         -5    1    4    4    0  502 -0.18190221251E+02  0.18257425532E+02 -0.12798566854E+02  0.29156663899E+02  0.47000000000E+01 0. -1.
<mgrwt>
<rscale>  0 0.29380258E+03</rscale>
<asrwt>0</asrwt>
<pdfrwt beam="1">  1       21 0.34571793E-02 0.29380258E+03</pdfrwt>
<pdfrwt beam="2">  1       21 0.14774153E+00 0.29380258E+03</pdfrwt>
<totfact> 0.14972969E+05</totfact>
</mgrwt>
</event>
<event>
 8    1  0.9691636E-006  0.2947348E+03  0.7546771E-02  0.1087903E+00
         21   -1    0    0  504  503  0.00000000000E+00  0.00000000000E+00  0.10013372987E+03  0.10013372987E+03  0.00000000000E+00 0.  1.
         21   -1    0    0  503  504 -0.00000000000E+00 -0.00000000000E+00 -0.21688151595E+03  0.21688151595E+03  0.00000000000E+00 0.  1.
         25    2    1    2    0    0 -0.55722337682E+02 -0.11854382674E+02 -0.98199401564E+00  0.13737326439E+03  0.12499977660E+03 0.  0.
         25    2    1    2    0    0  0.55722337682E+02  0.11854382674E+02 -0.11576579206E+03  0.17964198143E+03  0.12499607023E+03 0.  0.
          5    1    3    3  501    0  0.39353181271E+02  0.70692096909E+01  0.15139022613E+01  0.40286827895E+02  0.47000000000E+01 0. -1.
         -5    1    3    3    0  501 -0.95075518953E+02 -0.18923592365E+02 -0.24958962770E+01  0.97086436490E+02  0.47000000000E+01 0. -1.
          5    1    4    4  502    0  0.72955721268E+02  0.23769198054E+02 -0.13197977814E+03  0.15273592858E+03  0.47000000000E+01 0. -1.
         -5    1    4    4    0  502 -0.17233383586E+02 -0.11914815380E+02  0.16213986076E+02  0.26906052847E+02  0.47000000000E+01 0. -1.
<mgrwt>
<rscale>  0 0.29473483E+03</rscale>
<asrwt>0</asrwt>
<pdfrwt beam="1">  1       21 0.15405190E-01 0.29473483E+03</pdfrwt>
<pdfrwt beam="2">  1       21 0.33366386E-01 0.29473483E+03</pdfrwt>
<totfact> 0.31581469E+05</totfact>
</mgrwt>
</event>
<event>
 8    1  0.9691636E-006  0.3484398E+03  0.7546771E-02  0.1063257E+00
         21   -1    0    0  504  503  0.00000000000E+00  0.00000000000E+00  0.18386840171E+03  0.18386840171E+03  0.00000000000E+00 0. -1.
         21   -1    0    0  503  504 -0.00000000000E+00 -0.00000000000E+00 -0.16507768319E+03  0.16507768319E+03  0.00000000000E+00 0. -1.
         25    2    1    2    0    0 -0.10806574099E+03 -0.55221312023E+02  0.85314280454E+01  0.17442525030E+03  0.12499513991E+03 0.  0.
         25    2    1    2    0    0  0.10806574099E+03  0.55221312023E+02  0.10259290479E+02  0.17452083460E+03  0.12499868395E+03 0.  0.
          5    1    3    3  501    0 -0.71436091567E+02  0.13937593913E+02  0.47333072018E+02  0.86947578512E+02  0.47000000000E+01 0. -1.
         -5    1    3    3    0  501 -0.36629649426E+02 -0.69158905936E+02 -0.38801643972E+02  0.87477671792E+02  0.47000000000E+01 0. -1.
          5    1    4    4  502    0  0.12717008553E+03  0.13428435350E+02  0.54566783449E+01  0.12807973637E+03  0.47000000000E+01 0.  1.
         -5    1    4    4    0  502 -0.19104344540E+02  0.41792876673E+02  0.48026121343E+01  0.46441098224E+02  0.47000000000E+01 0.  1.
<mgrwt>
<rscale>  0 0.34843978E+03</rscale>
<asrwt>0</asrwt>
<pdfrwt beam="1">  1       21 0.28287447E-01 0.34843978E+03</pdfrwt>
<pdfrwt beam="2">  1       21 0.25396566E-01 0.34843978E+03</pdfrwt>
<totfact> 0.16851761E+05</totfact>
</mgrwt>
</event>
<event>
 8    1  0.9691636E-006  0.3614358E+03  0.7546771E-02  0.1058017E+00
         21   -1    0    0  504  503  0.00000000000E+00  0.00000000000E+00  0.16771045869E+03  0.16771045869E+03  0.00000000000E+00 0.  1.
         21   -1    0    0  503  504 -0.00000000000E+00 -0.00000000000E+00 -0.19473423727E+03  0.19473423727E+03  0.00000000000E+00 0.  1.
         25    2    1    2    0    0  0.30447076637E+02  0.86098819167E+02 -0.10701286757E+03  0.18819620106E+03  0.12500410045E+03 0.  0.
         25    2    1    2    0    0 -0.30447076637E+02 -0.86098819167E+02  0.79989088991E+02  0.17424849490E+03  0.12499700988E+03 0.  0.
          5    1    3    3  501    0 -0.26293164482E+02 -0.20208158664E+02 -0.16031321711E+02  0.37132108086E+02  0.47000000000E+01 0. -1.
         -5    1    3    3    0  501  0.56740241120E+02  0.10630697783E+03 -0.90981545862E+02  0.15106409297E+03  0.47000000000E+01 0. -1.
          5    1    4    4  502    0 -0.48918923016E+02  0.10390516187E+02  0.48249082715E+01  0.50461803332E+02  0.47000000000E+01 0.  1.
         -5    1    4    4    0  502  0.18471846379E+02 -0.96489335354E+02  0.75164180719E+02  0.12378669157E+03  0.47000000000E+01 0.  1.
<mgrwt>
<rscale>  0 0.36143585E+03</rscale>
<asrwt>0</asrwt>
<pdfrwt beam="1">  1       21 0.25801609E-01 0.36143585E+03</pdfrwt>
<pdfrwt beam="2">  1       21 0.29959113E-01 0.36143585E+03</pdfrwt>
<totfact> 0.14555511E+05</totfact>
</mgrwt>
</event>
<event>
 8    1  0.9691636E-006  0.3557868E+03  0.7546771E-02  0.1060265E+00
         21   -1    0    0  504  503  0.00000000000E+00  0.00000000000E+00  0.11193898135E+03  0.11193898135E+03  0.00000000000E+00 0. -1.
         21   -1    0    0  503  504 -0.00000000000E+00 -0.00000000000E+00 -0.28270807403E+03  0.28270807403E+03  0.00000000000E+00 0. -1.
         25    2    1    2    0    0  0.22880901700E+02 -0.94943449430E+02  0.39226187058E+01  0.15868378156E+03  0.12500944501E+03 0.  0.
         25    2    1    2    0    0 -0.22880901700E+02  0.94943449430E+02 -0.17469171138E+03  0.23596327381E+03  0.12499471313E+03 0.  0.
          5    1    3    3  501    0  0.43584016822E+02 -0.11131311174E+03  0.27757827707E+02  0.12281189831E+03  0.47000000000E+01 0. -1.
         -5    1    3    3    0  501 -0.20703115122E+02  0.16369662311E+02 -0.23835209001E+02  0.35871883252E+02  0.47000000000E+01 0. -1.
          5    1    4    4  502    0 -0.21133603112E+02 -0.57797214332E+01 -0.11833258892E+03  0.12043556768E+03  0.47000000000E+01 0. -1.
         -5    1    4    4    0  502 -0.17472985885E+01  0.10072317086E+03 -0.56359122457E+02  0.11552770614E+03  0.47000000000E+01 0. -1.
<mgrwt>
<rscale>  0 0.35578676E+03</rscale>
<asrwt>0</asrwt>
<pdfrwt beam="1">  1       21 0.17221382E-01 0.35578676E+03</pdfrwt>
<pdfrwt beam="2">  1       21 0.43493549E-01 0.35578676E+03</pdfrwt>
<totfact> 0.14803157E+05</totfact>
</mgrwt>
</event>
<event>
 8    1  0.9691636E-006  0.3248720E+03  0.7546771E-02  0.1073429E+00
         21   -1    0    0  504  503  0.00000000000E+00  0.00000000000E+00  0.33525597067E+02  0.33525597067E+02  0.00000000000E+00 0. -1.
         21   -1    0    0  503  504 -0.00000000000E+00 -0.00000000000E+00 -0.78702427150E+03  0.78702427150E+03  0.00000000000E+00 0. -1.
         25    2    1    2    0    0  0.42422217287E+02  0.92829363955E+02 -0.32999344544E+03  0.36734117017E+03  0.12500770350E+03 0.  0.
         25    2    1    2    0    0 -0.42422217287E+02 -0.92829363955E+02 -0.42350522899E+03  0.45320869840E+03  0.12499803994E+03 0.  0.
          5    1    3    3  501    0  0.41247846327E+02  0.77706286845E+02 -0.33818541254E+03  0.34947262425E+03  0.47000000000E+01 0.  1.
         -5    1    3    3    0  501  0.11743709602E+01  0.15123077110E+02  0.81919670999E+01  0.17868545923E+02  0.47000000000E+01 0.  1.
          5    1    4    4  502    0 -0.51101241099E+02  0.12444485317E+02 -0.10357530778E+03  0.11625891982E+03  0.47000000000E+01 0. -1.
         -5    1    4    4    0  502  0.86790238118E+01 -0.10527384927E+03 -0.31992992121E+03  0.33694977857E+03  0.47000000000E+01 0. -1.
<mgrwt>
<rscale>  0 0.32487203E+03</rscale>
<asrwt>0</asrwt>
<pdfrwt beam="1">  1       21 0.51577849E-02 0.32487203E+03</pdfrwt>
<pdfrwt beam="2">  1       21 0.12108064E+00 0.32487203E+03</pdfrwt>
<totfact> 0.12595114E+05</totfact>
</mgrwt>
</event>
<event>
 8    1  0.9691636E-006  0.3035995E+03  0.7546771E-02  0.1083455E+00
         21   -1    0    0  504  503  0.00000000000E+00  0.00000000000E+00  0.17876767896E+03  0.17876767896E+03  0.00000000000E+00 0. -1.
         21   -1    0    0  503  504 -0.00000000000E+00 -0.00000000000E+00 -0.12890002169E+03  0.12890002169E+03  0.00000000000E+00 0. -1.
         25    2    1    2    0    0  0.80839321055E+02  0.26165503671E+02  0.10642518814E+02  0.15151212769E+03  0.12499212863E+03 0.  0.
         25    2    1    2    0    0 -0.80839321055E+02 -0.26165503671E+02  0.39225138449E+02  0.15615557296E+03  0.12500528817E+03 0.  0.
          5    1    3    3  501    0  0.79722946075E+02  0.69662226806E+02  0.16863073547E+02  0.10730809487E+03  0.47000000000E+01 0.  1.
         -5    1    3    3    0  501  0.11163749799E+01 -0.43496723136E+02 -0.62205547326E+01  0.44204032823E+02  0.47000000000E+01 0.  1.
          5    1    4    4  502    0 -0.15920654941E+02  0.10199227734E+02  0.72089354818E+02  0.74675675948E+02  0.47000000000E+01 0.  1.
         -5    1    4    4    0  502 -0.64918666113E+02 -0.36364731405E+02 -0.32864216369E+02  0.81479897015E+02  0.47000000000E+01 0.  1.
<mgrwt>
<rscale>  0 0.30359946E+03</rscale>
<asrwt>0</asrwt>
<pdfrwt beam="1">  1       21 0.27502720E-01 0.30359946E+03</pdfrwt>
<pdfrwt beam="2">  1       21 0.19830772E-01 0.30359946E+03</pdfrwt>
<totfact> 0.28828074E+05</totfact>
</mgrwt>
</event>
<event>
 8    1  0.9691636E-006  0.3635669E+03  0.7546771E-02  0.1057180E+00
         21   -1    0    0  504  503  0.00000000000E+00  0.00000000000E+00  0.12311348993E+04  0.12311348993E+04  0.00000000000E+00 0. -1.
         21   -1    0    0  503  504 -0.00000000000E+00 -0.00000000000E+00 -0.26841263686E+02  0.26841263686E+02  0.00000000000E+00 0. -1.
         25    2    1    2    0    0 -0.19966702571E+02 -0.50388323504E+02  0.10185500710E+04  0.10276218748E+04  0.12499927194E+03 0.  0.
         25    2    1    2    0    0  0.19966702571E+02  0.50388323504E+02  0.18574356458E+03  0.23035428819E+03  0.12499909580E+03 0.  0.
          5    1    3    3  501    0 -0.28564976796E+02 -0.22171215076E+02  0.73001825514E+02  0.81601943639E+02  0.47000000000E+01 0. -1.
         -5    1    3    3    0  501  0.85982742242E+01 -0.28217108428E+02  0.94554824552E+03  0.94601993115E+03  0.47000000000E+01 0. -1.
          5    1    4    4  502    0 -0.78482913939E+01  0.88410600893E+02  0.12293347288E+03  0.15169956751E+03  0.47000000000E+01 0.  1.
         -5    1    4    4    0  502  0.27814993965E+02 -0.38022277388E+02  0.62810091697E+02  0.78654720685E+02  0.47000000000E+01 0.  1.
<mgrwt>
<rscale>  0 0.36356687E+03</rscale>
<asrwt>0</asrwt>
<pdfrwt beam="1">  1       21 0.18940532E+00 0.36356687E+03</pdfrwt>
<pdfrwt beam="2">  1       21 0.41294261E-02 0.36356687E+03</pdfrwt>
<totfact> 0.54014921E+04</totfact>
</mgrwt>
</event>
<event>
 8    1  0.9691636E-006  0.2861889E+03  0.7546771E-02  0.1092356E+00
         21   -1    0    0  504  503  0.00000000000E+00  0.00000000000E+00  0.37454453418E+02  0.37454453418E+02  0.00000000000E+00 0.  1.
         21   -1    0    0  503  504 -0.00000000000E+00 -0.00000000000E+00 -0.54669122297E+03  0.54669122297E+03  0.00000000000E+00 0.  1.
         25    2    1    2    0    0 -0.36178394685E+02  0.49307471692E+02 -0.32266077863E+03  0.35139216233E+03  0.12500548260E+03 0.  0.
         25    2    1    2    0    0  0.36178394685E+02 -0.49307471692E+02 -0.18657599092E+03  0.23275351405E+03  0.12499397948E+03 0.  0.
          5    1    3    3  501    0  0.19328824367E+02  0.55072850340E+01 -0.24650146243E+03  0.24736409323E+03  0.47000000000E+01 0. -1.
         -5    1    3    3    0  501 -0.55507219051E+02  0.43800186658E+02 -0.76159316201E+02  0.10402806911E+03  0.47000000000E+01 0. -1.
          5    1    4    4  502    0  0.55914149074E+01 -0.14967079110E+02  0.17116262828E+02  0.23881663069E+02  0.47000000000E+01 0.  1.
         -5    1    4    4    0  502  0.30586979777E+02 -0.34340392582E+02 -0.20369225375E+03  0.20887185098E+03  0.47000000000E+01 0.  1.
<mgrwt>
<rscale>  0 0.28618890E+03</rscale>
<asrwt>0</asrwt>
<pdfrwt beam="1">  1       21 0.57622235E-02 0.28618890E+03</pdfrwt>
<pdfrwt beam="2">  1       21 0.84106344E-01 0.28618890E+03</pdfrwt>
<totfact> 0.25281632E+05</totfact>
</mgrwt>
</event>
<event>
 8    1  0.9691636E-006  0.3763335E+03  0.7546771E-02  0.1052297E+00
         21   -1    0    0  504  503  0.00000000000E+00  0.00000000000E+00  0.35963771328E+03  0.35963771328E+03  0.00000000000E+00 0.  1.
         21   -1    0    0  503  504 -0.00000000000E+00 -0.00000000000E+00 -0.98451107797E+02  0.98451107797E+02  0.00000000000E+00 0.  1.
         25    2    1    2    0    0 -0.53840129448E+02  0.12303312431E+03  0.79711052873E+02  0.20003797864E+03  0.12500172692E+03 0.  0.
         25    2    1    2    0    0  0.53840129448E+02 -0.12303312431E+03  0.18147555261E+03  0.25805084244E+03  0.12498380643E+03 0.  0.
          5    1    3    3  501    0 -0.28035290959E+02 -0.21518699329E+02  0.79152266645E+01  0.36520853948E+02  0.47000000000E+01 0.  1.
         -5    1    3    3    0  501 -0.25804838490E+02  0.14455182364E+03  0.71795826208E+02  0.16351712469E+03  0.47000000000E+01 0.  1.
          5    1    4    4  502    0  0.51138757335E+02  0.46623677017E+01  0.78484604470E+02  0.93908643442E+02  0.47000000000E+01 0.  1.
         -5    1    4    4    0  502  0.27013721130E+01 -0.12769549201E+03  0.10299094814E+03  0.16414219900E+03  0.47000000000E+01 0.  1.
<mgrwt>
<rscale>  0 0.37633353E+03</rscale>
<asrwt>0</asrwt>
<pdfrwt beam="1">  1       21 0.55328878E-01 0.37633353E+03</pdfrwt>
<pdfrwt beam="2">  1       21 0.15146324E-01 0.37633353E+03</pdfrwt>
<totfact> 0.11254665E+05</totfact>
</mgrwt>
</event>
<event>
 8    1  0.9691636E-006  0.2910848E+03  0.7546771E-02  0.1089784E+00
         21   -1    0    0  504  503  0.00000000000E+00  0.00000000000E+00  0.85276686801E+02  0.85276686801E+02  0.00000000000E+00 0. -1.
         21   -1    0    0  503  504 -0.00000000000E+00 -0.00000000000E+00 -0.24839835666E+03  0.24839835666E+03  0.00000000000E+00 0. -1.
         25    2    1    2    0    0 -0.45781629837E+02 -0.41083385083E+02 -0.12984440755E+03  0.19044253767E+03  0.12499995129E+03 0.  0.
         25    2    1    2    0    0  0.45781629837E+02  0.41083385083E+02 -0.33277262308E+02  0.14323250579E+03  0.12499748944E+03 0.  0.
          5    1    3    3  501    0 -0.16348093086E+02 -0.76414660036E+02 -0.36703728903E+02  0.86462212158E+02  0.47000000000E+01 0.  1.
         -5    1    3    3    0  501 -0.29433536751E+02  0.35331274953E+02 -0.93140678646E+02  0.10398032551E+03  0.47000000000E+01 0.  1.
          5    1    4    4  502    0  0.51213566300E+02  0.32428628397E+02  0.37588153183E+02  0.71480099137E+02  0.47000000000E+01 0.  1.
         -5    1    4    4    0  502 -0.54319364631E+01  0.86547566857E+01 -0.70865415491E+02  0.71752406648E+02  0.47000000000E+01 0.  1.
<mgrwt>
<rscale>  0 0.29108479E+03</rscale>
<asrwt>0</asrwt>
<pdfrwt beam="1">  1       21 0.13119490E-01 0.29108479E+03</pdfrwt>
<pdfrwt beam="2">  1       21 0.38215131E-01 0.29108479E+03</pdfrwt>
<totfact> 0.32284451E+05</totfact>
</mgrwt>
</event>
<event>
 8    1  0.9691636E-006  0.3126540E+03  0.7546771E-02  0.1079081E+00
         21   -1    0    0  504  503  0.00000000000E+00  0.00000000000E+00  0.77902184137E+02  0.77902184137E+02  0.00000000000E+00 0. -1.
         21   -1    0    0  503  504 -0.00000000000E+00 -0.00000000000E+00 -0.31370267759E+03  0.31370267759E+03  0.00000000000E+00 0. -1.
         25    2    1    2    0    0  0.62252790201E+02  0.68014710194E+02 -0.14001946612E+03  0.20912171222E+03  0.12500011575E+03 0.  0.
         25    2    1    2    0    0 -0.62252790201E+02 -0.68014710194E+02 -0.95781027334E+02  0.18248314951E+03  0.12499873587E+03 0.  0.
          5    1    3    3  501    0  0.67979195230E+02 -0.11208912644E+02 -0.95785666195E+02  0.11808384545E+03  0.47000000000E+01 0. -1.
         -5    1    3    3    0  501 -0.57264050293E+01  0.79223622838E+02 -0.44233799925E+02  0.91037866770E+02  0.47000000000E+01 0. -1.
          5    1    4    4  502    0  0.15231810324E+02  0.27553076325E+02 -0.14709374479E+02  0.35066162583E+02  0.47000000000E+01 0.  1.
         -5    1    4    4    0  502 -0.77484600525E+02 -0.95567786519E+02 -0.81071652855E+02  0.14741698693E+03  0.47000000000E+01 0.  1.
<mgrwt>
<rscale>  0 0.31265395E+03</rscale>
<asrwt>0</asrwt>
<pdfrwt beam="1">  1       21 0.11984952E-01 0.31265395E+03</pdfrwt>
<pdfrwt beam="2">  1       21 0.48261950E-01 0.31265395E+03</pdfrwt>
<totfact> 0.23401972E+05</totfact>
</mgrwt>
</event>
<event>
 8    1  0.9691636E-006  0.2664152E+03  0.7546771E-02  0.1103349E+00
         21   -1    0    0  504  503  0.00000000000E+00  0.00000000000E+00  0.39261082200E+03  0.39261082200E+03  0.00000000000E+00 0. -1.
         21   -1    0    0  503  504 -0.00000000000E+00 -0.00000000000E+00 -0.45195553031E+02  0.45195553031E+02  0.00000000000E+00 0. -1.
         25    2    1    2    0    0  0.21780126114E+02  0.20375696772E+02  0.11605575650E+03  0.17315359779E+03  0.12499474748E+03 0.  0.
         25    2    1    2    0    0 -0.21780126114E+02 -0.20375696772E+02  0.23135951247E+03  0.26465277724E+03  0.12499730229E+03 0.  0.
          5    1    3    3  501    0  0.22657654645E+02 -0.46298911891E+02  0.18649919860E+02  0.55016979807E+02  0.47000000000E+01 0. -1.
         -5    1    3    3    0  501 -0.87752853116E+00  0.66674608663E+02  0.97405836638E+02  0.11813661798E+03  0.47000000000E+01 0. -1.
          5    1    4    4  502    0 -0.38445625721E+02 -0.63609588122E+02  0.95968096679E+02  0.12147514733E+03  0.47000000000E+01 0. -1.
         -5    1    4    4    0  502  0.16665499608E+02  0.43233891350E+02  0.13539141579E+03  0.14317762992E+03  0.47000000000E+01 0. -1.
<mgrwt>
<rscale>  0 0.26641519E+03</rscale>
<asrwt>0</asrwt>
<pdfrwt beam="1">  1       21 0.60401663E-01 0.26641519E+03</pdfrwt>
<pdfrwt beam="2">  1       21 0.69531622E-02 0.26641519E+03</pdfrwt>
<totfact> 0.38432995E+05</totfact>
</mgrwt>
</event>
<event>
 8    1  0.9691636E-006  0.2645548E+03  0.7546771E-02  0.1104437E+00
         21   -1    0    0  504  503  0.00000000000E+00  0.00000000000E+00  0.10766024556E+03  0.10766024556E+03  0.00000000000E+00 0. -1.
         21   -1    0    0  503  504 -0.00000000000E+00 -0.00000000000E+00 -0.16252343353E+03  0.16252343353E+03  0.00000000000E+00 0. -1.
         25    2    1    2    0    0  0.15552046109E+02 -0.32576473007E+01 -0.68643341421E+02  0.14349062167E+03  0.12500068712E+03 0.  0.
         25    2    1    2    0    0 -0.15552046109E+02  0.32576473007E+01  0.13780153455E+02  0.12669305742E+03  0.12493502217E+03 0.  0.
          5    1    3    3  501    0 -0.46991070207E+02 -0.28698025042E+02 -0.15375812126E+02  0.57360639110E+02  0.47000000000E+01 0. -1.
         -5    1    3    3    0  501  0.62543116316E+02  0.25440377741E+02 -0.53267529294E+02  0.86129982557E+02  0.47000000000E+01 0. -1.
          5    1    4    4  502    0 -0.11608728911E+02 -0.54510941698E+02  0.33676311852E+02  0.65286976739E+02  0.47000000000E+01 0.  1.
         -5    1    4    4    0  502 -0.39433171981E+01  0.57768588999E+02 -0.19896158397E+02  0.61406080679E+02  0.47000000000E+01 0.  1.
<mgrwt>
<rscale>  0 0.26455482E+03</rscale>
<asrwt>0</asrwt>
<pdfrwt beam="1">  1       21 0.16563115E-01 0.26455482E+03</pdfrwt>
<pdfrwt beam="2">  1       21 0.25003605E-01 0.26455482E+03</pdfrwt>
<totfact> 0.48870992E+05</totfact>
</mgrwt>
</event>
<event>
 8    1  0.9691636E-006  0.3149318E+03  0.7546771E-02  0.1078006E+00
         21   -1    0    0  504  503  0.00000000000E+00  0.00000000000E+00  0.14944208503E+03  0.14944208503E+03  0.00000000000E+00 0.  1.
         21   -1    0    0  503  504 -0.00000000000E+00 -0.00000000000E+00 -0.16592050941E+03  0.16592050941E+03  0.00000000000E+00 0.  1.
         25    2    1    2    0    0 -0.74834287648E+00 -0.38636848286E+02 -0.95971024302E+02  0.16226780390E+03  0.12500814620E+03 0.  0.
         25    2    1    2    0    0  0.74834287648E+00  0.38636848286E+02  0.79492599919E+02  0.15309479054E+03  0.12500230152E+03 0.  0.
          5    1    3    3  501    0  0.60820355880E+02 -0.73314173336E+01 -0.49308741498E+02  0.78780120319E+02  0.47000000000E+01 0. -1.
         -5    1    3    3    0  501 -0.61568698756E+02 -0.31305430952E+02 -0.46662282805E+02  0.83487683584E+02  0.47000000000E+01 0. -1.
          5    1    4    4  502    0  0.24561726905E+02 -0.39447161398E+02  0.15332368355E+02  0.49158198607E+02  0.47000000000E+01 0.  1.
         -5    1    4    4    0  502 -0.23813384029E+02  0.78084009684E+02  0.64160231564E+02  0.10393659193E+03  0.47000000000E+01 0.  1.
<mgrwt>
<rscale>  0 0.31493178E+03</rscale>
<asrwt>0</asrwt>
<pdfrwt beam="1">  1       21 0.22991090E-01 0.31493178E+03</pdfrwt>
<pdfrwt beam="2">  1       21 0.25526232E-01 0.31493178E+03</pdfrwt>
<totfact> 0.25103581E+05</totfact>
</mgrwt>
</event>
<event>
 8    1  0.9691636E-006  0.3084316E+03  0.7546771E-02  0.1081100E+00
         21   -1    0    0  504  503  0.00000000000E+00  0.00000000000E+00  0.27431611822E+03  0.27431611822E+03  0.00000000000E+00 0. -1.
         21   -1    0    0  503  504 -0.00000000000E+00 -0.00000000000E+00 -0.86697452846E+02  0.86697452846E+02  0.00000000000E+00 0. -1.
         25    2    1    2    0    0  0.26109361855E+02 -0.85796086073E+02  0.10630864708E+03  0.18700329076E+03  0.12500414053E+03 0.  0.
         25    2    1    2    0    0 -0.26109361855E+02  0.85796086073E+02  0.81310018291E+02  0.17401028030E+03  0.12500236564E+03 0.  0.
          5    1    3    3  501    0  0.55027852060E+02 -0.42244618777E+00  0.71304926721E+02  0.90192713330E+02  0.47000000000E+01 0.  1.
         -5    1    3    3    0  501 -0.28918490205E+02 -0.85373639886E+02  0.35003720360E+02  0.96810577429E+02  0.47000000000E+01 0.  1.
          5    1    4    4  502    0 -0.50245463004E+02  0.10029498653E+03  0.31517110672E+02  0.11661521830E+03  0.47000000000E+01 0. -1.
         -5    1    4    4    0  502  0.24136101149E+02 -0.14498900452E+02  0.49792907619E+02  0.57395062001E+02  0.47000000000E+01 0. -1.
<mgrwt>
<rscale>  0 0.30843157E+03</rscale>
<asrwt>0</asrwt>
<pdfrwt beam="1">  1       21 0.42202479E-01 0.30843157E+03</pdfrwt>
<pdfrwt beam="2">  1       21 0.13338070E-01 0.30843157E+03</pdfrwt>
<totfact> 0.25490680E+05</totfact>
</mgrwt>
</event>
<event>
 8    1  0.9691636E-006  0.2543595E+03  0.7546771E-02  0.1110580E+00
         21   -1    0    0  504  503  0.00000000000E+00  0.00000000000E+00  0.80083383157E+02  0.80083383157E+02  0.00000000000E+00 0. -1.
         21   -1    0    0  503  504 -0.00000000000E+00 -0.00000000000E+00 -0.20197315693E+03  0.20197315693E+03  0.00000000000E+00 0. -1.
         25    2    1    2    0    0  0.17068913492E+02 -0.60498134668E+01 -0.44389433655E+02  0.13387767965E+03  0.12499945295E+03 0.  0.
         25    2    1    2    0    0 -0.17068913492E+02  0.60498134668E+01 -0.77500340122E+02  0.14817886044E+03  0.12499089531E+03 0.  0.
          5    1    3    3  501    0  0.20922987515E+02 -0.64201230302E+02 -0.20579002409E+02  0.70747118096E+02  0.47000000000E+01 0.  1.
         -5    1    3    3    0  501 -0.38540740227E+01  0.58151416835E+02 -0.23810431246E+02  0.63130561558E+02  0.47000000000E+01 0.  1.
          5    1    4    4  502    0  0.24358007091E+02  0.52184066130E+02 -0.14314231348E+02  0.59527107156E+02  0.47000000000E+01 0. -1.
         -5    1    4    4    0  502 -0.41426920583E+02 -0.46134252663E+02 -0.63186108774E+02  0.88651753281E+02  0.47000000000E+01 0. -1.
<mgrwt>
<rscale>  0 0.25435954E+03</rscale>
<asrwt>0</asrwt>
<pdfrwt beam="1">  1       21 0.12320521E-01 0.25435954E+03</pdfrwt>
<pdfrwt beam="2">  1       21 0.31072793E-01 0.25435954E+03</pdfrwt>
<totfact> 0.55059141E+05</totfact>
</mgrwt>
</event>
<event>
 8    1  0.9691636E-006  0.3081394E+03  0.7546771E-02  0.1081241E+00
         21   -1    0    0  504  503  0.00000000000E+00  0.00000000000E+00  0.13094989584E+03  0.13094989584E+03  0.00000000000E+00 0.  1.
         21   -1    0    0  503  504 -0.00000000000E+00 -0.00000000000E+00 -0.18127138563E+03  0.18127138563E+03  0.00000000000E+00 0.  1.
         25    2    1    2    0    0 -0.36556234390E+02  0.33008290380E+02  0.51219180108E+02  0.14380847873E+03  0.12502627179E+03 0.  0.
         25    2    1    2    0    0  0.36556234390E+02 -0.33008290380E+02 -0.10154066989E+03  0.16841280274E+03  0.12500583578E+03 0.  0.
          5    1    3    3  501    0 -0.44450981553E+02  0.25573366625E+02 -0.31421747348E+02  0.60326636306E+02  0.47000000000E+01 0. -1.
         -5    1    3    3    0  501  0.78947471632E+01  0.74349237545E+01  0.82640927455E+02  0.83481842425E+02  0.47000000000E+01 0. -1.
          5    1    4    4  502    0 -0.65383272045E+01 -0.58208780589E+02 -0.41960671255E+01  0.58912722222E+02  0.47000000000E+01 0. -1.
         -5    1    4    4    0  502  0.43094561594E+02  0.25200490210E+02 -0.97344602764E+02  0.10950008052E+03  0.47000000000E+01 0. -1.
<mgrwt>
<rscale>  0 0.30813938E+03</rscale>
<asrwt>0</asrwt>
<pdfrwt beam="1">  1       21 0.20146138E-01 0.30813938E+03</pdfrwt>
<pdfrwt beam="2">  1       21 0.27887906E-01 0.30813938E+03</pdfrwt>
<totfact> 0.27208426E+05</totfact>
</mgrwt>
</event>
<event>
 8    1  0.9691636E-006  0.3645260E+03  0.7546771E-02  0.1056806E+00
         21   -1    0    0  504  503  0.00000000000E+00  0.00000000000E+00  0.71073967301E+03  0.71073967301E+03  0.00000000000E+00 0. -1.
         21   -1    0    0  503  504 -0.00000000000E+00 -0.00000000000E+00 -0.46739769860E+02  0.46739769860E+02  0.00000000000E+00 0. -1.
         25    2    1    2    0    0 -0.94681110363E+02  0.76781005594E+02  0.22331573161E+03  0.28346865079E+03  0.12499889806E+03 0.  0.
         25    2    1    2    0    0  0.94681110363E+02 -0.76781005594E+02  0.44068417154E+03  0.47401079208E+03  0.12499542584E+03 0.  0.
          5    1    3    3  501    0  0.15866698793E+02  0.32244597370E+02  0.12103637980E+03  0.12634619672E+03  0.47000000000E+01 0. -1.
         -5    1    3    3    0  501 -0.11054780916E+03  0.44536408224E+02  0.10227935180E+03  0.15712245407E+03  0.47000000000E+01 0. -1.
          5    1    4    4  502    0 -0.17292653586E+02  0.17731706865E+02  0.39296767688E+02  0.46688063218E+02  0.47000000000E+01 0. -1.
         -5    1    4    4    0  502  0.11197376395E+03 -0.94512712459E+02  0.40138740385E+03  0.42732272886E+03  0.47000000000E+01 0. -1.
<mgrwt>
<rscale>  0 0.36452604E+03</rscale>
<asrwt>0</asrwt>
<pdfrwt beam="1">  1       21 0.10934456E+00 0.36452604E+03</pdfrwt>
<pdfrwt beam="2">  1       21 0.71907343E-02 0.36452604E+03</pdfrwt>
<totfact> 0.90256541E+04</totfact>
</mgrwt>
</event>
<event>
 8    1  0.9691636E-006  0.3051145E+03  0.7546771E-02  0.1082712E+00
         21   -1    0    0  504  503  0.00000000000E+00  0.00000000000E+00  0.86296767310E+03  0.86296767310E+03  0.00000000000E+00 0.  1.
         21   -1    0    0  503  504 -0.00000000000E+00 -0.00000000000E+00 -0.26969396885E+02  0.26969396885E+02  0.00000000000E+00 0.  1.
         25    2    1    2    0    0  0.53527779564E+01  0.43949973359E+02  0.19808709388E+03  0.23837833729E+03  0.12500193013E+03 0.  0.
         25    2    1    2    0    0 -0.53527779564E+01 -0.43949973359E+02  0.63791118233E+03  0.65155873270E+03  0.12505140231E+03 0.  0.
          5    1    3    3  501    0 -0.19366419501E+02  0.66076198536E+02  0.19238512456E+03  0.20438994195E+03  0.47000000000E+01 0.  1.
         -5    1    3    3    0  501  0.24719197457E+02 -0.22126225177E+02  0.57019693196E+01  0.33988395337E+02  0.47000000000E+01 0.  1.
          5    1    4    4  502    0 -0.77117203932E+01 -0.29882396278E+02  0.63559695401E+03  0.63636310875E+03  0.47000000000E+01 0.  1.
         -5    1    4    4    0  502  0.23589424369E+01 -0.14067577081E+02  0.23142283280E+01  0.15195623946E+02  0.47000000000E+01 0.  1.
<mgrwt>
<rscale>  0 0.30511452E+03</rscale>
<asrwt>0</asrwt>
<pdfrwt beam="1">  1       21 0.13276424E+00 0.30511452E+03</pdfrwt>
<pdfrwt beam="2">  1       21 0.41491386E-02 0.30511452E+03</pdfrwt>
<totfact> 0.14514875E+05</totfact>
</mgrwt>
</event>
<event>
 8    1  0.9691636E-006  0.2983099E+03  0.7546771E-02  0.1086089E+00
         21   -1    0    0  504  503  0.00000000000E+00  0.00000000000E+00  0.16257567698E+03  0.16257567698E+03  0.00000000000E+00 0. -1.
         21   -1    0    0  503  504 -0.00000000000E+00 -0.00000000000E+00 -0.13684214012E+03  0.13684214012E+03  0.00000000000E+00 0. -1.
         25    2    1    2    0    0  0.62147507675E+02  0.33082450359E+02  0.53864317685E+02  0.15324340774E+03  0.12500166425E+03 0.  0.
         25    2    1    2    0    0 -0.62147507675E+02 -0.33082450359E+02 -0.28130780829E+02  0.14617440935E+03  0.12497542114E+03 0.  0.
          5    1    3    3  501    0  0.30620035475E+02  0.50157927927E+02  0.86402030045E+02  0.10459830353E+03  0.47000000000E+01 0. -1.
         -5    1    3    3    0  501  0.31527472201E+02 -0.17075477568E+02 -0.32537712361E+02  0.48645104206E+02  0.47000000000E+01 0. -1.
          5    1    4    4  502    0 -0.85405484404E+01 -0.21164891845E+01 -0.70375586967E+02  0.71079066786E+02  0.47000000000E+01 0.  1.
         -5    1    4    4    0  502 -0.53606959235E+02 -0.30965961174E+02  0.42244806138E+02  0.75095342569E+02  0.47000000000E+01 0.  1.
<mgrwt>
<rscale>  0 0.29830993E+03</rscale>
<asrwt>0</asrwt>
<pdfrwt beam="1">  1       21 0.25011643E-01 0.29830993E+03</pdfrwt>
<pdfrwt beam="2">  1       21 0.21052637E-01 0.29830993E+03</pdfrwt>
<totfact> 0.30981631E+05</totfact>
</mgrwt>
</event>
<event>
 8    1  0.9691636E-006  0.4745449E+03  0.7546771E-02  0.1020645E+00
         21   -1    0    0  504  503  0.00000000000E+00  0.00000000000E+00  0.19137164485E+04  0.19137164485E+04  0.00000000000E+00 0. -1.
         21   -1    0    0  503  504 -0.00000000000E+00 -0.00000000000E+00 -0.29418259000E+02  0.29418259000E+02  0.00000000000E+00 0. -1.
         25    2    1    2    0    0 -0.66431564193E+02 -0.17016861053E+03  0.59224403827E+03  0.63225719641E+03  0.12500261124E+03 0.  0.
         25    2    1    2    0    0  0.66431564193E+02  0.17016861053E+03  0.12920541512E+04  0.13108775110E+04  0.12500164254E+03 0.  0.
          5    1    3    3  501    0  0.58941700007E+01  0.32460425310E+01  0.16850914833E+03  0.16870892419E+03  0.47000000000E+01 0.  1.
         -5    1    3    3    0  501 -0.72325734194E+02 -0.17341465306E+03  0.42373488994E+03  0.46354827222E+03  0.47000000000E+01 0.  1.
          5    1    4    4  502    0  0.62735789056E+02  0.12541798317E+03  0.12017765903E+04  0.12099398798E+04  0.47000000000E+01 0.  1.
         -5    1    4    4    0  502  0.36957751366E+01  0.44750627358E+02  0.90277560900E+02  0.10093763126E+03  0.47000000000E+01 0.  1.
<mgrwt>
<rscale>  0 0.47454486E+03</rscale>
<asrwt>0</asrwt>
<pdfrwt beam="1">  1       21 0.29441782E+00 0.47454486E+03</pdfrwt>
<pdfrwt beam="2">  1       21 0.45258875E-02 0.47454486E+03</pdfrwt>
<totfact> 0.97610523E+03</totfact>
</mgrwt>
</event>
<event>
 8    1  0.9691636E-006  0.3025612E+03  0.7546771E-02  0.1083967E+00
         21   -1    0    0  504  503  0.00000000000E+00  0.00000000000E+00  0.90333894246E+02  0.90333894246E+02  0.00000000000E+00 0. -1.
         21   -1    0    0  503  504 -0.00000000000E+00 -0.00000000000E+00 -0.25334703563E+03  0.25334703563E+03  0.00000000000E+00 0. -1.
         25    2    1    2    0    0 -0.73833373842E+02  0.12760124534E+02 -0.35413028855E+02  0.14997770231E+03  0.12500016283E+03 0.  0.
         25    2    1    2    0    0  0.73833373842E+02 -0.12760124534E+02 -0.12760011253E+03  0.19370322756E+03  0.12499985512E+03 0.  0.
          5    1    3    3  501    0 -0.10126055968E+03 -0.82462960191E+01 -0.48576831359E+02  0.11270980831E+03  0.47000000000E+01 0. -1.
         -5    1    3    3    0  501  0.27427185835E+02  0.21006420553E+02  0.13163802504E+02  0.37267894006E+02  0.47000000000E+01 0. -1.
          5    1    4    4  502    0  0.29510213384E+02 -0.43427858404E+02 -0.12923763008E+03  0.13957537967E+03  0.47000000000E+01 0. -1.
         -5    1    4    4    0  502  0.44323160458E+02  0.30667733870E+02  0.16375175576E+01  0.54127847893E+02  0.47000000000E+01 0. -1.
<mgrwt>
<rscale>  0 0.30256123E+03</rscale>
<asrwt>0</asrwt>
<pdfrwt beam="1">  1       21 0.13897522E-01 0.30256123E+03</pdfrwt>
<pdfrwt beam="2">  1       21 0.38976467E-01 0.30256123E+03</pdfrwt>
<totfact> 0.27860632E+05</totfact>
</mgrwt>
</event>
<event>
 8    1  0.9691636E-006  0.3351166E+03  0.7546771E-02  0.1068895E+00
         21   -1    0    0  504  503  0.00000000000E+00  0.00000000000E+00  0.89726137803E+02  0.89726137803E+02  0.00000000000E+00 0.  1.
         21   -1    0    0  503  504 -0.00000000000E+00 -0.00000000000E+00 -0.31290538819E+03  0.31290538819E+03  0.00000000000E+00 0.  1.
         25    2    1    2    0    0  0.77266903800E+02 -0.70635961800E+02 -0.65306362549E+02  0.17567542220E+03  0.12504926810E+03 0.  0.
         25    2    1    2    0    0 -0.77266903800E+02  0.70635961800E+02 -0.15787288784E+03  0.22695610380E+03  0.12500244323E+03 0.  0.
          5    1    3    3  501    0  0.58243100693E+02  0.14804085021E+02  0.87647824096E+01  0.60912487409E+02  0.47000000000E+01 0.  1.
         -5    1    3    3    0  501  0.19023803107E+02 -0.85440046822E+02 -0.74071144959E+02  0.11476293479E+03  0.47000000000E+01 0.  1.
          5    1    4    4  502    0 -0.51362977535E+02  0.17596872330E+00  0.55303113272E+00  0.51580832387E+02  0.47000000000E+01 0. -1.
         -5    1    4    4    0  502 -0.25903926264E+02  0.70459993077E+02 -0.15842591897E+03  0.17537527141E+03  0.47000000000E+01 0. -1.
<mgrwt>
<rscale>  0 0.33511665E+03</rscale>
<asrwt>0</asrwt>
<pdfrwt beam="1">  1       21 0.13804021E-01 0.33511665E+03</pdfrwt>
<pdfrwt beam="2">  1       21 0.48139290E-01 0.33511665E+03</pdfrwt>
<totfact> 0.18107820E+05</totfact>
</mgrwt>
</event>
<event>
 8    1  0.9691636E-006  0.2574111E+03  0.7546771E-02  0.1108709E+00
         21   -1    0    0  504  503  0.00000000000E+00  0.00000000000E+00  0.23178398641E+03  0.23178398641E+03  0.00000000000E+00 0.  1.
         21   -1    0    0  503  504 -0.00000000000E+00 -0.00000000000E+00 -0.71467931803E+02  0.71467931803E+02  0.00000000000E+00 0.  1.
         25    2    1    2    0    0 -0.87394418219E+01 -0.20348070004E+02  0.55185087044E+02  0.13842313087E+03  0.12500059013E+03 0.  0.
         25    2    1    2    0    0  0.87394418219E+01  0.20348070004E+02  0.10513096756E+03  0.16482878734E+03  0.12500234797E+03 0.  0.
          5    1    3    3  501    0  0.49804413027E+02 -0.12263645281E+02 -0.76065732160E+01  0.52065598130E+02  0.47000000000E+01 0. -1.
         -5    1    3    3    0  501 -0.58543854849E+02 -0.80844247231E+01  0.62791660260E+02  0.86357532745E+02  0.47000000000E+01 0. -1.
          5    1    4    4  502    0 -0.47476019020E+02 -0.25348730209E+02  0.50738909784E+02  0.74115163572E+02  0.47000000000E+01 0. -1.
         -5    1    4    4    0  502  0.56215460842E+02  0.45696800213E+02  0.54392057781E+02  0.90713623767E+02  0.47000000000E+01 0. -1.
<mgrwt>
<rscale>  0 0.25741113E+03</rscale>
<asrwt>0</asrwt>
<pdfrwt beam="1">  1       21 0.35659075E-01 0.25741113E+03</pdfrwt>
<pdfrwt beam="2">  1       21 0.10995067E-01 0.25741113E+03</pdfrwt>
<totfact> 0.51362917E+05</totfact>
</mgrwt>
</event>
<event>
 8    1  0.9691636E-006  0.3881167E+03  0.7546771E-02  0.1047974E+00
         21   -1    0    0  504  503  0.00000000000E+00  0.00000000000E+00  0.18334298337E+04  0.18334298337E+04  0.00000000000E+00 0. -1.
         21   -1    0    0  503  504 -0.00000000000E+00 -0.00000000000E+00 -0.20539997533E+02  0.20539997533E+02  0.00000000000E+00 0. -1.
         25    2    1    2    0    0 -0.52653179259E+02  0.10833642799E+03  0.49214230870E+03  0.52186410050E+03  0.12501579287E+03 0.  0.
         25    2    1    2    0    0  0.52653179259E+02 -0.10833642799E+03  0.13207475275E+04  0.13321057308E+04  0.12499003009E+03 0.  0.
          5    1    3    3  501    0  0.63808113707E+01  0.48737674977E+02  0.37197329392E+03  0.37523632168E+03  0.47000000000E+01 0. -1.
         -5    1    3    3    0  501 -0.59033990630E+02  0.59598753009E+02  0.12016901478E+03  0.14662777882E+03  0.47000000000E+01 0. -1.
          5    1    4    4  502    0  0.85638141256E+02 -0.53870534392E+02  0.99634632408E+03  0.10014809101E+04  0.47000000000E+01 0. -1.
         -5    1    4    4    0  502 -0.32984961997E+02 -0.54465893593E+02  0.32440120341E+03  0.33062482069E+03  0.47000000000E+01 0. -1.
<mgrwt>
<rscale>  0 0.38811671E+03</rscale>
<asrwt>0</asrwt>
<pdfrwt beam="1">  1       21 0.28206600E+00 0.38811671E+03</pdfrwt>
<pdfrwt beam="2">  1       21 0.31600011E-02 0.38811671E+03</pdfrwt>
<totfact> 0.22139595E+04</totfact>
</mgrwt>
</event>
<event>
 8    1  0.9691636E-006  0.2635311E+03  0.7546771E-02  0.1105040E+00
         21   -1    0    0  504  503  0.00000000000E+00  0.00000000000E+00  0.17596108260E+04  0.17596108260E+04  0.00000000000E+00 0. -1.
         21   -1    0    0  503  504 -0.00000000000E+00 -0.00000000000E+00 -0.98670418298E+01  0.98670418298E+01  0.00000000000E+00 0. -1.
         25    2    1    2    0    0  0.74772807905E+01 -0.28461125760E+02  0.10731306299E+04  0.10807864519E+04  0.12499624083E+03 0.  0.
         25    2    1    2    0    0 -0.74772807905E+01  0.28461125760E+02  0.67661315426E+03  0.68869141599E+03  0.12499824212E+03 0.  0.
          5    1    3    3  501    0 -0.39490865754E+02  0.46914636494E+01  0.82771942237E+03  0.82868755902E+03  0.47000000000E+01 0.  1.
         -5    1    3    3    0  501  0.46968146544E+02 -0.33152589409E+02  0.24541120758E+03  0.25209889286E+03  0.47000000000E+01 0.  1.
          5    1    4    4  502    0 -0.49984258601E+02  0.18029401613E+02  0.58086120074E+03  0.58330550311E+03  0.47000000000E+01 0.  1.
         -5    1    4    4    0  502  0.42506977810E+02  0.10431724147E+02  0.95751953526E+02  0.10538591289E+03  0.47000000000E+01 0.  1.
<mgrwt>
<rscale>  0 0.26353105E+03</rscale>
<asrwt>0</asrwt>
<pdfrwt beam="1">  1       21 0.27070911E+00 0.26353105E+03</pdfrwt>
<pdfrwt beam="2">  1       21 0.15180078E-02 0.26353105E+03</pdfrwt>
<totfact> 0.92442016E+04</totfact>
</mgrwt>
</event>
<event>
 8    1  0.9691636E-006  0.3439291E+03  0.7546771E-02  0.1065135E+00
         21   -1    0    0  504  503  0.00000000000E+00  0.00000000000E+00  0.22434193531E+03  0.22434193531E+03  0.00000000000E+00 0.  1.
         21   -1    0    0  503  504 -0.00000000000E+00 -0.00000000000E+00 -0.13181579312E+03  0.13181579312E+03  0.00000000000E+00 0.  1.
         25    2    1    2    0    0  0.10825855761E+03  0.22696635787E+02  0.89089503576E+02  0.18920339233E+03  0.12500372575E+03 0.  0.
         25    2    1    2    0    0 -0.10825855761E+03 -0.22696635787E+02  0.34366386112E+01  0.16695433609E+03  0.12500754890E+03 0.  0.
          5    1    3    3  501    0 -0.26175129842E+02 -0.59361068375E+01  0.41603794910E+01  0.27563989989E+02  0.47000000000E+01 0.  1.
         -5    1    3    3    0  501  0.13443368745E+03  0.28632742625E+02  0.84929124085E+02  0.16163940235E+03  0.47000000000E+01 0.  1.
          5    1    4    4  502    0 -0.75395163739E+02  0.18226692169E+02 -0.49600499037E+02  0.92189709445E+02  0.47000000000E+01 0.  1.
         -5    1    4    4    0  502 -0.32863393873E+02 -0.40923327957E+02  0.53037137649E+02  0.74764626648E+02  0.47000000000E+01 0.  1.
<mgrwt>
<rscale>  0 0.34392912E+03</rscale>
<asrwt>0</asrwt>
<pdfrwt beam="1">  1       21 0.34514144E-01 0.34392912E+03</pdfrwt>
<pdfrwt beam="2">  1       21 0.20279353E-01 0.34392912E+03</pdfrwt>
<totfact> 0.17489668E+05</totfact>
</mgrwt>
</event>
<event>
 8    1  0.9691636E-006  0.2904070E+03  0.7546771E-02  0.1090137E+00
         21   -1    0    0  504  503  0.00000000000E+00  0.00000000000E+00  0.77087693013E+02  0.77087693013E+02  0.00000000000E+00 0. -1.
         21   -1    0    0  503  504 -0.00000000000E+00 -0.00000000000E+00 -0.27350738048E+03  0.27350738048E+03  0.00000000000E+00 0. -1.
         25    2    1    2    0    0 -0.75490746665E+01  0.20415275414E+02 -0.18345044139E+03  0.22305305761E+03  0.12499932025E+03 0.  0.
         25    2    1    2    0    0  0.75490746665E+01 -0.20415275414E+02 -0.12969246076E+02  0.12754201589E+03  0.12499996990E+03 0.  0.
          5    1    3    3  501    0 -0.48814485729E+02  0.47673528524E+02 -0.14469813355E+03  0.16004767787E+03  0.47000000000E+01 0. -1.
         -5    1    3    3    0  501  0.41265411062E+02 -0.27258253110E+02 -0.38752307840E+02  0.63005379737E+02  0.47000000000E+01 0. -1.
          5    1    4    4  502    0 -0.57367577184E+02 -0.22183620221E+02 -0.39949724784E+01  0.61815869509E+02  0.47000000000E+01 0.  1.
         -5    1    4    4    0  502  0.64916651851E+02  0.17683448072E+01 -0.89742735974E+01  0.65726146376E+02  0.47000000000E+01 0.  1.
<mgrwt>
<rscale>  0 0.29040698E+03</rscale>
<asrwt>0</asrwt>
<pdfrwt beam="1">  1       21 0.11859645E-01 0.29040698E+03</pdfrwt>
<pdfrwt beam="2">  1       21 0.42078058E-01 0.29040698E+03</pdfrwt>
<totfact> 0.31849453E+05</totfact>
</mgrwt>
</event>
<event>
 8    1  0.9691636E-006  0.2635579E+03  0.7546771E-02  0.1105024E+00
         21   -1    0    0  504  503  0.00000000000E+00  0.00000000000E+00  0.13289734435E+03  0.13289734435E+03  0.00000000000E+00 0. -1.
         21   -1    0    0  503  504 -0.00000000000E+00 -0.00000000000E+00 -0.13066997450E+03  0.13066997450E+03  0.00000000000E+00 0. -1.
         25    2    1    2    0    0  0.37636167264E+02 -0.11407105799E+02 -0.12792787099E+02  0.13166703928E+03  0.12500380267E+03 0.  0.
         25    2    1    2    0    0 -0.37636167264E+02  0.11407105799E+02  0.15020156947E+02  0.13190027957E+03  0.12500190193E+03 0.  0.
          5    1    3    3  501    0 -0.22069350390E+02 -0.50328783357E+02 -0.22530593652E+02  0.59579864981E+02  0.47000000000E+01 0.  1.
         -5    1    3    3    0  501  0.59705517654E+02  0.38921677558E+02  0.97378065532E+01  0.72087174301E+02  0.47000000000E+01 0.  1.
          5    1    4    4  502    0 -0.20332847830E+02 -0.48535701763E+01  0.69263230485E+02  0.72501496133E+02  0.47000000000E+01 0.  1.
         -5    1    4    4    0  502 -0.17303319434E+02  0.16260675976E+02 -0.54243073538E+02  0.59398783434E+02  0.47000000000E+01 0.  1.
<mgrwt>
<rscale>  0 0.26355791E+03</rscale>
<asrwt>0</asrwt>
<pdfrwt beam="1">  1       21 0.20445745E-01 0.26355791E+03</pdfrwt>
<pdfrwt beam="2">  1       21 0.20103073E-01 0.26355791E+03</pdfrwt>
<totfact> 0.49961097E+05</totfact>
</mgrwt>
</event>
<event>
 8    1  0.9691636E-006  0.2694816E+03  0.7546771E-02  0.1101577E+00
         21   -1    0    0  504  503  0.00000000000E+00  0.00000000000E+00  0.15791944081E+03  0.15791944081E+03  0.00000000000E+00 0. -1.
         21   -1    0    0  503  504 -0.00000000000E+00 -0.00000000000E+00 -0.11496417677E+03  0.11496417677E+03  0.00000000000E+00 0. -1.
         25    2    1    2    0    0 -0.31043374917E+02 -0.34603323465E+02  0.21061462932E+01  0.13339104466E+03  0.12501061484E+03 0.  0.
         25    2    1    2    0    0  0.31043374917E+02  0.34603323465E+02  0.40849117743E+02  0.13949257292E+03  0.12501378467E+03 0.  0.
          5    1    3    3  501    0 -0.92266029666E+01 -0.58784428780E+02  0.48225055986E+02  0.76736466521E+02  0.47000000000E+01 0.  1.
         -5    1    3    3    0  501 -0.21816771951E+02  0.24181105315E+02 -0.46118909693E+02  0.56654578137E+02  0.47000000000E+01 0.  1.
          5    1    4    4  502    0 -0.68738652939E+01  0.58021473239E+02  0.65864592011E+02  0.88170152896E+02  0.47000000000E+01 0.  1.
         -5    1    4    4    0  502  0.37917240211E+02 -0.23418149773E+02 -0.25015474268E+02  0.51322420022E+02  0.47000000000E+01 0.  1.
<mgrwt>
<rscale>  0 0.26948157E+03</rscale>
<asrwt>0</asrwt>
<pdfrwt beam="1">  1       21 0.24295299E-01 0.26948157E+03</pdfrwt>
<pdfrwt beam="2">  1       21 0.17686796E-01 0.26948157E+03</pdfrwt>
<totfact> 0.45685781E+05</totfact>
</mgrwt>
</event>
<event>
 8    1  0.9691636E-006  0.3595352E+03  0.7546771E-02  0.1058768E+00
         21   -1    0    0  504  503  0.00000000000E+00  0.00000000000E+00  0.24287227418E+03  0.24287227418E+03  0.00000000000E+00 0.  1.
         21   -1    0    0  503  504 -0.00000000000E+00 -0.00000000000E+00 -0.13305917453E+03  0.13305917453E+03  0.00000000000E+00 0.  1.
         25    2    1    2    0    0 -0.82663478266E+02  0.98829585796E+02  0.44901634288E+02  0.18504087198E+03  0.12499371933E+03 0.  0.
         25    2    1    2    0    0  0.82663478266E+02 -0.98829585796E+02  0.64911465365E+02  0.19089057673E+03  0.12500070513E+03 0.  0.
          5    1    3    3  501    0  0.13020308875E+02 -0.65542949064E+01  0.39671817574E+02  0.42525643259E+02  0.47000000000E+01 0. -1.
         -5    1    3    3    0  501 -0.95683787141E+02  0.10538388070E+03  0.52298167135E+01  0.14251522872E+03  0.47000000000E+01 0. -1.
          5    1    4    4  502    0  0.10984674478E+03 -0.51765963838E+02  0.27083194911E+02  0.12450546895E+03  0.47000000000E+01 0.  1.
         -5    1    4    4    0  502 -0.27183266515E+02 -0.47063621958E+02  0.37828270454E+02  0.66385107787E+02  0.47000000000E+01 0.  1.
<mgrwt>
<rscale>  0 0.35953517E+03</rscale>
<asrwt>0</asrwt>
<pdfrwt beam="1">  1       21 0.37364965E-01 0.35953517E+03</pdfrwt>
<pdfrwt beam="2">  1       21 0.20470642E-01 0.35953517E+03</pdfrwt>
<totfact> 0.14589658E+05</totfact>
</mgrwt>
</event>
<event>
 8    1  0.9691636E-006  0.3151775E+03  0.7546771E-02  0.1077890E+00
         21   -1    0    0  504  503  0.00000000000E+00  0.00000000000E+00  0.10430763453E+04  0.10430763453E+04  0.00000000000E+00 0. -1.
         21   -1    0    0  503  504 -0.00000000000E+00 -0.00000000000E+00 -0.23808625158E+02  0.23808625158E+02  0.00000000000E+00 0. -1.
         25    2    1    2    0    0 -0.70328440682E+02  0.65290920272E+02  0.49883863572E+03  0.52313924421E+03  0.12500276201E+03 0.  0.
         25    2    1    2    0    0  0.70328440682E+02 -0.65290920272E+02  0.52042908442E+03  0.54374572624E+03  0.12491592796E+03 0.  0.
          5    1    3    3  501    0 -0.29516830716E+02  0.72062935031E+01  0.40095580017E+03  0.40213283582E+03  0.47000000000E+01 0.  1.
         -5    1    3    3    0  501 -0.40811609966E+02  0.58084626769E+02  0.97882835557E+02  0.12100640839E+03  0.47000000000E+01 0.  1.
          5    1    4    4  502    0 -0.28051119982E+01  0.51971379213E+01  0.30945047681E+03  0.30954251161E+03  0.47000000000E+01 0. -1.
         -5    1    4    4    0  502  0.73133552680E+02 -0.70488058193E+02  0.21097860761E+03  0.23420321463E+03  0.47000000000E+01 0. -1.
<mgrwt>
<rscale>  0 0.31517750E+03</rscale>
<asrwt>0</asrwt>
<pdfrwt beam="1">  1       21 0.16047325E+00 0.31517750E+03</pdfrwt>
<pdfrwt beam="2">  1       21 0.36628662E-02 0.31517750E+03</pdfrwt>
<totfact> 0.10789410E+05</totfact>
</mgrwt>
</event>
<event>
 8    1  0.9691636E-006  0.3567979E+03  0.7546771E-02  0.1059859E+00
         21   -1    0    0  504  503  0.00000000000E+00  0.00000000000E+00  0.74879328167E+03  0.74879328167E+03  0.00000000000E+00 0.  1.
         21   -1    0    0  503  504 -0.00000000000E+00 -0.00000000000E+00 -0.42503308999E+02  0.42503308999E+02  0.00000000000E+00 0.  1.
         25    2    1    2    0    0 -0.65130262339E+02 -0.79870872475E+02  0.51881068395E+03  0.54351778433E+03  0.12500299501E+03 0.  0.
         25    2    1    2    0    0  0.65130262339E+02  0.79870872475E+02  0.18747928872E+03  0.24777880634E+03  0.12499818330E+03 0.  0.
          5    1    3    3  501    0  0.20868951072E+02 -0.72224319272E+02  0.22754901570E+03  0.23969253213E+03  0.47000000000E+01 0.  1.
         -5    1    3    3    0  501 -0.85999213411E+02 -0.76465532026E+01  0.29126166825E+03  0.30382525220E+03  0.47000000000E+01 0.  1.
          5    1    4    4  502    0 -0.70083458783E+01 -0.21169119849E+02  0.81030537372E+02  0.84174144093E+02  0.47000000000E+01 0. -1.
         -5    1    4    4    0  502  0.72138608217E+02  0.10103999232E+03  0.10644875135E+03  0.16360466225E+03  0.47000000000E+01 0. -1.
<mgrwt>
<rscale>  0 0.35679794E+03</rscale>
<asrwt>0</asrwt>
<pdfrwt beam="1">  1       21 0.11519896E+00 0.35679794E+03</pdfrwt>
<pdfrwt beam="2">  1       21 0.65389712E-02 0.35679794E+03</pdfrwt>
<totfact> 0.93850768E+04</totfact>
</mgrwt>
</event>
<event>
 8    1  0.9691636E-006  0.2939689E+03  0.7546771E-02  0.1088295E+00
         21   -1    0    0  504  503  0.00000000000E+00  0.00000000000E+00  0.49039697379E+03  0.49039697379E+03  0.00000000000E+00 0.  1.
         21   -1    0    0  503  504 -0.00000000000E+00 -0.00000000000E+00 -0.44054983734E+02  0.44054983734E+02  0.00000000000E+00 0.  1.
         25    2    1    2    0    0  0.67853148568E+02  0.27869477106E+02  0.26765828560E+03  0.30437848615E+03  0.12499818982E+03 0.  0.
         25    2    1    2    0    0 -0.67853148568E+02 -0.27869477106E+02  0.17868370445E+03  0.23007347137E+03  0.12500071386E+03 0.  0.
          5    1    3    3  501    0  0.87845626212E+01  0.57648710676E+02  0.20484598586E+03  0.21303640606E+03  0.47000000000E+01 0. -1.
         -5    1    3    3    0  501  0.59068585947E+02 -0.29779233570E+02  0.62812299742E+02  0.91342080099E+02  0.47000000000E+01 0. -1.
          5    1    4    4  502    0 -0.96758865475E+01  0.32857477569E+02  0.12615692907E+03  0.13080862879E+03  0.47000000000E+01 0. -1.
         -5    1    4    4    0  502 -0.58177262021E+02 -0.60726954676E+02  0.52526775384E+02  0.99264842581E+02  0.47000000000E+01 0. -1.
<mgrwt>
<rscale>  0 0.29396891E+03</rscale>
<asrwt>0</asrwt>
<pdfrwt beam="1">  1       21 0.75445684E-01 0.29396891E+03</pdfrwt>
<pdfrwt beam="2">  1       21 0.67776901E-02 0.29396891E+03</pdfrwt>
<totfact> 0.24420626E+05</totfact>
</mgrwt>
</event>
<event>
 8    1  0.9691636E-006  0.2800878E+03  0.7546771E-02  0.1095641E+00
         21   -1    0    0  504  503  0.00000000000E+00  0.00000000000E+00  0.27392363748E+03  0.27392363748E+03  0.00000000000E+00 0. -1.
         21   -1    0    0  503  504 -0.00000000000E+00 -0.00000000000E+00 -0.71597668537E+02  0.71597668537E+02  0.00000000000E+00 0. -1.
         25    2    1    2    0    0 -0.30705872569E+02 -0.52542270648E+02  0.12179683479E+03  0.18483512757E+03  0.12500405835E+03 0.  0.
         25    2    1    2    0    0  0.30705872569E+02  0.52542270648E+02  0.80529134154E+02  0.16068617845E+03  0.12502625997E+03 0.  0.
          5    1    3    3  501    0  0.41907873643E+02 -0.49108632666E+02  0.44073431258E+02  0.78310184641E+02  0.47000000000E+01 0. -1.
         -5    1    3    3    0  501 -0.72613746213E+02 -0.34336379811E+01  0.77723403534E+02  0.10652494293E+03  0.47000000000E+01 0. -1.
          5    1    4    4  502    0  0.31342621875E+02  0.93029594096E+02  0.56207756959E+02  0.11321778688E+03  0.47000000000E+01 0.  1.
         -5    1    4    4    0  502 -0.63674930565E+00 -0.40487323449E+02  0.24321377195E+02  0.47468391572E+02  0.47000000000E+01 0.  1.
<mgrwt>
<rscale>  0 0.28008780E+03</rscale>
<asrwt>0</asrwt>
<pdfrwt beam="1">  1       21 0.42142098E-01 0.28008780E+03</pdfrwt>
<pdfrwt beam="2">  1       21 0.11015026E-01 0.28008780E+03</pdfrwt>
<totfact> 0.36335623E+05</totfact>
</mgrwt>
</event>
<event>
 8    1  0.9691636E-006  0.3074386E+03  0.7546771E-02  0.1081580E+00
         21   -1    0    0  504  503  0.00000000000E+00  0.00000000000E+00  0.33567158650E+02  0.33567158650E+02  0.00000000000E+00 0. -1.
         21   -1    0    0  503  504 -0.00000000000E+00 -0.00000000000E+00 -0.70395049550E+03  0.70395049550E+03  0.00000000000E+00 0. -1.
         25    2    1    2    0    0  0.31295837423E+02 -0.48890094589E+02 -0.17189832693E+03  0.22032766421E+03  0.12500229607E+03 0.  0.
         25    2    1    2    0    0 -0.31295837423E+02  0.48890094589E+02 -0.49848500991E+03  0.51718998994E+03  0.12501403841E+03 0.  0.
          5    1    3    3  501    0  0.43396657762E+02 -0.43533962128E+02 -0.15856598320E+02  0.63655302008E+02  0.47000000000E+01 0.  1.
         -5    1    3    3    0  501 -0.12100820339E+02 -0.53561324608E+01 -0.15604172861E+03  0.15667236220E+03  0.47000000000E+01 0.  1.
          5    1    4    4  502    0 -0.21746444522E+02  0.54622991094E+02 -0.84609446041E+02  0.10313790460E+03  0.47000000000E+01 0. -1.
         -5    1    4    4    0  502 -0.95493929011E+01 -0.57328965058E+01 -0.41387556387E+03  0.41405208535E+03  0.47000000000E+01 0. -1.
<mgrwt>
<rscale>  0 0.30743857E+03</rscale>
<asrwt>0</asrwt>
<pdfrwt beam="1">  1       21 0.51641786E-02 0.30743857E+03</pdfrwt>
<pdfrwt beam="2">  1       21 0.10830007E+00 0.30743857E+03</pdfrwt>
<totfact> 0.16649564E+05</totfact>
</mgrwt>
</event>
<event>
 8    1  0.9691636E-006  0.3730034E+03  0.7546771E-02  0.1053550E+00
         21   -1    0    0  504  503  0.00000000000E+00  0.00000000000E+00  0.11724723608E+04  0.11724723608E+04  0.00000000000E+00 0. -1.
         21   -1    0    0  503  504 -0.00000000000E+00 -0.00000000000E+00 -0.29666266470E+02  0.29666266470E+02  0.00000000000E+00 0. -1.
         25    2    1    2    0    0  0.13192916726E+03 -0.33493694125E+01  0.43692417689E+03  0.47322756531E+03  0.12500027509E+03 0.  0.
         25    2    1    2    0    0 -0.13192916726E+03  0.33493694125E+01  0.70588191744E+03  0.72891106196E+03  0.12500212568E+03 0.  0.
          5    1    3    3  501    0  0.92956074124E+01  0.22355719082E+02  0.22971014067E+03  0.23103035562E+03  0.47000000000E+01 0. -1.
         -5    1    3    3    0  501  0.12263355985E+03 -0.25705088494E+02  0.20721403622E+03  0.24219720969E+03  0.47000000000E+01 0. -1.
          5    1    4    4  502    0  0.40527025440E+01  0.39381421942E+02  0.19240980030E+03  0.19649667184E+03  0.47000000000E+01 0.  1.
         -5    1    4    4    0  502 -0.13598186980E+03 -0.36032052530E+02  0.51347211714E+03  0.53241439012E+03  0.47000000000E+01 0.  1.
<mgrwt>
<rscale>  0 0.37300336E+03</rscale>
<asrwt>0</asrwt>
<pdfrwt beam="1">  1       21 0.18038033E+00 0.37300336E+03</pdfrwt>
<pdfrwt beam="2">  1       21 0.45640419E-02 0.37300336E+03</pdfrwt>
<totfact> 0.52376685E+04</totfact>
</mgrwt>
</event>
<event>
 8    1  0.9691636E-006  0.2695872E+03  0.7546771E-02  0.1101516E+00
         21   -1    0    0  504  503  0.00000000000E+00  0.00000000000E+00  0.12637418478E+03  0.12637418478E+03  0.00000000000E+00 0. -1.
         21   -1    0    0  503  504 -0.00000000000E+00 -0.00000000000E+00 -0.14377390343E+03  0.14377390343E+03  0.00000000000E+00 0. -1.
         25    2    1    2    0    0 -0.20620977732E+02  0.42769815926E+01 -0.54629558717E+02  0.13802871438E+03  0.12499607999E+03 0.  0.
         25    2    1    2    0    0  0.20620977732E+02 -0.42769815926E+01  0.37229840068E+02  0.13211937383E+03  0.12500380257E+03 0.  0.
          5    1    3    3  501    0 -0.53076428995E+02  0.43577728857E+02 -0.89317208481E+01  0.69411752639E+02  0.47000000000E+01 0. -1.
         -5    1    3    3    0  501  0.32455451263E+02 -0.39300747264E+02 -0.45697837869E+02  0.68616961738E+02  0.47000000000E+01 0. -1.
          5    1    4    4  502    0  0.53611320011E+02 -0.37076199233E+02 -0.94705358645E+01  0.66034833478E+02  0.47000000000E+01 0.  1.
         -5    1    4    4    0  502 -0.32990342280E+02  0.32799217640E+02  0.46700375932E+02  0.66084540354E+02  0.47000000000E+01 0.  1.
<mgrwt>
<rscale>  0 0.26958716E+03</rscale>
<asrwt>0</asrwt>
<pdfrwt beam="1">  1       21 0.19442182E-01 0.26958716E+03</pdfrwt>
<pdfrwt beam="2">  1       21 0.22119062E-01 0.26958716E+03</pdfrwt>
<totfact> 0.45793119E+05</totfact>
</mgrwt>
</event>
<event>
 8    1  0.9691636E-006  0.2696314E+03  0.7546771E-02  0.1101491E+00
         21   -1    0    0  504  503  0.00000000000E+00  0.00000000000E+00  0.45629805956E+03  0.45629805956E+03  0.00000000000E+00 0.  1.
         21   -1    0    0  503  504 -0.00000000000E+00 -0.00000000000E+00 -0.39832028312E+02  0.39832028312E+02  0.00000000000E+00 0.  1.
         25    2    1    2    0    0  0.46598983472E+02  0.18741653948E+02  0.21735118413E+03  0.25572482078E+03  0.12502372521E+03 0.  0.
         25    2    1    2    0    0 -0.46598983472E+02 -0.18741653948E+02  0.19911484712E+03  0.24040526709E+03  0.12500102100E+03 0.  0.
          5    1    3    3  501    0  0.83652715636E+02 -0.10826957583E+02  0.16193497737E+03  0.18264727411E+03  0.47000000000E+01 0.  1.
         -5    1    3    3    0  501 -0.37053732164E+02  0.29568611532E+02  0.55416206762E+02  0.73077546669E+02  0.47000000000E+01 0.  1.
          5    1    4    4  502    0 -0.44212742748E+02  0.46710573961E+02  0.12973312735E+03  0.14487725382E+03  0.47000000000E+01 0.  1.
         -5    1    4    4    0  502 -0.23862407234E+01 -0.65452227910E+02  0.69381719765E+02  0.95528013277E+02  0.47000000000E+01 0.  1.
<mgrwt>
<rscale>  0 0.26963143E+03</rscale>
<asrwt>0</asrwt>
<pdfrwt beam="1">  1       21 0.70199698E-01 0.26963143E+03</pdfrwt>
<pdfrwt beam="2">  1       21 0.61280047E-02 0.26963143E+03</pdfrwt>
<totfact> 0.34365935E+05</totfact>
</mgrwt>
</event>
<event>
 8    1  0.9691636E-006  0.2733752E+03  0.7546771E-02  0.1099363E+00
         21   -1    0    0  504  503  0.00000000000E+00  0.00000000000E+00  0.17049243546E+02  0.17049243546E+02  0.00000000000E+00 0. -1.
         21   -1    0    0  503  504 -0.00000000000E+00 -0.00000000000E+00 -0.10958553907E+04  0.10958553907E+04  0.00000000000E+00 0. -1.
         25    2    1    2    0    0  0.20868959678E+02  0.42488694737E+02 -0.65596366756E+03  0.66944246909E+03  0.12499633433E+03 0.  0.
         25    2    1    2    0    0 -0.20868959678E+02 -0.42488694737E+02 -0.42284247963E+03  0.44346216520E+03  0.12498850637E+03 0.  0.
          5    1    3    3  501    0  0.82390624022E+01  0.43314854124E+01  0.16738818088E+01  0.10561050869E+02  0.47000000000E+01 0. -1.
         -5    1    3    3    0  501  0.12629897276E+02  0.38157209325E+02 -0.65763754937E+03  0.65888141822E+03  0.47000000000E+01 0. -1.
          5    1    4    4  502    0 -0.61565526922E+02  0.35727729402E+01 -0.29651958662E+03  0.30290103014E+03  0.47000000000E+01 0. -1.
         -5    1    4    4    0  502  0.40696567244E+02 -0.46061467677E+02 -0.12632289301E+03  0.14056113506E+03  0.47000000000E+01 0. -1.
<mgrwt>
<rscale>  0 0.27337524E+03</rscale>
<asrwt>0</asrwt>
<pdfrwt beam="1">  1       21 0.26229595E-02 0.27337524E+03</pdfrwt>
<pdfrwt beam="2">  1       21 0.16859320E+00 0.27337524E+03</pdfrwt>
<totfact> 0.16681022E+05</totfact>
</mgrwt>
</event>
<event>
 8    1  0.9691636E-006  0.2870994E+03  0.7546771E-02  0.1091873E+00
         21   -1    0    0  504  503  0.00000000000E+00  0.00000000000E+00  0.51283733753E+02  0.51283733753E+02  0.00000000000E+00 0. -1.
         21   -1    0    0  503  504 -0.00000000000E+00 -0.00000000000E+00 -0.40181383046E+03  0.40181383046E+03  0.00000000000E+00 0. -1.
         25    2    1    2    0    0 -0.10651828267E+02  0.36723267427E+02 -0.81614496622E+02  0.15409528277E+03  0.12498948074E+03 0.  0.
         25    2    1    2    0    0  0.10651828267E+02 -0.36723267427E+02 -0.26891560008E+03  0.29900228144E+03  0.12499881809E+03 0.  0.
          5    1    3    3  501    0 -0.49247504067E+02  0.27723864835E+02  0.67755597832E+01  0.57113286971E+02  0.47000000000E+01 0.  1.
         -5    1    3    3    0  501  0.38595675800E+02  0.89994025925E+01 -0.88390056405E+02  0.96981995797E+02  0.47000000000E+01 0.  1.
          5    1    4    4  502    0 -0.33671062425E+01 -0.76207164406E+02 -0.10574152866E+03  0.13046926916E+03  0.47000000000E+01 0. -1.
         -5    1    4    4    0  502  0.14018934510E+02  0.39483896979E+02 -0.16317407142E+03  0.16853301228E+03  0.47000000000E+01 0. -1.
<mgrwt>
<rscale>  0 0.28709938E+03</rscale>
<asrwt>0</asrwt>
<pdfrwt beam="1">  1       21 0.78898054E-02 0.28709938E+03</pdfrwt>
<pdfrwt beam="2">  1       21 0.61817511E-01 0.28709938E+03</pdfrwt>
<totfact> 0.29181450E+05</totfact>
</mgrwt>
</event>
<event>
 8    1  0.9691636E-006  0.4481793E+03  0.7546771E-02  0.1028266E+00
         21   -1    0    0  504  503  0.00000000000E+00  0.00000000000E+00  0.32458453491E+03  0.32458453491E+03  0.00000000000E+00 0. -1.
         21   -1    0    0  503  504 -0.00000000000E+00 -0.00000000000E+00 -0.15470905003E+03  0.15470905003E+03  0.00000000000E+00 0. -1.
         25    2    1    2    0    0 -0.11102658823E+03 -0.14438963952E+03  0.12517162962E+03  0.25390860349E+03  0.12500548296E+03 0.  0.
         25    2    1    2    0    0  0.11102658823E+03  0.14438963952E+03  0.44703855271E+02  0.22538498146E+03  0.12499873558E+03 0.  0.
          5    1    3    3  501    0 -0.13228440412E+03 -0.95240956930E+02  0.11410157456E+03  0.19902578418E+03  0.47000000000E+01 0.  1.
         -5    1    3    3    0  501  0.21257815885E+02 -0.49148682590E+02  0.11070055053E+02  0.54882819310E+02  0.47000000000E+01 0.  1.
          5    1    4    4  502    0  0.12045474005E+03  0.13672184838E+03  0.71335117060E+02  0.19573706126E+03  0.47000000000E+01 0.  1.
         -5    1    4    4    0  502 -0.94281518142E+01  0.76677911355E+01 -0.26631261789E+02  0.29647920197E+02  0.47000000000E+01 0.  1.
<mgrwt>
<rscale>  0 0.44817927E+03</rscale>
<asrwt>0</asrwt>
<pdfrwt beam="1">  1       21 0.49936082E-01 0.44817927E+03</pdfrwt>
<pdfrwt beam="2">  1       21 0.23801392E-01 0.44817927E+03</pdfrwt>
<totfact> 0.58715812E+04</totfact>
</mgrwt>
</event>
<event>
 8    1  0.9691636E-006  0.3674024E+03  0.7546771E-02  0.1055691E+00
         21   -1    0    0  504  503  0.00000000000E+00  0.00000000000E+00  0.64327083793E+02  0.64327083793E+02  0.00000000000E+00 0. -1.
         21   -1    0    0  503  504 -0.00000000000E+00 -0.00000000000E+00 -0.52460223464E+03  0.52460223464E+03  0.00000000000E+00 0. -1.
         25    2    1    2    0    0  0.12257529448E+02 -0.13396213986E+03 -0.23825117598E+03  0.30080389773E+03  0.12499304015E+03 0.  0.
         25    2    1    2    0    0 -0.12257529448E+02  0.13396213986E+03 -0.22202397486E+03  0.28812542070E+03  0.12500204277E+03 0.  0.
          5    1    3    3  501    0  0.22818983111E+01 -0.15516531784E+03 -0.22532513950E+03  0.27363295016E+03  0.47000000000E+01 0. -1.
         -5    1    3    3    0  501  0.99756311366E+01  0.21203177976E+02 -0.12926036479E+02  0.27170947571E+02  0.47000000000E+01 0. -1.
          5    1    4    4  502    0  0.19889637538E+01 -0.19986059646E+02 -0.43326934665E+01  0.21077494862E+02  0.47000000000E+01 0. -1.
         -5    1    4    4    0  502 -0.14246493201E+02  0.15394819951E+03 -0.21769128140E+03  0.26704792584E+03  0.47000000000E+01 0. -1.
<mgrwt>
<rscale>  0 0.36740241E+03</rscale>
<asrwt>0</asrwt>
<pdfrwt beam="1">  1       21 0.98964746E-02 0.36740241E+03</pdfrwt>
<pdfrwt beam="2">  1       21 0.80708035E-01 0.36740241E+03</pdfrwt>
<totfact> 0.10558208E+05</totfact>
</mgrwt>
</event>
<event>
 8    1  0.9691636E-006  0.4339533E+03  0.7546771E-02  0.1032618E+00
         21   -1    0    0  504  503  0.00000000000E+00  0.00000000000E+00  0.30154060604E+03  0.30154060604E+03  0.00000000000E+00 0.  1.
         21   -1    0    0  503  504 -0.00000000000E+00 -0.00000000000E+00 -0.15612780327E+03  0.15612780327E+03  0.00000000000E+00 0.  1.
         25    2    1    2    0    0 -0.14120771000E+01 -0.16274713277E+03 -0.15422911787E+01  0.20526004472E+03  0.12506272071E+03 0.  0.
         25    2    1    2    0    0  0.14120771000E+01  0.16274713277E+03  0.14695509395E+03  0.25240836459E+03  0.12500223875E+03 0.  0.
          5    1    3    3  501    0 -0.35667223126E+02 -0.55428115602E+02  0.48434114797E+02  0.81929117419E+02  0.47000000000E+01 0.  1.
         -5    1    3    3    0  501  0.34255146026E+02 -0.10731901716E+03 -0.49976405976E+02  0.12333092730E+03  0.47000000000E+01 0.  1.
          5    1    4    4  502    0  0.62361551216E+02  0.70278405042E+02  0.74209478820E+02  0.11982134214E+03  0.47000000000E+01 0. -1.
         -5    1    4    4    0  502 -0.60949474116E+02  0.92468727725E+02  0.72745615128E+02  0.13258702245E+03  0.47000000000E+01 0. -1.
<mgrwt>
<rscale>  0 0.43395333E+03</rscale>
<asrwt>0</asrwt>
<pdfrwt beam="1">  1       21 0.46390862E-01 0.43395333E+03</pdfrwt>
<pdfrwt beam="2">  1       21 0.24019662E-01 0.43395333E+03</pdfrwt>
<totfact> 0.67607987E+04</totfact>
</mgrwt>
</event>
<event>
 8    1  0.9691636E-006  0.3320059E+03  0.7546771E-02  0.1070253E+00
         21   -1    0    0  504  503  0.00000000000E+00  0.00000000000E+00  0.47350086727E+03  0.47350086727E+03  0.00000000000E+00 0.  1.
         21   -1    0    0  503  504 -0.00000000000E+00 -0.00000000000E+00 -0.58198358298E+02  0.58198358298E+02  0.00000000000E+00 0.  1.
         25    2    1    2    0    0 -0.80630004306E+02 -0.28432605185E+02  0.98769547421E+02  0.18080292277E+03  0.12499865100E+03 0.  0.
         25    2    1    2    0    0  0.80630004306E+02  0.28432605185E+02  0.31653296155E+03  0.35089630280E+03  0.12500195574E+03 0.  0.
          5    1    3    3  501    0 -0.36859550720E+02  0.29350237148E+02 -0.11527046766E+02  0.48734235473E+02  0.47000000000E+01 0. -1.
         -5    1    3    3    0  501 -0.43770453585E+02 -0.57782842333E+02  0.11029659419E+03  0.13206868730E+03  0.47000000000E+01 0. -1.
          5    1    4    4  502    0  0.17837835398E+02 -0.16743662318E+02  0.24231516509E+03  0.24359242154E+03  0.47000000000E+01 0.  1.
         -5    1    4    4    0  502  0.62792168907E+02  0.45176267503E+02  0.74217796461E+02  0.10730388126E+03  0.47000000000E+01 0.  1.
<mgrwt>
<rscale>  0 0.33200586E+03</rscale>
<asrwt>0</asrwt>
<pdfrwt beam="1">  1       21 0.72846285E-01 0.33200586E+03</pdfrwt>
<pdfrwt beam="2">  1       21 0.89535939E-02 0.33200586E+03</pdfrwt>
<totfact> 0.16068381E+05</totfact>
</mgrwt>
</event>
<event>
 8    1  0.9691636E-006  0.2633611E+03  0.7546771E-02  0.1105140E+00
         21   -1    0    0  504  503  0.00000000000E+00  0.00000000000E+00  0.76970840593E+01  0.76970840593E+01  0.00000000000E+00 0. -1.
         21   -1    0    0  503  504 -0.00000000000E+00 -0.00000000000E+00 -0.22527702234E+04  0.22527702234E+04  0.00000000000E+00 0. -1.
         25    2    1    2    0    0  0.41396051531E+00  0.19060804200E+02 -0.80735586896E+03  0.81720063346E+03  0.12501956073E+03 0.  0.
         25    2    1    2    0    0 -0.41396051531E+00 -0.19060804200E+02 -0.14377172704E+04  0.14432666740E+04  0.12499702838E+03 0.  0.
          5    1    3    3  501    0 -0.48889954838E+02 -0.24286754594E+02 -0.24769224455E+03  0.25368013746E+03  0.47000000000E+01 0.  1.
         -5    1    3    3    0  501  0.49303915354E+02  0.43347558794E+02 -0.55966362441E+03  0.56352049600E+03  0.47000000000E+01 0.  1.
          5    1    4    4  502    0 -0.40090807694E+02 -0.22223560727E+01 -0.12481400449E+04  0.12487945681E+04  0.47000000000E+01 0. -1.
         -5    1    4    4    0  502  0.39676847179E+02 -0.16838448127E+02 -0.18957722555E+03  0.19447210593E+03  0.47000000000E+01 0. -1.
<mgrwt>
<rscale>  0 0.26336106E+03</rscale>
<asrwt>0</asrwt>
<pdfrwt beam="1">  1       21 0.11841667E-02 0.26336106E+03</pdfrwt>
<pdfrwt beam="2">  1       21 0.34658006E+00 0.26336106E+03</pdfrwt>
<totfact> 0.49367779E+04</totfact>
</mgrwt>
</event>
<event>
 8    1  0.9691636E-006  0.4104447E+03  0.7546771E-02  0.1040222E+00
         21   -1    0    0  504  503  0.00000000000E+00  0.00000000000E+00  0.69255597390E+02  0.69255597390E+02  0.00000000000E+00 0. -1.
         21   -1    0    0  503  504 -0.00000000000E+00 -0.00000000000E+00 -0.60812725715E+03  0.60812725715E+03  0.00000000000E+00 0. -1.
         25    2    1    2    0    0 -0.11700196746E+03 -0.11244001231E+03 -0.24869005226E+03  0.32218690495E+03  0.12500177146E+03 0.  0.
         25    2    1    2    0    0  0.11700196746E+03  0.11244001231E+03 -0.29018160749E+03  0.35519594959E+03  0.12500632191E+03 0.  0.
          5    1    3    3  501    0 -0.44856760437E+02 -0.11625396187E+02 -0.26646002623E+01  0.46652640739E+02  0.47000000000E+01 0. -1.
         -5    1    3    3    0  501 -0.72145207027E+02 -0.10081461613E+03 -0.24602545200E+03  0.27553426421E+03  0.47000000000E+01 0. -1.
          5    1    4    4  502    0  0.11373763245E+03  0.13009054607E+03 -0.20564992268E+03  0.26865178189E+03  0.47000000000E+01 0. -1.
         -5    1    4    4    0  502  0.32643350084E+01 -0.17650533762E+02 -0.84531684818E+02  0.86544167703E+02  0.47000000000E+01 0. -1.
<mgrwt>
<rscale>  0 0.41044472E+03</rscale>
<asrwt>0</asrwt>
<pdfrwt beam="1">  1       21 0.10654707E-01 0.41044472E+03</pdfrwt>
<pdfrwt beam="2">  1       21 0.93558043E-01 0.41044472E+03</pdfrwt>
<totfact> 0.64759700E+04</totfact>
</mgrwt>
</event>
<event>
 8    1  0.9691636E-006  0.3629165E+03  0.7546771E-02  0.1057435E+00
         21   -1    0    0  504  503  0.00000000000E+00  0.00000000000E+00  0.35958014221E+03  0.35958014221E+03  0.00000000000E+00 0. -1.
         21   -1    0    0  503  504 -0.00000000000E+00 -0.00000000000E+00 -0.91570958470E+02  0.91570958470E+02  0.00000000000E+00 0. -1.
         25    2    1    2    0    0  0.25200039904E+02 -0.70487301219E+02  0.26846533066E+03  0.30545554969E+03  0.12500382964E+03 0.  0.
         25    2    1    2    0    0 -0.25200039904E+02  0.70487301219E+02 -0.45614692576E+00  0.14569555099E+03  0.12499393531E+03 0.  0.
          5    1    3    3  501    0  0.20297966378E+02 -0.43946427945E+02  0.15549801221E+02  0.51060574676E+02  0.47000000000E+01 0.  1.
         -5    1    3    3    0  501  0.49020735253E+01 -0.26540873274E+02  0.25291552944E+03  0.25439497501E+03  0.47000000000E+01 0.  1.
          5    1    4    4  502    0  0.43580281787E+02 -0.31369207393E+01  0.72477022444E+01  0.44538751893E+02  0.47000000000E+01 0.  1.
         -5    1    4    4    0  502 -0.68780321691E+02  0.73624221958E+02 -0.77038491702E+01  0.10115679909E+03  0.47000000000E+01 0.  1.
<mgrwt>
<rscale>  0 0.36291651E+03</rscale>
<asrwt>0</asrwt>
<pdfrwt beam="1">  1       21 0.55320021E-01 0.36291651E+03</pdfrwt>
<pdfrwt beam="2">  1       21 0.14087840E-01 0.36291651E+03</pdfrwt>
<totfact> 0.12904581E+05</totfact>
</mgrwt>
</event>
<event>
 8    1  0.9691636E-006  0.2777179E+03  0.7546771E-02  0.1096942E+00
         21   -1    0    0  504  503  0.00000000000E+00  0.00000000000E+00  0.33777486293E+03  0.33777486293E+03  0.00000000000E+00 0.  1.
         21   -1    0    0  503  504 -0.00000000000E+00 -0.00000000000E+00 -0.57084782403E+02  0.57084782403E+02  0.00000000000E+00 0.  1.
         25    2    1    2    0    0  0.43096489250E+02 -0.39469430120E+02  0.11825968299E+03  0.18173149332E+03  0.12500335893E+03 0.  0.
         25    2    1    2    0    0 -0.43096489250E+02  0.39469430120E+02  0.16243039753E+03  0.21312815201E+03  0.12499932734E+03 0.  0.
          5    1    3    3  501    0  0.61442802699E+01 -0.62462920516E+02  0.84333934975E+01  0.63502604241E+02  0.47000000000E+01 0. -1.
         -5    1    3    3    0  501  0.36952208980E+02  0.22993490396E+02  0.10982628950E+03  0.11822888908E+03  0.47000000000E+01 0. -1.
          5    1    4    4  502    0 -0.42760838940E+02  0.31698082834E+02  0.30856839698E+01  0.53524473354E+02  0.47000000000E+01 0. -1.
         -5    1    4    4    0  502 -0.33565030949E+00  0.77713472859E+01  0.15934471356E+03  0.15960367866E+03  0.47000000000E+01 0. -1.
<mgrwt>
<rscale>  0 0.27771788E+03</rscale>
<asrwt>0</asrwt>
<pdfrwt beam="1">  1       21 0.51965362E-01 0.27771788E+03</pdfrwt>
<pdfrwt beam="2">  1       21 0.87822744E-02 0.27771788E+03</pdfrwt>
<totfact> 0.35150430E+05</totfact>
</mgrwt>
</event>
<event>
 8    1  0.9691636E-006  0.2590667E+03  0.7546771E-02  0.1107705E+00
         21   -1    0    0  504  503  0.00000000000E+00  0.00000000000E+00  0.29798879222E+03  0.29798879222E+03  0.00000000000E+00 0.  1.
         21   -1    0    0  503  504 -0.00000000000E+00 -0.00000000000E+00 -0.56307132386E+02  0.56307132386E+02  0.00000000000E+00 0.  1.
         25    2    1    2    0    0 -0.79523312645E+01  0.28544254049E+02  0.14330082873E+03  0.19249051984E+03  0.12505782143E+03 0.  0.
         25    2    1    2    0    0  0.79523312645E+01 -0.28544254049E+02  0.98380831097E+02  0.16180540476E+03  0.12499674824E+03 0.  0.
          5    1    3    3  501    0 -0.52015559666E+02  0.55172778846E+02  0.95944292646E+02  0.12238076346E+03  0.47000000000E+01 0.  1.
         -5    1    3    3    0  501  0.44063228401E+02 -0.26628524797E+02  0.47356536088E+02  0.70109756385E+02  0.47000000000E+01 0.  1.
          5    1    4    4  502    0 -0.32812811941E+02  0.30141507216E+01 -0.15495667550E+02  0.36714730625E+02  0.47000000000E+01 0.  1.
         -5    1    4    4    0  502  0.40765143205E+02 -0.31558404770E+02  0.11387649865E+03  0.12509067414E+03  0.47000000000E+01 0.  1.
<mgrwt>
<rscale>  0 0.25906674E+03</rscale>
<asrwt>0</asrwt>
<pdfrwt beam="1">  1       21 0.45844429E-01 0.25906674E+03</pdfrwt>
<pdfrwt beam="2">  1       21 0.86626359E-02 0.25906674E+03</pdfrwt>
<totfact> 0.46989530E+05</totfact>
</mgrwt>
</event>
<event>
 8    1  0.9691636E-006  0.2610378E+03  0.7546771E-02  0.1106521E+00
         21   -1    0    0  504  503  0.00000000000E+00  0.00000000000E+00  0.10432491537E+03  0.10432491537E+03  0.00000000000E+00 0.  1.
         21   -1    0    0  503  504 -0.00000000000E+00 -0.00000000000E+00 -0.16328971873E+03  0.16328971873E+03  0.00000000000E+00 0.  1.
         25    2    1    2    0    0 -0.11457374398E+02 -0.13531543908E+02  0.44555711497E+01  0.12632644420E+03  0.12499657708E+03 0.  0.
         25    2    1    2    0    0  0.11457374398E+02  0.13531543908E+02 -0.63420374509E+02  0.14128818990E+03  0.12500333833E+03 0.  0.
          5    1    3    3  501    0 -0.39943332180E+02  0.44276247831E+02 -0.85212818894E+01  0.60419848996E+02  0.47000000000E+01 0.  1.
         -5    1    3    3    0  501  0.28485957782E+02 -0.57807791739E+02  0.12976853039E+02  0.65906595203E+02  0.47000000000E+01 0.  1.
          5    1    4    4  502    0 -0.10769226004E+02  0.60588166867E+02 -0.35459751088E+01  0.61818816977E+02  0.47000000000E+01 0. -1.
         -5    1    4    4    0  502  0.22226600401E+02 -0.47056622959E+02 -0.59874399401E+02  0.79469372926E+02  0.47000000000E+01 0. -1.
<mgrwt>
<rscale>  0 0.26103782E+03</rscale>
<asrwt>0</asrwt>
<pdfrwt beam="1">  1       21 0.16049987E-01 0.26103782E+03</pdfrwt>
<pdfrwt beam="2">  1       21 0.25121495E-01 0.26103782E+03</pdfrwt>
<totfact> 0.51359337E+05</totfact>
</mgrwt>
</event>
<event>
 8    1  0.9691636E-006  0.2796702E+03  0.7546771E-02  0.1095869E+00
         21   -1    0    0  504  503  0.00000000000E+00  0.00000000000E+00  0.24143413261E+02  0.24143413261E+02  0.00000000000E+00 0. -1.
         21   -1    0    0  503  504 -0.00000000000E+00 -0.00000000000E+00 -0.80990418602E+03  0.80990418602E+03  0.00000000000E+00 0. -1.
         25    2    1    2    0    0 -0.51608828362E+02  0.78454149679E+01 -0.49644042499E+03  0.51458848542E+03  0.12499276805E+03 0.  0.
         25    2    1    2    0    0  0.51608828362E+02 -0.78454149679E+01 -0.28932034777E+03  0.31945911386E+03  0.12499136007E+03 0.  0.
          5    1    3    3  501    0  0.27711173619E+02  0.14003979122E+02 -0.31315403410E+03  0.31472457745E+03  0.47000000000E+01 0.  1.
         -5    1    3    3    0  501 -0.79320001981E+02 -0.61585641542E+01 -0.18328639089E+03  0.19986390798E+03  0.47000000000E+01 0.  1.
          5    1    4    4  502    0 -0.87212361813E+01 -0.41068732911E+02 -0.31885391336E+02  0.52928904807E+02  0.47000000000E+01 0. -1.
         -5    1    4    4    0  502  0.60330064543E+02  0.33223317943E+02 -0.25743495643E+03  0.26653020905E+03  0.47000000000E+01 0. -1.
<mgrwt>
<rscale>  0 0.27967017E+03</rscale>
<asrwt>0</asrwt>
<pdfrwt beam="1">  1       21 0.37143707E-02 0.27967017E+03</pdfrwt>
<pdfrwt beam="2">  1       21 0.12460066E+00 0.27967017E+03</pdfrwt>
<totfact> 0.20727320E+05</totfact>
</mgrwt>
</event>
<event>
 8    1  0.9691636E-006  0.2710447E+03  0.7546771E-02  0.1100683E+00
         21   -1    0    0  504  503  0.00000000000E+00  0.00000000000E+00  0.59132299106E+03  0.59132299106E+03  0.00000000000E+00 0.  1.
         21   -1    0    0  503  504 -0.00000000000E+00 -0.00000000000E+00 -0.31059684424E+02  0.31059684424E+02  0.00000000000E+00 0.  1.
         25    2    1    2    0    0 -0.50704787461E+02 -0.12341239241E+02  0.27042378999E+03  0.30245312150E+03  0.12500233140E+03 0.  0.
         25    2    1    2    0    0  0.50704787461E+02  0.12341239241E+02  0.28983951664E+03  0.31992955398E+03  0.12499876978E+03 0.  0.
          5    1    3    3  501    0 -0.84910727927E+02  0.91922990382E+01  0.22869807013E+03  0.24417048831E+03  0.47000000000E+01 0. -1.
         -5    1    3    3    0  501  0.34205940466E+02 -0.21533538279E+02  0.41725719858E+02  0.58282633191E+02  0.47000000000E+01 0. -1.
          5    1    4    4  502    0  0.53493484424E+02  0.28339778055E+02  0.47736669345E+02  0.77237138063E+02  0.47000000000E+01 0. -1.
         -5    1    4    4    0  502 -0.27886969634E+01 -0.15998538814E+02  0.24210284730E+03  0.24269241592E+03  0.47000000000E+01 0. -1.
<mgrwt>
<rscale>  0 0.27104469E+03</rscale>
<asrwt>0</asrwt>
<pdfrwt beam="1">  1       21 0.90972759E-01 0.27104469E+03</pdfrwt>
<pdfrwt beam="2">  1       21 0.47784134E-02 0.27104469E+03</pdfrwt>
<totfact> 0.29134458E+05</totfact>
</mgrwt>
</event>
<event>
 8    1  0.9691636E-006  0.2718589E+03  0.7546771E-02  0.1100220E+00
         21   -1    0    0  504  503  0.00000000000E+00  0.00000000000E+00  0.33385983033E+03  0.33385983033E+03  0.00000000000E+00 0. -1.
         21   -1    0    0  503  504 -0.00000000000E+00 -0.00000000000E+00 -0.55343032132E+02  0.55343032132E+02  0.00000000000E+00 0. -1.
         25    2    1    2    0    0 -0.80193714821E+01  0.36033484269E+02  0.19451353071E+03  0.23414331593E+03  0.12499942583E+03 0.  0.
         25    2    1    2    0    0  0.80193714821E+01 -0.36033484269E+02  0.84003267484E+02  0.15505954653E+03  0.12499676681E+03 0.  0.
          5    1    3    3  501    0 -0.20072025905E+02  0.17959234568E+02 -0.94837207975E+01  0.28938750670E+02  0.47000000000E+01 0. -1.
         -5    1    3    3    0  501  0.12052654423E+02  0.18074249701E+02  0.20399725151E+03  0.20520456526E+03  0.47000000000E+01 0. -1.
          5    1    4    4  502    0  0.12285615813E+02 -0.55095876138E+02  0.10908973053E+03  0.12291928746E+03  0.47000000000E+01 0.  1.
         -5    1    4    4    0  502 -0.42662443310E+01  0.19062391869E+02 -0.25086463047E+02  0.32140259064E+02  0.47000000000E+01 0.  1.
<mgrwt>
<rscale>  0 0.27185890E+03</rscale>
<asrwt>0</asrwt>
<pdfrwt beam="1">  1       21 0.51363050E-01 0.27185890E+03</pdfrwt>
<pdfrwt beam="2">  1       21 0.85143128E-02 0.27185890E+03</pdfrwt>
<totfact> 0.38094196E+05</totfact>
</mgrwt>
</event>
<event>
 8    1  0.9691636E-006  0.4332065E+03  0.7546771E-02  0.1032852E+00
         21   -1    0    0  504  503  0.00000000000E+00  0.00000000000E+00  0.29934793251E+04  0.29934793251E+04  0.00000000000E+00 0.  1.
         21   -1    0    0  503  504 -0.00000000000E+00 -0.00000000000E+00 -0.15673058239E+02  0.15673058239E+02  0.00000000000E+00 0.  1.
         25    2    1    2    0    0 -0.12416696038E+03 -0.52095862293E+02  0.22857884741E+04  0.22931605165E+04  0.12499917281E+03 0.  0.
         25    2    1    2    0    0  0.12416696038E+03  0.52095862293E+02  0.69201779282E+03  0.71599186689E+03  0.12499725981E+03 0.  0.
          5    1    3    3  501    0 -0.17571634155E+02 -0.72264539120E+02  0.83906792204E+03  0.84237046111E+03  0.47000000000E+01 0. -1.
         -5    1    3    3    0  501 -0.10659532623E+03  0.20168676827E+02  0.14467205520E+04  0.14507900554E+04  0.47000000000E+01 0. -1.
          5    1    4    4  502    0 -0.73206311334E+01  0.29780507810E+02  0.40882820927E+02  0.51322171939E+02  0.47000000000E+01 0. -1.
         -5    1    4    4    0  502  0.13148759152E+03  0.22315354483E+02  0.65113497189E+03  0.66466969495E+03  0.47000000000E+01 0. -1.
<mgrwt>
<rscale>  0 0.43320654E+03</rscale>
<asrwt>0</asrwt>
<pdfrwt beam="1">  1       21 0.46053483E+00 0.43320654E+03</pdfrwt>
<pdfrwt beam="2">  1       21 0.24112421E-02 0.43320654E+03</pdfrwt>
<totfact> 0.25693724E+03</totfact>
</mgrwt>
</event>
<event>
 8    1  0.9691636E-006  0.2629543E+03  0.7546771E-02  0.1105381E+00
         21   -1    0    0  504  503  0.00000000000E+00  0.00000000000E+00  0.15474730924E+03  0.15474730924E+03  0.00000000000E+00 0. -1.
         21   -1    0    0  503  504 -0.00000000000E+00 -0.00000000000E+00 -0.11170621157E+03  0.11170621157E+03  0.00000000000E+00 0. -1.
         25    2    1    2    0    0 -0.36046269005E+02  0.85226993814E+01  0.42465140490E+01  0.13042579320E+03  0.12498353787E+03 0.  0.
         25    2    1    2    0    0  0.36046269005E+02 -0.85226993814E+01  0.38794583627E+02  0.13602772760E+03  0.12500621202E+03 0.  0.
          5    1    3    3  501    0 -0.49979784408E+02  0.80325358791E+01  0.56579067980E+02  0.76064324197E+02  0.47000000000E+01 0.  1.
         -5    1    3    3    0  501  0.13933515403E+02  0.49016350225E+00 -0.52332553931E+02  0.54361469008E+02  0.47000000000E+01 0.  1.
          5    1    4    4  502    0  0.75137903444E+02 -0.15344498495E+02 -0.46842749564E+01  0.76975259661E+02  0.47000000000E+01 0.  1.
         -5    1    4    4    0  502 -0.39091634439E+02  0.68217991134E+01  0.43478858584E+02  0.59052467942E+02  0.47000000000E+01 0.  1.
<mgrwt>
<rscale>  0 0.26295426E+03</rscale>
<asrwt>0</asrwt>
<pdfrwt beam="1">  1       21 0.23807278E-01 0.26295426E+03</pdfrwt>
<pdfrwt beam="2">  1       21 0.17185571E-01 0.26295426E+03</pdfrwt>
<totfact> 0.50158847E+05</totfact>
</mgrwt>
</event>
<event>
 8    1  0.9691636E-006  0.3686681E+03  0.7546771E-02  0.1055203E+00
         21   -1    0    0  504  503  0.00000000000E+00  0.00000000000E+00  0.20736223314E+03  0.20736223314E+03  0.00000000000E+00 0. -1.
         21   -1    0    0  503  504 -0.00000000000E+00 -0.00000000000E+00 -0.16386320483E+03  0.16386320483E+03  0.00000000000E+00 0. -1.
         25    2    1    2    0    0 -0.20204728990E+02 -0.51935842911E+02 -0.10263242890E+03  0.17107201948E+03  0.12500662996E+03 0.  0.
         25    2    1    2    0    0  0.20204728990E+02  0.51935842911E+02  0.14613145721E+03  0.20015341850E+03  0.12490566559E+03 0.  0.
          5    1    3    3  501    0 -0.44324374331E+02 -0.72350109104E+02 -0.10928919676E+03  0.13843918151E+03  0.47000000000E+01 0. -1.
         -5    1    3    3    0  501  0.24119645341E+02  0.20414266193E+02  0.66567678630E+01  0.32632837970E+02  0.47000000000E+01 0. -1.
          5    1    4    4  502    0  0.73621415444E+01  0.56843573813E+02  0.43995971245E+01  0.57678760968E+02  0.47000000000E+01 0.  1.
         -5    1    4    4    0  502  0.12842587446E+02 -0.49077309020E+01  0.14173186009E+03  0.14247465753E+03  0.47000000000E+01 0.  1.
<mgrwt>
<rscale>  0 0.36866809E+03</rscale>
<asrwt>0</asrwt>
<pdfrwt beam="1">  1       21 0.31901882E-01 0.36866809E+03</pdfrwt>
<pdfrwt beam="2">  1       21 0.25209724E-01 0.36866809E+03</pdfrwt>
<totfact> 0.13420893E+05</totfact>
</mgrwt>
</event>
<event>
 8    1  0.9691636E-006  0.3595590E+03  0.7546771E-02  0.1058759E+00
         21   -1    0    0  504  503  0.00000000000E+00  0.00000000000E+00  0.93319988403E+03  0.93319988403E+03  0.00000000000E+00 0. -1.
         21   -1    0    0  503  504 -0.00000000000E+00 -0.00000000000E+00 -0.34634234562E+02  0.34634234562E+02  0.00000000000E+00 0. -1.
         25    2    1    2    0    0 -0.62263095578E+02  0.68301800527E+02  0.20623137926E+03  0.25826088909E+03  0.12500190405E+03 0.  0.
         25    2    1    2    0    0  0.62263095578E+02 -0.68301800527E+02  0.69233427021E+03  0.70957322950E+03  0.12500238916E+03 0.  0.
          5    1    3    3  501    0  0.33803922079E+02 -0.15137072664E+01  0.66962193519E+02  0.75173278620E+02  0.47000000000E+01 0.  1.
         -5    1    3    3    0  501 -0.96067017658E+02  0.69815507794E+02  0.13926918574E+03  0.18308761047E+03  0.47000000000E+01 0.  1.
          5    1    4    4  502    0  0.76163053052E+02 -0.96476346336E+02  0.52148465984E+03  0.53579551743E+03  0.47000000000E+01 0. -1.
         -5    1    4    4    0  502 -0.13899957474E+02  0.28174545809E+02  0.17084961037E+03  0.17377771207E+03  0.47000000000E+01 0. -1.
<mgrwt>
<rscale>  0 0.35955897E+03</rscale>
<asrwt>0</asrwt>
<pdfrwt beam="1">  1       21 0.14356919E+00 0.35955897E+03</pdfrwt>
<pdfrwt beam="2">  1       21 0.53283445E-02 0.35955897E+03</pdfrwt>
<totfact> 0.75900542E+04</totfact>
</mgrwt>
</event>
<event>
 8    1  0.9691636E-006  0.4169591E+03  0.7546771E-02  0.1038061E+00
         21   -1    0    0  504  503  0.00000000000E+00  0.00000000000E+00  0.17563504781E+03  0.17563504781E+03  0.00000000000E+00 0. -1.
         21   -1    0    0  503  504 -0.00000000000E+00 -0.00000000000E+00 -0.24746607928E+03  0.24746607928E+03  0.00000000000E+00 0. -1.
         25    2    1    2    0    0 -0.12577530582E+03 -0.86618368161E+02 -0.10410855542E+03  0.22313116446E+03  0.12500702375E+03 0.  0.
         25    2    1    2    0    0  0.12577530582E+03  0.86618368161E+02  0.32277523950E+02  0.19996996262E+03  0.12499591251E+03 0.  0.
          5    1    3    3  501    0 -0.12240446763E+03 -0.20317463463E+02 -0.39306563966E+02  0.13024111865E+03  0.47000000000E+01 0. -1.
         -5    1    3    3    0  501 -0.33708381904E+01 -0.66300904698E+02 -0.64801991459E+02  0.92890045812E+02  0.47000000000E+01 0. -1.
          5    1    4    4  502    0  0.11645829637E+03  0.78856854274E+02  0.72070991911E+02  0.15810520590E+03  0.47000000000E+01 0. -1.
         -5    1    4    4    0  502  0.93170094493E+01  0.77615138876E+01 -0.39793467960E+02  0.41864756720E+02  0.47000000000E+01 0. -1.
<mgrwt>
<rscale>  0 0.41695907E+03</rscale>
<asrwt>0</asrwt>
<pdfrwt beam="1">  1       21 0.27020777E-01 0.41695907E+03</pdfrwt>
<pdfrwt beam="2">  1       21 0.38071704E-01 0.41695907E+03</pdfrwt>
<totfact> 0.81250135E+04</totfact>
</mgrwt>
</event>
<event>
 8    1  0.9691636E-006  0.2826642E+03  0.7546771E-02  0.1094243E+00
         21   -1    0    0  504  503  0.00000000000E+00  0.00000000000E+00  0.46958610226E+02  0.46958610226E+02  0.00000000000E+00 0. -1.
         21   -1    0    0  503  504 -0.00000000000E+00 -0.00000000000E+00 -0.42536952277E+03  0.42536952277E+03  0.00000000000E+00 0. -1.
         25    2    1    2    0    0 -0.40419163443E+02  0.44544596126E+02 -0.14399088176E+03  0.19994284110E+03  0.12500334339E+03 0.  0.
         25    2    1    2    0    0  0.40419163443E+02 -0.44544596126E+02 -0.23442003079E+03  0.27238529190E+03  0.12499226613E+03 0.  0.
          5    1    3    3  501    0 -0.43950902122E+02 -0.28056759923E+02 -0.19811081717E+02  0.55977071498E+02  0.47000000000E+01 0. -1.
         -5    1    3    3    0  501  0.35317386791E+01  0.72601356049E+02 -0.12417980004E+03  0.14396576960E+03  0.47000000000E+01 0. -1.
          5    1    4    4  502    0  0.84062764985E+02 -0.18457685313E+02 -0.12754515757E+03  0.15393859758E+03  0.47000000000E+01 0.  1.
         -5    1    4    4    0  502 -0.43643601542E+02 -0.26086910813E+02 -0.10687487321E+03  0.11844669432E+03  0.47000000000E+01 0.  1.
<mgrwt>
<rscale>  0 0.28266419E+03</rscale>
<asrwt>0</asrwt>
<pdfrwt beam="1">  1       21 0.72244016E-02 0.28266419E+03</pdfrwt>
<pdfrwt beam="2">  1       21 0.65441465E-01 0.28266419E+03</pdfrwt>
<totfact> 0.30080541E+05</totfact>
</mgrwt>
</event>
<event>
 8    1  0.9691636E-006  0.2565740E+03  0.7546771E-02  0.1109219E+00
         21   -1    0    0  504  503  0.00000000000E+00  0.00000000000E+00  0.16110218628E+03  0.16110218628E+03  0.00000000000E+00 0.  1.
         21   -1    0    0  503  504 -0.00000000000E+00 -0.00000000000E+00 -0.10215601405E+03  0.10215601405E+03  0.00000000000E+00 0.  1.
         25    2    1    2    0    0 -0.28922845686E+01 -0.28768815536E+02  0.29500335784E+02  0.13164877691E+03  0.12500048237E+03 0.  0.
         25    2    1    2    0    0  0.28922845686E+01  0.28768815536E+02  0.29445836446E+02  0.13160942342E+03  0.12497188880E+03 0.  0.
          5    1    3    3  501    0 -0.12356436483E+02 -0.16065489570E+01 -0.47492397556E+02  0.49324236920E+02  0.47000000000E+01 0. -1.
         -5    1    3    3    0  501  0.94641519139E+01 -0.27162266579E+02  0.76992733340E+02  0.82324539988E+02  0.47000000000E+01 0. -1.
          5    1    4    4  502    0 -0.10783639045E+02 -0.46417200782E+02 -0.40156804659E+01  0.48052669948E+02  0.47000000000E+01 0.  1.
         -5    1    4    4    0  502  0.13675923613E+02  0.75186016319E+02  0.33461516911E+02  0.83556753471E+02  0.47000000000E+01 0.  1.
<mgrwt>
<rscale>  0 0.25657402E+03</rscale>
<asrwt>0</asrwt>
<pdfrwt beam="1">  1       21 0.24784952E-01 0.25657402E+03</pdfrwt>
<pdfrwt beam="2">  1       21 0.15716310E-01 0.25657402E+03</pdfrwt>
<totfact> 0.54828907E+05</totfact>
</mgrwt>
</event>
<event>
 8    1  0.9691636E-006  0.3218638E+03  0.7546771E-02  0.1074795E+00
         21   -1    0    0  504  503  0.00000000000E+00  0.00000000000E+00  0.11765367704E+03  0.11765367704E+03  0.00000000000E+00 0.  1.
         21   -1    0    0  503  504 -0.00000000000E+00 -0.00000000000E+00 -0.22012972134E+03  0.22012972134E+03  0.00000000000E+00 0.  1.
         25    2    1    2    0    0  0.31351735425E+01  0.37714436524E+02  0.47453753485E+02  0.13894491271E+03  0.12498648732E+03 0.  0.
         25    2    1    2    0    0 -0.31351735425E+01 -0.37714436524E+02 -0.14992979778E+03  0.19883848567E+03  0.12500236432E+03 0.  0.
          5    1    3    3  501    0 -0.14498907453E+02  0.22660617500E+02  0.87923847318E+02  0.92067447179E+02  0.47000000000E+01 0. -1.
         -5    1    3    3    0  501  0.17634080995E+02  0.15053819024E+02 -0.40470093833E+02  0.46877465531E+02  0.47000000000E+01 0. -1.
          5    1    4    4  502    0  0.44834885184E+02 -0.21613107761E+02 -0.11393467121E+02  0.51275671128E+02  0.47000000000E+01 0. -1.
         -5    1    4    4    0  502 -0.47970058727E+02 -0.16101328763E+02 -0.13853633066E+03  0.14756281454E+03  0.47000000000E+01 0. -1.
<mgrwt>
<rscale>  0 0.32186377E+03</rscale>
<asrwt>0</asrwt>
<pdfrwt beam="1">  1       21 0.18100566E-01 0.32186377E+03</pdfrwt>
<pdfrwt beam="2">  1       21 0.33866110E-01 0.32186377E+03</pdfrwt>
<totfact> 0.22604560E+05</totfact>
</mgrwt>
</event>
<event>
 8    1  0.9691636E-006  0.3523097E+03  0.7546771E-02  0.1061671E+00
         21   -1    0    0  504  503  0.00000000000E+00  0.00000000000E+00  0.66851544721E+03  0.66851544721E+03  0.00000000000E+00 0. -1.
         21   -1    0    0  503  504 -0.00000000000E+00 -0.00000000000E+00 -0.46417076222E+02  0.46417076222E+02  0.00000000000E+00 0. -1.
         25    2    1    2    0    0  0.11469231629E+02  0.55128116405E+02  0.53548456075E+03  0.55276349740E+03  0.12503246286E+03 0.  0.
         25    2    1    2    0    0 -0.11469231629E+02 -0.55128116405E+02  0.86613810239E+02  0.16216902603E+03  0.12500475346E+03 0.  0.
          5    1    3    3  501    0 -0.34335213214E+02 -0.20711497134E+02  0.91656756403E+02  0.10015450052E+03  0.47000000000E+01 0.  1.
         -5    1    3    3    0  501  0.45804444843E+02  0.75839613539E+02  0.44382780434E+03  0.45260899688E+03  0.47000000000E+01 0.  1.
          5    1    4    4  502    0 -0.69161125557E+01  0.26529197162E+02 -0.15035139229E+02  0.31619239816E+02  0.47000000000E+01 0. -1.
         -5    1    4    4    0  502 -0.45531190728E+01 -0.81657313567E+02  0.10164894947E+03  0.13054978621E+03  0.47000000000E+01 0. -1.
<mgrwt>
<rscale>  0 0.35230971E+03</rscale>
<asrwt>0</asrwt>
<pdfrwt beam="1">  1       21 0.10284852E+00 0.35230971E+03</pdfrwt>
<pdfrwt beam="2">  1       21 0.71410891E-02 0.35230971E+03</pdfrwt>
<totfact> 0.10647547E+05</totfact>
</mgrwt>
</event>
<event>
 8    1  0.9691636E-006  0.2592867E+03  0.7546771E-02  0.1107573E+00
         21   -1    0    0  504  503  0.00000000000E+00  0.00000000000E+00  0.94662105641E+03  0.94662105641E+03  0.00000000000E+00 0.  1.
         21   -1    0    0  503  504 -0.00000000000E+00 -0.00000000000E+00 -0.17755150037E+02  0.17755150037E+02  0.00000000000E+00 0.  1.
         25    2    1    2    0    0  0.22836538217E+02 -0.20632328715E+02  0.40732576675E+03  0.42718332030E+03  0.12499643362E+03 0.  0.
         25    2    1    2    0    0 -0.22836538217E+02  0.20632328715E+02  0.52154013962E+03  0.53719288614E+03  0.12499951689E+03 0.  0.
          5    1    3    3  501    0  0.57951459434E+01 -0.59038803274E+02  0.95633867418E+02  0.11263698596E+03  0.47000000000E+01 0. -1.
         -5    1    3    3    0  501  0.17041392273E+02  0.38406474559E+02  0.31169189934E+03  0.31454633435E+03  0.47000000000E+01 0. -1.
          5    1    4    4  502    0  0.41187785867E+02  0.42875364097E+02  0.27989261143E+03  0.28617598516E+03  0.47000000000E+01 0.  1.
         -5    1    4    4    0  502 -0.64024324083E+02 -0.22243035382E+02  0.24164752819E+03  0.25101690098E+03  0.47000000000E+01 0.  1.
<mgrwt>
<rscale>  0 0.25928671E+03</rscale>
<asrwt>0</asrwt>
<pdfrwt beam="1">  1       21 0.14563397E+00 0.25928671E+03</pdfrwt>
<pdfrwt beam="2">  1       21 0.27315623E-02 0.25928671E+03</pdfrwt>
<totfact> 0.23299004E+05</totfact>
</mgrwt>
</event>
<event>
 8    1  0.9691636E-006  0.2792764E+03  0.7546771E-02  0.1096085E+00
         21   -1    0    0  504  503  0.00000000000E+00  0.00000000000E+00  0.37616047769E+03  0.37616047769E+03  0.00000000000E+00 0.  1.
         21   -1    0    0  503  504 -0.00000000000E+00 -0.00000000000E+00 -0.51836471256E+02  0.51836471256E+02  0.00000000000E+00 0.  1.
         25    2    1    2    0    0 -0.27051817741E+02 -0.23367455483E+02  0.24023363318E+03  0.27315877287E+03  0.12500271144E+03 0.  0.
         25    2    1    2    0    0  0.27051817741E+02  0.23367455483E+02  0.84090373249E+02  0.15483817607E+03  0.12500332426E+03 0.  0.
          5    1    3    3  501    0 -0.62868706096E+02 -0.12684283471E+02  0.56496503451E+02  0.85599708852E+02  0.47000000000E+01 0.  1.
         -5    1    3    3    0  501  0.35816888355E+02 -0.10683172012E+02  0.18373712973E+03  0.18755906402E+03  0.47000000000E+01 0.  1.
          5    1    4    4  502    0  0.34691317137E+02 -0.46353383785E+02  0.50316261540E+02  0.76850112872E+02  0.47000000000E+01 0.  1.
         -5    1    4    4    0  502 -0.76394993954E+01  0.69720839269E+02  0.33774111709E+02  0.77988063196E+02  0.47000000000E+01 0.  1.
<mgrwt>
<rscale>  0 0.27927644E+03</rscale>
<asrwt>0</asrwt>
<pdfrwt beam="1">  1       21 0.57870841E-01 0.27927644E+03</pdfrwt>
<pdfrwt beam="2">  1       21 0.79748420E-02 0.27927644E+03</pdfrwt>
<totfact> 0.33092992E+05</totfact>
</mgrwt>
</event>
<event>
 8    1  0.9691636E-006  0.4443994E+03  0.7546771E-02  0.1029405E+00
         21   -1    0    0  504  503  0.00000000000E+00  0.00000000000E+00  0.89491823434E+02  0.89491823434E+02  0.00000000000E+00 0.  1.
         21   -1    0    0  503  504 -0.00000000000E+00 -0.00000000000E+00 -0.55170078202E+03  0.55170078202E+03  0.00000000000E+00 0.  1.
         25    2    1    2    0    0  0.33543554106E+02 -0.22976093037E+02  0.27383017182E+02  0.13426346992E+03  0.12499511532E+03 0.  0.
         25    2    1    2    0    0 -0.33543554106E+02  0.22976093037E+02 -0.48959197577E+03  0.50692913553E+03  0.12499509927E+03 0.  0.
          5    1    3    3  501    0  0.21929320605E+02  0.20418404129E+02  0.67406025710E+02  0.73915280094E+02  0.47000000000E+01 0.  1.
         -5    1    3    3    0  501  0.11614233501E+02 -0.43394497166E+02 -0.40023008528E+02  0.60348189830E+02  0.47000000000E+01 0.  1.
          5    1    4    4  502    0 -0.35517958355E+02  0.42378391101E+02 -0.83000140642E+02  0.99842710022E+02  0.47000000000E+01 0.  1.
         -5    1    4    4    0  502  0.19744042491E+01 -0.19402298064E+02 -0.40659183513E+03  0.40708642551E+03  0.47000000000E+01 0.  1.
<mgrwt>
<rscale>  0 0.44439941E+03</rscale>
<asrwt>0</asrwt>
<pdfrwt beam="1">  1       21 0.13767973E-01 0.44439941E+03</pdfrwt>
<pdfrwt beam="2">  1       21 0.84877045E-01 0.44439941E+03</pdfrwt>
<totfact> 0.50687702E+04</totfact>
</mgrwt>
</event>
<event>
 8    1  0.9691636E-006  0.3300891E+03  0.7546771E-02  0.1071097E+00
         21   -1    0    0  504  503  0.00000000000E+00  0.00000000000E+00  0.33165910753E+03  0.33165910753E+03  0.00000000000E+00 0. -1.
         21   -1    0    0  503  504 -0.00000000000E+00 -0.00000000000E+00 -0.82131631681E+02  0.82131631681E+02  0.00000000000E+00 0. -1.
         25    2    1    2    0    0 -0.81854911020E+02  0.68120247385E+02  0.10398279849E+03  0.19436765451E+03  0.12500307267E+03 0.  0.
         25    2    1    2    0    0  0.81854911020E+02 -0.68120247385E+02  0.14554467736E+03  0.21942308470E+03  0.12499056936E+03 0.  0.
          5    1    3    3  501    0 -0.69952307407E+02  0.84065930114E+02  0.12424138119E+03  0.16558507396E+03  0.47000000000E+01 0. -1.
         -5    1    3    3    0  501 -0.11902603613E+02 -0.15945682729E+02 -0.20258582698E+02  0.28782580555E+02  0.47000000000E+01 0. -1.
          5    1    4    4  502    0 -0.98681255667E+01 -0.26274453956E+02  0.10808514515E+03  0.11176857982E+03  0.47000000000E+01 0.  1.
         -5    1    4    4    0  502  0.91723036587E+02 -0.41845793429E+02  0.37459532215E+02  0.10765450489E+03  0.47000000000E+01 0.  1.
<mgrwt>
<rscale>  0 0.33008910E+03</rscale>
<asrwt>0</asrwt>
<pdfrwt beam="1">  1       21 0.51024477E-01 0.33008910E+03</pdfrwt>
<pdfrwt beam="2">  1       21 0.12635636E-01 0.33008910E+03</pdfrwt>
<totfact> 0.18839591E+05</totfact>
</mgrwt>
</event>
<event>
 8    1  0.9691636E-006  0.4388944E+03  0.7546771E-02  0.1031087E+00
         21   -1    0    0  504  503  0.00000000000E+00  0.00000000000E+00  0.44723596295E+03  0.44723596295E+03  0.00000000000E+00 0.  1.
         21   -1    0    0  503  504 -0.00000000000E+00 -0.00000000000E+00 -0.10767712647E+03  0.10767712647E+03  0.00000000000E+00 0.  1.
         25    2    1    2    0    0  0.16015867744E+03 -0.57043492427E+02  0.93666631897E+02  0.23087052724E+03  0.12499200147E+03 0.  0.
         25    2    1    2    0    0 -0.16015867744E+03  0.57043492427E+02  0.24589220458E+03  0.32404256218E+03  0.12504336785E+03 0.  0.
          5    1    3    3  501    0  0.11018400883E+03  0.26457258481E+02  0.55080030445E+02  0.12608093465E+03  0.47000000000E+01 0. -1.
         -5    1    3    3    0  501  0.49974668611E+02 -0.83500750907E+02  0.38586601452E+02  0.10478959260E+03  0.47000000000E+01 0. -1.
          5    1    4    4  502    0 -0.10619079827E+03  0.50684878803E+02  0.24227538847E+03  0.26937872305E+03  0.47000000000E+01 0.  1.
         -5    1    4    4    0  502 -0.53967879167E+02  0.63586136236E+01  0.36168161118E+01  0.54663839124E+02  0.47000000000E+01 0.  1.
<mgrwt>
<rscale>  0 0.43889444E+03</rscale>
<asrwt>0</asrwt>
<pdfrwt beam="1">  1       21 0.68805532E-01 0.43889444E+03</pdfrwt>
<pdfrwt beam="2">  1       21 0.16565712E-01 0.43889444E+03</pdfrwt>
<totfact> 0.58218363E+04</totfact>
</mgrwt>
</event>
<event>
 8    1  0.9691636E-006  0.2720198E+03  0.7546771E-02  0.1100129E+00
         21   -1    0    0  504  503  0.00000000000E+00  0.00000000000E+00  0.15754816151E+03  0.15754816151E+03  0.00000000000E+00 0. -1.
         21   -1    0    0  503  504 -0.00000000000E+00 -0.00000000000E+00 -0.11741614364E+03  0.11741614364E+03  0.00000000000E+00 0. -1.
         25    2    1    2    0    0  0.11922054246E+02  0.38995221838E+02  0.55168330677E+02  0.14261366310E+03  0.12502939450E+03 0.  0.
         25    2    1    2    0    0 -0.11922054246E+02 -0.38995221838E+02 -0.15036312801E+02  0.13235064205E+03  0.12501135566E+03 0.  0.
          5    1    3    3  501    0  0.57181200669E+02  0.58208699313E+02  0.29050548791E+02  0.86740802225E+02  0.47000000000E+01 0.  1.
         -5    1    3    3    0  501 -0.45259146424E+02 -0.19213477475E+02  0.26117781886E+02  0.55872860875E+02  0.47000000000E+01 0.  1.
          5    1    4    4  502    0 -0.31862493412E+02  0.33010954857E+02 -0.31303313877E+02  0.55739833931E+02  0.47000000000E+01 0. -1.
         -5    1    4    4    0  502  0.19940439166E+02 -0.72006176694E+02  0.16267001076E+02  0.76610808117E+02  0.47000000000E+01 0. -1.
<mgrwt>
<rscale>  0 0.27201983E+03</rscale>
<asrwt>0</asrwt>
<pdfrwt beam="1">  1       21 0.24238179E-01 0.27201983E+03</pdfrwt>
<pdfrwt beam="2">  1       21 0.18064022E-01 0.27201983E+03</pdfrwt>
<totfact> 0.44104274E+05</totfact>
</mgrwt>
</event>
<event>
 8    1  0.9691636E-006  0.3177570E+03  0.7546771E-02  0.1076686E+00
         21   -1    0    0  504  503  0.00000000000E+00  0.00000000000E+00  0.22812039428E+02  0.22812039428E+02  0.00000000000E+00 0. -1.
         21   -1    0    0  503  504 -0.00000000000E+00 -0.00000000000E+00 -0.11065372711E+04  0.11065372711E+04  0.00000000000E+00 0. -1.
         25    2    1    2    0    0 -0.81950056379E+02 -0.53334910337E+02 -0.56876490837E+03  0.59049129074E+03  0.12500407607E+03 0.  0.
         25    2    1    2    0    0  0.81950056379E+02  0.53334910337E+02 -0.51496032326E+03  0.53885801976E+03  0.12499362593E+03 0.  0.
          5    1    3    3  501    0  0.18832096674E+02  0.14036608845E+02 -0.30807333759E+02  0.39023788467E+02  0.47000000000E+01 0.  1.
         -5    1    3    3    0  501 -0.10078215305E+03 -0.67371519182E+02 -0.53795757462E+03  0.55146750227E+03  0.47000000000E+01 0.  1.
          5    1    4    4  502    0 -0.13618113672E+02  0.16231811514E+02 -0.10582484561E+02  0.24145469647E+02  0.47000000000E+01 0.  1.
         -5    1    4    4    0  502  0.95568170051E+02  0.37103098822E+02 -0.50437783870E+03  0.51471255011E+03  0.47000000000E+01 0.  1.
<mgrwt>
<rscale>  0 0.31775696E+03</rscale>
<asrwt>0</asrwt>
<pdfrwt beam="1">  1       21 0.35095445E-02 0.31775696E+03</pdfrwt>
<pdfrwt beam="2">  1       21 0.17023650E+00 0.31775696E+03</pdfrwt>
<totfact> 0.98307557E+04</totfact>
</mgrwt>
</event>
<event>
 8    1  0.9691636E-006  0.3000982E+03  0.7546771E-02  0.1085192E+00
         21   -1    0    0  504  503  0.00000000000E+00  0.00000000000E+00  0.26232789175E+03  0.26232789175E+03  0.00000000000E+00 0.  1.
         21   -1    0    0  503  504 -0.00000000000E+00 -0.00000000000E+00 -0.85826698745E+02  0.85826698745E+02  0.00000000000E+00 0.  1.
         25    2    1    2    0    0 -0.51672667568E+02 -0.57169824089E+02  0.52485753410E+02  0.15594259679E+03  0.12499954329E+03 0.  0.
         25    2    1    2    0    0  0.51672667568E+02  0.57169824089E+02  0.12401543959E+03  0.19221199370E+03  0.12500867131E+03 0.  0.
          5    1    3    3  501    0 -0.33633990336E+02  0.36802062777E+02  0.26603055528E+02  0.56704935358E+02  0.47000000000E+01 0. -1.
         -5    1    3    3    0  501 -0.18038677232E+02 -0.93971886866E+02  0.25882697882E+02  0.99237661435E+02  0.47000000000E+01 0. -1.
          5    1    4    4  502    0 -0.14262803554E+02  0.76311201014E+02  0.60085675215E+02  0.98281256257E+02  0.47000000000E+01 0.  1.
         -5    1    4    4    0  502  0.65935471123E+02 -0.19141376924E+02  0.63929764376E+02  0.93930737439E+02  0.47000000000E+01 0.  1.
<mgrwt>
<rscale>  0 0.30009823E+03</rscale>
<asrwt>0</asrwt>
<pdfrwt beam="1">  1       21 0.40358137E-01 0.30009823E+03</pdfrwt>
<pdfrwt beam="2">  1       21 0.13204108E-01 0.30009823E+03</pdfrwt>
<totfact> 0.28504206E+05</totfact>
</mgrwt>
</event>
<event>
 8    1  0.9691636E-006  0.2642594E+03  0.7546771E-02  0.1104611E+00
         21   -1    0    0  504  503  0.00000000000E+00  0.00000000000E+00  0.17593257867E+04  0.17593257867E+04  0.00000000000E+00 0.  1.
         21   -1    0    0  503  504 -0.00000000000E+00 -0.00000000000E+00 -0.99232668027E+01  0.99232668027E+01  0.00000000000E+00 0.  1.
         25    2    1    2    0    0 -0.57863122517E+01 -0.24842315435E+02  0.11049079840E+04  0.11122486651E+04  0.12499927161E+03 0.  0.
         25    2    1    2    0    0  0.57863122517E+01  0.24842315435E+02  0.64449453593E+03  0.65700038842E+03  0.12500272594E+03 0.  0.
          5    1    3    3  501    0 -0.34564243993E+02 -0.48974636171E+02  0.27584281116E+03  0.28231993982E+03  0.47000000000E+01 0. -1.
         -5    1    3    3    0  501  0.28777931742E+02  0.24132320736E+02  0.82906517284E+03  0.82992872530E+03  0.47000000000E+01 0. -1.
          5    1    4    4  502    0 -0.48693835945E+02 -0.66126839882E+01  0.44597232854E+03  0.44869613891E+03  0.47000000000E+01 0. -1.
         -5    1    4    4    0  502  0.54480148197E+02  0.31454999424E+02  0.19852220739E+03  0.20830424951E+03  0.47000000000E+01 0. -1.
<mgrwt>
<rscale>  0 0.26425941E+03</rscale>
<asrwt>0</asrwt>
<pdfrwt beam="1">  1       21 0.27066526E+00 0.26425941E+03</pdfrwt>
<pdfrwt beam="2">  1       21 0.15266578E-02 0.26425941E+03</pdfrwt>
<totfact> 0.91610086E+04</totfact>
</mgrwt>
</event>
<event>
 8    1  0.9691636E-006  0.3019923E+03  0.7546771E-02  0.1084249E+00
         21   -1    0    0  504  503  0.00000000000E+00  0.00000000000E+00  0.26903612931E+03  0.26903612931E+03  0.00000000000E+00 0. -1.
         21   -1    0    0  503  504 -0.00000000000E+00 -0.00000000000E+00 -0.84746350369E+02  0.84746350369E+02  0.00000000000E+00 0. -1.
         25    2    1    2    0    0 -0.53159776378E+02 -0.58978341499E+02  0.57633137972E+02  0.15890529957E+03  0.12499963619E+03 0.  0.
         25    2    1    2    0    0  0.53159776378E+02  0.58978341499E+02  0.12665664097E+03  0.19487718011E+03  0.12502321399E+03 0.  0.
          5    1    3    3  501    0 -0.15106601222E+02 -0.61530049103E+02  0.88967096863E+02  0.10932241612E+03  0.47000000000E+01 0.  1.
         -5    1    3    3    0  501 -0.38053175156E+02  0.25517076041E+01 -0.31333958891E+02  0.49582883447E+02  0.47000000000E+01 0.  1.
          5    1    4    4  502    0  0.86589645504E+02  0.16426678285E+02  0.10297433348E+03  0.13562229103E+03  0.47000000000E+01 0. -1.
         -5    1    4    4    0  502 -0.33429869126E+02  0.42551663215E+02  0.23682307491E+02  0.59254889083E+02  0.47000000000E+01 0. -1.
<mgrwt>
<rscale>  0 0.30199225E+03</rscale>
<asrwt>0</asrwt>
<pdfrwt beam="1">  1       21 0.41390173E-01 0.30199225E+03</pdfrwt>
<pdfrwt beam="2">  1       21 0.13037900E-01 0.30199225E+03</pdfrwt>
<totfact> 0.27688283E+05</totfact>
</mgrwt>
</event>
<event>
 8    1  0.9691636E-006  0.2615913E+03  0.7546771E-02  0.1106191E+00
         21   -1    0    0  504  503  0.00000000000E+00  0.00000000000E+00  0.76427161046E+02  0.76427161046E+02  0.00000000000E+00 0. -1.
         21   -1    0    0  503  504 -0.00000000000E+00 -0.00000000000E+00 -0.22384056130E+03  0.22384056130E+03  0.00000000000E+00 0. -1.
         25    2    1    2    0    0  0.48453737665E+01  0.29816614658E+02 -0.10101565861E+03  0.16355670737E+03  0.12503649501E+03 0.  0.
         25    2    1    2    0    0 -0.48453737665E+01 -0.29816614658E+02 -0.46397741649E+02  0.13671101498E+03  0.12499857211E+03 0.  0.
          5    1    3    3  501    0 -0.47622307074E+02  0.47018589121E+02 -0.79715696064E+02  0.10418883843E+03  0.47000000000E+01 0.  1.
         -5    1    3    3    0  501  0.52467680840E+02 -0.17201974463E+02 -0.21299962545E+02  0.59367868941E+02  0.47000000000E+01 0.  1.
          5    1    4    4  502    0  0.37628569680E+01  0.33688218542E+02  0.23692582018E+02  0.41623113816E+02  0.47000000000E+01 0.  1.
         -5    1    4    4    0  502 -0.86082307344E+01 -0.63504833200E+02 -0.70090323667E+02  0.95087901164E+02  0.47000000000E+01 0.  1.
<mgrwt>
<rscale>  0 0.26159127E+03</rscale>
<asrwt>0</asrwt>
<pdfrwt beam="1">  1       21 0.11758025E-01 0.26159127E+03</pdfrwt>
<pdfrwt beam="2">  1       21 0.34437009E-01 0.26159127E+03</pdfrwt>
<totfact> 0.48790156E+05</totfact>
</mgrwt>
</event>
<event>
 8    1  0.9691636E-006  0.4140963E+03  0.7546771E-02  0.1039005E+00
         21   -1    0    0  504  503  0.00000000000E+00  0.00000000000E+00  0.10271983616E+03  0.10271983616E+03  0.00000000000E+00 0.  1.
         21   -1    0    0  503  504 -0.00000000000E+00 -0.00000000000E+00 -0.41733842504E+03  0.41733842504E+03  0.00000000000E+00 0.  1.
         25    2    1    2    0    0 -0.67392878568E+02  0.14857114997E+02  0.31002410421E+02  0.14610622658E+03  0.12499338400E+03 0.  0.
         25    2    1    2    0    0  0.67392878568E+02 -0.14857114997E+02 -0.34562099931E+03  0.37395203462E+03  0.12499486025E+03 0.  0.
          5    1    3    3  501    0 -0.82151790989E+02 -0.20885594476E+02  0.54243795418E+02  0.10074524386E+03  0.47000000000E+01 0. -1.
         -5    1    3    3    0  501  0.14758912421E+02  0.35742709473E+02 -0.23241384996E+02  0.45360982715E+02  0.47000000000E+01 0. -1.
          5    1    4    4  502    0 -0.16550008574E+02 -0.14092882085E+02 -0.45883615655E+01  0.22708041992E+02  0.47000000000E+01 0.  1.
         -5    1    4    4    0  502  0.83942887142E+02 -0.76423291218E+00 -0.34103263774E+03  0.35124399263E+03  0.47000000000E+01 0.  1.
<mgrwt>
<rscale>  0 0.41409629E+03</rscale>
<asrwt>0</asrwt>
<pdfrwt beam="1">  1       21 0.15803052E-01 0.41409629E+03</pdfrwt>
<pdfrwt beam="2">  1       21 0.64205911E-01 0.41409629E+03</pdfrwt>
<totfact> 0.74563610E+04</totfact>
</mgrwt>
</event>
<event>
 8    1  0.9691636E-006  0.3090735E+03  0.7546771E-02  0.1080791E+00
         21   -1    0    0  504  503  0.00000000000E+00  0.00000000000E+00  0.50859439178E+03  0.50859439178E+03  0.00000000000E+00 0.  1.
         21   -1    0    0  503  504 -0.00000000000E+00 -0.00000000000E+00 -0.46956103325E+02  0.46956103325E+02  0.00000000000E+00 0.  1.
         25    2    1    2    0    0  0.64855737146E+02 -0.39831635188E+02  0.14159086872E+03  0.20362987953E+03  0.12499731169E+03 0.  0.
         25    2    1    2    0    0 -0.64855737146E+02  0.39831635188E+02  0.32004741973E+03  0.35192061557E+03  0.12499977194E+03 0.  0.
          5    1    3    3  501    0  0.27781724853E+02 -0.34110760105E+02 -0.11685097548E+02  0.45760241428E+02  0.47000000000E+01 0.  1.
         -5    1    3    3    0  501  0.37074012293E+02 -0.57208750829E+01  0.15327596627E+03  0.15786963811E+03  0.47000000000E+01 0.  1.
          5    1    4    4  502    0  0.19128461521E+02 -0.27323327707E+02  0.12140935298E+03  0.12599517161E+03  0.47000000000E+01 0.  1.
         -5    1    4    4    0  502 -0.83984198668E+02  0.67154962896E+02  0.19863806675E+03  0.22592544396E+03  0.47000000000E+01 0.  1.
<mgrwt>
<rscale>  0 0.30907352E+03</rscale>
<asrwt>0</asrwt>
<pdfrwt beam="1">  1       21 0.78245287E-01 0.30907352E+03</pdfrwt>
<pdfrwt beam="2">  1       21 0.72240163E-02 0.30907352E+03</pdfrwt>
<totfact> 0.20047079E+05</totfact>
</mgrwt>
</event>
<event>
 8    1  0.9691636E-006  0.3179400E+03  0.7546771E-02  0.1076601E+00
         21   -1    0    0  504  503  0.00000000000E+00  0.00000000000E+00  0.38913901913E+03  0.38913901913E+03  0.00000000000E+00 0.  1.
         21   -1    0    0  503  504 -0.00000000000E+00 -0.00000000000E+00 -0.64941995813E+02  0.64941995813E+02  0.00000000000E+00 0.  1.
         25    2    1    2    0    0 -0.42870681090E+02 -0.70111349572E+02  0.23891689183E+03  0.28188566638E+03  0.12499900430E+03 0.  0.
         25    2    1    2    0    0  0.42870681090E+02  0.70111349572E+02  0.85280131488E+02  0.17219534856E+03  0.12500016241E+03 0.  0.
          5    1    3    3  501    0 -0.26873758763E+02  0.42972348797E+01 -0.34254958549E+01  0.27829645336E+02  0.47000000000E+01 0.  1.
         -5    1    3    3    0  501 -0.15996922328E+02 -0.74408584452E+02  0.24234238768E+03  0.25405602105E+03  0.47000000000E+01 0.  1.
          5    1    4    4  502    0  0.34310724859E+02  0.77558356930E+02  0.11329940448E+03  0.14160285882E+03  0.47000000000E+01 0. -1.
         -5    1    4    4    0  502  0.85599562316E+01 -0.74470073572E+01 -0.28019272993E+02  0.30592489737E+02  0.47000000000E+01 0. -1.
<mgrwt>
<rscale>  0 0.31794002E+03</rscale>
<asrwt>0</asrwt>
<pdfrwt beam="1">  1       21 0.59867540E-01 0.31794002E+03</pdfrwt>
<pdfrwt beam="2">  1       21 0.99910765E-02 0.31794002E+03</pdfrwt>
<totfact> 0.20465632E+05</totfact>
</mgrwt>
</event>
<event>
 8    1  0.9691636E-006  0.3421969E+03  0.7546771E-02  0.1065864E+00
         21   -1    0    0  504  503  0.00000000000E+00  0.00000000000E+00  0.66412359916E+03  0.66412359916E+03  0.00000000000E+00 0. -1.
         21   -1    0    0  503  504 -0.00000000000E+00 -0.00000000000E+00 -0.44080176186E+02  0.44080176186E+02  0.00000000000E+00 0. -1.
         25    2    1    2    0    0  0.11437899693E+03  0.18159636446E+02  0.27797799505E+03  0.32604529185E+03  0.12498575626E+03 0.  0.
         25    2    1    2    0    0 -0.11437899693E+03 -0.18159636446E+02  0.34206542792E+03  0.38215848349E+03  0.12499608872E+03 0.  0.
          5    1    3    3  501    0  0.88975729041E+02  0.51017540992E+02  0.26182232362E+03  0.28123386886E+03  0.47000000000E+01 0.  1.
         -5    1    3    3    0  501  0.25403267893E+02 -0.32857904546E+02  0.16155671431E+02  0.44811422987E+02  0.47000000000E+01 0.  1.
          5    1    4    4  502    0 -0.55085131172E+02  0.20460654597E+02  0.28528038287E+03  0.29130739248E+03  0.47000000000E+01 0. -1.
         -5    1    4    4    0  502 -0.59293865762E+02 -0.38620291043E+02  0.56785045043E+02  0.90851091010E+02  0.47000000000E+01 0. -1.
<mgrwt>
<rscale>  0 0.34219693E+03</rscale>
<asrwt>0</asrwt>
<pdfrwt beam="1">  1       21 0.10217285E+00 0.34219693E+03</pdfrwt>
<pdfrwt beam="2">  1       21 0.67815660E-02 0.34219693E+03</pdfrwt>
<totfact> 0.11872291E+05</totfact>
</mgrwt>
</event>
<event>
 8    1  0.9691636E-006  0.3024836E+03  0.7546771E-02  0.1084006E+00
         21   -1    0    0  504  503  0.00000000000E+00  0.00000000000E+00  0.85563558796E+03  0.85563558796E+03  0.00000000000E+00 0.  1.
         21   -1    0    0  503  504 -0.00000000000E+00 -0.00000000000E+00 -0.26733435999E+02  0.26733435999E+02  0.00000000000E+00 0.  1.
         25    2    1    2    0    0 -0.63051815604E+02  0.52374735578E+02  0.48180579294E+03  0.50445637781E+03  0.12498308135E+03 0.  0.
         25    2    1    2    0    0  0.63051815604E+02 -0.52374735578E+02  0.34709635902E+03  0.37791264615E+03  0.12499376503E+03 0.  0.
          5    1    3    3  501    0 -0.84916236823E+02  0.57682385162E+02  0.23379166187E+03  0.25537943534E+03  0.47000000000E+01 0. -1.
         -5    1    3    3    0  501  0.21864421219E+02 -0.53076495836E+01  0.24801413107E+03  0.24907694247E+03  0.47000000000E+01 0. -1.
          5    1    4    4  502    0  0.45305502106E+02 -0.39452706030E+02  0.35011301924E+03  0.35526091929E+03  0.47000000000E+01 0. -1.
         -5    1    4    4    0  502  0.17746313498E+02 -0.12922029549E+02 -0.30166602279E+01  0.22651726852E+02  0.47000000000E+01 0. -1.
<mgrwt>
<rscale>  0 0.30248358E+03</rscale>
<asrwt>0</asrwt>
<pdfrwt beam="1">  1       21 0.13163622E+00 0.30248358E+03</pdfrwt>
<pdfrwt beam="2">  1       21 0.41128370E-02 0.30248358E+03</pdfrwt>
<totfact> 0.15070981E+05</totfact>
</mgrwt>
</event>
<event>
 8    1  0.9691636E-006  0.3060887E+03  0.7546771E-02  0.1082236E+00
         21   -1    0    0  504  503  0.00000000000E+00  0.00000000000E+00  0.13812601248E+02  0.13812601248E+02  0.00000000000E+00 0. -1.
         21   -1    0    0  503  504 -0.00000000000E+00 -0.00000000000E+00 -0.16957395035E+04  0.16957395035E+04  0.00000000000E+00 0. -1.
         25    2    1    2    0    0  0.54409350399E+02 -0.53912804450E+02 -0.59559396186E+03  0.61337146643E+03  0.12500168209E+03 0.  0.
         25    2    1    2    0    0 -0.54409350399E+02  0.53912804450E+02 -0.10863329404E+04  0.10961806383E+04  0.12500306621E+03 0.  0.
          5    1    3    3  501    0 -0.16443303833E+02 -0.14757707158E+02 -0.14939353030E+02  0.27082216129E+02  0.47000000000E+01 0.  1.
         -5    1    3    3    0  501  0.70852654232E+02 -0.39155097292E+02 -0.58065460883E+03  0.58628925030E+03  0.47000000000E+01 0.  1.
          5    1    4    4  502    0 -0.83611702778E+02  0.35847469984E+02 -0.46249109546E+03  0.47137677215E+03  0.47000000000E+01 0. -1.
         -5    1    4    4    0  502  0.29202352379E+02  0.18065334467E+02 -0.62384184491E+03  0.62480386615E+03  0.47000000000E+01 0. -1.
<mgrwt>
<rscale>  0 0.30608870E+03</rscale>
<asrwt>0</asrwt>
<pdfrwt beam="1">  1       21 0.21250170E-02 0.30608870E+03</pdfrwt>
<pdfrwt beam="2">  1       21 0.26088282E+00 0.30608870E+03</pdfrwt>
<totfact> 0.59646833E+04</totfact>
</mgrwt>
</event>
<event>
 8    1  0.9691636E-006  0.4457657E+03  0.7546771E-02  0.1028992E+00
         21   -1    0    0  504  503  0.00000000000E+00  0.00000000000E+00  0.16229098744E+02  0.16229098744E+02  0.00000000000E+00 0. -1.
         21   -1    0    0  503  504 -0.00000000000E+00 -0.00000000000E+00 -0.30609681825E+04  0.30609681825E+04  0.00000000000E+00 0. -1.
         25    2    1    2    0    0 -0.25759584666E+02  0.17983663658E+03 -0.12990976885E+04  0.13176823422E+04  0.12500871423E+03 0.  0.
         25    2    1    2    0    0  0.25759584666E+02 -0.17983663658E+03 -0.17456413952E+04  0.17595149390E+04  0.12499667123E+03 0.  0.
          5    1    3    3  501    0 -0.57471523824E+02  0.26699754899E+02 -0.41774741757E+03  0.42255277523E+03  0.47000000000E+01 0.  1.
         -5    1    3    3    0  501  0.31711939158E+02  0.15313688168E+03 -0.88135027095E+03  0.89512956700E+03  0.47000000000E+01 0.  1.
          5    1    4    4  502    0 -0.33345925145E-01  0.19135033881E+02 -0.17374899670E+03  0.17486267323E+03  0.47000000000E+01 0.  1.
         -5    1    4    4    0  502  0.25792930591E+02 -0.19897167046E+03 -0.15718923985E+04  0.15846522658E+04  0.47000000000E+01 0.  1.
<mgrwt>
<rscale>  0 0.44576566E+03</rscale>
<asrwt>0</asrwt>
<pdfrwt beam="1">  1       21 0.24967865E-02 0.44576566E+03</pdfrwt>
<pdfrwt beam="2">  1       21 0.47091779E+00 0.44576566E+03</pdfrwt>
<totfact> 0.20412955E+03</totfact>
</mgrwt>
</event>
<event>
 8    1  0.9691636E-006  0.3578851E+03  0.7546771E-02  0.1059424E+00
         21   -1    0    0  504  503  0.00000000000E+00  0.00000000000E+00  0.30393960495E+03  0.30393960495E+03  0.00000000000E+00 0. -1.
         21   -1    0    0  503  504 -0.00000000000E+00 -0.00000000000E+00 -0.10535134117E+03  0.10535134117E+03  0.00000000000E+00 0. -1.
         25    2    1    2    0    0  0.10356957618E+01 -0.27740689507E+02 -0.43657286964E+02  0.13528376873E+03  0.12500048343E+03 0.  0.
         25    2    1    2    0    0 -0.10356957618E+01  0.27740689507E+02  0.24224555074E+03  0.27400717739E+03  0.12500563141E+03 0.  0.
          5    1    3    3  501    0  0.45341072614E+01  0.31737583998E+02  0.27399482675E+02  0.42434113842E+02  0.47000000000E+01 0.  1.
         -5    1    3    3    0  501 -0.34984114996E+01 -0.59478273505E+02 -0.71056769639E+02  0.92849654893E+02  0.47000000000E+01 0.  1.
          5    1    4    4  502    0 -0.11761472372E+02  0.17836586813E+02  0.25383991224E+03  0.25478082171E+03  0.47000000000E+01 0.  1.
         -5    1    4    4    0  502  0.10725776611E+02  0.99041026942E+01 -0.11594361501E+02  0.19226355679E+02  0.47000000000E+01 0.  1.
<mgrwt>
<rscale>  0 0.35788515E+03</rscale>
<asrwt>0</asrwt>
<pdfrwt beam="1">  1       21 0.46759939E-01 0.35788515E+03</pdfrwt>
<pdfrwt beam="2">  1       21 0.16207899E-01 0.35788515E+03</pdfrwt>
<totfact> 0.14245146E+05</totfact>
</mgrwt>
</event>
<event>
 8    1  0.9691636E-006  0.3039140E+03  0.7546771E-02  0.1083300E+00
         21   -1    0    0  504  503  0.00000000000E+00  0.00000000000E+00  0.61351533646E+02  0.61351533646E+02  0.00000000000E+00 0.  1.
         21   -1    0    0  503  504 -0.00000000000E+00 -0.00000000000E+00 -0.37637087548E+03  0.37637087548E+03  0.00000000000E+00 0.  1.
         25    2    1    2    0    0  0.30360883579E+02  0.77619075460E+02 -0.12475569967E+03  0.19529577846E+03  0.12501980786E+03 0.  0.
         25    2    1    2    0    0 -0.30360883579E+02 -0.77619075460E+02 -0.19026364216E+03  0.24242663067E+03  0.12499565432E+03 0.  0.
          5    1    3    3  501    0 -0.41905834631E+02  0.41746043546E+01 -0.60190095232E+02  0.73610215742E+02  0.47000000000E+01 0. -1.
         -5    1    3    3    0  501  0.72266718210E+02  0.73444471106E+02 -0.64565604435E+02  0.12168556271E+03  0.47000000000E+01 0. -1.
          5    1    4    4  502    0 -0.64761885484E+02 -0.12960260060E+01 -0.99885132897E+02  0.11914239912E+03  0.47000000000E+01 0. -1.
         -5    1    4    4    0  502  0.34401001905E+02 -0.76323049454E+02 -0.90378509266E+02  0.12328423154E+03  0.47000000000E+01 0. -1.
<mgrwt>
<rscale>  0 0.30391400E+03</rscale>
<asrwt>0</asrwt>
<pdfrwt beam="1">  1       21 0.94386971E-02 0.30391400E+03</pdfrwt>
<pdfrwt beam="2">  1       21 0.57903214E-01 0.30391400E+03</pdfrwt>
<totfact> 0.24418936E+05</totfact>
</mgrwt>
</event>
<event>
 8    1  0.9691636E-006  0.3767119E+03  0.7546771E-02  0.1052156E+00
         21   -1    0    0  504  503  0.00000000000E+00  0.00000000000E+00  0.10381868352E+03  0.10381868352E+03  0.00000000000E+00 0. -1.
         21   -1    0    0  503  504 -0.00000000000E+00 -0.00000000000E+00 -0.34172996222E+03  0.34172996222E+03  0.00000000000E+00 0. -1.
         25    2    1    2    0    0  0.11058479452E+02  0.77429497683E+02  0.19658051619E+02  0.14875967796E+03  0.12500154284E+03 0.  0.
         25    2    1    2    0    0 -0.11058479452E+02 -0.77429497683E+02 -0.25756933033E+03  0.29678896778E+03  0.12499645752E+03 0.  0.
          5    1    3    3  501    0 -0.42728707691E+02  0.14480943525E+02  0.43107711886E+02  0.62576393395E+02  0.47000000000E+01 0.  1.
         -5    1    3    3    0  501  0.53787187144E+02  0.62948554158E+02 -0.23449660267E+02  0.86183284563E+02  0.47000000000E+01 0.  1.
          5    1    4    4  502    0  0.23144351314E+02 -0.22217384554E+02 -0.13807007779E+01  0.32454113897E+02  0.47000000000E+01 0. -1.
         -5    1    4    4    0  502 -0.34202830766E+02 -0.55212113129E+02 -0.25618862955E+03  0.26433485388E+03  0.47000000000E+01 0. -1.
<mgrwt>
<rscale>  0 0.37671185E+03</rscale>
<asrwt>0</asrwt>
<pdfrwt beam="1">  1       21 0.15972105E-01 0.37671185E+03</pdfrwt>
<pdfrwt beam="2">  1       21 0.52573840E-01 0.37671185E+03</pdfrwt>
<totfact> 0.11379051E+05</totfact>
</mgrwt>
</event>
<event>
 8    1  0.9691636E-006  0.4054662E+03  0.7546771E-02  0.1041903E+00
         21   -1    0    0  504  503  0.00000000000E+00  0.00000000000E+00  0.10326990925E+03  0.10326990925E+03  0.00000000000E+00 0.  1.
         21   -1    0    0  503  504 -0.00000000000E+00 -0.00000000000E+00 -0.39799302270E+03  0.39799302270E+03  0.00000000000E+00 0.  1.
         25    2    1    2    0    0  0.49723404123E+02 -0.79290239675E+02 -0.30720137391E+03  0.34461138146E+03  0.12499984430E+03 0.  0.
         25    2    1    2    0    0 -0.49723404123E+02  0.79290239675E+02  0.12478260454E+02  0.15665155049E+03  0.12499856903E+03 0.  0.
          5    1    3    3  501    0  0.26848709807E+02  0.31599602897E+02 -0.65519811011E+02  0.77680909859E+02  0.47000000000E+01 0.  1.
         -5    1    3    3    0  501  0.22874694316E+02 -0.11088984257E+03 -0.24168156290E+03  0.26693047160E+03  0.47000000000E+01 0.  1.
          5    1    4    4  502    0 -0.12242835313E+02 -0.12503064301E+02 -0.40332454309E+02  0.44215500721E+02  0.47000000000E+01 0. -1.
         -5    1    4    4    0  502 -0.37480568810E+02  0.91793303976E+02  0.52810714763E+02  0.11243604977E+03  0.47000000000E+01 0. -1.
<mgrwt>
<rscale>  0 0.40546617E+03</rscale>
<asrwt>0</asrwt>
<pdfrwt beam="1">  1       21 0.15887678E-01 0.40546617E+03</pdfrwt>
<pdfrwt beam="2">  1       21 0.61229697E-01 0.40546617E+03</pdfrwt>
<totfact> 0.82120807E+04</totfact>
</mgrwt>
</event>
<event>
 8    1  0.9691636E-006  0.2711310E+03  0.7546771E-02  0.1100634E+00
         21   -1    0    0  504  503  0.00000000000E+00  0.00000000000E+00  0.95227118158E+03  0.95227118158E+03  0.00000000000E+00 0. -1.
         21   -1    0    0  503  504 -0.00000000000E+00 -0.00000000000E+00 -0.19299128355E+02  0.19299128355E+02  0.00000000000E+00 0. -1.
         25    2    1    2    0    0  0.37635128401E+02 -0.22002141354E+02  0.36242242340E+03  0.38586156740E+03  0.12505454451E+03 0.  0.
         25    2    1    2    0    0 -0.37635128401E+02  0.22002141354E+02  0.57054962983E+03  0.58570874253E+03  0.12500941512E+03 0.  0.
          5    1    3    3  501    0 -0.30821450819E+02 -0.14391874753E+01  0.25401606723E+03  0.25592632827E+03  0.47000000000E+01 0.  1.
         -5    1    3    3    0  501  0.68456579220E+02 -0.20562953879E+02  0.10840635617E+03  0.12993523913E+03  0.47000000000E+01 0.  1.
          5    1    4    4  502    0  0.14395455579E+02  0.19581931304E+02  0.17797602122E+02  0.30488125823E+02  0.47000000000E+01 0.  1.
         -5    1    4    4    0  502 -0.52030583980E+02  0.24202100501E+01  0.55275202770E+03  0.55522061671E+03  0.47000000000E+01 0.  1.
<mgrwt>
<rscale>  0 0.27113099E+03</rscale>
<asrwt>0</asrwt>
<pdfrwt beam="1">  1       21 0.14650322E+00 0.27113099E+03</pdfrwt>
<pdfrwt beam="2">  1       21 0.29690974E-02 0.27113099E+03</pdfrwt>
<totfact> 0.19892371E+05</totfact>
</mgrwt>
</event>
<event>
 8    1  0.9691636E-006  0.3033956E+03  0.7546771E-02  0.1083555E+00
         21   -1    0    0  504  503  0.00000000000E+00  0.00000000000E+00  0.31289276397E+02  0.31289276397E+02  0.00000000000E+00 0. -1.
         21   -1    0    0  503  504 -0.00000000000E+00 -0.00000000000E+00 -0.73546669251E+03  0.73546669251E+03  0.00000000000E+00 0. -1.
         25    2    1    2    0    0  0.81629075871E+01 -0.71622792989E+02 -0.47039263422E+03  0.49202617691E+03  0.12499628355E+03 0.  0.
         25    2    1    2    0    0 -0.81629075871E+01  0.71622792989E+02 -0.23378478190E+03  0.27472979201E+03  0.12499870732E+03 0.  0.
          5    1    3    3  501    0 -0.30873269239E+01 -0.64469059876E+02 -0.87285692771E+02  0.10865851753E+03  0.47000000000E+01 0.  1.
         -5    1    3    3    0  501  0.11250234511E+02 -0.71537331137E+01 -0.38310694144E+03  0.38336765938E+03  0.47000000000E+01 0.  1.
          5    1    4    4  502    0 -0.34859944644E+01  0.35911761665E+02 -0.23557111963E+03  0.23836453005E+03  0.47000000000E+01 0. -1.
         -5    1    4    4    0  502 -0.46769131227E+01  0.35711031325E+02  0.17863377258E+01  0.36365261956E+02  0.47000000000E+01 0. -1.
<mgrwt>
<rscale>  0 0.30339559E+03</rscale>
<asrwt>0</asrwt>
<pdfrwt beam="1">  1       21 0.48137352E-02 0.30339559E+03</pdfrwt>
<pdfrwt beam="2">  1       21 0.11314871E+00 0.30339559E+03</pdfrwt>
<totfact> 0.16880243E+05</totfact>
</mgrwt>
</event>
<event>
 8    1  0.9691636E-006  0.3371307E+03  0.7546771E-02  0.1068025E+00
         21   -1    0    0  504  503  0.00000000000E+00  0.00000000000E+00  0.59159674931E+03  0.59159674931E+03  0.00000000000E+00 0.  1.
         21   -1    0    0  503  504 -0.00000000000E+00 -0.00000000000E+00 -0.48029812947E+02  0.48029812947E+02  0.00000000000E+00 0.  1.
         25    2    1    2    0    0  0.10157402842E+03  0.35356770524E+02  0.33810185134E+03  0.37617217466E+03  0.12500103456E+03 0.  0.
         25    2    1    2    0    0 -0.10157402842E+03 -0.35356770524E+02  0.20546508502E+03  0.26345438759E+03  0.12499971482E+03 0.  0.
          5    1    3    3  501    0  0.11071082005E+03  0.67824068224E+02  0.25056128358E+03  0.28224109682E+03  0.47000000000E+01 0. -1.
         -5    1    3    3    0  501 -0.91367916237E+01 -0.32467297701E+02  0.87540567758E+02  0.93931077842E+02  0.47000000000E+01 0. -1.
          5    1    4    4  502    0 -0.94496613083E+02 -0.33942660352E+02  0.22261874395E+03  0.24425992146E+03  0.47000000000E+01 0.  1.
         -5    1    4    4    0  502 -0.70774153381E+01 -0.14141101719E+01 -0.17153658925E+02  0.19194466128E+02  0.47000000000E+01 0.  1.
<mgrwt>
<rscale>  0 0.33713072E+03</rscale>
<asrwt>0</asrwt>
<pdfrwt beam="1">  1       21 0.91014879E-01 0.33713072E+03</pdfrwt>
<pdfrwt beam="2">  1       21 0.73892024E-02 0.33713072E+03</pdfrwt>
<totfact> 0.13485659E+05</totfact>
</mgrwt>
</event>
<event>
 8    1  0.9691636E-006  0.3443768E+03  0.7546771E-02  0.1064947E+00
         21   -1    0    0  504  503  0.00000000000E+00  0.00000000000E+00  0.72472185119E+03  0.72472185119E+03  0.00000000000E+00 0. -1.
         21   -1    0    0  503  504 -0.00000000000E+00 -0.00000000000E+00 -0.40910663579E+02  0.40910663579E+02  0.00000000000E+00 0. -1.
         25    2    1    2    0    0 -0.80447770007E+02  0.81842015673E+02  0.27685039632E+03  0.32471813904E+03  0.12500307457E+03 0.  0.
         25    2    1    2    0    0  0.80447770007E+02 -0.81842015673E+02  0.40696079129E+03  0.44091437573E+03  0.12497376464E+03 0.  0.
          5    1    3    3  501    0 -0.25017055617E+02  0.70632982525E+02  0.25167776559E+03  0.26263788566E+03  0.47000000000E+01 0.  1.
         -5    1    3    3    0  501 -0.55430714391E+02  0.11209033148E+02  0.25172630731E+02  0.62080253381E+02  0.47000000000E+01 0.  1.
          5    1    4    4  502    0  0.61452736304E+02 -0.11329637544E+03  0.27311935616E+03  0.30204102403E+03  0.47000000000E+01 0.  1.
         -5    1    4    4    0  502  0.18995033703E+02  0.31454359770E+02  0.13384143513E+03  0.13887335170E+03  0.47000000000E+01 0.  1.
<mgrwt>
<rscale>  0 0.34437684E+03</rscale>
<asrwt>0</asrwt>
<pdfrwt beam="1">  1       21 0.11149566E+00 0.34437684E+03</pdfrwt>
<pdfrwt beam="2">  1       21 0.62939488E-02 0.34437684E+03</pdfrwt>
<totfact> 0.10910661E+05</totfact>
</mgrwt>
</event>
<event>
 8    1  0.9691636E-006  0.2801664E+03  0.7546771E-02  0.1095598E+00
         21   -1    0    0  504  503  0.00000000000E+00  0.00000000000E+00  0.43864186691E+03  0.43864186691E+03  0.00000000000E+00 0. -1.
         21   -1    0    0  503  504 -0.00000000000E+00 -0.00000000000E+00 -0.44736506335E+02  0.44736506335E+02  0.00000000000E+00 0. -1.
         25    2    1    2    0    0  0.14694516415E+02  0.56002509551E+02  0.15304760631E+03  0.20591123392E+03  0.12499462616E+03 0.  0.
         25    2    1    2    0    0 -0.14694516415E+02 -0.56002509551E+02  0.24085775426E+03  0.27746713932E+03  0.12499338273E+03 0.  0.
          5    1    3    3  501    0 -0.73269408003E+01 -0.13341386178E+02  0.12774917114E+03  0.12873856210E+03  0.47000000000E+01 0.  1.
         -5    1    3    3    0  501  0.22021457215E+02  0.69343895730E+02  0.25298435171E+02  0.77172671814E+02  0.47000000000E+01 0.  1.
          5    1    4    4  502    0  0.15563138292E+02  0.33357740783E+02  0.35174589455E+02  0.51130146557E+02  0.47000000000E+01 0. -1.
         -5    1    4    4    0  502 -0.30257654707E+02 -0.89360250334E+02  0.20568316481E+03  0.22633699276E+03  0.47000000000E+01 0. -1.
<mgrwt>
<rscale>  0 0.28016641E+03</rscale>
<asrwt>0</asrwt>
<pdfrwt beam="1">  1       21 0.67483361E-01 0.28016641E+03</pdfrwt>
<pdfrwt beam="2">  1       21 0.68825397E-02 0.28016641E+03</pdfrwt>
<totfact> 0.30602858E+05</totfact>
</mgrwt>
</event>
<event>
 8    1  0.9691636E-006  0.3101519E+03  0.7546771E-02  0.1080273E+00
         21   -1    0    0  504  503  0.00000000000E+00  0.00000000000E+00  0.10936632056E+03  0.10936632056E+03  0.00000000000E+00 0.  1.
         21   -1    0    0  503  504 -0.00000000000E+00 -0.00000000000E+00 -0.21988987748E+03  0.21988987748E+03  0.00000000000E+00 0.  1.
         25    2    1    2    0    0 -0.53166412735E+01 -0.69764232210E+02  0.77889665886E+01  0.14345708693E+03  0.12499581201E+03 0.  0.
         25    2    1    2    0    0  0.53166412735E+01  0.69764232210E+02 -0.11831252351E+03  0.18579911111E+03  0.12501256616E+03 0.  0.
          5    1    3    3  501    0  0.74562691259E+01  0.15680456265E+02 -0.40540717018E+02  0.44352140808E+02  0.47000000000E+01 0.  1.
         -5    1    3    3    0  501 -0.12772910399E+02 -0.85444688474E+02  0.48329683607E+02  0.99104946123E+02  0.47000000000E+01 0.  1.
          5    1    4    4  502    0 -0.42039040173E+01  0.39153862178E+02  0.19525508604E+02  0.44204447951E+02  0.47000000000E+01 0.  1.
         -5    1    4    4    0  502  0.95205452908E+01  0.30610370032E+02 -0.13783803212E+03  0.14159466315E+03  0.47000000000E+01 0.  1.
<mgrwt>
<rscale>  0 0.31015188E+03</rscale>
<asrwt>0</asrwt>
<pdfrwt beam="1">  1       21 0.16825588E-01 0.31015188E+03</pdfrwt>
<pdfrwt beam="2">  1       21 0.33829212E-01 0.31015188E+03</pdfrwt>
<totfact> 0.26020061E+05</totfact>
</mgrwt>
</event>
<event>
 8    1  0.9691636E-006  0.2830866E+03  0.7546771E-02  0.1094015E+00
         21   -1    0    0  504  503  0.00000000000E+00  0.00000000000E+00  0.23949943604E+02  0.23949943604E+02  0.00000000000E+00 0. -1.
         21   -1    0    0  503  504 -0.00000000000E+00 -0.00000000000E+00 -0.83651584006E+03  0.83651584006E+03  0.00000000000E+00 0. -1.
         25    2    1    2    0    0  0.54107730738E+02 -0.34721857083E+02 -0.45679114057E+03  0.47792949480E+03  0.12500080804E+03 0.  0.
         25    2    1    2    0    0 -0.54107730738E+02  0.34721857083E+02 -0.35577475589E+03  0.38253628887E+03  0.12500032595E+03 0.  0.
          5    1    3    3  501    0  0.39071752306E+02 -0.72447284746E+02 -0.39717706014E+03  0.40564383146E+03  0.47000000000E+01 0.  1.
         -5    1    3    3    0  501  0.15035978431E+02  0.37725427663E+02 -0.59614080426E+02  0.72285663342E+02  0.47000000000E+01 0.  1.
          5    1    4    4  502    0 -0.25205087886E+02  0.80307487148E+02 -0.18339783156E+03  0.20184509796E+03  0.47000000000E+01 0. -1.
         -5    1    4    4    0  502 -0.28902642851E+02 -0.45585630064E+02 -0.17237692432E+03  0.18069119091E+03  0.47000000000E+01 0. -1.
<mgrwt>
<rscale>  0 0.28308661E+03</rscale>
<asrwt>0</asrwt>
<pdfrwt beam="1">  1       21 0.36846070E-02 0.28308661E+03</pdfrwt>
<pdfrwt beam="2">  1       21 0.12869474E+00 0.28308661E+03</pdfrwt>
<totfact> 0.19334019E+05</totfact>
</mgrwt>
</event>
<event>
 8    1  0.9691636E-006  0.2516685E+03  0.7546771E-02  0.1112255E+00
         21   -1    0    0  504  503  0.00000000000E+00  0.00000000000E+00  0.63541312714E+03  0.63541312714E+03  0.00000000000E+00 0.  1.
         21   -1    0    0  503  504 -0.00000000000E+00 -0.00000000000E+00 -0.24919628657E+02  0.24919628657E+02  0.00000000000E+00 0.  1.
         25    2    1    2    0    0 -0.40510233257E+01 -0.13928601767E+02  0.30396257268E+03  0.32898080758E+03  0.12499883771E+03 0.  0.
         25    2    1    2    0    0  0.40510233257E+01  0.13928601767E+02  0.30653092581E+03  0.33135194822E+03  0.12498995310E+03 0.  0.
          5    1    3    3  501    0  0.45590573287E+02  0.30166706104E+02  0.18130285575E+03  0.18942372088E+03  0.47000000000E+01 0. -1.
         -5    1    3    3    0  501 -0.49641596613E+02 -0.44095307872E+02  0.12265971693E+03  0.13955708670E+03  0.47000000000E+01 0. -1.
          5    1    4    4  502    0 -0.49603388048E+02 -0.21074322228E+02  0.19779811782E+03  0.20506293808E+03  0.47000000000E+01 0. -1.
         -5    1    4    4    0  502  0.53654411374E+02  0.35002923995E+02  0.10873280799E+03  0.12628901014E+03  0.47000000000E+01 0. -1.
<mgrwt>
<rscale>  0 0.25166851E+03</rscale>
<asrwt>0</asrwt>
<pdfrwt beam="1">  1       21 0.97755854E-01 0.25166851E+03</pdfrwt>
<pdfrwt beam="2">  1       21 0.38337895E-02 0.25166851E+03</pdfrwt>
<totfact> 0.35871408E+05</totfact>
</mgrwt>
</event>
<event>
 8    1  0.9691636E-006  0.3895136E+03  0.7546771E-02  0.1047472E+00
         21   -1    0    0  504  503  0.00000000000E+00  0.00000000000E+00  0.97559993417E+03  0.97559993417E+03  0.00000000000E+00 0. -1.
         21   -1    0    0  503  504 -0.00000000000E+00 -0.00000000000E+00 -0.38878864426E+02  0.38878864426E+02  0.00000000000E+00 0. -1.
         25    2    1    2    0    0  0.40522571624E+02  0.14031844956E+03  0.38707110731E+03  0.43218177692E+03  0.12500280033E+03 0.  0.
         25    2    1    2    0    0 -0.40522571624E+02 -0.14031844956E+03  0.54964996243E+03  0.58229702167E+03  0.12499357642E+03 0.  0.
          5    1    3    3  501    0  0.71043850402E+02  0.51657375904E+02  0.11784483036E+03  0.14705511623E+03  0.47000000000E+01 0. -1.
         -5    1    3    3    0  501 -0.30521278778E+02  0.88661073659E+02  0.26922627695E+03  0.28512666069E+03  0.47000000000E+01 0. -1.
          5    1    4    4  502    0 -0.55845788579E+02 -0.53736238197E+01  0.15548447702E+03  0.16536366145E+03  0.47000000000E+01 0.  1.
         -5    1    4    4    0  502  0.15323216955E+02 -0.13494482574E+03  0.39416548541E+03  0.41693336022E+03  0.47000000000E+01 0.  1.
<mgrwt>
<rscale>  0 0.38951363E+03</rscale>
<asrwt>0</asrwt>
<pdfrwt beam="1">  1       21 0.15009228E+00 0.38951363E+03</pdfrwt>
<pdfrwt beam="2">  1       21 0.59813645E-02 0.38951363E+03</pdfrwt>
<totfact> 0.54687101E+04</totfact>
</mgrwt>
</event>
<event>
 8    1  0.9691636E-006  0.2725260E+03  0.7546771E-02  0.1099843E+00
         21   -1    0    0  504  503  0.00000000000E+00  0.00000000000E+00  0.15408208452E+03  0.15408208452E+03  0.00000000000E+00 0. -1.
         21   -1    0    0  503  504 -0.00000000000E+00 -0.00000000000E+00 -0.12050463674E+03  0.12050463674E+03  0.00000000000E+00 0. -1.
         25    2    1    2    0    0  0.48099959161E+02 -0.24574652154E+02  0.11712017011E+02  0.13667309497E+03  0.12499937578E+03 0.  0.
         25    2    1    2    0    0 -0.48099959161E+02  0.24574652154E+02  0.21865430766E+02  0.13791362630E+03  0.12499820661E+03 0.  0.
          5    1    3    3  501    0  0.24781256470E+02  0.27928700443E+02  0.53548679258E+02  0.65449782513E+02  0.47000000000E+01 0.  1.
         -5    1    3    3    0  501  0.23318702691E+02 -0.52503352596E+02 -0.41836662248E+02  0.71223312455E+02  0.47000000000E+01 0.  1.
          5    1    4    4  502    0  0.20303302996E+02 -0.30700749775E+02  0.32341199683E+02  0.49221980316E+02  0.47000000000E+01 0. -1.
         -5    1    4    4    0  502 -0.68403262157E+02  0.55275401929E+02 -0.10475768917E+02  0.88691645979E+02  0.47000000000E+01 0. -1.
<mgrwt>
<rscale>  0 0.27252600E+03</rscale>
<asrwt>0</asrwt>
<pdfrwt beam="1">  1       21 0.23704936E-01 0.27252600E+03</pdfrwt>
<pdfrwt beam="2">  1       21 0.18539175E-01 0.27252600E+03</pdfrwt>
<totfact> 0.43844090E+05</totfact>
</mgrwt>
</event>
<event>
 8    1  0.9691636E-006  0.3431448E+03  0.7546771E-02  0.1065464E+00
         21   -1    0    0  504  503  0.00000000000E+00  0.00000000000E+00  0.16550927157E+03  0.16550927157E+03  0.00000000000E+00 0.  1.
         21   -1    0    0  503  504 -0.00000000000E+00 -0.00000000000E+00 -0.17785767402E+03  0.17785767402E+03  0.00000000000E+00 0.  1.
         25    2    1    2    0    0 -0.22111045746E+02  0.15741372719E+02  0.10823511241E+03  0.16756400631E+03  0.12500466988E+03 0.  0.
         25    2    1    2    0    0  0.22111045746E+02 -0.15741372719E+02 -0.12058351486E+03  0.17580293929E+03  0.12501839964E+03 0.  0.
          5    1    3    3  501    0 -0.28117895627E+02  0.42707519668E+02  0.12484162410E+03  0.13498914549E+03  0.47000000000E+01 0. -1.
         -5    1    3    3    0  501  0.60068498814E+01 -0.26966146949E+02 -0.16606511692E+02  0.32574860819E+02  0.47000000000E+01 0. -1.
          5    1    4    4  502    0  0.73955064896E+02 -0.12667816247E+02 -0.62700853803E+02  0.97894393403E+02  0.47000000000E+01 0.  1.
         -5    1    4    4    0  502 -0.51844019150E+02 -0.30735564715E+01 -0.57882661055E+02  0.77908545884E+02  0.47000000000E+01 0.  1.
<mgrwt>
<rscale>  0 0.34314483E+03</rscale>
<asrwt>0</asrwt>
<pdfrwt beam="1">  1       21 0.25462965E-01 0.34314483E+03</pdfrwt>
<pdfrwt beam="2">  1       21 0.27362719E-01 0.34314483E+03</pdfrwt>
<totfact> 0.17913987E+05</totfact>
</mgrwt>
</event>
<event>
 8    1  0.9691636E-006  0.5469710E+03  0.7546771E-02  0.1002197E+00
         21   -1    0    0  504  503  0.00000000000E+00  0.00000000000E+00  0.34774418565E+03  0.34774418565E+03  0.00000000000E+00 0.  1.
         21   -1    0    0  503  504 -0.00000000000E+00 -0.00000000000E+00 -0.21508431332E+03  0.21508431332E+03  0.00000000000E+00 0.  1.
         25    2    1    2    0    0 -0.89032365258E+02 -0.13116656691E+03 -0.12352311261E+03  0.23667350026E+03  0.12499982416E+03 0.  0.
         25    2    1    2    0    0  0.89032365258E+02  0.13116656691E+03  0.25618298493E+03  0.32615499871E+03  0.12496371905E+03 0.  0.
          5    1    3    3  501    0 -0.63510005754E+02 -0.39193511353E+02  0.67783397928E+01  0.75084539377E+02  0.47000000000E+01 0.  1.
         -5    1    3    3    0  501 -0.25522359504E+02 -0.91973055553E+02 -0.13030145240E+03  0.16158896088E+03  0.47000000000E+01 0.  1.
          5    1    4    4  502    0  0.77437351490E+02  0.89305454675E+01  0.84860084986E+02  0.11532398741E+03  0.47000000000E+01 0.  1.
         -5    1    4    4    0  502  0.11595013769E+02  0.12223602144E+03  0.17132289995E+03  0.21083101131E+03  0.47000000000E+01 0.  1.
<mgrwt>
<rscale>  0 0.54697100E+03</rscale>
<asrwt>0</asrwt>
<pdfrwt beam="1">  1       21 0.53499105E-01 0.54697100E+03</pdfrwt>
<pdfrwt beam="2">  1       21 0.33089894E-01 0.54697100E+03</pdfrwt>
<totfact> 0.25884589E+04</totfact>
</mgrwt>
</event>
<event>
 8    1  0.9691636E-006  0.3370286E+03  0.7546771E-02  0.1068069E+00
         21   -1    0    0  504  503  0.00000000000E+00  0.00000000000E+00  0.11723795901E+03  0.11723795901E+03  0.00000000000E+00 0. -1.
         21   -1    0    0  503  504 -0.00000000000E+00 -0.00000000000E+00 -0.24221740718E+03  0.24221740718E+03  0.00000000000E+00 0. -1.
         25    2    1    2    0    0  0.51204494541E+02 -0.10008893123E+02  0.44431985465E+02  0.14254918265E+03  0.12499595969E+03 0.  0.
         25    2    1    2    0    0 -0.51204494541E+02  0.10008893123E+02 -0.16941143364E+03  0.21690618354E+03  0.12500392157E+03 0.  0.
          5    1    3    3  501    0  0.32560814525E+02  0.72252912385E+01 -0.41138255246E+02  0.53168200277E+02  0.47000000000E+01 0. -1.
         -5    1    3    3    0  501  0.18643680015E+02 -0.17234184362E+02  0.85570240711E+02  0.89380982376E+02  0.47000000000E+01 0. -1.
          5    1    4    4  502    0 -0.51384886730E+01  0.67197261774E+01 -0.17020273079E+03  0.17047761833E+03  0.47000000000E+01 0. -1.
         -5    1    4    4    0  502 -0.46066005868E+02  0.32891669459E+01  0.79129714944E+00  0.46428565205E+02  0.47000000000E+01 0. -1.
<mgrwt>
<rscale>  0 0.33702863E+03</rscale>
<asrwt>0</asrwt>
<pdfrwt beam="1">  1       21 0.18036610E-01 0.33702863E+03</pdfrwt>
<pdfrwt beam="2">  1       21 0.37264216E-01 0.33702863E+03</pdfrwt>
<totfact> 0.18711902E+05</totfact>
</mgrwt>
</event>
<event>
 8    1  0.9691636E-006  0.3624217E+03  0.7546771E-02  0.1057629E+00
         21   -1    0    0  504  503  0.00000000000E+00  0.00000000000E+00  0.90311660008E+03  0.90311660008E+03  0.00000000000E+00 0. -1.
         21   -1    0    0  503  504 -0.00000000000E+00 -0.00000000000E+00 -0.36360066450E+02  0.36360066450E+02  0.00000000000E+00 0. -1.
         25    2    1    2    0    0  0.11338076320E+03 -0.34897557567E+02  0.28812386917E+03  0.33572672732E+03  0.12499613780E+03 0.  0.
         25    2    1    2    0    0 -0.11338076320E+03  0.34897557567E+02  0.57863266445E+03  0.60374993920E+03  0.12500076691E+03 0.  0.
          5    1    3    3  501    0  0.64674023399E+02 -0.81369437544E+02  0.19024882624E+03  0.21684192527E+03  0.47000000000E+01 0.  1.
         -5    1    3    3    0  501  0.48706739800E+02  0.46471879976E+02  0.97875042929E+02  0.11888480205E+03  0.47000000000E+01 0.  1.
          5    1    4    4  502    0 -0.13611983621E+03  0.16939940429E+02  0.52461853206E+03  0.54227508293E+03  0.47000000000E+01 0.  1.
         -5    1    4    4    0  502  0.22739073014E+02  0.17957617138E+02  0.54014132395E+02  0.61474856268E+02  0.47000000000E+01 0.  1.
<mgrwt>
<rscale>  0 0.36242174E+03</rscale>
<asrwt>0</asrwt>
<pdfrwt beam="1">  1       21 0.13894100E+00 0.36242174E+03</pdfrwt>
<pdfrwt beam="2">  1       21 0.55938570E-02 0.36242174E+03</pdfrwt>
<totfact> 0.76058308E+04</totfact>
</mgrwt>
</event>
<event>
 8    1  0.9691636E-006  0.3557931E+03  0.7546771E-02  0.1060262E+00
         21   -1    0    0  504  503  0.00000000000E+00  0.00000000000E+00  0.50833984170E+02  0.50833984170E+02  0.00000000000E+00 0.  1.
         21   -1    0    0  503  504 -0.00000000000E+00 -0.00000000000E+00 -0.62255951879E+03  0.62255951879E+03  0.00000000000E+00 0.  1.
         25    2    1    2    0    0  0.91853510018E+02  0.79892465140E+02 -0.22024696604E+03  0.28098663770E+03  0.12499956490E+03 0.  0.
         25    2    1    2    0    0 -0.91853510018E+02 -0.79892465140E+02 -0.35147856857E+03  0.39240686526E+03  0.12500436171E+03 0.  0.
          5    1    3    3  501    0  0.11991823567E+03  0.58996825338E+02 -0.14152597900E+03  0.19471184190E+03  0.47000000000E+01 0.  1.
         -5    1    3    3    0  501 -0.28064725648E+02  0.20895639802E+02 -0.78720987043E+02  0.86274795795E+02  0.47000000000E+01 0.  1.
          5    1    4    4  502    0 -0.11294576329E+03 -0.88991265393E+02 -0.33232870319E+03  0.36213346673E+03  0.47000000000E+01 0.  1.
         -5    1    4    4    0  502  0.21092253274E+02  0.90988002527E+01 -0.19149865383E+02  0.30273398527E+02  0.47000000000E+01 0.  1.
<mgrwt>
<rscale>  0 0.35579309E+03</rscale>
<asrwt>0</asrwt>
<pdfrwt beam="1">  1       21 0.78206125E-02 0.35579309E+03</pdfrwt>
<pdfrwt beam="2">  1       21 0.95778394E-01 0.35579309E+03</pdfrwt>
<totfact> 0.10766251E+05</totfact>
</mgrwt>
</event>
<event>
 8    1  0.9691636E-006  0.2956900E+03  0.7546771E-02  0.1087415E+00
         21   -1    0    0  504  503  0.00000000000E+00  0.00000000000E+00  0.16617592485E+04  0.16617592485E+04  0.00000000000E+00 0. -1.
         21   -1    0    0  503  504 -0.00000000000E+00 -0.00000000000E+00 -0.13153619816E+02  0.13153619816E+02  0.00000000000E+00 0. -1.
         25    2    1    2    0    0 -0.46471379715E+02  0.58241520260E+02  0.67646180596E+03  0.69193747806E+03  0.12500093925E+03 0.  0.
         25    2    1    2    0    0  0.46471379715E+02 -0.58241520260E+02  0.97214382276E+03  0.98297539029E+03  0.12500136785E+03 0.  0.
          5    1    3    3  501    0 -0.68503191935E+02  0.66807161651E+02  0.64614278611E+03  0.65320630294E+03  0.47000000000E+01 0. -1.
         -5    1    3    3    0  501  0.22031812220E+02 -0.85656413910E+01  0.30319019843E+02  0.38731175123E+02  0.47000000000E+01 0. -1.
          5    1    4    4  502    0  0.54717836819E+02 -0.19233027049E+02  0.16729863415E+03  0.17712954012E+03  0.47000000000E+01 0.  1.
         -5    1    4    4    0  502 -0.82464571040E+01 -0.39008493211E+02  0.80484518862E+03  0.80584585017E+03  0.47000000000E+01 0.  1.
<mgrwt>
<rscale>  0 0.29569004E+03</rscale>
<asrwt>0</asrwt>
<pdfrwt beam="1">  1       21 0.25565510E+00 0.29569004E+03</pdfrwt>
<pdfrwt beam="2">  1       21 0.20236351E-02 0.29569004E+03</pdfrwt>
<totfact> 0.69823252E+04</totfact>
</mgrwt>
</event>
<event>
 8    1  0.9691636E-006  0.3225767E+03  0.7546771E-02  0.1074470E+00
         21   -1    0    0  504  503  0.00000000000E+00  0.00000000000E+00  0.20032350074E+04  0.20032350074E+04  0.00000000000E+00 0.  1.
         21   -1    0    0  503  504 -0.00000000000E+00 -0.00000000000E+00 -0.12985961222E+02  0.12985961222E+02  0.00000000000E+00 0.  1.
         25    2    1    2    0    0  0.50637420883E+02  0.16388565804E+02  0.15390976508E+04  0.15450824039E+04  0.12500129047E+03 0.  0.
         25    2    1    2    0    0 -0.50637420883E+02 -0.16388565804E+02  0.45115139538E+03  0.47113856473E+03  0.12490489241E+03 0.  0.
          5    1    3    3  501    0 -0.23908848483E+01  0.11787578693E+02  0.13989168298E+02  0.19038124158E+02  0.47000000000E+01 0.  1.
         -5    1    3    3    0  501  0.53028305731E+02  0.46009871108E+01  0.15251084825E+04  0.15260442798E+04  0.47000000000E+01 0.  1.
          5    1    4    4  502    0 -0.47437861593E+01 -0.65850268287E+02  0.26294798679E+03  0.27115031827E+03  0.47000000000E+01 0. -1.
         -5    1    4    4    0  502 -0.45893634723E+02  0.49461702483E+02  0.18820340859E+03  0.19998824646E+03  0.47000000000E+01 0. -1.
<mgrwt>
<rscale>  0 0.32257670E+03</rscale>
<asrwt>0</asrwt>
<pdfrwt beam="1">  1       21 0.30818976E+00 0.32257670E+03</pdfrwt>
<pdfrwt beam="2">  1       21 0.19978418E-02 0.32257670E+03</pdfrwt>
<totfact> 0.34314775E+04</totfact>
</mgrwt>
</event>
<event>
 8    1  0.9691636E-006  0.2679907E+03  0.7546771E-02  0.1102435E+00
         21   -1    0    0  504  503  0.00000000000E+00  0.00000000000E+00  0.12278578239E+03  0.12278578239E+03  0.00000000000E+00 0. -1.
         21   -1    0    0  503  504 -0.00000000000E+00 -0.00000000000E+00 -0.14622826115E+03  0.14622826115E+03  0.00000000000E+00 0. -1.
         25    2    1    2    0    0 -0.83886310165E+01 -0.46753031244E+02 -0.20036374276E+02  0.13524804535E+03  0.12503744405E+03 0.  0.
         25    2    1    2    0    0  0.83886310165E+01  0.46753031244E+02 -0.34061044858E+01  0.13376599819E+03  0.12500210263E+03 0.  0.
          5    1    3    3  501    0  0.30557729395E+02 -0.23474666234E+02 -0.62076245747E+02  0.73214650629E+02  0.47000000000E+01 0. -1.
         -5    1    3    3    0  501 -0.38946360411E+02 -0.23278365010E+02  0.42039871471E+02  0.62033394717E+02  0.47000000000E+01 0. -1.
          5    1    4    4  502    0 -0.35900517997E+02  0.13362090439E+02  0.45503795573E+02  0.59666389742E+02  0.47000000000E+01 0.  1.
         -5    1    4    4    0  502  0.44289149014E+02  0.33390940805E+02 -0.48909900058E+02  0.74099608446E+02  0.47000000000E+01 0.  1.
<mgrwt>
<rscale>  0 0.26799068E+03</rscale>
<asrwt>0</asrwt>
<pdfrwt beam="1">  1       21 0.18890120E-01 0.26799068E+03</pdfrwt>
<pdfrwt beam="2">  1       21 0.22496656E-01 0.26799068E+03</pdfrwt>
<totfact> 0.46815981E+05</totfact>
</mgrwt>
</event>
<event>
 8    1  0.9691636E-006  0.2889680E+03  0.7546771E-02  0.1090889E+00
         21   -1    0    0  504  503  0.00000000000E+00  0.00000000000E+00  0.78377532222E+03  0.78377532222E+03  0.00000000000E+00 0.  1.
         21   -1    0    0  503  504 -0.00000000000E+00 -0.00000000000E+00 -0.26634704123E+02  0.26634704123E+02  0.00000000000E+00 0.  1.
         25    2    1    2    0    0  0.67908943332E+02 -0.42059163439E+01  0.44844732922E+03  0.47048854253E+03  0.12500058901E+03 0.  0.
         25    2    1    2    0    0 -0.67908943332E+02  0.42059163439E+01  0.30869328888E+03  0.33992148381E+03  0.12500301693E+03 0.  0.
          5    1    3    3  501    0  0.45318241440E+02 -0.50125986585E+02  0.11793044879E+03  0.13600014077E+03  0.47000000000E+01 0.  1.
         -5    1    3    3    0  501  0.22590701892E+02  0.45920070241E+02  0.33051688043E+03  0.33448840176E+03  0.47000000000E+01 0.  1.
          5    1    4    4  502    0 -0.29362347064E+02 -0.59813087091E+02  0.16179474509E+03  0.17504108761E+03  0.47000000000E+01 0. -1.
         -5    1    4    4    0  502 -0.38546596268E+02  0.64019003435E+02  0.14689854379E+03  0.16488039620E+03  0.47000000000E+01 0. -1.
<mgrwt>
<rscale>  0 0.28896798E+03</rscale>
<asrwt>0</asrwt>
<pdfrwt beam="1">  1       21 0.12058080E+00 0.28896798E+03</pdfrwt>
<pdfrwt beam="2">  1       21 0.40976474E-02 0.28896798E+03</pdfrwt>
<totfact> 0.19027191E+05</totfact>
</mgrwt>
</event>
<event>
 8    1  0.9691636E-006  0.2733824E+03  0.7546771E-02  0.1099359E+00
         21   -1    0    0  504  503  0.00000000000E+00  0.00000000000E+00  0.17504186233E+02  0.17504186233E+02  0.00000000000E+00 0.  1.
         21   -1    0    0  503  504 -0.00000000000E+00 -0.00000000000E+00 -0.10674291645E+04  0.10674291645E+04  0.00000000000E+00 0.  1.
         25    2    1    2    0    0 -0.26176672708E+02 -0.44906813156E+02 -0.59969436538E+03  0.61478999535E+03  0.12502626306E+03 0.  0.
         25    2    1    2    0    0  0.26176672708E+02  0.44906813156E+02 -0.45023061294E+03  0.47014335543E+03  0.12500131907E+03 0.  0.
          5    1    3    3  501    0 -0.58659340918E+02  0.19953290054E+02 -0.24845111748E+03  0.25610368962E+03  0.47000000000E+01 0.  1.
         -5    1    3    3    0  501  0.32482668210E+02 -0.64860103210E+02 -0.35124324789E+03  0.35868630572E+03  0.47000000000E+01 0.  1.
          5    1    4    4  502    0 -0.15865592515E+02 -0.24730125709E+02 -0.30624385923E+02  0.42699404640E+02  0.47000000000E+01 0.  1.
         -5    1    4    4    0  502  0.42042265223E+02  0.69636938866E+02 -0.41960622701E+03  0.42744395079E+03  0.47000000000E+01 0.  1.
<mgrwt>
<rscale>  0 0.27338236E+03</rscale>
<asrwt>0</asrwt>
<pdfrwt beam="1">  1       21 0.26929514E-02 0.27338236E+03</pdfrwt>
<pdfrwt beam="2">  1       21 0.16421989E+00 0.27338236E+03</pdfrwt>
<totfact> 0.17174755E+05</totfact>
</mgrwt>
</event>
<event>
 8    1  0.9691636E-006  0.2747617E+03  0.7546771E-02  0.1098585E+00
         21   -1    0    0  504  503  0.00000000000E+00  0.00000000000E+00  0.15575007219E+02  0.15575007219E+02  0.00000000000E+00 0. -1.
         21   -1    0    0  503  504 -0.00000000000E+00 -0.00000000000E+00 -0.12117814293E+04  0.12117814293E+04  0.00000000000E+00 0. -1.
         25    2    1    2    0    0  0.13811339260E+02  0.46102140042E+02 -0.46163064466E+03  0.48067103352E+03  0.12500251986E+03 0.  0.
         25    2    1    2    0    0 -0.13811339260E+02 -0.46102140042E+02 -0.73457577743E+03  0.74668540300E+03  0.12498543061E+03 0.  0.
          5    1    3    3  501    0 -0.21218091992E+02  0.48039987699E+02 -0.42993968317E+03  0.43316078886E+03  0.47000000000E+01 0.  1.
         -5    1    3    3    0  501  0.35029431252E+02 -0.19378476571E+01 -0.31690961490E+02  0.47510244659E+02  0.47000000000E+01 0.  1.
          5    1    4    4  502    0 -0.57641729641E+02 -0.32121092749E+02 -0.61386219491E+03  0.61741656759E+03  0.47000000000E+01 0.  1.
         -5    1    4    4    0  502  0.43830390381E+02 -0.13981047293E+02 -0.12071358252E+03  0.12926883541E+03  0.47000000000E+01 0.  1.
<mgrwt>
<rscale>  0 0.27476175E+03</rscale>
<asrwt>0</asrwt>
<pdfrwt beam="1">  1       21 0.23961551E-02 0.27476175E+03</pdfrwt>
<pdfrwt beam="2">  1       21 0.18642790E+00 0.27476175E+03</pdfrwt>
<totfact> 0.14545548E+05</totfact>
</mgrwt>
</event>
<event>
 8    1  0.9691636E-006  0.2975755E+03  0.7546771E-02  0.1086459E+00
         21   -1    0    0  504  503  0.00000000000E+00  0.00000000000E+00  0.80470390206E+03  0.80470390206E+03  0.00000000000E+00 0. -1.
         21   -1    0    0  503  504 -0.00000000000E+00 -0.00000000000E+00 -0.27510483122E+02  0.27510483122E+02  0.00000000000E+00 0. -1.
         25    2    1    2    0    0  0.39176995514E+01  0.75478314872E+02  0.46792309949E+03  0.49018424225E+03  0.12496495478E+03 0.  0.
         25    2    1    2    0    0 -0.39176995514E+01 -0.75478314872E+02  0.30927031944E+03  0.34203014293E+03  0.12499665515E+03 0.  0.
          5    1    3    3  501    0 -0.32044935015E+02  0.74504462143E+02  0.15347900544E+03  0.17365393128E+03  0.47000000000E+01 0. -1.
         -5    1    3    3    0  501  0.35962634566E+02  0.97385272872E+00  0.31444409405E+03  0.31653031096E+03  0.47000000000E+01 0. -1.
          5    1    4    4  502    0 -0.35245157935E+02 -0.50317289258E+02  0.49239418737E+02  0.78871167823E+02  0.47000000000E+01 0.  1.
         -5    1    4    4    0  502  0.31327458384E+02 -0.25161025614E+02  0.26003090070E+03  0.26315897511E+03  0.47000000000E+01 0.  1.
<mgrwt>
<rscale>  0 0.29757549E+03</rscale>
<asrwt>0</asrwt>
<pdfrwt beam="1">  1       21 0.12380058E+00 0.29757549E+03</pdfrwt>
<pdfrwt beam="2">  1       21 0.42323826E-02 0.29757549E+03</pdfrwt>
<totfact> 0.16812843E+05</totfact>
</mgrwt>
</event>
<event>
 8    1  0.9691636E-006  0.2919083E+03  0.7546771E-02  0.1089357E+00
         21   -1    0    0  504  503  0.00000000000E+00  0.00000000000E+00  0.22072958789E+03  0.22072958789E+03  0.00000000000E+00 0. -1.
         21   -1    0    0  503  504 -0.00000000000E+00 -0.00000000000E+00 -0.96509997570E+02  0.96509997570E+02  0.00000000000E+00 0. -1.
         25    2    1    2    0    0  0.82396272535E+01 -0.53577770077E+02  0.52232508242E+01  0.13634098473E+03  0.12499245123E+03 0.  0.
         25    2    1    2    0    0 -0.82396272535E+01  0.53577770077E+02  0.11899633950E+03  0.18089860074E+03  0.12500282409E+03 0.  0.
          5    1    3    3  501    0 -0.75455004813E+01 -0.73244016382E+02  0.46883024017E+02  0.87416980354E+02  0.47000000000E+01 0.  1.
         -5    1    3    3    0  501  0.15785127735E+02  0.19666246305E+02 -0.41659773193E+02  0.48924004372E+02  0.47000000000E+01 0.  1.
          5    1    4    4  502    0  0.81698371221E+01 -0.22622825906E+02  0.96601450471E+02  0.99661771626E+02  0.47000000000E+01 0. -1.
         -5    1    4    4    0  502 -0.16409464376E+02  0.76200595984E+02  0.22394889029E+02  0.81236829111E+02  0.47000000000E+01 0. -1.
<mgrwt>
<rscale>  0 0.29190829E+03</rscale>
<asrwt>0</asrwt>
<pdfrwt beam="1">  1       21 0.33958398E-01 0.29190829E+03</pdfrwt>
<pdfrwt beam="2">  1       21 0.14847692E-01 0.29190829E+03</pdfrwt>
<totfact> 0.32649654E+05</totfact>
</mgrwt>
</event>
<event>
 8    1  0.9691636E-006  0.2611812E+03  0.7546771E-02  0.1106436E+00
         21   -1    0    0  504  503  0.00000000000E+00  0.00000000000E+00  0.32655892163E+03  0.32655892163E+03  0.00000000000E+00 0. -1.
         21   -1    0    0  503  504 -0.00000000000E+00 -0.00000000000E+00 -0.52223035949E+02  0.52223035949E+02  0.00000000000E+00 0. -1.
         25    2    1    2    0    0  0.13912082116E+02 -0.52618492457E+00  0.18815088757E+03  0.22631625857E+03  0.12499787799E+03 0.  0.
         25    2    1    2    0    0 -0.13912082116E+02  0.52618492457E+00  0.86184998104E+02  0.15246569900E+03  0.12499645025E+03 0.  0.
          5    1    3    3  501    0 -0.18565249550E+02  0.14380568212E+02 -0.92340178906E+01  0.25667612264E+02  0.47000000000E+01 0.  1.
         -5    1    3    3    0  501  0.32477331665E+02 -0.14906753137E+02  0.19738490546E+03  0.20064864631E+03  0.47000000000E+01 0.  1.
          5    1    4    4  502    0  0.50898369361E+02 -0.23725100559E+02  0.40945307283E+02  0.69657250797E+02  0.47000000000E+01 0.  1.
         -5    1    4    4    0  502 -0.64810451476E+02  0.24251285483E+02  0.45239690821E+02  0.82808448203E+02  0.47000000000E+01 0.  1.
<mgrwt>
<rscale>  0 0.26118115E+03</rscale>
<asrwt>0</asrwt>
<pdfrwt beam="1">  1       21 0.50239833E-01 0.26118115E+03</pdfrwt>
<pdfrwt beam="2">  1       21 0.80343134E-02 0.26118115E+03</pdfrwt>
<totfact> 0.44285312E+05</totfact>
</mgrwt>
</event>
<event>
 8    1  0.9691636E-006  0.2540351E+03  0.7546771E-02  0.1110781E+00
         21   -1    0    0  504  503  0.00000000000E+00  0.00000000000E+00  0.76998274074E+02  0.76998274074E+02  0.00000000000E+00 0.  1.
         21   -1    0    0  503  504 -0.00000000000E+00 -0.00000000000E+00 -0.20953012378E+03  0.20953012378E+03  0.00000000000E+00 0.  1.
         25    2    1    2    0    0 -0.34582247242E+00  0.19607830189E+02 -0.53706758379E+02  0.13745344147E+03  0.12499778430E+03 0.  0.
         25    2    1    2    0    0  0.34582247242E+00 -0.19607830189E+02 -0.78825091325E+02  0.14907495638E+03  0.12500144399E+03 0.  0.
          5    1    3    3  501    0 -0.39647641312E+02 -0.20369028320E+02 -0.66084762248E+02  0.79850601611E+02  0.47000000000E+01 0.  1.
         -5    1    3    3    0  501  0.39301818840E+02  0.39976858509E+02  0.12378003868E+02  0.57602839862E+02  0.47000000000E+01 0.  1.
          5    1    4    4  502    0  0.22351307738E+02 -0.33360897833E+02 -0.10463515690E+03  0.11217458055E+03  0.47000000000E+01 0. -1.
         -5    1    4    4    0  502 -0.22005485265E+02  0.13753067645E+02  0.25810065575E+02  0.36900375830E+02  0.47000000000E+01 0. -1.
<mgrwt>
<rscale>  0 0.25403510E+03</rscale>
<asrwt>0</asrwt>
<pdfrwt beam="1">  1       21 0.11845888E-01 0.25403510E+03</pdfrwt>
<pdfrwt beam="2">  1       21 0.32235404E-01 0.25403510E+03</pdfrwt>
<totfact> 0.54965763E+05</totfact>
</mgrwt>
</event>
<event>
 8    1  0.9691636E-006  0.2710590E+03  0.7546771E-02  0.1100675E+00
         21   -1    0    0  504  503  0.00000000000E+00  0.00000000000E+00  0.38519383433E+02  0.38519383433E+02  0.00000000000E+00 0.  1.
         21   -1    0    0  503  504 -0.00000000000E+00 -0.00000000000E+00 -0.47685732174E+03  0.47685732174E+03  0.00000000000E+00 0.  1.
         25    2    1    2    0    0  0.18740477790E+02  0.24064193266E+02 -0.13819354847E+03  0.18881601989E+03  0.12499496639E+03 0.  0.
         25    2    1    2    0    0 -0.18740477790E+02 -0.24064193266E+02 -0.30014438983E+03  0.32656068528E+03  0.12499974207E+03 0.  0.
          5    1    3    3  501    0 -0.43391197061E+02 -0.50463527529E+01 -0.10208724095E+03  0.11114025563E+03  0.47000000000E+01 0.  1.
         -5    1    3    3    0  501  0.62131674851E+02  0.29110546019E+02 -0.36106307524E+02  0.77675764253E+02  0.47000000000E+01 0.  1.
          5    1    4    4  502    0  0.43949275324E+02 -0.11918808431E+02 -0.21615252877E+03  0.22094705811E+03  0.47000000000E+01 0.  1.
         -5    1    4    4    0  502 -0.62689753115E+02 -0.12145384834E+02 -0.83991861066E+02  0.10561362717E+03  0.47000000000E+01 0.  1.
<mgrwt>
<rscale>  0 0.27105903E+03</rscale>
<asrwt>0</asrwt>
<pdfrwt beam="1">  1       21 0.59260593E-02 0.27105903E+03</pdfrwt>
<pdfrwt beam="2">  1       21 0.73362662E-01 0.27105903E+03</pdfrwt>
<totfact> 0.32985819E+05</totfact>
</mgrwt>
</event>
<event>
 8    1  0.9691636E-006  0.3398152E+03  0.7546771E-02  0.1066875E+00
         21   -1    0    0  504  503  0.00000000000E+00  0.00000000000E+00  0.14931460346E+04  0.14931460346E+04  0.00000000000E+00 0. -1.
         21   -1    0    0  503  504 -0.00000000000E+00 -0.00000000000E+00 -0.19334066617E+02  0.19334066617E+02  0.00000000000E+00 0. -1.
         25    2    1    2    0    0 -0.56501952215E+02 -0.29002135520E+02  0.11640428273E+04  0.11724566288E+04  0.12500099251E+03 0.  0.
         25    2    1    2    0    0  0.56501952215E+02  0.29002135520E+02  0.30976914062E+03  0.34002347237E+03  0.12500178723E+03 0.  0.
          5    1    3    3  501    0 -0.47549876260E+02 -0.66767074982E+02  0.45579846250E+03  0.46313406423E+03  0.47000000000E+01 0.  1.
         -5    1    3    3    0  501 -0.89520759543E+01  0.37764939462E+02  0.70824436485E+03  0.70932256460E+03  0.47000000000E+01 0.  1.
          5    1    4    4  502    0  0.85324802643E+02  0.30272554405E+02  0.13366021191E+03  0.16150508272E+03  0.47000000000E+01 0.  1.
         -5    1    4    4    0  502 -0.28822850428E+02 -0.12704188853E+01  0.17610892871E+03  0.17851838965E+03  0.47000000000E+01 0.  1.
<mgrwt>
<rscale>  0 0.33981516E+03</rscale>
<asrwt>0</asrwt>
<pdfrwt beam="1">  1       21 0.22971468E+00 0.33981516E+03</pdfrwt>
<pdfrwt beam="2">  1       21 0.29744730E-02 0.33981516E+03</pdfrwt>
<totfact> 0.51986353E+04</totfact>
</mgrwt>
</event>
<event>
 8    1  0.9691636E-006  0.2563107E+03  0.7546771E-02  0.1109380E+00
         21   -1    0    0  504  503  0.00000000000E+00  0.00000000000E+00  0.17742594880E+02  0.17742594880E+02  0.00000000000E+00 0. -1.
         21   -1    0    0  503  504 -0.00000000000E+00 -0.00000000000E+00 -0.92567003333E+03  0.92567003333E+03  0.00000000000E+00 0. -1.
         25    2    1    2    0    0 -0.32870299908E+01  0.93737722558E+01 -0.35660025730E+03  0.37800462089E+03  0.12500031093E+03 0.  0.
         25    2    1    2    0    0  0.32870299908E+01 -0.93737722558E+01 -0.55132718115E+03  0.56540800732E+03  0.12500352753E+03 0.  0.
          5    1    3    3  501    0  0.37195654381E+02 -0.49399449162E+01 -0.29225984466E+02  0.47792969448E+02  0.47000000000E+01 0. -1.
         -5    1    3    3    0  501 -0.40482684372E+02  0.14313717172E+02 -0.32737427283E+03  0.33021165144E+03  0.47000000000E+01 0. -1.
          5    1    4    4  502    0  0.34375341163E+02  0.10530794164E+02 -0.45342646695E+02  0.58056931671E+02  0.47000000000E+01 0.  1.
         -5    1    4    4    0  502 -0.31088311172E+02 -0.19904566420E+02 -0.50598453446E+03  0.50735107565E+03  0.47000000000E+01 0.  1.
<mgrwt>
<rscale>  0 0.25631066E+03</rscale>
<asrwt>0</asrwt>
<pdfrwt beam="1">  1       21 0.27296297E-02 0.25631066E+03</pdfrwt>
<pdfrwt beam="2">  1       21 0.14241079E+00 0.25631066E+03</pdfrwt>
<totfact> 0.24764708E+05</totfact>
</mgrwt>
</event>
<event>
 8    1  0.9691636E-006  0.3593529E+03  0.7546771E-02  0.1058840E+00
         21   -1    0    0  504  503  0.00000000000E+00  0.00000000000E+00  0.54528480898E+02  0.54528480898E+02  0.00000000000E+00 0.  1.
         21   -1    0    0  503  504 -0.00000000000E+00 -0.00000000000E+00 -0.59205071415E+03  0.59205071415E+03  0.00000000000E+00 0.  1.
         25    2    1    2    0    0 -0.81454708449E+02 -0.52851830726E+02 -0.42167863247E+03  0.45040792005E+03  0.12500495918E+03 0.  0.
         25    2    1    2    0    0  0.81454708449E+02  0.52851830726E+02 -0.11584360078E+03  0.19617127500E+03  0.12504096830E+03 0.  0.
          5    1    3    3  501    0 -0.75081448647E+00 -0.34398264552E+02 -0.19615206188E+02  0.39882961780E+02  0.47000000000E+01 0.  1.
         -5    1    3    3    0  501 -0.80703893963E+02 -0.18453566174E+02 -0.40206342628E+03  0.41052495826E+03  0.47000000000E+01 0.  1.
          5    1    4    4  502    0 -0.22832898962E+02  0.48254131814E+02 -0.34323923778E+02  0.63639800877E+02  0.47000000000E+01 0.  1.
         -5    1    4    4    0  502  0.10428760741E+03  0.45976989122E+01 -0.81519677005E+02  0.13253147413E+03  0.47000000000E+01 0.  1.
<mgrwt>
<rscale>  0 0.35935290E+03</rscale>
<asrwt>0</asrwt>
<pdfrwt beam="1">  1       21 0.83889974E-02 0.35935290E+03</pdfrwt>
<pdfrwt beam="2">  1       21 0.91084722E-01 0.35935290E+03</pdfrwt>
<totfact> 0.10707586E+05</totfact>
</mgrwt>
</event>
<event>
 8    1  0.9691636E-006  0.3228819E+03  0.7546771E-02  0.1074331E+00
         21   -1    0    0  504  503  0.00000000000E+00  0.00000000000E+00  0.10093594821E+04  0.10093594821E+04  0.00000000000E+00 0. -1.
         21   -1    0    0  503  504 -0.00000000000E+00 -0.00000000000E+00 -0.25821499816E+02  0.25821499816E+02  0.00000000000E+00 0. -1.
         25    2    1    2    0    0  0.73812662789E+02 -0.70054693526E+02  0.52076226474E+03  0.54513783887E+03  0.12500383082E+03 0.  0.
         25    2    1    2    0    0 -0.73812662789E+02  0.70054693526E+02  0.46277571750E+03  0.49004314300E+03  0.12499979209E+03 0.  0.
          5    1    3    3  501    0  0.66539497265E+02 -0.43264907817E+02  0.50807203915E+03  0.51425542671E+03  0.47000000000E+01 0. -1.
         -5    1    3    3    0  501  0.72731655238E+01 -0.26789785709E+02  0.12690225596E+02  0.30882412159E+02  0.47000000000E+01 0. -1.
          5    1    4    4  502    0 -0.28459656023E+02 -0.34219408693E+02  0.94089961277E+02  0.10419179798E+03  0.47000000000E+01 0.  1.
         -5    1    4    4    0  502 -0.45353006766E+02  0.10427410222E+03  0.36868575623E+03  0.38585134503E+03  0.47000000000E+01 0.  1.
<mgrwt>
<rscale>  0 0.32288187E+03</rscale>
<asrwt>0</asrwt>
<pdfrwt beam="1">  1       21 0.15528604E+00 0.32288187E+03</pdfrwt>
<pdfrwt beam="2">  1       21 0.39725392E-02 0.32288187E+03</pdfrwt>
<totfact> 0.10266675E+05</totfact>
</mgrwt>
</event>
<event>
 8    1  0.9691636E-006  0.3608283E+03  0.7546771E-02  0.1058256E+00
         21   -1    0    0  504  503  0.00000000000E+00  0.00000000000E+00  0.44709300694E+03  0.44709300694E+03  0.00000000000E+00 0.  1.
         21   -1    0    0  503  504 -0.00000000000E+00 -0.00000000000E+00 -0.72801986599E+02  0.72801986599E+02  0.00000000000E+00 0.  1.
         25    2    1    2    0    0  0.15532841729E+02 -0.65754046004E+02  0.26955376046E+02  0.14461720975E+03  0.12499072494E+03 0.  0.
         25    2    1    2    0    0 -0.15532841729E+02  0.65754046004E+02  0.34733564430E+03  0.37527778379E+03  0.12500600572E+03 0.  0.
          5    1    3    3  501    0 -0.26981865851E+02  0.87125585102E+01  0.48230141282E+02  0.56144156318E+02  0.47000000000E+01 0. -1.
         -5    1    3    3    0  501  0.42514707580E+02 -0.74466604514E+02 -0.21274765236E+02  0.88473053436E+02  0.47000000000E+01 0. -1.
          5    1    4    4  502    0 -0.46280776979E+01  0.10038638960E+03  0.20565259028E+03  0.22894087492E+03  0.47000000000E+01 0. -1.
         -5    1    4    4    0  502 -0.10904764031E+02 -0.34632343595E+02  0.14168305402E+03  0.14633690887E+03  0.47000000000E+01 0. -1.
<mgrwt>
<rscale>  0 0.36082826E+03</rscale>
<asrwt>0</asrwt>
<pdfrwt beam="1">  1       21 0.68783538E-01 0.36082826E+03</pdfrwt>
<pdfrwt beam="2">  1       21 0.11200306E-01 0.36082826E+03</pdfrwt>
<totfact> 0.12162531E+05</totfact>
</mgrwt>
</event>
<event>
 8    1  0.9691636E-006  0.4150239E+03  0.7546771E-02  0.1038698E+00
         21   -1    0    0  504  503  0.00000000000E+00  0.00000000000E+00  0.94007881469E+02  0.94007881469E+02  0.00000000000E+00 0.  1.
         21   -1    0    0  503  504 -0.00000000000E+00 -0.00000000000E+00 -0.45805954264E+03  0.45805954264E+03  0.00000000000E+00 0.  1.
         25    2    1    2    0    0 -0.45964693843E+02 -0.13873713142E+03 -0.78342975087E+02  0.20766126184E+03  0.12499933284E+03 0.  0.
         25    2    1    2    0    0  0.45964693843E+02  0.13873713142E+03 -0.28570868609E+03  0.34440616226E+03  0.12500162633E+03 0.  0.
          5    1    3    3  501    0 -0.77707882804E+01 -0.44824651525E+02 -0.94411687686E+02  0.10490610710E+03  0.47000000000E+01 0. -1.
         -5    1    3    3    0  501 -0.38193905562E+02 -0.93912479896E+02  0.16068712599E+02  0.10275515475E+03  0.47000000000E+01 0. -1.
          5    1    4    4  502    0  0.12689308620E+02  0.15358116127E+03 -0.21300546196E+03  0.26294791970E+03  0.47000000000E+01 0. -1.
         -5    1    4    4    0  502  0.33275385223E+02 -0.14844029845E+02 -0.72703224123E+02  0.81458242565E+02  0.47000000000E+01 0. -1.
<mgrwt>
<rscale>  0 0.41502389E+03</rscale>
<asrwt>0</asrwt>
<pdfrwt beam="1">  1       21 0.14462751E-01 0.41502389E+03</pdfrwt>
<pdfrwt beam="2">  1       21 0.70470700E-01 0.41502389E+03</pdfrwt>
<totfact> 0.71373326E+04</totfact>
</mgrwt>
</event>
<event>
 8    1  0.9691636E-006  0.3092327E+03  0.7546771E-02  0.1080714E+00
         21   -1    0    0  504  503  0.00000000000E+00  0.00000000000E+00  0.29940441891E+02  0.29940441891E+02  0.00000000000E+00 0. -1.
         21   -1    0    0  503  504 -0.00000000000E+00 -0.00000000000E+00 -0.79845886279E+03  0.79845886279E+03  0.00000000000E+00 0. -1.
         25    2    1    2    0    0  0.16912888067E+02  0.89219953098E+02 -0.36890010070E+03  0.39995099436E+03  0.12500907078E+03 0.  0.
         25    2    1    2    0    0 -0.16912888067E+02 -0.89219953098E+02 -0.39961832019E+03  0.42844831032E+03  0.12500762764E+03 0.  0.
          5    1    3    3  501    0 -0.43175618114E+02  0.64646991844E+02 -0.12300670028E+03  0.14558882467E+03  0.47000000000E+01 0. -1.
         -5    1    3    3    0  501  0.60088506181E+02  0.24572961255E+02 -0.24589340042E+03  0.25436216969E+03  0.47000000000E+01 0. -1.
          5    1    4    4  502    0 -0.56426889831E+02 -0.24084030225E+02 -0.86447474124E+02  0.10610980252E+03  0.47000000000E+01 0.  1.
         -5    1    4    4    0  502  0.39514001764E+02 -0.65135922873E+02 -0.31317084607E+03  0.32233850780E+03  0.47000000000E+01 0.  1.
<mgrwt>
<rscale>  0 0.30923267E+03</rscale>
<asrwt>0</asrwt>
<pdfrwt beam="1">  1       21 0.46062227E-02 0.30923267E+03</pdfrwt>
<pdfrwt beam="2">  1       21 0.12283980E+00 0.30923267E+03</pdfrwt>
<totfact> 0.14800339E+05</totfact>
</mgrwt>
</event>
<event>
 8    1  0.9691636E-006  0.4482421E+03  0.7546771E-02  0.1028248E+00
         21   -1    0    0  504  503  0.00000000000E+00  0.00000000000E+00  0.35888801136E+03  0.35888801136E+03  0.00000000000E+00 0.  1.
         21   -1    0    0  503  504 -0.00000000000E+00 -0.00000000000E+00 -0.13996074913E+03  0.13996074913E+03  0.00000000000E+00 0.  1.
         25    2    1    2    0    0 -0.13409144712E+03  0.12764295086E+03  0.89338649169E+02  0.24060252230E+03  0.12503975529E+03 0.  0.
         25    2    1    2    0    0  0.13409144712E+03 -0.12764295086E+03  0.12958861305E+03  0.25824623819E+03  0.12499868724E+03 0.  0.
          5    1    3    3  501    0  0.27460657152E+01 -0.12911614303E+02  0.33930284078E+02  0.36709737651E+02  0.47000000000E+01 0.  1.
         -5    1    3    3    0  501 -0.13683751284E+03  0.14055456516E+03  0.55408365091E+02  0.20389278465E+03  0.47000000000E+01 0.  1.
          5    1    4    4  502    0  0.95227863270E+02 -0.15026499344E+03  0.98820566930E+02  0.20355713852E+03  0.47000000000E+01 0. -1.
         -5    1    4    4    0  502  0.38863583854E+02  0.22622042577E+02  0.30768046123E+02  0.54689099669E+02  0.47000000000E+01 0. -1.
<mgrwt>
<rscale>  0 0.44824205E+03</rscale>
<asrwt>0</asrwt>
<pdfrwt beam="1">  1       21 0.55213540E-01 0.44824205E+03</pdfrwt>
<pdfrwt beam="2">  1       21 0.21532423E-01 0.44824205E+03</pdfrwt>
<totfact> 0.57419329E+04</totfact>
</mgrwt>
</event>
<event>
 8    1  0.9691636E-006  0.2537904E+03  0.7546771E-02  0.1110933E+00
         21   -1    0    0  504  503  0.00000000000E+00  0.00000000000E+00  0.55363615997E+02  0.55363615997E+02  0.00000000000E+00 0.  1.
         21   -1    0    0  503  504 -0.00000000000E+00 -0.00000000000E+00 -0.29084792772E+03  0.29084792772E+03  0.00000000000E+00 0.  1.
         25    2    1    2    0    0  0.14370124966E+01 -0.85687653917E+01 -0.14511834296E+03  0.19172757318E+03  0.12499856043E+03 0.  0.
         25    2    1    2    0    0 -0.14370124966E+01  0.85687653917E+01 -0.90365968765E+02  0.15448397053E+03  0.12499520029E+03 0.  0.
          5    1    3    3  501    0 -0.11461365231E+02  0.33417583483E+02 -0.14313943958E+03  0.14750961644E+03  0.47000000000E+01 0. -1.
         -5    1    3    3    0  501  0.12898377728E+02 -0.41986348874E+02 -0.19789033759E+01  0.44217956741E+02  0.47000000000E+01 0. -1.
          5    1    4    4  502    0 -0.25742931149E+02  0.15404826295E+02  0.23096191225E+02  0.38151424960E+02  0.47000000000E+01 0. -1.
         -5    1    4    4    0  502  0.24305918653E+02 -0.68360609032E+01 -0.11346215999E+03  0.11633254557E+03  0.47000000000E+01 0. -1.
<mgrwt>
<rscale>  0 0.25379041E+03</rscale>
<asrwt>0</asrwt>
<pdfrwt beam="1">  1       21 0.85174793E-02 0.25379041E+03</pdfrwt>
<pdfrwt beam="2">  1       21 0.44745836E-01 0.25379041E+03</pdfrwt>
<totfact> 0.50949307E+05</totfact>
</mgrwt>
</event>
<event>
 8    1  0.9691636E-006  0.3118055E+03  0.7546771E-02  0.1079484E+00
         21   -1    0    0  504  503  0.00000000000E+00  0.00000000000E+00  0.61093228763E+02  0.61093228763E+02  0.00000000000E+00 0.  1.
         21   -1    0    0  503  504 -0.00000000000E+00 -0.00000000000E+00 -0.39784542304E+03  0.39784542304E+03  0.00000000000E+00 0.  1.
         25    2    1    2    0    0 -0.54818572678E+02 -0.15929900110E+02 -0.59990425118E+02  0.14993833520E+03  0.12499526242E+03 0.  0.
         25    2    1    2    0    0  0.54818572678E+02  0.15929900110E+02 -0.27676176916E+03  0.30900031661E+03  0.12500112466E+03 0.  0.
          5    1    3    3  501    0 -0.74497374724E+02 -0.34242706540E+02 -0.81113373976E+02  0.11542916109E+03  0.47000000000E+01 0.  1.
         -5    1    3    3    0  501  0.19678802046E+02  0.18312806430E+02  0.21122948858E+02  0.34509174110E+02  0.47000000000E+01 0.  1.
          5    1    4    4  502    0  0.49764270438E+02 -0.12753254292E+02 -0.28390914338E+02  0.58883462230E+02  0.47000000000E+01 0.  1.
         -5    1    4    4    0  502  0.50543022394E+01  0.28683154403E+02 -0.24837085482E+03  0.25011685438E+03  0.47000000000E+01 0.  1.
<mgrwt>
<rscale>  0 0.31180546E+03</rscale>
<asrwt>0</asrwt>
<pdfrwt beam="1">  1       21 0.93989584E-02 0.31180546E+03</pdfrwt>
<pdfrwt beam="2">  1       21 0.61206987E-01 0.31180546E+03</pdfrwt>
<totfact> 0.21775404E+05</totfact>
</mgrwt>
</event>
<event>
 8    1  0.9691636E-006  0.3629533E+03  0.7546771E-02  0.1057421E+00
         21   -1    0    0  504  503  0.00000000000E+00  0.00000000000E+00  0.67989294881E+03  0.67989294881E+03  0.00000000000E+00 0.  1.
         21   -1    0    0  503  504 -0.00000000000E+00 -0.00000000000E+00 -0.48439640231E+02  0.48439640231E+02  0.00000000000E+00 0.  1.
         25    2    1    2    0    0 -0.81170906099E+02 -0.90420373771E+02  0.41694130111E+03  0.45191680441E+03  0.12499675813E+03 0.  0.
         25    2    1    2    0    0  0.81170906099E+02  0.90420373771E+02  0.21451200746E+03  0.27641578463E+03  0.12500289859E+03 0.  0.
          5    1    3    3  501    0 -0.21178074564E+02  0.24391357471E+02  0.16911904529E+03  0.17224050233E+03  0.47000000000E+01 0.  1.
         -5    1    3    3    0  501 -0.59992831535E+02 -0.11481173124E+03  0.24782225582E+03  0.27967630208E+03  0.47000000000E+01 0.  1.
          5    1    4    4  502    0  0.90390551128E+02  0.47174271023E+02  0.20770753400E+03  0.23143114151E+03  0.47000000000E+01 0.  1.
         -5    1    4    4    0  502 -0.92196450287E+01  0.43246102748E+02  0.68044734600E+01  0.44984643117E+02  0.47000000000E+01 0.  1.
<mgrwt>
<rscale>  0 0.36295327E+03</rscale>
<asrwt>0</asrwt>
<pdfrwt beam="1">  1       21 0.10459891E+00 0.36295327E+03</pdfrwt>
<pdfrwt beam="2">  1       21 0.74522528E-02 0.36295327E+03</pdfrwt>
<totfact> 0.94562044E+04</totfact>
</mgrwt>
</event>
<event>
 8    1  0.9691636E-006  0.3720550E+03  0.7546771E-02  0.1053910E+00
         21   -1    0    0  504  503  0.00000000000E+00  0.00000000000E+00  0.23278524486E+03  0.23278524486E+03  0.00000000000E+00 0.  1.
         21   -1    0    0  503  504 -0.00000000000E+00 -0.00000000000E+00 -0.14866157802E+03  0.14866157802E+03  0.00000000000E+00 0.  1.
         25    2    1    2    0    0 -0.40202821125E+02 -0.12734185679E+03  0.76826968138E+02  0.19839100646E+03  0.12499757234E+03 0.  0.
         25    2    1    2    0    0  0.40202821125E+02  0.12734185679E+03  0.72966987040E+01  0.18305581642E+03  0.12499589912E+03 0.  0.
          5    1    3    3  501    0 -0.14817029283E+02 -0.90824697349E+02  0.10942143409E+03  0.14305177470E+03  0.47000000000E+01 0. -1.
         -5    1    3    3    0  501 -0.25385791842E+02 -0.36517159443E+02 -0.32594465952E+02  0.55339231761E+02  0.47000000000E+01 0. -1.
          5    1    4    4  502    0 -0.39934646882E+01 -0.16230915247E+02 -0.23915828805E+02  0.29554140782E+02  0.47000000000E+01 0.  1.
         -5    1    4    4    0  502  0.44196285813E+02  0.14357277204E+03  0.31212527509E+02  0.15350167564E+03  0.47000000000E+01 0.  1.
<mgrwt>
<rscale>  0 0.37205495E+03</rscale>
<asrwt>0</asrwt>
<pdfrwt beam="1">  1       21 0.35813114E-01 0.37205495E+03</pdfrwt>
<pdfrwt beam="2">  1       21 0.22871012E-01 0.37205495E+03</pdfrwt>
<totfact> 0.12831733E+05</totfact>
</mgrwt>
</event>
<event>
 8    1  0.9691636E-006  0.2859777E+03  0.7546771E-02  0.1092468E+00
         21   -1    0    0  504  503  0.00000000000E+00  0.00000000000E+00  0.13040735365E+02  0.13040735365E+02  0.00000000000E+00 0. -1.
         21   -1    0    0  503  504 -0.00000000000E+00 -0.00000000000E+00 -0.15678422571E+04  0.15678422571E+04  0.00000000000E+00 0. -1.
         25    2    1    2    0    0 -0.49232436257E+01  0.63243120654E+02 -0.93332931803E+03  0.94379850692E+03  0.12501229991E+03 0.  0.
         25    2    1    2    0    0  0.49232436257E+01 -0.63243120654E+02 -0.62147220367E+03  0.63708448551E+03  0.12500004443E+03 0.  0.
          5    1    3    3  501    0 -0.10316457220E+02  0.40099161040E+02 -0.80687455959E+02  0.90812595794E+02  0.47000000000E+01 0.  1.
         -5    1    3    3    0  501  0.53932135947E+01  0.23143959614E+02 -0.85264186207E+03  0.85298591113E+03  0.47000000000E+01 0.  1.
          5    1    4    4  502    0  0.29985899191E+02 -0.94148443693E+02 -0.40254077422E+03  0.41451688567E+03  0.47000000000E+01 0. -1.
         -5    1    4    4    0  502 -0.25062655565E+02  0.30905323038E+02 -0.21893142946E+03  0.22256759984E+03  0.47000000000E+01 0. -1.
<mgrwt>
<rscale>  0 0.28597773E+03</rscale>
<asrwt>0</asrwt>
<pdfrwt beam="1">  1       21 0.20062672E-02 0.28597773E+03</pdfrwt>
<pdfrwt beam="2">  1       21 0.24120648E+00 0.28597773E+03</pdfrwt>
<totfact> 0.86934450E+04</totfact>
</mgrwt>
</event>
<event>
 8    1  0.9691636E-006  0.3407299E+03  0.7546771E-02  0.1066485E+00
         21   -1    0    0  504  503  0.00000000000E+00  0.00000000000E+00  0.32875531275E+02  0.32875531275E+02  0.00000000000E+00 0.  1.
         21   -1    0    0  503  504 -0.00000000000E+00 -0.00000000000E+00 -0.88285150624E+03  0.88285150624E+03  0.00000000000E+00 0.  1.
         25    2    1    2    0    0  0.26636324083E+02  0.11100188009E+03 -0.37328964645E+03  0.40987858258E+03  0.12499752464E+03 0.  0.
         25    2    1    2    0    0 -0.26636324083E+02 -0.11100188009E+03 -0.47668632851E+03  0.50584845493E+03  0.12498756908E+03 0.  0.
          5    1    3    3  501    0 -0.28775435019E+02  0.11732482619E+02 -0.20076712152E+03  0.20321221393E+03  0.47000000000E+01 0. -1.
         -5    1    3    3    0  501  0.55411759102E+02  0.99269397467E+02 -0.17252252493E+03  0.20666636865E+03  0.47000000000E+01 0. -1.
          5    1    4    4  502    0 -0.50932119802E+02 -0.12395518573E+03 -0.32440256667E+03  0.35102433557E+03  0.47000000000E+01 0. -1.
         -5    1    4    4    0  502  0.24295795719E+02  0.12953305648E+02 -0.15228376184E+03  0.15482411936E+03  0.47000000000E+01 0. -1.
<mgrwt>
<rscale>  0 0.34072988E+03</rscale>
<asrwt>0</asrwt>
<pdfrwt beam="1">  1       21 0.50577741E-02 0.34072988E+03</pdfrwt>
<pdfrwt beam="2">  1       21 0.13582331E+00 0.34072988E+03</pdfrwt>
<totfact> 0.96605029E+04</totfact>
</mgrwt>
</event>
<event>
 8    1  0.9691636E-006  0.2859292E+03  0.7546771E-02  0.1092494E+00
         21   -1    0    0  504  503  0.00000000000E+00  0.00000000000E+00  0.11527528558E+04  0.11527528558E+04  0.00000000000E+00 0.  1.
         21   -1    0    0  503  504 -0.00000000000E+00 -0.00000000000E+00 -0.17730487853E+02  0.17730487853E+02  0.00000000000E+00 0.  1.
         25    2    1    2    0    0  0.57164617074E+02  0.22411504822E+02  0.69985312568E+03  0.71357489068E+03  0.12499863231E+03 0.  0.
         25    2    1    2    0    0 -0.57164617074E+02 -0.22411504822E+02  0.43516924231E+03  0.45690845302E+03  0.12499198374E+03 0.  0.
          5    1    3    3  501    0  0.93169602374E+02 -0.51552531703E+01  0.45004317075E+03  0.45963909427E+03  0.47000000000E+01 0. -1.
         -5    1    3    3    0  501 -0.36004985300E+02  0.27566757992E+02  0.24980995493E+03  0.25393579641E+03  0.47000000000E+01 0. -1.
          5    1    4    4  502    0 -0.95173823484E+02 -0.30467256486E+02  0.31966444390E+03  0.33495336554E+03  0.47000000000E+01 0.  1.
         -5    1    4    4    0  502  0.38009206410E+02  0.80557516642E+01  0.11550479841E+03  0.12195508748E+03  0.47000000000E+01 0.  1.
<mgrwt>
<rscale>  0 0.28592916E+03</rscale>
<asrwt>0</asrwt>
<pdfrwt beam="1">  1       21 0.17734653E+00 0.28592916E+03</pdfrwt>
<pdfrwt beam="2">  1       21 0.27277683E-02 0.28592916E+03</pdfrwt>
<totfact> 0.13493339E+05</totfact>
</mgrwt>
</event>
<event>
 8    1  0.9691636E-006  0.3124273E+03  0.7546771E-02  0.1079188E+00
         21   -1    0    0  504  503  0.00000000000E+00  0.00000000000E+00  0.46592779915E+02  0.46592779915E+02  0.00000000000E+00 0.  1.
         21   -1    0    0  503  504 -0.00000000000E+00 -0.00000000000E+00 -0.52374437373E+03  0.52374437373E+03  0.00000000000E+00 0.  1.
         25    2    1    2    0    0 -0.87905937577E+02  0.32188717184E+02 -0.24358175118E+03  0.28934619339E+03  0.12500233095E+03 0.  0.
         25    2    1    2    0    0  0.87905937577E+02 -0.32188717184E+02 -0.23356984263E+03  0.28099096026E+03  0.12504991397E+03 0.  0.
          5    1    3    3  501    0 -0.89634991029E+02  0.45720930272E+02 -0.25286382825E+03  0.27218934718E+03  0.47000000000E+01 0. -1.
         -5    1    3    3    0  501  0.17290534521E+01 -0.13532213088E+02  0.92820770703E+01  0.17156846203E+02  0.47000000000E+01 0. -1.
          5    1    4    4  502    0  0.52966659176E+02 -0.16045653065E+02 -0.23570222665E+03  0.24215812935E+03  0.47000000000E+01 0.  1.
         -5    1    4    4    0  502  0.34939278402E+02 -0.16143064119E+02  0.21323840131E+01  0.38832830903E+02  0.47000000000E+01 0.  1.
<mgrwt>
<rscale>  0 0.31242731E+03</rscale>
<asrwt>0</asrwt>
<pdfrwt beam="1">  1       21 0.71681198E-02 0.31242731E+03</pdfrwt>
<pdfrwt beam="2">  1       21 0.80576059E-01 0.31242731E+03</pdfrwt>
<totfact> 0.18987829E+05</totfact>
</mgrwt>
</event>
<event>
 8    1  0.9691636E-006  0.3631414E+03  0.7546771E-02  0.1057347E+00
         21   -1    0    0  504  503  0.00000000000E+00  0.00000000000E+00  0.23355155011E+03  0.23355155011E+03  0.00000000000E+00 0. -1.
         21   -1    0    0  503  504 -0.00000000000E+00 -0.00000000000E+00 -0.14115904643E+03  0.14115904643E+03  0.00000000000E+00 0. -1.
         25    2    1    2    0    0 -0.28827132334E+02 -0.86858246983E+02  0.14390612232E+03  0.21144719800E+03  0.12500234748E+03 0.  0.
         25    2    1    2    0    0  0.28827132334E+02  0.86858246983E+02 -0.51513618640E+02  0.16326339854E+03  0.12500370302E+03 0.  0.
          5    1    3    3  501    0 -0.15971737226E+02 -0.69653914147E+02  0.60744574137E+01  0.71873174265E+02  0.47000000000E+01 0.  1.
         -5    1    3    3    0  501 -0.12855395108E+02 -0.17204332836E+02  0.13783166490E+03  0.13957402374E+03  0.47000000000E+01 0.  1.
          5    1    4    4  502    0  0.12878173547E+02  0.10747569912E+03 -0.71733517575E+02  0.12994098968E+03  0.47000000000E+01 0.  1.
         -5    1    4    4    0  502  0.15948958787E+02 -0.20617452140E+02  0.20219898935E+02  0.33322408857E+02  0.47000000000E+01 0.  1.
<mgrwt>
<rscale>  0 0.36314137E+03</rscale>
<asrwt>0</asrwt>
<pdfrwt beam="1">  1       21 0.35931008E-01 0.36314137E+03</pdfrwt>
<pdfrwt beam="2">  1       21 0.21716776E-01 0.36314137E+03</pdfrwt>
<totfact> 0.14101868E+05</totfact>
</mgrwt>
</event>
<event>
 8    1  0.9691636E-006  0.2561291E+03  0.7546771E-02  0.1109491E+00
         21   -1    0    0  504  503  0.00000000000E+00  0.00000000000E+00  0.56029509227E+02  0.56029509227E+02  0.00000000000E+00 0. -1.
         21   -1    0    0  503  504 -0.00000000000E+00 -0.00000000000E+00 -0.29271240441E+03  0.29271240441E+03  0.00000000000E+00 0. -1.
         25    2    1    2    0    0 -0.17382305176E+02 -0.78157163585E+01 -0.14598211448E+03  0.19313124914E+03  0.12500268673E+03 0.  0.
         25    2    1    2    0    0  0.17382305176E+02  0.78157163585E+01 -0.90700780701E+02  0.15561066450E+03  0.12499926932E+03 0.  0.
          5    1    3    3  501    0 -0.24255581932E+02 -0.73359990484E+01  0.16391376151E+02  0.30543695733E+02  0.47000000000E+01 0.  1.
         -5    1    3    3    0  501  0.68732767561E+01 -0.47971731013E+00 -0.16237349063E+03  0.16258755340E+03  0.47000000000E+01 0.  1.
          5    1    4    4  502    0  0.67973267714E+02 -0.16313386315E+02 -0.46721927244E+02  0.84211164236E+02  0.47000000000E+01 0. -1.
         -5    1    4    4    0  502 -0.50590962538E+02  0.24129102673E+02 -0.43978853457E+02  0.71399500262E+02  0.47000000000E+01 0. -1.
<mgrwt>
<rscale>  0 0.25612913E+03</rscale>
<asrwt>0</asrwt>
<pdfrwt beam="1">  1       21 0.86199248E-02 0.25612913E+03</pdfrwt>
<pdfrwt beam="2">  1       21 0.45032676E-01 0.25612913E+03</pdfrwt>
<totfact> 0.49213421E+05</totfact>
</mgrwt>
</event>
<event>
 8    1  0.9691636E-006  0.2874134E+03  0.7546771E-02  0.1091707E+00
         21   -1    0    0  504  503  0.00000000000E+00  0.00000000000E+00  0.19532170605E+03  0.19532170605E+03  0.00000000000E+00 0.  1.
         21   -1    0    0  503  504 -0.00000000000E+00 -0.00000000000E+00 -0.10573128883E+03  0.10573128883E+03  0.00000000000E+00 0.  1.
         25    2    1    2    0    0 -0.86973091974E+01  0.43700724809E+01  0.11835711206E+03  0.17241567516E+03  0.12499607332E+03 0.  0.
         25    2    1    2    0    0  0.86973091974E+01 -0.43700724809E+01 -0.28766694829E+02  0.12863731972E+03  0.12500118628E+03 0.  0.
          5    1    3    3  501    0  0.12108525406E+02 -0.53399374267E+02  0.88018793907E+02  0.10376660176E+03  0.47000000000E+01 0.  1.
         -5    1    3    3    0  501 -0.20805834603E+02  0.57769446748E+02  0.30338318150E+02  0.68649073404E+02  0.47000000000E+01 0.  1.
          5    1    4    4  502    0  0.21029095715E+01  0.59773214417E+02 -0.69142768975E+01  0.60391693265E+02  0.47000000000E+01 0.  1.
         -5    1    4    4    0  502  0.65943996258E+01 -0.64143286898E+02 -0.21852417932E+02  0.68245626453E+02  0.47000000000E+01 0.  1.
<mgrwt>
<rscale>  0 0.28741340E+03</rscale>
<asrwt>0</asrwt>
<pdfrwt beam="1">  1       21 0.30049493E-01 0.28741340E+03</pdfrwt>
<pdfrwt beam="2">  1       21 0.16266352E-01 0.28741340E+03</pdfrwt>
<totfact> 0.35195308E+05</totfact>
</mgrwt>
</event>
<event>
 8    1  0.9691636E-006  0.2923002E+03  0.7546771E-02  0.1089154E+00
         21   -1    0    0  504  503  0.00000000000E+00  0.00000000000E+00  0.21092632342E+02  0.21092632342E+02  0.00000000000E+00 0. -1.
         21   -1    0    0  503  504 -0.00000000000E+00 -0.00000000000E+00 -0.10126690232E+04  0.10126690232E+04  0.00000000000E+00 0. -1.
         25    2    1    2    0    0 -0.49226254345E+02 -0.55237639135E+02 -0.55171183435E+03  0.57051482106E+03  0.12500716779E+03 0.  0.
         25    2    1    2    0    0  0.49226254345E+02  0.55237639135E+02 -0.43986455648E+03  0.46324683445E+03  0.12506950342E+03 0.  0.
          5    1    3    3  501    0 -0.74772239284E+02 -0.23078921620E+02 -0.49003453331E+03  0.49626551183E+03  0.47000000000E+01 0.  1.
         -5    1    3    3    0  501  0.25545984940E+02 -0.32158717515E+02 -0.61677301034E+02  0.74249309233E+02  0.47000000000E+01 0.  1.
          5    1    4    4  502    0  0.21162344833E+02  0.91489329494E+02 -0.23186770330E+03  0.25020564359E+03  0.47000000000E+01 0. -1.
         -5    1    4    4    0  502  0.28063909512E+02 -0.36251690359E+02 -0.20799685318E+03  0.21304119087E+03  0.47000000000E+01 0. -1.
<mgrwt>
<rscale>  0 0.29230023E+03</rscale>
<asrwt>0</asrwt>
<pdfrwt beam="1">  1       21 0.32450213E-02 0.29230023E+03</pdfrwt>
<pdfrwt beam="2">  1       21 0.15579519E+00 0.29230023E+03</pdfrwt>
<totfact> 0.14447037E+05</totfact>
</mgrwt>
</event>
<event>
 8    1  0.9691636E-006  0.2730278E+03  0.7546771E-02  0.1099559E+00
         21   -1    0    0  504  503  0.00000000000E+00  0.00000000000E+00  0.33680437867E+03  0.33680437867E+03  0.00000000000E+00 0.  1.
         21   -1    0    0  503  504 -0.00000000000E+00 -0.00000000000E+00 -0.55331963809E+02  0.55331963809E+02  0.00000000000E+00 0.  1.
         25    2    1    2    0    0  0.44189329946E+02  0.18633627884E+02  0.17893752693E+03  0.22349782465E+03  0.12503091662E+03 0.  0.
         25    2    1    2    0    0 -0.44189329946E+02 -0.18633627884E+02  0.10253488794E+03  0.16863851783E+03  0.12500254991E+03 0.  0.
          5    1    3    3  501    0  0.83788395043E+02  0.71924369045E+00  0.14731641688E+03  0.16954418049E+03  0.47000000000E+01 0.  1.
         -5    1    3    3    0  501 -0.39599065097E+02  0.17914384193E+02  0.31621110047E+02  0.53953644160E+02  0.47000000000E+01 0.  1.
          5    1    4    4  502    0 -0.83466474716E+02 -0.23322966740E+02  0.93923445356E+02  0.12788399730E+03  0.47000000000E+01 0. -1.
         -5    1    4    4    0  502  0.39277144770E+02  0.46893388562E+01  0.86114425810E+01  0.40754520529E+02  0.47000000000E+01 0. -1.
<mgrwt>
<rscale>  0 0.27302782E+03</rscale>
<asrwt>0</asrwt>
<pdfrwt beam="1">  1       21 0.51816057E-01 0.27302782E+03</pdfrwt>
<pdfrwt beam="2">  1       21 0.85126100E-02 0.27302782E+03</pdfrwt>
<totfact> 0.37398549E+05</totfact>
</mgrwt>
</event>
<event>
 8    1  0.9691636E-006  0.2996362E+03  0.7546771E-02  0.1085423E+00
         21   -1    0    0  504  503  0.00000000000E+00  0.00000000000E+00  0.30366184598E+03  0.30366184598E+03  0.00000000000E+00 0. -1.
         21   -1    0    0  503  504 -0.00000000000E+00 -0.00000000000E+00 -0.73915963493E+02  0.73915963493E+02  0.00000000000E+00 0. -1.
         25    2    1    2    0    0 -0.27300135567E+02  0.74119249011E+02  0.14528178132E+03  0.20729401787E+03  0.12500021355E+03 0.  0.
         25    2    1    2    0    0  0.27300135567E+02 -0.74119249011E+02  0.84464101170E+02  0.17028379160E+03  0.12499369911E+03 0.  0.
          5    1    3    3  501    0  0.31502831621E+02  0.77235642456E+02  0.11122407674E+03  0.13910664295E+03  0.47000000000E+01 0.  1.
         -5    1    3    3    0  501 -0.58802967189E+02 -0.31163934444E+01  0.34057704577E+02  0.68187374927E+02  0.47000000000E+01 0.  1.
          5    1    4    4  502    0 -0.30172064560E+02  0.20227936027E+02  0.14259232518E+02  0.39305706809E+02  0.47000000000E+01 0.  1.
         -5    1    4    4    0  502  0.57472200128E+02 -0.94347185039E+02  0.70204868652E+02  0.13097808479E+03  0.47000000000E+01 0.  1.
<mgrwt>
<rscale>  0 0.29963617E+03</rscale>
<asrwt>0</asrwt>
<pdfrwt beam="1">  1       21 0.46717206E-01 0.29963617E+03</pdfrwt>
<pdfrwt beam="2">  1       21 0.11371687E-01 0.29963617E+03</pdfrwt>
<totfact> 0.27613998E+05</totfact>
</mgrwt>
</event>
<event>
 8    1  0.9691636E-006  0.3013973E+03  0.7546771E-02  0.1084544E+00
         21   -1    0    0  504  503  0.00000000000E+00  0.00000000000E+00  0.29480488418E+02  0.29480488418E+02  0.00000000000E+00 0. -1.
         21   -1    0    0  503  504 -0.00000000000E+00 -0.00000000000E+00 -0.77034294688E+03  0.77034294688E+03  0.00000000000E+00 0. -1.
         25    2    1    2    0    0 -0.29609004624E+02 -0.68589088738E+01 -0.16212598465E+03  0.20696233578E+03  0.12499934299E+03 0.  0.
         25    2    1    2    0    0  0.29609004624E+02  0.68589088738E+01 -0.57873647381E+03  0.59286109952E+03  0.12499855766E+03 0.  0.
          5    1    3    3  501    0 -0.14891146417E+02 -0.63253870663E+02 -0.11368258611E+03  0.13102907609E+03  0.47000000000E+01 0. -1.
         -5    1    3    3    0  501 -0.14717858207E+02  0.56394961789E+02 -0.48443398535E+02  0.75933259689E+02  0.47000000000E+01 0. -1.
          5    1    4    4  502    0  0.40364968903E+02  0.11258670688E+02 -0.57879140241E+03  0.58032548271E+03  0.47000000000E+01 0. -1.
         -5    1    4    4    0  502 -0.10755964279E+02 -0.43997618137E+01  0.54928598574E-01  0.12535616807E+02  0.47000000000E+01 0. -1.
<mgrwt>
<rscale>  0 0.30139732E+03</rscale>
<asrwt>0</asrwt>
<pdfrwt beam="1">  1       21 0.45354596E-02 0.30139732E+03</pdfrwt>
<pdfrwt beam="2">  1       21 0.11851430E+00 0.30139732E+03</pdfrwt>
<totfact> 0.16668865E+05</totfact>
</mgrwt>
</event>
<event>
 8    1  0.9691636E-006  0.3618418E+03  0.7546771E-02  0.1057857E+00
         21   -1    0    0  504  503  0.00000000000E+00  0.00000000000E+00  0.18323938535E+03  0.18323938535E+03  0.00000000000E+00 0.  1.
         21   -1    0    0  503  504 -0.00000000000E+00 -0.00000000000E+00 -0.17863173043E+03  0.17863173043E+03  0.00000000000E+00 0.  1.
         25    2    1    2    0    0 -0.50269152846E+02  0.89716231861E+02 -0.78529778939E+02  0.17990367285E+03  0.12498966092E+03 0.  0.
         25    2    1    2    0    0  0.50269152846E+02 -0.89716231861E+02  0.83137433857E+02  0.18196744293E+03  0.12499730953E+03 0.  0.
          5    1    3    3  501    0  0.23834364364E+02  0.72182347305E+02 -0.69448386227E+02  0.10307054156E+03  0.47000000000E+01 0.  1.
         -5    1    3    3    0  501 -0.74103517210E+02  0.17533884556E+02 -0.90813927113E+01  0.76833131292E+02  0.47000000000E+01 0.  1.
          5    1    4    4  502    0  0.86805789970E+02 -0.80984174691E+02  0.41886389509E+02  0.12597714614E+03  0.47000000000E+01 0. -1.
         -5    1    4    4    0  502 -0.36536637124E+02 -0.87320571705E+01  0.41251044347E+02  0.55990296789E+02  0.47000000000E+01 0. -1.
<mgrwt>
<rscale>  0 0.36184178E+03</rscale>
<asrwt>0</asrwt>
<pdfrwt beam="1">  1       21 0.28190675E-01 0.36184178E+03</pdfrwt>
<pdfrwt beam="2">  1       21 0.27481805E-01 0.36184178E+03</pdfrwt>
<totfact> 0.14508741E+05</totfact>
</mgrwt>
</event>
<event>
 8    1  0.9691636E-006  0.2922174E+03  0.7546771E-02  0.1089197E+00
         21   -1    0    0  504  503  0.00000000000E+00  0.00000000000E+00  0.22994364367E+02  0.22994364367E+02  0.00000000000E+00 0.  1.
         21   -1    0    0  503  504 -0.00000000000E+00 -0.00000000000E+00 -0.92839070590E+03  0.92839070590E+03  0.00000000000E+00 0.  1.
         25    2    1    2    0    0 -0.36489663366E+02  0.36787161194E+02 -0.63245625683E+03  0.64675598863E+03  0.12493038564E+03 0.  0.
         25    2    1    2    0    0  0.36489663366E+02 -0.36787161194E+02 -0.27294008470E+03  0.30462908164E+03  0.12497118381E+03 0.  0.
          5    1    3    3  501    0 -0.11327516868E+02  0.28808353575E+01 -0.57581494488E+03  0.57595273469E+03  0.47000000000E+01 0.  1.
         -5    1    3    3    0  501 -0.25162146498E+02  0.33906325836E+02 -0.56641311952E+02  0.70803253935E+02  0.47000000000E+01 0.  1.
          5    1    4    4  502    0  0.24380237208E+02  0.12073995683E+02 -0.57908229877E+00  0.27615261621E+02  0.47000000000E+01 0. -1.
         -5    1    4    4    0  502  0.12109426158E+02 -0.48861156877E+02 -0.27236100240E+03  0.27701382002E+03  0.47000000000E+01 0. -1.
<mgrwt>
<rscale>  0 0.29221741E+03</rscale>
<asrwt>0</asrwt>
<pdfrwt beam="1">  1       21 0.35375945E-02 0.29221741E+03</pdfrwt>
<pdfrwt beam="2">  1       21 0.14282934E+00 0.29221741E+03</pdfrwt>
<totfact> 0.15763606E+05</totfact>
</mgrwt>
</event>
<event>
 8    1  0.9691636E-006  0.3170941E+03  0.7546771E-02  0.1076994E+00
         21   -1    0    0  504  503  0.00000000000E+00  0.00000000000E+00  0.13836199199E+04  0.13836199199E+04  0.00000000000E+00 0. -1.
         21   -1    0    0  503  504 -0.00000000000E+00 -0.00000000000E+00 -0.18167685721E+02  0.18167685721E+02  0.00000000000E+00 0. -1.
         25    2    1    2    0    0 -0.19990556637E+02  0.39849530618E+02  0.10661980856E+04  0.10744259610E+04  0.12500072216E+03 0.  0.
         25    2    1    2    0    0  0.19990556637E+02 -0.39849530618E+02  0.29925414855E+03  0.32736164457E+03  0.12499997386E+03 0.  0.
          5    1    3    3  501    0 -0.13355366734E+02  0.42287707601E+02  0.10649060106E+04  0.10658393488E+04  0.47000000000E+01 0.  1.
         -5    1    3    3    0  501 -0.66351899030E+01 -0.24381769825E+01  0.12920750237E+01  0.85866122489E+01  0.47000000000E+01 0.  1.
          5    1    4    4  502    0  0.13134895275E+02  0.44090892236E+02  0.13523798128E+03  0.14292632309E+03  0.47000000000E+01 0. -1.
         -5    1    4    4    0  502  0.68556613613E+01 -0.83940422854E+02  0.16401616727E+03  0.18443532147E+03  0.47000000000E+01 0. -1.
<mgrwt>
<rscale>  0 0.31709413E+03</rscale>
<asrwt>0</asrwt>
<pdfrwt beam="1">  1       21 0.21286452E+00 0.31709413E+03</pdfrwt>
<pdfrwt beam="2">  1       21 0.27950297E-02 0.31709413E+03</pdfrwt>
<totfact> 0.74326041E+04</totfact>
</mgrwt>
</event>
<event>
 8    1  0.9691636E-006  0.4302305E+03  0.7546771E-02  0.1033787E+00
         21   -1    0    0  504  503  0.00000000000E+00  0.00000000000E+00  0.41092194110E+03  0.41092194110E+03  0.00000000000E+00 0. -1.
         21   -1    0    0  503  504 -0.00000000000E+00 -0.00000000000E+00 -0.11261160012E+03  0.11261160012E+03  0.00000000000E+00 0. -1.
         25    2    1    2    0    0 -0.64341918912E+02 -0.31403642489E+02  0.34357375988E+03  0.37253257359E+03  0.12494606281E+03 0.  0.
         25    2    1    2    0    0  0.64341918912E+02  0.31403642489E+02 -0.45263418904E+02  0.15100096763E+03  0.12500577524E+03 0.  0.
          5    1    3    3  501    0 -0.83796205391E+01 -0.44521264810E+02  0.29084609882E+03  0.29439073399E+03  0.47000000000E+01 0.  1.
         -5    1    3    3    0  501 -0.55962298373E+02  0.13117622321E+02  0.52727661066E+02  0.78141839600E+02  0.47000000000E+01 0.  1.
          5    1    4    4  502    0 -0.14561988668E+02  0.40779192732E+02 -0.55715431660E+02  0.70719823239E+02  0.47000000000E+01 0. -1.
         -5    1    4    4    0  502  0.78903907580E+02 -0.93755502427E+01  0.10452012757E+02  0.80281144389E+02  0.47000000000E+01 0. -1.
<mgrwt>
<rscale>  0 0.43023053E+03</rscale>
<asrwt>0</asrwt>
<pdfrwt beam="1">  1       21 0.63218759E-01 0.43023053E+03</pdfrwt>
<pdfrwt beam="2">  1       21 0.17324862E-01 0.43023053E+03</pdfrwt>
<totfact> 0.64760560E+04</totfact>
</mgrwt>
</event>
<event>
 8    1  0.9691636E-006  0.3002797E+03  0.7546771E-02  0.1085101E+00
         21   -1    0    0  504  503  0.00000000000E+00  0.00000000000E+00  0.45026761617E+03  0.45026761617E+03  0.00000000000E+00 0. -1.
         21   -1    0    0  503  504 -0.00000000000E+00 -0.00000000000E+00 -0.50063498570E+02  0.50063498570E+02  0.00000000000E+00 0. -1.
         25    2    1    2    0    0  0.40600532904E+01 -0.83031672791E+02  0.19653917984E+03  0.24731064320E+03  0.12499664920E+03 0.  0.
         25    2    1    2    0    0 -0.40600532904E+01  0.83031672791E+02  0.20366493776E+03  0.25302047154E+03  0.12501683657E+03 0.  0.
          5    1    3    3  501    0 -0.38040435447E+02  0.16177824515E+02  0.44859271335E+02  0.61182031347E+02  0.47000000000E+01 0.  1.
         -5    1    3    3    0  501  0.42100488737E+02 -0.99209497306E+02  0.15167990850E+03  0.18612861185E+03  0.47000000000E+01 0.  1.
          5    1    4    4  502    0  0.54976172823E+02  0.32585692715E+02  0.51837190215E+02  0.82422031262E+02  0.47000000000E+01 0. -1.
         -5    1    4    4    0  502 -0.59036226113E+02  0.50445980076E+02  0.15182774755E+03  0.17059844028E+03  0.47000000000E+01 0. -1.
<mgrwt>
<rscale>  0 0.30027968E+03</rscale>
<asrwt>0</asrwt>
<pdfrwt beam="1">  1       21 0.69271938E-01 0.30027968E+03</pdfrwt>
<pdfrwt beam="2">  1       21 0.77020770E-02 0.30027968E+03</pdfrwt>
<totfact> 0.23621609E+05</totfact>
</mgrwt>
</event>
<event>
 8    1  0.9691636E-006  0.2857716E+03  0.7546771E-02  0.1092578E+00
         21   -1    0    0  504  503  0.00000000000E+00  0.00000000000E+00  0.77845949082E+03  0.77845949082E+03  0.00000000000E+00 0.  1.
         21   -1    0    0  503  504 -0.00000000000E+00 -0.00000000000E+00 -0.26226598951E+02  0.26226598951E+02  0.00000000000E+00 0.  1.
         25    2    1    2    0    0 -0.33617794930E+02 -0.38671482848E+02  0.24526837532E+03  0.28003173150E+03  0.12504221285E+03 0.  0.
         25    2    1    2    0    0  0.33617794930E+02  0.38671482848E+02  0.50696451655E+03  0.52465435827E+03  0.12499413942E+03 0.  0.
          5    1    3    3  501    0 -0.20550308860E+02  0.43483454197E+02  0.12223014176E+03  0.13143600548E+03  0.47000000000E+01 0.  1.
         -5    1    3    3    0  501 -0.13067486069E+02 -0.82154937046E+02  0.12303823356E+03  0.14859572602E+03  0.47000000000E+01 0.  1.
          5    1    4    4  502    0  0.37039848663E+02  0.79998881605E+02  0.27069825563E+03  0.28473041117E+03  0.47000000000E+01 0.  1.
         -5    1    4    4    0  502 -0.34220537336E+01 -0.41327398756E+02  0.23626626092E+03  0.23992394710E+03  0.47000000000E+01 0.  1.
<mgrwt>
<rscale>  0 0.28577155E+03</rscale>
<asrwt>0</asrwt>
<pdfrwt beam="1">  1       21 0.11976298E+00 0.28577155E+03</pdfrwt>
<pdfrwt beam="2">  1       21 0.40348620E-02 0.28577155E+03</pdfrwt>
<totfact> 0.19885107E+05</totfact>
</mgrwt>
</event>
<event>
 8    1  0.9691636E-006  0.4064768E+03  0.7546771E-02  0.1041560E+00
         21   -1    0    0  504  503  0.00000000000E+00  0.00000000000E+00  0.98404260183E+03  0.98404260183E+03  0.00000000000E+00 0. -1.
         21   -1    0    0  503  504 -0.00000000000E+00 -0.00000000000E+00 -0.41975666748E+02  0.41975666748E+02  0.00000000000E+00 0. -1.
         25    2    1    2    0    0  0.36209384296E+02  0.15525736693E+03  0.43016917492E+03  0.47549072058E+03  0.12501974569E+03 0.  0.
         25    2    1    2    0    0 -0.36209384296E+02 -0.15525736693E+03  0.51189776017E+03  0.55052754800E+03  0.12500117898E+03 0.  0.
          5    1    3    3  501    0 -0.32723617844E+02  0.40409270194E+02  0.49615802987E+02  0.72024733171E+02  0.47000000000E+01 0.  1.
         -5    1    3    3    0  501  0.68933002140E+02  0.11484809673E+03  0.38055337193E+03  0.40346598741E+03  0.47000000000E+01 0.  1.
          5    1    4    4  502    0  0.29978459347E+02 -0.10443624763E+03  0.37192603544E+03  0.38750058540E+03  0.47000000000E+01 0. -1.
         -5    1    4    4    0  502 -0.66187843643E+02 -0.50821119296E+02  0.13997172472E+03  0.16302696260E+03  0.47000000000E+01 0. -1.
<mgrwt>
<rscale>  0 0.40647679E+03</rscale>
<asrwt>0</asrwt>
<pdfrwt beam="1">  1       21 0.15139115E+00 0.40647679E+03</pdfrwt>
<pdfrwt beam="2">  1       21 0.64577956E-02 0.40647679E+03</pdfrwt>
<totfact> 0.46520896E+04</totfact>
</mgrwt>
</event>
<event>
 8    1  0.9691636E-006  0.2585527E+03  0.7546771E-02  0.1108016E+00
         21   -1    0    0  504  503  0.00000000000E+00  0.00000000000E+00  0.37692394179E+02  0.37692394179E+02  0.00000000000E+00 0. -1.
         21   -1    0    0  503  504 -0.00000000000E+00 -0.00000000000E+00 -0.44338866044E+03  0.44338866044E+03  0.00000000000E+00 0. -1.
         25    2    1    2    0    0  0.33617204090E+01  0.21271296966E+02 -0.24935167522E+03  0.27975783641E+03  0.12499767942E+03 0.  0.
         25    2    1    2    0    0 -0.33617204090E+01 -0.21271296966E+02 -0.15634459104E+03  0.20132321820E+03  0.12499455109E+03 0.  0.
          5    1    3    3  501    0  0.62014982211E+02  0.25365702632E+02 -0.11814649816E+03  0.13590423803E+03  0.47000000000E+01 0.  1.
         -5    1    3    3    0  501 -0.58653261802E+02 -0.40944056661E+01 -0.13120517707E+03  0.14385359838E+03  0.47000000000E+01 0.  1.
          5    1    4    4  502    0 -0.12823436374E+02 -0.72578392802E+02 -0.10098294385E+03  0.12510678867E+03  0.47000000000E+01 0.  1.
         -5    1    4    4    0  502  0.94617159655E+01  0.51307095836E+02 -0.55361647184E+02  0.76216429535E+02  0.47000000000E+01 0.  1.
<mgrwt>
<rscale>  0 0.25855274E+03</rscale>
<asrwt>0</asrwt>
<pdfrwt beam="1">  1       21 0.57988298E-02 0.25855274E+03</pdfrwt>
<pdfrwt beam="2">  1       21 0.68213641E-01 0.25855274E+03</pdfrwt>
<totfact> 0.40374018E+05</totfact>
</mgrwt>
</event>
<event>
 8    1  0.9691636E-006  0.3949585E+03  0.7546771E-02  0.1045539E+00
         21   -1    0    0  504  503  0.00000000000E+00  0.00000000000E+00  0.88880392656E+03  0.88880392656E+03  0.00000000000E+00 0.  1.
         21   -1    0    0  503  504 -0.00000000000E+00 -0.00000000000E+00 -0.43876994367E+02  0.43876994367E+02  0.00000000000E+00 0.  1.
         25    2    1    2    0    0  0.57829568404E+02  0.86944117598E+02  0.15873452260E+03  0.22743808665E+03  0.12501158357E+03 0.  0.
         25    2    1    2    0    0 -0.57829568404E+02 -0.86944117598E+02  0.68619240960E+03  0.70524283429E+03  0.12491554649E+03 0.  0.
          5    1    3    3  501    0 -0.71762913656E+01  0.79583701070E+02  0.13639568808E+03  0.15814846936E+03  0.47000000000E+01 0. -1.
         -5    1    3    3    0  501  0.65005859769E+02  0.73604165278E+01  0.22338834514E+02  0.69289617283E+02  0.47000000000E+01 0. -1.
          5    1    4    4  502    0 -0.14590593633E+02  0.22219305409E+02  0.38764145023E+02  0.47236975928E+02  0.47000000000E+01 0.  1.
         -5    1    4    4    0  502 -0.43238974771E+02 -0.10916342301E+03  0.64742826458E+03  0.65800585836E+03  0.47000000000E+01 0.  1.
<mgrwt>
<rscale>  0 0.39495845E+03</rscale>
<asrwt>0</asrwt>
<pdfrwt beam="1">  1       21 0.13673905E+00 0.39495845E+03</pdfrwt>
<pdfrwt beam="2">  1       21 0.67503075E-02 0.39495845E+03</pdfrwt>
<totfact> 0.56698546E+04</totfact>
</mgrwt>
</event>
<event>
 8    1  0.9691636E-006  0.3151681E+03  0.7546771E-02  0.1077895E+00
         21   -1    0    0  504  503  0.00000000000E+00  0.00000000000E+00  0.93674652699E+02  0.93674652699E+02  0.00000000000E+00 0.  1.
         21   -1    0    0  503  504 -0.00000000000E+00 -0.00000000000E+00 -0.26509559566E+03  0.26509559566E+03  0.00000000000E+00 0.  1.
         25    2    1    2    0    0 -0.75371521778E+02  0.17066458289E+02 -0.15045882422E+03  0.21032364691E+03  0.12500419341E+03 0.  0.
         25    2    1    2    0    0  0.75371521778E+02 -0.17066458289E+02 -0.20962118738E+02  0.14844660145E+03  0.12499941106E+03 0.  0.
          5    1    3    3  501    0  0.25733863366E+01 -0.47856025267E+01  0.20168096362E+02  0.21409493680E+02  0.47000000000E+01 0. -1.
         -5    1    3    3    0  501 -0.77944908114E+02  0.21852060816E+02 -0.17062692058E+03  0.18891415323E+03  0.47000000000E+01 0. -1.
          5    1    4    4  502    0 -0.77721004139E+01  0.39325736973E+02 -0.25550322646E+02  0.47768484597E+02  0.47000000000E+01 0.  1.
         -5    1    4    4    0  502  0.83143622191E+02 -0.56392195262E+02  0.45882039083E+01  0.10067811685E+03  0.47000000000E+01 0.  1.
<mgrwt>
<rscale>  0 0.31516813E+03</rscale>
<asrwt>0</asrwt>
<pdfrwt beam="1">  1       21 0.14411485E-01 0.31516813E+03</pdfrwt>
<pdfrwt beam="2">  1       21 0.40783937E-01 0.31516813E+03</pdfrwt>
<totfact> 0.23702668E+05</totfact>
</mgrwt>
</event>
<event>
 8    1  0.9691636E-006  0.4016616E+03  0.7546771E-02  0.1043206E+00
         21   -1    0    0  504  503  0.00000000000E+00  0.00000000000E+00  0.14651445218E+03  0.14651445218E+03  0.00000000000E+00 0. -1.
         21   -1    0    0  503  504 -0.00000000000E+00 -0.00000000000E+00 -0.27528354925E+03  0.27528354925E+03  0.00000000000E+00 0. -1.
         25    2    1    2    0    0  0.14772531841E+03 -0.32447880273E+02 -0.19431375844E+02  0.19717532101E+03  0.12499957685E+03 0.  0.
         25    2    1    2    0    0 -0.14772531841E+03  0.32447880273E+02 -0.10933772123E+03  0.22462268042E+03  0.12499990657E+03 0.  0.
          5    1    3    3  501    0  0.36221125694E+02  0.19960617459E+02  0.42251954830E+02  0.59310318519E+02  0.47000000000E+01 0. -1.
         -5    1    3    3    0  501  0.11150419272E+03 -0.52408497732E+02 -0.61683330674E+02  0.13786500249E+03  0.47000000000E+01 0. -1.
          5    1    4    4  502    0 -0.71166890693E+02  0.72742500595E+02 -0.89804552837E+02  0.13580554272E+03  0.47000000000E+01 0.  1.
         -5    1    4    4    0  502 -0.76558427720E+02 -0.40294620321E+02 -0.19533168393E+02  0.88817137700E+02  0.47000000000E+01 0.  1.
<mgrwt>
<rscale>  0 0.40166164E+03</rscale>
<asrwt>0</asrwt>
<pdfrwt beam="1">  1       21 0.22540685E-01 0.40166164E+03</pdfrwt>
<pdfrwt beam="2">  1       21 0.42351315E-01 0.40166164E+03</pdfrwt>
<totfact> 0.93056011E+04</totfact>
</mgrwt>
</event>
<event>
 8    1  0.9691636E-006  0.4655212E+03  0.7546771E-02  0.1023192E+00
         21   -1    0    0  504  503  0.00000000000E+00  0.00000000000E+00  0.18562407714E+04  0.18562407714E+04  0.00000000000E+00 0.  1.
         21   -1    0    0  503  504 -0.00000000000E+00 -0.00000000000E+00 -0.29186674236E+02  0.29186674236E+02  0.00000000000E+00 0.  1.
         25    2    1    2    0    0 -0.17499229315E+03 -0.31473595999E+02  0.57611951567E+03  0.61575332968E+03  0.12500230705E+03 0.  0.
         25    2    1    2    0    0  0.17499229315E+03  0.31473595999E+02  0.12509345814E+04  0.12696741159E+04  0.12498857403E+03 0.  0.
          5    1    3    3  501    0 -0.17894456428E+03  0.17844377433E+01  0.52292592440E+03  0.55271869311E+03  0.47000000000E+01 0.  1.
         -5    1    3    3    0  501  0.39522711247E+01 -0.33258033742E+02  0.53193591262E+02  0.63034636564E+02  0.47000000000E+01 0.  1.
          5    1    4    4  502    0  0.13033261006E+03 -0.27935081835E+02  0.96618044040E+03  0.97534285841E+03  0.47000000000E+01 0. -1.
         -5    1    4    4    0  502  0.44659683096E+02  0.59408677834E+02  0.28475414105E+03  0.29433125750E+03  0.47000000000E+01 0. -1.
<mgrwt>
<rscale>  0 0.46552119E+03</rscale>
<asrwt>0</asrwt>
<pdfrwt beam="1">  1       21 0.28557541E+00 0.46552119E+03</pdfrwt>
<pdfrwt beam="2">  1       21 0.44902590E-02 0.46552119E+03</pdfrwt>
<totfact> 0.11228561E+04</totfact>
</mgrwt>
</event>
<event>
 8    1  0.9691636E-006  0.3448311E+03  0.7546771E-02  0.1064757E+00
         21   -1    0    0  504  503  0.00000000000E+00  0.00000000000E+00  0.22249086455E+02  0.22249086455E+02  0.00000000000E+00 0.  1.
         21   -1    0    0  503  504 -0.00000000000E+00 -0.00000000000E+00 -0.13361056169E+04  0.13361056169E+04  0.00000000000E+00 0.  1.
         25    2    1    2    0    0  0.15081644128E+02  0.25881625794E+02 -0.11096132396E+04  0.11170338331E+04  0.12500291351E+03 0.  0.
         25    2    1    2    0    0 -0.15081644128E+02 -0.25881625794E+02 -0.20424329090E+03  0.24132087025E+03  0.12499250376E+03 0.  0.
          5    1    3    3  501    0  0.27998767933E+02 -0.46673487374E+02 -0.45417577247E+03  0.45744952478E+03  0.47000000000E+01 0. -1.
         -5    1    3    3    0  501 -0.12917123805E+02  0.72555113168E+02 -0.65543746710E+03  0.65958430834E+03  0.47000000000E+01 0. -1.
          5    1    4    4  502    0  0.28961014313E+02 -0.39152377660E+02 -0.18479004417E+03  0.19115726366E+03  0.47000000000E+01 0.  1.
         -5    1    4    4    0  502 -0.44042658441E+02  0.13270751866E+02 -0.19453246734E+02  0.50163606590E+02  0.47000000000E+01 0.  1.
<mgrwt>
<rscale>  0 0.34483114E+03</rscale>
<asrwt>0</asrwt>
<pdfrwt beam="1">  1       21 0.34229367E-02 0.34483114E+03</pdfrwt>
<pdfrwt beam="2">  1       21 0.20555469E+00 0.34483114E+03</pdfrwt>
<totfact> 0.58346058E+04</totfact>
</mgrwt>
</event>
<event>
 8    1  0.9691636E-006  0.4594548E+03  0.7546771E-02  0.1024939E+00
         21   -1    0    0  504  503  0.00000000000E+00  0.00000000000E+00  0.16044882515E+03  0.16044882515E+03  0.00000000000E+00 0.  1.
         21   -1    0    0  503  504 -0.00000000000E+00 -0.00000000000E+00 -0.32891907580E+03  0.32891907580E+03  0.00000000000E+00 0.  1.
         25    2    1    2    0    0  0.17437685545E+03 -0.79870233749E+02 -0.10458588380E+03  0.25169233809E+03  0.12499713600E+03 0.  0.
         25    2    1    2    0    0 -0.17437685545E+03  0.79870233749E+02 -0.63884366841E+02  0.23767556286E+03  0.12498767498E+03 0.  0.
          5    1    3    3  501    0  0.16584340137E+03 -0.19123167434E+02 -0.69726284677E+02  0.18097948526E+03  0.47000000000E+01 0.  1.
         -5    1    3    3    0  501  0.85334540789E+01 -0.60747066315E+02 -0.34859599127E+02  0.70712852833E+02  0.47000000000E+01 0.  1.
          5    1    4    4  502    0 -0.19012796457E+03  0.87011251937E+02 -0.50089498697E+02  0.21505964000E+03  0.47000000000E+01 0.  1.
         -5    1    4    4    0  502  0.15751109128E+02 -0.71410181880E+01 -0.13794868144E+02  0.22615922856E+02  0.47000000000E+01 0.  1.
<mgrwt>
<rscale>  0 0.45945480E+03</rscale>
<asrwt>0</asrwt>
<pdfrwt beam="1">  1       21 0.24684435E-01 0.45945480E+03</pdfrwt>
<pdfrwt beam="2">  1       21 0.50602934E-01 0.45945480E+03</pdfrwt>
<totfact> 0.53059994E+04</totfact>
</mgrwt>
</event>
<event>
 8    1  0.9691636E-006  0.2860222E+03  0.7546771E-02  0.1092444E+00
         21   -1    0    0  504  503  0.00000000000E+00  0.00000000000E+00  0.36881547300E+02  0.36881547300E+02  0.00000000000E+00 0.  1.
         21   -1    0    0  503  504 -0.00000000000E+00 -0.00000000000E+00 -0.55453668076E+03  0.55453668076E+03  0.00000000000E+00 0.  1.
         25    2    1    2    0    0  0.55924806214E+01  0.58811423388E+02 -0.18322588289E+03  0.22954015009E+03  0.12500758769E+03 0.  0.
         25    2    1    2    0    0 -0.55924806214E+01 -0.58811423388E+02 -0.33442925057E+03  0.36187807797E+03  0.12499104095E+03 0.  0.
          5    1    3    3  501    0  0.37021679124E+02 -0.16157207068E+02 -0.16296255562E+02  0.43810021807E+02  0.47000000000E+01 0.  1.
         -5    1    3    3    0  501 -0.31429198503E+02  0.74968630456E+02 -0.16692962733E+03  0.18573012828E+03  0.47000000000E+01 0.  1.
          5    1    4    4  502    0 -0.22666037085E+02  0.32276265542E+02 -0.58054062885E+02  0.70341103004E+02  0.47000000000E+01 0.  1.
         -5    1    4    4    0  502  0.17073556463E+02 -0.91087688930E+02 -0.27637518768E+03  0.29153697496E+03  0.47000000000E+01 0.  1.
<mgrwt>
<rscale>  0 0.28602217E+03</rscale>
<asrwt>0</asrwt>
<pdfrwt beam="1">  1       21 0.56740847E-02 0.28602217E+03</pdfrwt>
<pdfrwt beam="2">  1       21 0.85313328E-01 0.28602217E+03</pdfrwt>
<totfact> 0.25121556E+05</totfact>
</mgrwt>
</event>
<event>
 8    1  0.9691636E-006  0.2690685E+03  0.7546771E-02  0.1101814E+00
         21   -1    0    0  504  503  0.00000000000E+00  0.00000000000E+00  0.30185423009E+03  0.30185423009E+03  0.00000000000E+00 0.  1.
         21   -1    0    0  503  504 -0.00000000000E+00 -0.00000000000E+00 -0.59960922567E+02  0.59960922567E+02  0.00000000000E+00 0.  1.
         25    2    1    2    0    0 -0.25302447579E+02 -0.20355203187E+02  0.17161436773E+03  0.21478250090E+03  0.12500193331E+03 0.  0.
         25    2    1    2    0    0  0.25302447579E+02  0.20355203187E+02  0.70278939794E+02  0.14703265176E+03  0.12499969261E+03 0.  0.
          5    1    3    3  501    0 -0.70331159522E+02 -0.38570538204E+02  0.10687840142E+03  0.13371327947E+03  0.47000000000E+01 0. -1.
         -5    1    3    3    0  501  0.45028711943E+02  0.18215335018E+02  0.64735966311E+02  0.81069221430E+02  0.47000000000E+01 0. -1.
          5    1    4    4  502    0 -0.44182145623E+02  0.10205385673E+02 -0.26720787558E+01  0.45666638736E+02  0.47000000000E+01 0. -1.
         -5    1    4    4    0  502  0.69484593202E+02  0.10149817513E+02  0.72951018550E+02  0.10136601302E+03  0.47000000000E+01 0. -1.
<mgrwt>
<rscale>  0 0.26906845E+03</rscale>
<asrwt>0</asrwt>
<pdfrwt beam="1">  1       21 0.46439112E-01 0.26906845E+03</pdfrwt>
<pdfrwt beam="2">  1       21 0.92247575E-02 0.26906845E+03</pdfrwt>
<totfact> 0.40864854E+05</totfact>
</mgrwt>
</event>
<event>
 8    1  0.9691636E-006  0.2744854E+03  0.7546771E-02  0.1098740E+00
         21   -1    0    0  504  503  0.00000000000E+00  0.00000000000E+00  0.73064260683E+03  0.73064260683E+03  0.00000000000E+00 0.  1.
         21   -1    0    0  503  504 -0.00000000000E+00 -0.00000000000E+00 -0.25779439258E+02  0.25779439258E+02  0.00000000000E+00 0.  1.
         25    2    1    2    0    0 -0.22056660418E+02  0.42332228695E+02  0.26827316390E+03  0.29978841372E+03  0.12499635464E+03 0.  0.
         25    2    1    2    0    0  0.22056660418E+02 -0.42332228695E+02  0.43659000367E+03  0.45663363237E+03  0.12499971621E+03 0.  0.
          5    1    3    3  501    0 -0.60965797016E+02  0.29715837453E+02  0.71139678320E+02  0.98401235931E+02  0.47000000000E+01 0.  1.
         -5    1    3    3    0  501  0.38909136597E+02  0.12616391243E+02  0.19713348558E+03  0.20138717779E+03  0.47000000000E+01 0.  1.
          5    1    4    4  502    0 -0.32040982460E+02 -0.66426974600E+02  0.26138421310E+03  0.27163019782E+03  0.47000000000E+01 0.  1.
         -5    1    4    4    0  502  0.54097642879E+02  0.24094745905E+02  0.17520579057E+03  0.18500343455E+03  0.47000000000E+01 0.  1.
<mgrwt>
<rscale>  0 0.27448539E+03</rscale>
<asrwt>0</asrwt>
<pdfrwt beam="1">  1       21 0.11240654E+00 0.27448539E+03</pdfrwt>
<pdfrwt beam="2">  1       21 0.39660681E-02 0.27448539E+03</pdfrwt>
<totfact> 0.24022355E+05</totfact>
</mgrwt>
</event>
<event>
 8    1  0.9691636E-006  0.2985374E+03  0.7546771E-02  0.1085974E+00
         21   -1    0    0  504  503  0.00000000000E+00  0.00000000000E+00  0.23689092759E+04  0.23689092759E+04  0.00000000000E+00 0. -1.
         21   -1    0    0  503  504 -0.00000000000E+00 -0.00000000000E+00 -0.94056526051E+01  0.94056526051E+01  0.00000000000E+00 0. -1.
         25    2    1    2    0    0 -0.54935083644E+02  0.37891160735E+02  0.80583323236E+03  0.81819618490E+03  0.12499678048E+03 0.  0.
         25    2    1    2    0    0  0.54935083644E+02 -0.37891160735E+02  0.15536703909E+04  0.15601187436E+04  0.12500082801E+03 0.  0.
          5    1    3    3  501    0 -0.49430424869E+02  0.53989208375E+02  0.79297137934E+03  0.79635664119E+03  0.47000000000E+01 0. -1.
         -5    1    3    3    0  501 -0.55046587752E+01 -0.16098047640E+02  0.12861853018E+02  0.21839543702E+02  0.47000000000E+01 0. -1.
          5    1    4    4  502    0  0.44537702702E+01  0.28908127063E+02  0.97024718243E+03  0.97069933599E+03  0.47000000000E+01 0.  1.
         -5    1    4    4    0  502  0.50481313374E+02 -0.66799287798E+02  0.58342320847E+03  0.58941940758E+03  0.47000000000E+01 0.  1.
<mgrwt>
<rscale>  0 0.29853735E+03</rscale>
<asrwt>0</asrwt>
<pdfrwt beam="1">  1       21 0.36444711E+00 0.29853735E+03</pdfrwt>
<pdfrwt beam="2">  1       21 0.14470254E-02 0.29853735E+03</pdfrwt>
<totfact> 0.27154781E+04</totfact>
</mgrwt>
</event>
<event>
 8    1  0.9691636E-006  0.4125549E+03  0.7546771E-02  0.1039517E+00
         21   -1    0    0  504  503  0.00000000000E+00  0.00000000000E+00  0.33528381235E+03  0.33528381235E+03  0.00000000000E+00 0.  1.
         21   -1    0    0  503  504 -0.00000000000E+00 -0.00000000000E+00 -0.12690858137E+03  0.12690858137E+03  0.00000000000E+00 0.  1.
         25    2    1    2    0    0 -0.10864662244E+03  0.12284256820E+03  0.11008006334E+03  0.23376116128E+03  0.12502909682E+03 0.  0.
         25    2    1    2    0    0  0.10864662244E+03 -0.12284256820E+03  0.98295167641E+02  0.22843123244E+03  0.12499801135E+03 0.  0.
          5    1    3    3  501    0 -0.12115487468E+03  0.67200451018E+02  0.42043307015E+02  0.14485901401E+03  0.47000000000E+01 0.  1.
         -5    1    3    3    0  501  0.12508252244E+02  0.55642117179E+02  0.68036756323E+02  0.88902147270E+02  0.47000000000E+01 0.  1.
          5    1    4    4  502    0  0.61806540689E+02  0.44993607643E+01  0.23622948638E+01  0.62192951017E+02  0.47000000000E+01 0.  1.
         -5    1    4    4    0  502  0.46840081748E+02 -0.12734192896E+03  0.95932872777E+02  0.16623828142E+03  0.47000000000E+01 0.  1.
<mgrwt>
<rscale>  0 0.41255493E+03</rscale>
<asrwt>0</asrwt>
<pdfrwt beam="1">  1       21 0.51582125E-01 0.41255493E+03</pdfrwt>
<pdfrwt beam="2">  1       21 0.19524397E-01 0.41255493E+03</pdfrwt>
<totfact> 0.80688031E+04</totfact>
</mgrwt>
</event>
<event>
 8    1  0.9691636E-006  0.3082771E+03  0.7546771E-02  0.1081175E+00
         21   -1    0    0  504  503  0.00000000000E+00  0.00000000000E+00  0.42943733590E+02  0.42943733590E+02  0.00000000000E+00 0.  1.
         21   -1    0    0  503  504 -0.00000000000E+00 -0.00000000000E+00 -0.55325154023E+03  0.55325154023E+03  0.00000000000E+00 0.  1.
         25    2    1    2    0    0  0.38582945690E+02  0.26780641212E+02 -0.10624218140E+03  0.17063794858E+03  0.12499624773E+03 0.  0.
         25    2    1    2    0    0 -0.38582945690E+02 -0.26780641212E+02 -0.40406562523E+03  0.42555732523E+03  0.12499664444E+03 0.  0.
          5    1    3    3  501    0 -0.23103032032E+02  0.56774222932E+02 -0.31470039168E+02  0.69061681444E+02  0.47000000000E+01 0.  1.
         -5    1    3    3    0  501  0.61685977722E+02 -0.29993581720E+02 -0.74772142234E+02  0.10157626714E+03  0.47000000000E+01 0.  1.
          5    1    4    4  502    0  0.45124606436E+02 -0.16986164440E+02 -0.12731081732E+03  0.13621635033E+03  0.47000000000E+01 0. -1.
         -5    1    4    4    0  502 -0.83707552125E+02 -0.97944767719E+01 -0.27675480791E+03  0.28934097491E+03  0.47000000000E+01 0. -1.
<mgrwt>
<rscale>  0 0.30827706E+03</rscale>
<asrwt>0</asrwt>
<pdfrwt beam="1">  1       21 0.66067285E-02 0.30827706E+03</pdfrwt>
<pdfrwt beam="2">  1       21 0.85115619E-01 0.30827706E+03</pdfrwt>
<totfact> 0.19309812E+05</totfact>
</mgrwt>
</event>
<event>
 8    1  0.9691636E-006  0.2734949E+03  0.7546771E-02  0.1099296E+00
         21   -1    0    0  504  503  0.00000000000E+00  0.00000000000E+00  0.15743294791E+03  0.15743294791E+03  0.00000000000E+00 0. -1.
         21   -1    0    0  503  504 -0.00000000000E+00 -0.00000000000E+00 -0.11877988249E+03  0.11877988249E+03  0.00000000000E+00 0. -1.
         25    2    1    2    0    0  0.45080720238E+02  0.28171334048E+02  0.35265170824E+02  0.14033698938E+03  0.12499977166E+03 0.  0.
         25    2    1    2    0    0 -0.45080720238E+02 -0.28171334048E+02  0.33878946032E+01  0.13587584102E+03  0.12499948378E+03 0.  0.
          5    1    3    3  501    0  0.19447738497E+02  0.74818678101E+02  0.39115872694E+02  0.86765146355E+02  0.47000000000E+01 0.  1.
         -5    1    3    3    0  501  0.25632981741E+02 -0.46647344052E+02 -0.38507018692E+01  0.53571843024E+02  0.47000000000E+01 0.  1.
          5    1    4    4  502    0  0.17112422998E+02 -0.52360526101E+02  0.31137891984E+02  0.63451698414E+02  0.47000000000E+01 0. -1.
         -5    1    4    4    0  502 -0.62193143236E+02  0.24189192053E+02 -0.27749997380E+02  0.72424142607E+02  0.47000000000E+01 0. -1.
<mgrwt>
<rscale>  0 0.27349491E+03</rscale>
<asrwt>0</asrwt>
<pdfrwt beam="1">  1       21 0.24220454E-01 0.27349491E+03</pdfrwt>
<pdfrwt beam="2">  1       21 0.18273828E-01 0.27349491E+03</pdfrwt>
<totfact> 0.43213830E+05</totfact>
</mgrwt>
</event>
<event>
 8    1  0.9691636E-006  0.3358049E+03  0.7546771E-02  0.1068597E+00
         21   -1    0    0  504  503  0.00000000000E+00  0.00000000000E+00  0.65539295474E+02  0.65539295474E+02  0.00000000000E+00 0. -1.
         21   -1    0    0  503  504 -0.00000000000E+00 -0.00000000000E+00 -0.43014253166E+03  0.43014253166E+03  0.00000000000E+00 0. -1.
         25    2    1    2    0    0  0.13290492428E+02  0.99004615528E+01 -0.18649707385E+02  0.12746546614E+03  0.12499990858E+03 0.  0.
         25    2    1    2    0    0 -0.13290492428E+02 -0.99004615528E+01 -0.34595352880E+03  0.36821636099E+03  0.12499915233E+03 0.  0.
          5    1    3    3  501    0 -0.12281531518E+02  0.39993685638E+01 -0.69073028801E+02  0.70427297783E+02  0.47000000000E+01 0. -1.
         -5    1    3    3    0  501  0.25572023946E+02  0.59010929890E+01  0.50423321416E+02  0.57038168359E+02  0.47000000000E+01 0. -1.
          5    1    4    4  502    0  0.52750949094E+02 -0.14214267267E+02 -0.10713307293E+03  0.12035070976E+03  0.47000000000E+01 0.  1.
         -5    1    4    4    0  502 -0.66041441522E+02  0.43138057143E+01 -0.23882045588E+03  0.24786565124E+03  0.47000000000E+01 0.  1.
<mgrwt>
<rscale>  0 0.33580493E+03</rscale>
<asrwt>0</asrwt>
<pdfrwt beam="1">  1       21 0.10082968E-01 0.33580493E+03</pdfrwt>
<pdfrwt beam="2">  1       21 0.66175776E-01 0.33580493E+03</pdfrwt>
<totfact> 0.16098600E+05</totfact>
</mgrwt>
</event>
<event>
 8    1  0.9691636E-006  0.4122974E+03  0.7546771E-02  0.1039603E+00
         21   -1    0    0  504  503  0.00000000000E+00  0.00000000000E+00  0.12722683005E+03  0.12722683005E+03  0.00000000000E+00 0. -1.
         21   -1    0    0  503  504 -0.00000000000E+00 -0.00000000000E+00 -0.33402778850E+03  0.33402778850E+03  0.00000000000E+00 0. -1.
         25    2    1    2    0    0 -0.11280933942E+03 -0.16887589886E+02 -0.23511503168E+03  0.28968214399E+03  0.12500211467E+03 0.  0.
         25    2    1    2    0    0  0.11280933942E+03  0.16887589886E+02  0.28314073232E+02  0.17157247457E+03  0.12499715810E+03 0.  0.
          5    1    3    3  501    0  0.27048713845E+02 -0.22267719790E+01 -0.27847596779E+02  0.39168483255E+02  0.47000000000E+01 0.  1.
         -5    1    3    3    0  501 -0.13985805326E+03 -0.14660817907E+02 -0.20726743490E+03  0.25051366074E+03  0.47000000000E+01 0.  1.
          5    1    4    4  502    0  0.12975763656E+03  0.35447002635E+02  0.16141960456E+01  0.13460397420E+03  0.47000000000E+01 0. -1.
         -5    1    4    4    0  502 -0.16948297142E+02 -0.18559412748E+02  0.26699877187E+02  0.36968500367E+02  0.47000000000E+01 0. -1.
<mgrwt>
<rscale>  0 0.41229745E+03</rscale>
<asrwt>0</asrwt>
<pdfrwt beam="1">  1       21 0.19573359E-01 0.41229745E+03</pdfrwt>
<pdfrwt beam="2">  1       21 0.51388889E-01 0.41229745E+03</pdfrwt>
<totfact> 0.80955525E+04</totfact>
</mgrwt>
</event>
<event>
 8    1  0.9691636E-006  0.2915976E+03  0.7546771E-02  0.1089518E+00
         21   -1    0    0  504  503  0.00000000000E+00  0.00000000000E+00  0.18982232861E+02  0.18982232861E+02  0.00000000000E+00 0.  1.
         21   -1    0    0  503  504 -0.00000000000E+00 -0.00000000000E+00 -0.11198516248E+04  0.11198516248E+04  0.00000000000E+00 0.  1.
         25    2    1    2    0    0 -0.26489202977E+02  0.39622479624E+02 -0.77682121753E+03  0.78825624191E+03  0.12500032057E+03 0.  0.
         25    2    1    2    0    0  0.26489202977E+02 -0.39622479624E+02 -0.32404817437E+03  0.35057761571E+03  0.12500330619E+03 0.  0.
          5    1    3    3  501    0  0.43773585024E+01 -0.42452798172E+02 -0.18249884508E+03  0.18748151854E+03  0.47000000000E+01 0.  1.
         -5    1    3    3    0  501 -0.30866561480E+02  0.82075277796E+02 -0.59432237245E+03  0.60077472337E+03  0.47000000000E+01 0.  1.
          5    1    4    4  502    0 -0.32351974869E+02 -0.43439064667E+01 -0.19394292256E+02  0.38258964615E+02  0.47000000000E+01 0. -1.
         -5    1    4    4    0  502  0.58841177846E+02 -0.35278573158E+02 -0.30465388211E+03  0.31231865109E+03  0.47000000000E+01 0. -1.
<mgrwt>
<rscale>  0 0.29159756E+03</rscale>
<asrwt>0</asrwt>
<pdfrwt beam="1">  1       21 0.29203432E-02 0.29159756E+03</pdfrwt>
<pdfrwt beam="2">  1       21 0.17228489E+00 0.29159756E+03</pdfrwt>
<totfact> 0.13050026E+05</totfact>
</mgrwt>
</event>
<event>
 8    1  0.9691636E-006  0.3253899E+03  0.7546771E-02  0.1073195E+00
         21   -1    0    0  504  503  0.00000000000E+00  0.00000000000E+00  0.10526948074E+03  0.10526948074E+03  0.00000000000E+00 0. -1.
         21   -1    0    0  503  504 -0.00000000000E+00 -0.00000000000E+00 -0.25144650118E+03  0.25144650118E+03  0.00000000000E+00 0. -1.
         25    2    1    2    0    0  0.43888009072E+02  0.84539034465E+02 -0.11920802516E+03  0.19725883739E+03  0.12500995951E+03 0.  0.
         25    2    1    2    0    0 -0.43888009072E+02 -0.84539034465E+02 -0.26968995266E+02  0.15945714453E+03  0.12500499409E+03 0.  0.
          5    1    3    3  501    0  0.12891705222E+02  0.60376739193E+02  0.94649380110E+01  0.62635626848E+02  0.47000000000E+01 0.  1.
         -5    1    3    3    0  501  0.30996303851E+02  0.24162295272E+02 -0.12867296318E+03  0.13462321055E+03  0.47000000000E+01 0.  1.
          5    1    4    4  502    0  0.36231667296E+01 -0.10425988648E+03 -0.26752707514E+02  0.10780096764E+03  0.47000000000E+01 0.  1.
         -5    1    4    4    0  502 -0.47511175802E+02  0.19720852010E+02 -0.21628775199E+00  0.51656176886E+02  0.47000000000E+01 0.  1.
<mgrwt>
<rscale>  0 0.32538987E+03</rscale>
<asrwt>0</asrwt>
<pdfrwt beam="1">  1       21 0.16195305E-01 0.32538987E+03</pdfrwt>
<pdfrwt beam="2">  1       21 0.38684077E-01 0.32538987E+03</pdfrwt>
<totfact> 0.21247296E+05</totfact>
</mgrwt>
</event>
<event>
 8    1  0.9691636E-006  0.3317100E+03  0.7546771E-02  0.1070383E+00
         21   -1    0    0  504  503  0.00000000000E+00  0.00000000000E+00  0.84746143980E+02  0.84746143980E+02  0.00000000000E+00 0. -1.
         21   -1    0    0  503  504 -0.00000000000E+00 -0.00000000000E+00 -0.32459157684E+03  0.32459157684E+03  0.00000000000E+00 0. -1.
         25    2    1    2    0    0  0.87559029360E+02 -0.14198964205E+02 -0.41729189256E+02  0.15884624339E+03  0.12499043802E+03 0.  0.
         25    2    1    2    0    0 -0.87559029360E+02  0.14198964205E+02 -0.19811624360E+03  0.25049147743E+03  0.12501095982E+03 0.  0.
          5    1    3    3  501    0  0.77178035072E+02  0.29949517477E+02 -0.67100135942E+02  0.10666743148E+03  0.47000000000E+01 0.  1.
         -5    1    3    3    0  501  0.10380994288E+02 -0.44148481682E+02  0.25370946686E+02  0.52178811916E+02  0.47000000000E+01 0.  1.
          5    1    4    4  502    0 -0.58272283735E+01  0.22081832314E+02  0.11001526516E+02  0.25781533983E+02  0.47000000000E+01 0. -1.
         -5    1    4    4    0  502 -0.81731800987E+02 -0.78828681089E+01 -0.20911777012E+03  0.22470994344E+03  0.47000000000E+01 0. -1.
<mgrwt>
<rscale>  0 0.33171002E+03</rscale>
<asrwt>0</asrwt>
<pdfrwt beam="1">  1       21 0.13037868E-01 0.33171002E+03</pdfrwt>
<pdfrwt beam="2">  1       21 0.49937166E-01 0.33171002E+03</pdfrwt>
<totfact> 0.18618464E+05</totfact>
</mgrwt>
</event>
<event>
 8    1  0.9691636E-006  0.2920582E+03  0.7546771E-02  0.1089279E+00
         21   -1    0    0  504  503  0.00000000000E+00  0.00000000000E+00  0.22185041027E+02  0.22185041027E+02  0.00000000000E+00 0. -1.
         21   -1    0    0  503  504 -0.00000000000E+00 -0.00000000000E+00 -0.96121072806E+03  0.96121072806E+03  0.00000000000E+00 0. -1.
         25    2    1    2    0    0  0.45953518000E+02  0.14996033340E+02 -0.66477828812E+03  0.67815311252E+03  0.12499945934E+03 0.  0.
         25    2    1    2    0    0 -0.45953518000E+02 -0.14996033340E+02 -0.27424739892E+03  0.30524265657E+03  0.12499934698E+03 0.  0.
          5    1    3    3  501    0  0.30408069427E+02 -0.39705941000E+02 -0.11591052931E+03  0.12632716747E+03  0.47000000000E+01 0. -1.
         -5    1    3    3    0  501  0.15545448573E+02  0.54701974339E+02 -0.54886775881E+03  0.55182594505E+03  0.47000000000E+01 0. -1.
          5    1    4    4  502    0  0.36885714483E+02  0.12996566793E+02 -0.44803579910E+02  0.59656663115E+02  0.47000000000E+01 0.  1.
         -5    1    4    4    0  502 -0.82839232483E+02 -0.27992600133E+02 -0.22944381901E+03  0.24558599346E+03  0.47000000000E+01 0.  1.
<mgrwt>
<rscale>  0 0.29205821E+03</rscale>
<asrwt>0</asrwt>
<pdfrwt beam="1">  1       21 0.34130832E-02 0.29205821E+03</pdfrwt>
<pdfrwt beam="2">  1       21 0.14787857E+00 0.29205821E+03</pdfrwt>
<totfact> 0.15269791E+05</totfact>
</mgrwt>
</event>
<event>
 8    1  0.9691636E-006  0.2971945E+03  0.7546771E-02  0.1086652E+00
         21   -1    0    0  504  503  0.00000000000E+00  0.00000000000E+00  0.44639498346E+03  0.44639498346E+03  0.00000000000E+00 0.  1.
         21   -1    0    0  503  504 -0.00000000000E+00 -0.00000000000E+00 -0.49465470189E+02  0.49465470189E+02  0.00000000000E+00 0.  1.
         25    2    1    2    0    0 -0.25625388387E+02 -0.43379185058E+02  0.30290499667E+03  0.33153118956E+03  0.12499231343E+03 0.  0.
         25    2    1    2    0    0  0.25625388387E+02  0.43379185058E+02  0.94024516604E+02  0.16432926409E+03  0.12500033235E+03 0.  0.
          5    1    3    3  501    0 -0.16657818780E+02 -0.84016593704E+02  0.24840186025E+03  0.26279620454E+03  0.47000000000E+01 0. -1.
         -5    1    3    3    0  501 -0.89675696070E+01  0.40637408646E+02  0.54503136413E+02  0.68734985015E+02  0.47000000000E+01 0. -1.
          5    1    4    4  502    0 -0.24915996041E+02 -0.21744397060E+02 -0.67199937618E+01  0.34071600761E+02  0.47000000000E+01 0. -1.
         -5    1    4    4    0  502  0.50541384428E+02  0.65123582119E+02  0.10074451037E+03  0.13025766333E+03  0.47000000000E+01 0. -1.
<mgrwt>
<rscale>  0 0.29719447E+03</rscale>
<asrwt>0</asrwt>
<pdfrwt beam="1">  1       21 0.68676148E-01 0.29719447E+03</pdfrwt>
<pdfrwt beam="2">  1       21 0.76100727E-02 0.29719447E+03</pdfrwt>
<totfact> 0.24609102E+05</totfact>
</mgrwt>
</event>
<event>
 8    1  0.9691636E-006  0.3650459E+03  0.7546771E-02  0.1056604E+00
         21   -1    0    0  504  503  0.00000000000E+00  0.00000000000E+00  0.98362607022E+02  0.98362607022E+02  0.00000000000E+00 0.  1.
         21   -1    0    0  503  504 -0.00000000000E+00 -0.00000000000E+00 -0.33869200475E+03  0.33869200475E+03  0.00000000000E+00 0.  1.
         25    2    1    2    0    0 -0.52279995940E+02 -0.10336098428E+03 -0.19842987624E+03  0.26156359552E+03  0.12499763066E+03 0.  0.
         25    2    1    2    0    0  0.52279995940E+02  0.10336098428E+03 -0.41899521487E+02  0.17549101625E+03  0.12499934334E+03 0.  0.
          5    1    3    3  501    0 -0.91758723786E+02 -0.78260958445E+02 -0.12049941256E+03  0.17054805609E+03  0.47000000000E+01 0.  1.
         -5    1    3    3    0  501  0.39478727846E+02 -0.25100025837E+02 -0.77930463680E+02  0.91015539436E+02  0.47000000000E+01 0.  1.
          5    1    4    4  502    0  0.55716656908E+02  0.85767128973E+02 -0.82092616554E+02  0.13123122327E+03  0.47000000000E+01 0. -1.
         -5    1    4    4    0  502 -0.34366609686E+01  0.17593855309E+02  0.40193095067E+02  0.44259792976E+02  0.47000000000E+01 0. -1.
<mgrwt>
<rscale>  0 0.36504591E+03</rscale>
<asrwt>0</asrwt>
<pdfrwt beam="1">  1       21 0.15132709E-01 0.36504591E+03</pdfrwt>
<pdfrwt beam="2">  1       21 0.52106463E-01 0.36504591E+03</pdfrwt>
<totfact> 0.12850137E+05</totfact>
</mgrwt>
</event>
<event>
 8    1  0.9691636E-006  0.2950046E+03  0.7546771E-02  0.1087765E+00
         21   -1    0    0  504  503  0.00000000000E+00  0.00000000000E+00  0.18581632414E+03  0.18581632414E+03  0.00000000000E+00 0. -1.
         21   -1    0    0  503  504 -0.00000000000E+00 -0.00000000000E+00 -0.11708837032E+03  0.11708837032E+03  0.00000000000E+00 0. -1.
         25    2    1    2    0    0  0.53574551016E+02 -0.51361458901E+02  0.60003319976E+02  0.15727101389E+03  0.12500216568E+03 0.  0.
         25    2    1    2    0    0 -0.53574551016E+02  0.51361458901E+02  0.87246338484E+01  0.14563368057E+03  0.12499927082E+03 0.  0.
          5    1    3    3  501    0  0.12689263019E+02 -0.24848182296E+02 -0.38202630818E+02  0.47539252842E+02  0.47000000000E+01 0.  1.
         -5    1    3    3    0  501  0.40885287996E+02 -0.26513276605E+02  0.98205950794E+02  0.10973176105E+03  0.47000000000E+01 0.  1.
          5    1    4    4  502    0 -0.67190641900E+02  0.83471103431E+02  0.19097899745E+02  0.10894414735E+03  0.47000000000E+01 0. -1.
         -5    1    4    4    0  502  0.13616090885E+02 -0.32109644530E+02 -0.10373265897E+02  0.36689533224E+02  0.47000000000E+01 0. -1.
<mgrwt>
<rscale>  0 0.29500461E+03</rscale>
<asrwt>0</asrwt>
<pdfrwt beam="1">  1       21 0.28587127E-01 0.29500461E+03</pdfrwt>
<pdfrwt beam="2">  1       21 0.18013595E-01 0.29500461E+03</pdfrwt>
<totfact> 0.32065677E+05</totfact>
</mgrwt>
</event>
<event>
 8    1  0.9691636E-006  0.4557252E+03  0.7546771E-02  0.1026028E+00
         21   -1    0    0  504  503  0.00000000000E+00  0.00000000000E+00  0.18159730757E+03  0.18159730757E+03  0.00000000000E+00 0.  1.
         21   -1    0    0  503  504 -0.00000000000E+00 -0.00000000000E+00 -0.28591483108E+03  0.28591483108E+03  0.00000000000E+00 0.  1.
         25    2    1    2    0    0 -0.64005950274E+02 -0.94279803458E+00  0.13193243958E+03  0.19266236838E+03  0.12495986970E+03 0.  0.
         25    2    1    2    0    0  0.64005950274E+02  0.94279803458E+00 -0.23624996309E+03  0.27484977027E+03  0.12502280041E+03 0.  0.
          5    1    3    3  501    0 -0.34635821026E+02 -0.27809490219E+02 -0.94953450446E+01  0.45664640827E+02  0.47000000000E+01 0. -1.
         -5    1    3    3    0  501 -0.29370129249E+02  0.26866692184E+02  0.14142778462E+03  0.14699772755E+03  0.47000000000E+01 0. -1.
          5    1    4    4  502    0  0.89649445018E+02 -0.34707248806E+02 -0.15872383483E+03  0.18562586526E+03  0.47000000000E+01 0. -1.
         -5    1    4    4    0  502 -0.25643494743E+02  0.35650046841E+02 -0.77526128260E+02  0.89223905011E+02  0.47000000000E+01 0. -1.
<mgrwt>
<rscale>  0 0.45572520E+03</rscale>
<asrwt>0</asrwt>
<pdfrwt beam="1">  1       21 0.27938047E-01 0.45572520E+03</pdfrwt>
<pdfrwt beam="2">  1       21 0.43986897E-01 0.45572520E+03</pdfrwt>
<totfact> 0.56010188E+04</totfact>
</mgrwt>
</event>
<event>
 8    1  0.9691636E-006  0.3758471E+03  0.7546771E-02  0.1052479E+00
         21   -1    0    0  504  503  0.00000000000E+00  0.00000000000E+00  0.18831630768E+03  0.18831630768E+03  0.00000000000E+00 0.  1.
         21   -1    0    0  503  504 -0.00000000000E+00 -0.00000000000E+00 -0.18753157816E+03  0.18753157816E+03  0.00000000000E+00 0.  1.
         25    2    1    2    0    0  0.31487302931E+02 -0.13337739483E+03 -0.29766948612E+02  0.18786461767E+03  0.12500425451E+03 0.  0.
         25    2    1    2    0    0 -0.31487302931E+02  0.13337739483E+03  0.30551678128E+02  0.18798326817E+03  0.12499329733E+03 0.  0.
          5    1    3    3  501    0  0.24334137481E+02 -0.38869303722E+02  0.46979763555E+02  0.65819155285E+02  0.47000000000E+01 0.  1.
         -5    1    3    3    0  501  0.71531654496E+01 -0.94508091105E+02 -0.76746712167E+02  0.12204546238E+03  0.47000000000E+01 0.  1.
          5    1    4    4  502    0  0.27003815175E+02  0.34655367232E+01 -0.22755220564E+02  0.35792541705E+02  0.47000000000E+01 0.  1.
         -5    1    4    4    0  502 -0.58491118106E+02  0.12991185810E+03  0.53306898692E+02  0.15219072646E+03  0.47000000000E+01 0.  1.
<mgrwt>
<rscale>  0 0.37584707E+03</rscale>
<asrwt>0</asrwt>
<pdfrwt beam="1">  1       21 0.28971740E-01 0.37584707E+03</pdfrwt>
<pdfrwt beam="2">  1       21 0.28851012E-01 0.37584707E+03</pdfrwt>
<totfact> 0.12460728E+05</totfact>
</mgrwt>
</event>
<event>
 8    1  0.9691636E-006  0.3281861E+03  0.7546771E-02  0.1071942E+00
         21   -1    0    0  504  503  0.00000000000E+00  0.00000000000E+00  0.24876197645E+03  0.24876197645E+03  0.00000000000E+00 0. -1.
         21   -1    0    0  503  504 -0.00000000000E+00 -0.00000000000E+00 -0.10824211324E+03  0.10824211324E+03  0.00000000000E+00 0. -1.
         25    2    1    2    0    0  0.21722966706E+02 -0.62281105031E+02 -0.20435060351E+02  0.14280331309E+03  0.12499748482E+03 0.  0.
         25    2    1    2    0    0 -0.21722966706E+02  0.62281105031E+02  0.16095492356E+03  0.21420077660E+03  0.12499864781E+03 0.  0.
          5    1    3    3  501    0 -0.37679702265E+02 -0.46525061735E+02 -0.46430689699E+02  0.75909421537E+02  0.47000000000E+01 0.  1.
         -5    1    3    3    0  501  0.59402668971E+02 -0.15756043296E+02  0.25995629348E+02  0.66893891548E+02  0.47000000000E+01 0.  1.
          5    1    4    4  502    0  0.35632383909E+02  0.71900232507E+02  0.72573249839E+02  0.10829716898E+03  0.47000000000E+01 0. -1.
         -5    1    4    4    0  502 -0.57355350615E+02 -0.96191274759E+01  0.88381673717E+02  0.10590360762E+03  0.47000000000E+01 0. -1.
<mgrwt>
<rscale>  0 0.32818606E+03</rscale>
<asrwt>0</asrwt>
<pdfrwt beam="1">  1       21 0.38271073E-01 0.32818606E+03</pdfrwt>
<pdfrwt beam="2">  1       21 0.16652633E-01 0.32818606E+03</pdfrwt>
<totfact> 0.20610400E+05</totfact>
</mgrwt>
</event>
<event>
 8    1  0.9691636E-006  0.3078841E+03  0.7546771E-02  0.1081364E+00
         21   -1    0    0  504  503  0.00000000000E+00  0.00000000000E+00  0.31885956591E+02  0.31885956591E+02  0.00000000000E+00 0. -1.
         21   -1    0    0  503  504 -0.00000000000E+00 -0.00000000000E+00 -0.74321627651E+03  0.74321627651E+03  0.00000000000E+00 0. -1.
         25    2    1    2    0    0 -0.86835444693E+02 -0.17510961100E+02 -0.39382242279E+03  0.42256387320E+03  0.12496838812E+03 0.  0.
         25    2    1    2    0    0  0.86835444693E+02  0.17510961100E+02 -0.31750789713E+03  0.35253835990E+03  0.12500000899E+03 0.  0.
          5    1    3    3  501    0 -0.11310442021E+03 -0.97303263925E+01 -0.23150625119E+03  0.25788470963E+03  0.47000000000E+01 0.  1.
         -5    1    3    3    0  501  0.26268975514E+02 -0.77806347076E+01 -0.16231617160E+03  0.16467916357E+03  0.47000000000E+01 0.  1.
          5    1    4    4  502    0  0.31498956565E+02  0.68502019339E+02 -0.18912477038E+03  0.20365406868E+03  0.47000000000E+01 0.  1.
         -5    1    4    4    0  502  0.55336488128E+02 -0.50991058239E+02 -0.12838312675E+03  0.14888429122E+03  0.47000000000E+01 0.  1.
<mgrwt>
<rscale>  0 0.30788415E+03</rscale>
<asrwt>0</asrwt>
<pdfrwt beam="1">  1       21 0.49055320E-02 0.30788415E+03</pdfrwt>
<pdfrwt beam="2">  1       21 0.11434096E+00 0.30788415E+03</pdfrwt>
<totfact> 0.15907404E+05</totfact>
</mgrwt>
</event>
<event>
 8    1  0.9691636E-006  0.2867435E+03  0.7546771E-02  0.1092062E+00
         21   -1    0    0  504  503  0.00000000000E+00  0.00000000000E+00  0.30585090298E+03  0.30585090298E+03  0.00000000000E+00 0. -1.
         21   -1    0    0  503  504 -0.00000000000E+00 -0.00000000000E+00 -0.67207446629E+02  0.67207446629E+02  0.00000000000E+00 0. -1.
         25    2    1    2    0    0  0.32071927868E+02  0.29948744764E+02  0.19062849871E+03  0.23213975623E+03  0.12499642407E+03 0.  0.
         25    2    1    2    0    0 -0.32071927868E+02 -0.29948744764E+02  0.48014957637E+02  0.14091859338E+03  0.12500831146E+03 0.  0.
          5    1    3    3  501    0  0.49020856782E+02  0.70514739543E+02  0.14509410966E+03  0.16867057701E+03  0.47000000000E+01 0. -1.
         -5    1    3    3    0  501 -0.16948928914E+02 -0.40565994779E+02  0.45534389057E+02  0.63469179217E+02  0.47000000000E+01 0. -1.
          5    1    4    4  502    0 -0.42106794068E+02 -0.72128226399E+02  0.49651683206E+02  0.97277144260E+02  0.47000000000E+01 0. -1.
         -5    1    4    4    0  502  0.10034866201E+02  0.42179481635E+02 -0.16367255690E+01  0.43641449119E+02  0.47000000000E+01 0. -1.
<mgrwt>
<rscale>  0 0.28674350E+03</rscale>
<asrwt>0</asrwt>
<pdfrwt beam="1">  1       21 0.47053984E-01 0.28674350E+03</pdfrwt>
<pdfrwt beam="2">  1       21 0.10339607E-01 0.28674350E+03</pdfrwt>
<totfact> 0.32347375E+05</totfact>
</mgrwt>
</event>
<event>
 8    1  0.9691636E-006  0.3496892E+03  0.7546771E-02  0.1062743E+00
         21   -1    0    0  504  503  0.00000000000E+00  0.00000000000E+00  0.39307529168E+02  0.39307529168E+02  0.00000000000E+00 0. -1.
         21   -1    0    0  503  504 -0.00000000000E+00 -0.00000000000E+00 -0.77772982658E+03  0.77772982658E+03  0.00000000000E+00 0. -1.
         25    2    1    2    0    0  0.11203119826E+03 -0.16038321135E+01 -0.48344149943E+03  0.51175778653E+03  0.12500714797E+03 0.  0.
         25    2    1    2    0    0 -0.11203119826E+03  0.16038321135E+01 -0.25498079798E+03  0.30527956922E+03  0.12500738530E+03 0.  0.
          5    1    3    3  501    0  0.58339777323E+02  0.20677627978E+02 -0.67325194953E+02  0.91574373011E+02  0.47000000000E+01 0.  1.
         -5    1    3    3    0  501  0.53691420936E+02 -0.22281460092E+02 -0.41611630448E+03  0.42018341352E+03  0.47000000000E+01 0.  1.
          5    1    4    4  502    0  0.88048093992E+01 -0.11979497463E+02 -0.12967815268E+03  0.13061219817E+03  0.47000000000E+01 0.  1.
         -5    1    4    4    0  502 -0.12083600766E+03  0.13583329576E+02 -0.12530264531E+03  0.17466737105E+03  0.47000000000E+01 0.  1.
<mgrwt>
<rscale>  0 0.34968922E+03</rscale>
<asrwt>0</asrwt>
<pdfrwt beam="1">  1       21 0.60473129E-02 0.34968922E+03</pdfrwt>
<pdfrwt beam="2">  1       21 0.11965073E+00 0.34968922E+03</pdfrwt>
<totfact> 0.97973419E+04</totfact>
</mgrwt>
</event>
<event>
 8    1  0.9691636E-006  0.2923589E+03  0.7546771E-02  0.1089124E+00
         21   -1    0    0  504  503  0.00000000000E+00  0.00000000000E+00  0.22317028241E+03  0.22317028241E+03  0.00000000000E+00 0.  1.
         21   -1    0    0  503  504 -0.00000000000E+00 -0.00000000000E+00 -0.95749427654E+02  0.95749427654E+02  0.00000000000E+00 0.  1.
         25    2    1    2    0    0  0.48846432599E+02 -0.11838592972E+02  0.17822148661E+01  0.13470405527E+03  0.12496351449E+03 0.  0.
         25    2    1    2    0    0 -0.48846432599E+02  0.11838592972E+02  0.12563863989E+03  0.18421565480E+03  0.12499685347E+03 0.  0.
          5    1    3    3  501    0  0.80097083429E+02 -0.41083197143E+02 -0.81719481900E+01  0.90511008162E+02  0.47000000000E+01 0.  1.
         -5    1    3    3    0  501 -0.31250650830E+02  0.29244604172E+02  0.99541630561E+01  0.44193047107E+02  0.47000000000E+01 0.  1.
          5    1    4    4  502    0  0.16740693260E+02 -0.41989237356E+02  0.67040104395E+02  0.80992669186E+02  0.47000000000E+01 0. -1.
         -5    1    4    4    0  502 -0.65587125859E+02  0.53827830328E+02  0.58598535498E+02  0.10322298561E+03  0.47000000000E+01 0. -1.
<mgrwt>
<rscale>  0 0.29235887E+03</rscale>
<asrwt>0</asrwt>
<pdfrwt beam="1">  1       21 0.34333889E-01 0.29235887E+03</pdfrwt>
<pdfrwt beam="2">  1       21 0.14730681E-01 0.29235887E+03</pdfrwt>
<totfact> 0.32404520E+05</totfact>
</mgrwt>
</event>
<event>
 8    1  0.9691636E-006  0.3086868E+03  0.7546771E-02  0.1080977E+00
         21   -1    0    0  504  503  0.00000000000E+00  0.00000000000E+00  0.75049046277E+02  0.75049046277E+02  0.00000000000E+00 0. -1.
         21   -1    0    0  503  504 -0.00000000000E+00 -0.00000000000E+00 -0.31741754388E+03  0.31741754388E+03  0.00000000000E+00 0. -1.
         25    2    1    2    0    0 -0.32820814886E+02 -0.20096283554E+02 -0.22538292059E+03  0.26057599825E+03  0.12498529300E+03 0.  0.
         25    2    1    2    0    0  0.32820814886E+02  0.20096283554E+02 -0.16985577010E+02  0.13189059191E+03  0.12500220760E+03 0.  0.
          5    1    3    3  501    0 -0.22306883493E+02 -0.48534279770E+02 -0.27374962012E+02  0.60205082087E+02  0.47000000000E+01 0.  1.
         -5    1    3    3    0  501 -0.10513931393E+02  0.28437996216E+02 -0.19800795858E+03  0.20037091616E+03  0.47000000000E+01 0.  1.
          5    1    4    4  502    0  0.73170135483E+02  0.32657536101E+02 -0.32546631612E+02  0.86612681636E+02  0.47000000000E+01 0.  1.
         -5    1    4    4    0  502 -0.40349320598E+02 -0.12561252547E+02  0.15561054602E+02  0.45277910272E+02  0.47000000000E+01 0.  1.
<mgrwt>
<rscale>  0 0.30868679E+03</rscale>
<asrwt>0</asrwt>
<pdfrwt beam="1">  1       21 0.11546007E-01 0.30868679E+03</pdfrwt>
<pdfrwt beam="2">  1       21 0.48833468E-01 0.30868679E+03</pdfrwt>
<totfact> 0.24441573E+05</totfact>
</mgrwt>
</event>
<event>
 8    1  0.9691636E-006  0.2991901E+03  0.7546771E-02  0.1085646E+00
         21   -1    0    0  504  503  0.00000000000E+00  0.00000000000E+00  0.81039547253E+02  0.81039547253E+02  0.00000000000E+00 0.  1.
         21   -1    0    0  503  504 -0.00000000000E+00 -0.00000000000E+00 -0.27614517799E+03  0.27614517799E+03  0.00000000000E+00 0.  1.
         25    2    1    2    0    0  0.13960060611E+02 -0.11918508783E+02 -0.19318717875E+03  0.23083358527E+03  0.12500369560E+03 0.  0.
         25    2    1    2    0    0 -0.13960060611E+02  0.11918508783E+02 -0.19184519955E+01  0.12635113998E+03  0.12499598382E+03 0.  0.
          5    1    3    3  501    0  0.59295379696E+02  0.26879149382E+02 -0.84733277137E+02  0.10695909956E+03  0.47000000000E+01 0. -1.
         -5    1    3    3    0  501 -0.45335319084E+02 -0.38797658165E+02 -0.10845390161E+03  0.12387448571E+03  0.47000000000E+01 0. -1.
          5    1    4    4  502    0 -0.36182257733E+02  0.19148784029E+02  0.52618284026E+02  0.66832668046E+02  0.47000000000E+01 0.  1.
         -5    1    4    4    0  502  0.22222197121E+02 -0.72302752462E+01 -0.54536736021E+02  0.59518471930E+02  0.47000000000E+01 0.  1.
<mgrwt>
<rscale>  0 0.29919011E+03</rscale>
<asrwt>0</asrwt>
<pdfrwt beam="1">  1       21 0.12467623E-01 0.29919011E+03</pdfrwt>
<pdfrwt beam="2">  1       21 0.42483874E-01 0.29919011E+03</pdfrwt>
<totfact> 0.28478483E+05</totfact>
</mgrwt>
</event>
<event>
 8    1  0.9691636E-006  0.2917206E+03  0.7546771E-02  0.1089454E+00
         21   -1    0    0  504  503  0.00000000000E+00  0.00000000000E+00  0.14270812020E+04  0.14270812020E+04  0.00000000000E+00 0.  1.
         21   -1    0    0  503  504 -0.00000000000E+00 -0.00000000000E+00 -0.14908206332E+02  0.14908206332E+02  0.00000000000E+00 0.  1.
         25    2    1    2    0    0  0.57549653585E+02 -0.29122846694E+02  0.51526375764E+03  0.53411700083E+03  0.12499651121E+03 0.  0.
         25    2    1    2    0    0 -0.57549653585E+02  0.29122846694E+02  0.89690923804E+03  0.90787240751E+03  0.12500409678E+03 0.  0.
          5    1    3    3  501    0  0.31859668145E+02 -0.77924396156E+02  0.34125452771E+03  0.35151670324E+03  0.47000000000E+01 0.  1.
         -5    1    3    3    0  501  0.25689985440E+02  0.48801549462E+02  0.17400922992E+03  0.18260029759E+03  0.47000000000E+01 0.  1.
          5    1    4    4  502    0  0.21919620384E+02  0.51292827893E+02  0.44047363187E+03  0.44401636718E+03  0.47000000000E+01 0. -1.
         -5    1    4    4    0  502 -0.79469273969E+02 -0.22169981199E+02  0.45643560617E+03  0.46385604033E+03  0.47000000000E+01 0. -1.
<mgrwt>
<rscale>  0 0.29172056E+03</rscale>
<asrwt>0</asrwt>
<pdfrwt beam="1">  1       21 0.21955085E+00 0.29172056E+03</pdfrwt>
<pdfrwt beam="2">  1       21 0.22935713E-02 0.29172056E+03</pdfrwt>
<totfact> 0.94585825E+04</totfact>
</mgrwt>
</event>
<event>
 8    1  0.9691636E-006  0.2914624E+03  0.7546771E-02  0.1089588E+00
         21   -1    0    0  504  503  0.00000000000E+00  0.00000000000E+00  0.24114470083E+03  0.24114470083E+03  0.00000000000E+00 0.  1.
         21   -1    0    0  503  504 -0.00000000000E+00 -0.00000000000E+00 -0.88069877167E+02  0.88069877167E+02  0.00000000000E+00 0.  1.
         25    2    1    2    0    0 -0.36821695394E+02 -0.58043995509E+02  0.11018475041E+03  0.18025021354E+03  0.12499807036E+03 0.  0.
         25    2    1    2    0    0  0.36821695394E+02  0.58043995509E+02  0.42890073258E+02  0.14896436446E+03  0.12500352326E+03 0.  0.
          5    1    3    3  501    0 -0.41940241094E+02  0.31589551724E+02  0.42606949358E+02  0.67781455685E+02  0.47000000000E+01 0.  1.
         -5    1    3    3    0  501  0.51185457004E+01 -0.89633547233E+02  0.67577801050E+02  0.11246875786E+03  0.47000000000E+01 0.  1.
          5    1    4    4  502    0  0.21366568282E+02 -0.12048996655E+02  0.68264159797E+02  0.72689710918E+02  0.47000000000E+01 0. -1.
         -5    1    4    4    0  502  0.15455127112E+02  0.70092992164E+02 -0.25374086540E+02  0.76274653537E+02  0.47000000000E+01 0. -1.
<mgrwt>
<rscale>  0 0.29146241E+03</rscale>
<asrwt>0</asrwt>
<pdfrwt beam="1">  1       21 0.37099184E-01 0.29146241E+03</pdfrwt>
<pdfrwt beam="2">  1       21 0.13549212E-01 0.29146241E+03</pdfrwt>
<totfact> 0.32322723E+05</totfact>
</mgrwt>
</event>
<event>
 8    1  0.9691636E-006  0.2665611E+03  0.7546771E-02  0.1103264E+00
         21   -1    0    0  504  503  0.00000000000E+00  0.00000000000E+00  0.55382723932E+03  0.55382723932E+03  0.00000000000E+00 0.  1.
         21   -1    0    0  503  504 -0.00000000000E+00 -0.00000000000E+00 -0.32074450619E+02  0.32074450619E+02  0.00000000000E+00 0.  1.
         25    2    1    2    0    0 -0.10904685758E+02  0.39131199079E+02  0.30945894921E+03  0.33621500854E+03  0.12500211123E+03 0.  0.
         25    2    1    2    0    0  0.10904685758E+02 -0.39131199079E+02  0.21229383949E+03  0.24968668139E+03  0.12499840665E+03 0.  0.
          5    1    3    3  501    0 -0.46402811565E+02 -0.28674275413E+02  0.13069462793E+03  0.14169901468E+03  0.47000000000E+01 0. -1.
         -5    1    3    3    0  501  0.35498125807E+02  0.67805474492E+02  0.17876432128E+03  0.19451599386E+03  0.47000000000E+01 0. -1.
          5    1    4    4  502    0  0.56372940930E+02 -0.24100702740E+01  0.16472369879E+03  0.17418296086E+03  0.47000000000E+01 0. -1.
         -5    1    4    4    0  502 -0.45468255172E+02 -0.36721128805E+02  0.47570140695E+02  0.75503720536E+02  0.47000000000E+01 0. -1.
<mgrwt>
<rscale>  0 0.26656110E+03</rscale>
<asrwt>0</asrwt>
<pdfrwt beam="1">  1       21 0.85204183E-01 0.26656110E+03</pdfrwt>
<pdfrwt beam="2">  1       21 0.49345313E-02 0.26656110E+03</pdfrwt>
<totfact> 0.32153030E+05</totfact>
</mgrwt>
</event>
<event>
 8    1  0.9691636E-006  0.2844117E+03  0.7546771E-02  0.1093303E+00
         21   -1    0    0  504  503  0.00000000000E+00  0.00000000000E+00  0.45081023715E+02  0.45081023715E+02  0.00000000000E+00 0.  1.
         21   -1    0    0  503  504 -0.00000000000E+00 -0.00000000000E+00 -0.44858125110E+03  0.44858125110E+03  0.00000000000E+00 0.  1.
         25    2    1    2    0    0 -0.18263181085E+02  0.35028963250E+02 -0.10606863906E+03  0.16862740434E+03  0.12499629295E+03 0.  0.
         25    2    1    2    0    0  0.18263181085E+02 -0.35028963250E+02 -0.29743158832E+03  0.32503487048E+03  0.12498618021E+03 0.  0.
          5    1    3    3  501    0 -0.52562388205E+02  0.98362461360E-01 -0.11845230010E+01  0.52785484972E+02  0.47000000000E+01 0.  1.
         -5    1    3    3    0  501  0.34299207120E+02  0.34930600789E+02 -0.10488411606E+03  0.11584191936E+03  0.47000000000E+01 0.  1.
          5    1    4    4  502    0  0.21798768033E+02 -0.45568839784E+02 -0.30603569409E+03  0.31021225234E+03  0.47000000000E+01 0.  1.
         -5    1    4    4    0  502 -0.35355869474E+01  0.10539876534E+02  0.86041057639E+01  0.14822618136E+02  0.47000000000E+01 0.  1.
<mgrwt>
<rscale>  0 0.28441169E+03</rscale>
<asrwt>0</asrwt>
<pdfrwt beam="1">  1       21 0.69355420E-02 0.28441169E+03</pdfrwt>
<pdfrwt beam="2">  1       21 0.69012502E-01 0.28441169E+03</pdfrwt>
<totfact> 0.28707493E+05</totfact>
</mgrwt>
</event>
<event>
 8    1  0.9691636E-006  0.2690425E+03  0.7546771E-02  0.1101829E+00
         21   -1    0    0  504  503  0.00000000000E+00  0.00000000000E+00  0.23706466396E+03  0.23706466396E+03  0.00000000000E+00 0. -1.
         21   -1    0    0  503  504 -0.00000000000E+00 -0.00000000000E+00 -0.76333485658E+02  0.76333485658E+02  0.00000000000E+00 0. -1.
         25    2    1    2    0    0  0.17287431067E+02 -0.42203172418E+02  0.10340160569E+03  0.16850769723E+03  0.12499195547E+03 0.  0.
         25    2    1    2    0    0 -0.17287431067E+02  0.42203172418E+02  0.57329572611E+02  0.14489045239E+03  0.12500640089E+03 0.  0.
          5    1    3    3  501    0  0.65662341567E+01  0.33019426189E+02 -0.67036433629E+01  0.34647175515E+02  0.47000000000E+01 0.  1.
         -5    1    3    3    0  501  0.10721196911E+02 -0.75222598607E+02  0.11010524906E+03  0.13386052172E+03  0.47000000000E+01 0.  1.
          5    1    4    4  502    0  0.27537578385E+01 -0.30739669217E+02  0.61514864985E+02  0.68983179544E+02  0.47000000000E+01 0.  1.
         -5    1    4    4    0  502 -0.20041188906E+02  0.72942841635E+02 -0.41852923745E+01  0.75907272846E+02  0.47000000000E+01 0.  1.
<mgrwt>
<rscale>  0 0.26904254E+03</rscale>
<asrwt>0</asrwt>
<pdfrwt beam="1">  1       21 0.36471486E-01 0.26904254E+03</pdfrwt>
<pdfrwt beam="2">  1       21 0.11743613E-01 0.26904254E+03</pdfrwt>
<totfact> 0.43528716E+05</totfact>
</mgrwt>
</event>
<event>
 8    1  0.9691636E-006  0.2646834E+03  0.7546771E-02  0.1104362E+00
         21   -1    0    0  504  503  0.00000000000E+00  0.00000000000E+00  0.32633987134E+02  0.32633987134E+02  0.00000000000E+00 0. -1.
         21   -1    0    0  503  504 -0.00000000000E+00 -0.00000000000E+00 -0.53668987066E+03  0.53668987066E+03  0.00000000000E+00 0. -1.
         25    2    1    2    0    0  0.11095368460E+02 -0.14300269809E+02 -0.16696792899E+03  0.20935181196E+03  0.12498914730E+03 0.  0.
         25    2    1    2    0    0 -0.11095368460E+02  0.14300269809E+02 -0.33708795453E+03  0.35997204583E+03  0.12499591901E+03 0.  0.
          5    1    3    3  501    0 -0.60423374583E+00 -0.51729521903E+02 -0.16129154311E+03  0.16945017089E+03  0.47000000000E+01 0.  1.
         -5    1    3    3    0  501  0.11699602206E+02  0.37429252094E+02 -0.56763858837E+01  0.39901641079E+02  0.47000000000E+01 0.  1.
          5    1    4    4  502    0  0.54476560113E+02 -0.64385443308E+01 -0.18441589016E+03  0.19245898523E+03  0.47000000000E+01 0.  1.
         -5    1    4    4    0  502 -0.65571928573E+02  0.20738814140E+02 -0.15267206438E+03  0.16751306059E+03  0.47000000000E+01 0.  1.
<mgrwt>
<rscale>  0 0.26468344E+03</rscale>
<asrwt>0</asrwt>
<pdfrwt beam="1">  1       21 0.50206135E-02 0.26468344E+03</pdfrwt>
<pdfrwt beam="2">  1       21 0.82567671E-01 0.26468344E+03</pdfrwt>
<totfact> 0.33574505E+05</totfact>
</mgrwt>
</event>
<event>
 8    1  0.9691636E-006  0.2815956E+03  0.7546771E-02  0.1094821E+00
         21   -1    0    0  504  503  0.00000000000E+00  0.00000000000E+00  0.70636002564E+03  0.70636002564E+03  0.00000000000E+00 0.  1.
         21   -1    0    0  503  504 -0.00000000000E+00 -0.00000000000E+00 -0.28065030798E+02  0.28065030798E+02  0.00000000000E+00 0.  1.
         25    2    1    2    0    0  0.15119835380E+02 -0.45496191451E+02  0.45283119958E+03  0.47220831527E+03  0.12500433929E+03 0.  0.
         25    2    1    2    0    0 -0.15119835380E+02  0.45496191451E+02  0.22546379527E+03  0.26221674117E+03  0.12500073406E+03 0.  0.
          5    1    3    3  501    0  0.26137677032E+02  0.49793352633E+01  0.38907794712E+03  0.39001501365E+03  0.47000000000E+01 0. -1.
         -5    1    3    3    0  501 -0.11017841653E+02 -0.50475526715E+02  0.63753252458E+02  0.82193301618E+02  0.47000000000E+01 0. -1.
          5    1    4    4  502    0  0.12595480217E+02  0.34618723979E+02  0.22888754348E+03  0.23188078776E+03  0.47000000000E+01 0.  1.
         -5    1    4    4    0  502 -0.27715315596E+02  0.10877467472E+02 -0.34237482168E+01  0.30335953406E+02  0.47000000000E+01 0.  1.
<mgrwt>
<rscale>  0 0.28159557E+03</rscale>
<asrwt>0</asrwt>
<pdfrwt beam="1">  1       21 0.10867076E+00 0.28159557E+03</pdfrwt>
<pdfrwt beam="2">  1       21 0.43176976E-02 0.28159557E+03</pdfrwt>
<totfact> 0.22558840E+05</totfact>
</mgrwt>
</event>
<event>
 8    1  0.9691636E-006  0.4173109E+03  0.7546771E-02  0.1037945E+00
         21   -1    0    0  504  503  0.00000000000E+00  0.00000000000E+00  0.46825766449E+03  0.46825766449E+03  0.00000000000E+00 0. -1.
         21   -1    0    0  503  504 -0.00000000000E+00 -0.00000000000E+00 -0.92976804401E+02  0.92976804401E+02  0.00000000000E+00 0. -1.
         25    2    1    2    0    0  0.48937764638E+02  0.15157260252E+03  0.11985865698E+03  0.23529997219E+03  0.12502328031E+03 0.  0.
         25    2    1    2    0    0 -0.48937764638E+02 -0.15157260252E+03  0.25542220311E+03  0.32593449670E+03  0.12499454249E+03 0.  0.
          5    1    3    3  501    0 -0.30557169575E+02  0.14454762764E+01  0.84023038393E+01  0.32070527340E+02  0.47000000000E+01 0. -1.
         -5    1    3    3    0  501  0.79494934213E+02  0.15012712625E+03  0.11145635314E+03  0.20322944485E+03  0.47000000000E+01 0. -1.
          5    1    4    4  502    0 -0.81844980229E+02 -0.14524508303E+03  0.22736112849E+03  0.28197501252E+03  0.47000000000E+01 0.  1.
         -5    1    4    4    0  502  0.32907215591E+02 -0.63275194949E+01  0.28061074614E+02  0.43959484180E+02  0.47000000000E+01 0.  1.
<mgrwt>
<rscale>  0 0.41731092E+03</rscale>
<asrwt>0</asrwt>
<pdfrwt beam="1">  1       21 0.72039639E-01 0.41731092E+03</pdfrwt>
<pdfrwt beam="2">  1       21 0.14304124E-01 0.41731092E+03</pdfrwt>
<totfact> 0.69277504E+04</totfact>
</mgrwt>
</event>
<event>
 8    1  0.9691636E-006  0.4094823E+03  0.7546771E-02  0.1040545E+00
         21   -1    0    0  504  503  0.00000000000E+00  0.00000000000E+00  0.12125652372E+03  0.12125652372E+03  0.00000000000E+00 0. -1.
         21   -1    0    0  503  504 -0.00000000000E+00 -0.00000000000E+00 -0.34570466686E+03  0.34570466686E+03  0.00000000000E+00 0. -1.
         25    2    1    2    0    0  0.13234710957E+03  0.61707097292E+02 -0.19263410802E+03  0.27213263800E+03  0.12499899930E+03 0.  0.
         25    2    1    2    0    0 -0.13234710957E+03 -0.61707097292E+02 -0.31814035127E+02  0.19482855257E+03  0.12499003479E+03 0.  0.
          5    1    3    3  501    0  0.66224415099E+02  0.62483847160E+02 -0.29147403594E+02  0.95716066819E+02  0.47000000000E+01 0. -1.
         -5    1    3    3    0  501  0.66122694474E+02 -0.77674986740E+00 -0.16348670443E+03  0.17641657119E+03  0.47000000000E+01 0. -1.
          5    1    4    4  502    0 -0.95983368649E+02 -0.12920472834E+02 -0.72854812175E+02  0.12128338440E+03  0.47000000000E+01 0.  1.
         -5    1    4    4    0  502 -0.36363740924E+02 -0.48786624459E+02  0.41040777048E+02  0.73545168167E+02  0.47000000000E+01 0.  1.
<mgrwt>
<rscale>  0 0.40948234E+03</rscale>
<asrwt>0</asrwt>
<pdfrwt beam="1">  1       21 0.18654850E-01 0.40948234E+03</pdfrwt>
<pdfrwt beam="2">  1       21 0.53185332E-01 0.40948234E+03</pdfrwt>
<totfact> 0.82432724E+04</totfact>
</mgrwt>
</event>
<event>
 8    1  0.9691636E-006  0.4613376E+03  0.7546771E-02  0.1024394E+00
         21   -1    0    0  504  503  0.00000000000E+00  0.00000000000E+00  0.11178173151E+04  0.11178173151E+04  0.00000000000E+00 0.  1.
         21   -1    0    0  503  504 -0.00000000000E+00 -0.00000000000E+00 -0.47599983114E+02  0.47599983114E+02  0.00000000000E+00 0.  1.
         25    2    1    2    0    0 -0.14217261814E+02  0.10573674991E+03  0.12613716543E+03  0.20714064441E+03  0.12495707764E+03 0.  0.
         25    2    1    2    0    0  0.14217261814E+02 -0.10573674991E+03  0.94408016660E+03  0.95827665384E+03  0.12499757405E+03 0.  0.
          5    1    3    3  501    0  0.14702461218E+02 -0.20420843706E+02  0.51871103182E+02  0.57843535238E+02  0.47000000000E+01 0. -1.
         -5    1    3    3    0  501 -0.28919723032E+02  0.12615759361E+03  0.74266062244E+02  0.14929710917E+03  0.47000000000E+01 0. -1.
          5    1    4    4  502    0  0.32215919805E+02 -0.12479414734E+03  0.87097097565E+03  0.88046804322E+03  0.47000000000E+01 0. -1.
         -5    1    4    4    0  502 -0.17998657991E+02  0.19057397432E+02  0.73109190952E+02  0.77808610629E+02  0.47000000000E+01 0. -1.
<mgrwt>
<rscale>  0 0.46133756E+03</rscale>
<asrwt>0</asrwt>
<pdfrwt beam="1">  1       21 0.17197187E+00 0.46133756E+03</pdfrwt>
<pdfrwt beam="2">  1       21 0.73230752E-02 0.46133756E+03</pdfrwt>
<totfact> 0.25741260E+04</totfact>
</mgrwt>
</event>
<event>
 8    1  0.9691636E-006  0.2987550E+03  0.7546771E-02  0.1085865E+00
         21   -1    0    0  504  503  0.00000000000E+00  0.00000000000E+00  0.41807095851E+02  0.41807095851E+02  0.00000000000E+00 0.  1.
         21   -1    0    0  503  504 -0.00000000000E+00 -0.00000000000E+00 -0.53372841427E+03  0.53372841427E+03  0.00000000000E+00 0.  1.
         25    2    1    2    0    0  0.54015283026E+02 -0.61364759043E+02 -0.25069359369E+03  0.29181343108E+03  0.12499806474E+03 0.  0.
         25    2    1    2    0    0 -0.54015283026E+02  0.61364759043E+02 -0.24122772473E+03  0.28372207904E+03  0.12499647397E+03 0.  0.
          5    1    3    3  501    0  0.26180656664E+02  0.34758601396E+02 -0.43694600648E+02  0.61845737768E+02  0.47000000000E+01 0. -1.
         -5    1    3    3    0  501  0.27834626362E+02 -0.96123360439E+02 -0.20699899304E+03  0.22996769331E+03  0.47000000000E+01 0. -1.
          5    1    4    4  502    0 -0.50967582563E+02  0.17150936072E+02 -0.19243764825E+02  0.57308477253E+02  0.47000000000E+01 0.  1.
         -5    1    4    4    0  502 -0.30477004632E+01  0.44213822972E+02 -0.22198395990E+03  0.22641360179E+03  0.47000000000E+01 0.  1.
<mgrwt>
<rscale>  0 0.29875498E+03</rscale>
<asrwt>0</asrwt>
<pdfrwt beam="1">  1       21 0.64318610E-02 0.29875498E+03</pdfrwt>
<pdfrwt beam="2">  1       21 0.82112063E-01 0.29875498E+03</pdfrwt>
<totfact> 0.22029188E+05</totfact>
</mgrwt>
</event>
<event>
 8    1  0.9691636E-006  0.2748047E+03  0.7546771E-02  0.1098561E+00
         21   -1    0    0  504  503  0.00000000000E+00  0.00000000000E+00  0.11890051997E+03  0.11890051997E+03  0.00000000000E+00 0.  1.
         21   -1    0    0  503  504 -0.00000000000E+00 -0.00000000000E+00 -0.15878320026E+03  0.15878320026E+03  0.00000000000E+00 0.  1.
         25    2    1    2    0    0  0.22877116619E+02  0.18072280376E+02 -0.69548943670E+02  0.14598505420E+03  0.12499844280E+03 0.  0.
         25    2    1    2    0    0 -0.22877116619E+02 -0.18072280376E+02  0.29666263383E+02  0.13169866602E+03  0.12495791958E+03 0.  0.
          5    1    3    3  501    0 -0.26857096633E+02 -0.42009341689E+02 -0.30443516986E+02  0.58608754936E+02  0.47000000000E+01 0.  1.
         -5    1    3    3    0  501  0.49734213252E+02  0.60081622065E+02 -0.39105426684E+02  0.87376299269E+02  0.47000000000E+01 0.  1.
          5    1    4    4  502    0 -0.26188299510E+01 -0.36818635340E+02 -0.41191731131E+02  0.55509628824E+02  0.47000000000E+01 0.  1.
         -5    1    4    4    0  502 -0.20258286668E+02  0.18746354964E+02  0.70857994513E+02  0.76189037201E+02  0.47000000000E+01 0.  1.
<mgrwt>
<rscale>  0 0.27480469E+03</rscale>
<asrwt>0</asrwt>
<pdfrwt beam="1">  1       21 0.18292388E-01 0.27480469E+03</pdfrwt>
<pdfrwt beam="2">  1       21 0.24428185E-01 0.27480469E+03</pdfrwt>
<totfact> 0.42420890E+05</totfact>
</mgrwt>
</event>
<event>
 8    1  0.9691636E-006  0.2630394E+03  0.7546771E-02  0.1105331E+00
         21   -1    0    0  504  503  0.00000000000E+00  0.00000000000E+00  0.22295956202E+02  0.22295956202E+02  0.00000000000E+00 0.  1.
         21   -1    0    0  503  504 -0.00000000000E+00 -0.00000000000E+00 -0.77580996279E+03  0.77580996279E+03  0.00000000000E+00 0.  1.
         25    2    1    2    0    0  0.75984433161E+01  0.27575494044E+02 -0.28827717759E+03  0.31552240393E+03  0.12503004459E+03 0.  0.
         25    2    1    2    0    0 -0.75984433161E+01 -0.27575494044E+02 -0.46523682900E+03  0.48258351507E+03  0.12499359081E+03 0.  0.
          5    1    3    3  501    0 -0.43366766065E+02  0.19746265964E+02 -0.24000155247E+03  0.24473133556E+03  0.47000000000E+01 0. -1.
         -5    1    3    3    0  501  0.50965209382E+02  0.78292280797E+01 -0.48275625119E+02  0.70791068365E+02  0.47000000000E+01 0. -1.
          5    1    4    4  502    0  0.35756411354E+02  0.86985229008E+01 -0.36910176234E+03  0.37096143495E+03  0.47000000000E+01 0. -1.
         -5    1    4    4    0  502 -0.43354854670E+02 -0.36274016945E+02 -0.96135066658E+02  0.11162208012E+03  0.47000000000E+01 0. -1.
<mgrwt>
<rscale>  0 0.26303935E+03</rscale>
<asrwt>0</asrwt>
<pdfrwt beam="1">  1       21 0.34301475E-02 0.26303935E+03</pdfrwt>
<pdfrwt beam="2">  1       21 0.11935536E+00 0.26303935E+03</pdfrwt>
<totfact> 0.26525282E+05</totfact>
</mgrwt>
</event>
<event>
 8    1  0.9691636E-006  0.3809837E+03  0.7546771E-02  0.1050571E+00
         21   -1    0    0  504  503  0.00000000000E+00  0.00000000000E+00  0.12055280175E+03  0.12055280175E+03  0.00000000000E+00 0. -1.
         21   -1    0    0  503  504 -0.00000000000E+00 -0.00000000000E+00 -0.30100625810E+03  0.30100625810E+03  0.00000000000E+00 0. -1.
         25    2    1    2    0    0  0.26297617714E+02  0.13847543466E+03 -0.12144813925E+03  0.22414608074E+03  0.12499921712E+03 0.  0.
         25    2    1    2    0    0 -0.26297617714E+02 -0.13847543466E+03 -0.59005317105E+02  0.19741297911E+03  0.12499298449E+03 0.  0.
          5    1    3    3  501    0  0.69584365402E+02  0.41558228725E+02 -0.41498621374E+02  0.91177277099E+02  0.47000000000E+01 0.  1.
         -5    1    3    3    0  501 -0.43286747688E+02  0.96917205939E+02 -0.79949517879E+02  0.13296880364E+03  0.47000000000E+01 0.  1.
          5    1    4    4  502    0  0.16423949449E+02 -0.12354531731E+03 -0.79084267483E+02  0.14768074657E+03  0.47000000000E+01 0. -1.
         -5    1    4    4    0  502 -0.42721567163E+02 -0.14930117351E+02  0.20078950378E+02  0.49732232538E+02  0.47000000000E+01 0. -1.
<mgrwt>
<rscale>  0 0.38098371E+03</rscale>
<asrwt>0</asrwt>
<pdfrwt beam="1">  1       21 0.18546585E-01 0.38098371E+03</pdfrwt>
<pdfrwt beam="2">  1       21 0.46308655E-01 0.38098371E+03</pdfrwt>
<totfact> 0.11243669E+05</totfact>
</mgrwt>
</event>
<event>
 8    1  0.9691636E-006  0.3317252E+03  0.7546771E-02  0.1070376E+00
         21   -1    0    0  504  503  0.00000000000E+00  0.00000000000E+00  0.30501220406E+03  0.30501220406E+03  0.00000000000E+00 0.  1.
         21   -1    0    0  503  504 -0.00000000000E+00 -0.00000000000E+00 -0.90194453618E+02  0.90194453618E+02  0.00000000000E+00 0.  1.
         25    2    1    2    0    0 -0.87039781069E+02  0.53909666106E+02  0.62784750088E+02  0.17335002422E+03  0.12500452178E+03 0.  0.
         25    2    1    2    0    0  0.87039781069E+02 -0.53909666106E+02  0.15203300035E+03  0.22185663346E+03  0.12499662805E+03 0.  0.
          5    1    3    3  501    0 -0.40799166790E+02  0.11568226432E+02 -0.36287436237E+02  0.56011283705E+02  0.47000000000E+01 0. -1.
         -5    1    3    3    0  501 -0.46240614278E+02  0.42341439674E+02  0.99072186325E+02  0.11733874052E+03  0.47000000000E+01 0. -1.
          5    1    4    4  502    0 -0.16789998034E+00 -0.16821719378E+02  0.12066548682E+03  0.12192312390E+03  0.47000000000E+01 0. -1.
         -5    1    4    4    0  502  0.87207681049E+02 -0.37087946728E+02  0.31367513535E+02  0.99933509554E+02  0.47000000000E+01 0. -1.
<mgrwt>
<rscale>  0 0.33172524E+03</rscale>
<asrwt>0</asrwt>
<pdfrwt beam="1">  1       21 0.46924954E-01 0.33172524E+03</pdfrwt>
<pdfrwt beam="2">  1       21 0.13876070E-01 0.33172524E+03</pdfrwt>
<totfact> 0.18936638E+05</totfact>
</mgrwt>
</event>
<event>
 8    1  0.9691636E-006  0.2567632E+03  0.7546771E-02  0.1109104E+00
         21   -1    0    0  504  503  0.00000000000E+00  0.00000000000E+00  0.40591409305E+03  0.40591409305E+03  0.00000000000E+00 0. -1.
         21   -1    0    0  503  504 -0.00000000000E+00 -0.00000000000E+00 -0.40604238287E+02  0.40604238287E+02  0.00000000000E+00 0. -1.
         25    2    1    2    0    0  0.94676414973E+01  0.18301063288E+01  0.23073050124E+03  0.26259201036E+03  0.12500005671E+03 0.  0.
         25    2    1    2    0    0 -0.94676414973E+01 -0.18301063288E+01  0.13457935352E+03  0.18392632098E+03  0.12499721448E+03 0.  0.
          5    1    3    3  501    0  0.51024641514E+02  0.11809874201E+02  0.37374047540E+02  0.64512763077E+02  0.47000000000E+01 0.  1.
         -5    1    3    3    0  501 -0.41557000017E+02 -0.99797678723E+01  0.19335645370E+03  0.19807924729E+03  0.47000000000E+01 0.  1.
          5    1    4    4  502    0 -0.57684015778E+02 -0.22080022318E+01  0.23061406865E+02  0.62339709951E+02  0.47000000000E+01 0. -1.
         -5    1    4    4    0  502  0.48216374280E+02  0.37789590299E+00  0.11151794666E+03  0.12158661103E+03  0.47000000000E+01 0. -1.
<mgrwt>
<rscale>  0 0.25676318E+03</rscale>
<asrwt>0</asrwt>
<pdfrwt beam="1">  1       21 0.62448319E-01 0.25676318E+03</pdfrwt>
<pdfrwt beam="2">  1       21 0.62468062E-02 0.25676318E+03</pdfrwt>
<totfact> 0.43125301E+05</totfact>
</mgrwt>
</event>
<event>
 8    1  0.9691636E-006  0.2569245E+03  0.7546771E-02  0.1109005E+00
         21   -1    0    0  504  503  0.00000000000E+00  0.00000000000E+00  0.14588056366E+03  0.14588056366E+03  0.00000000000E+00 0. -1.
         21   -1    0    0  503  504 -0.00000000000E+00 -0.00000000000E+00 -0.11312367433E+03  0.11312367433E+03  0.00000000000E+00 0. -1.
         25    2    1    2    0    0  0.19624903859E+02 -0.11281066897E+02  0.35648219446E+02  0.13194073387E+03  0.12500064953E+03 0.  0.
         25    2    1    2    0    0 -0.19624903859E+02  0.11281066897E+02 -0.28913301214E+01  0.12706350412E+03  0.12499749984E+03 0.  0.
          5    1    3    3  501    0 -0.52695323263E+02 -0.13205840326E+02  0.14590569064E+02  0.56446133775E+02  0.47000000000E+01 0.  1.
         -5    1    3    3    0  501  0.72320227122E+02  0.19247734289E+01  0.21057650381E+02  0.75494600094E+02  0.47000000000E+01 0.  1.
          5    1    4    4  502    0  0.25084833448E+02  0.53820376779E+02  0.17188880646E+02  0.61995398568E+02  0.47000000000E+01 0.  1.
         -5    1    4    4    0  502 -0.44709737307E+02 -0.42539309882E+02 -0.20080210767E+02  0.65068105549E+02  0.47000000000E+01 0.  1.
<mgrwt>
<rscale>  0 0.25692447E+03</rscale>
<asrwt>0</asrwt>
<pdfrwt beam="1">  1       21 0.22443164E-01 0.25692447E+03</pdfrwt>
<pdfrwt beam="2">  1       21 0.17403642E-01 0.25692447E+03</pdfrwt>
<totfact> 0.54891875E+05</totfact>
</mgrwt>
</event>
<event>
 8    1  0.9691636E-006  0.2649023E+03  0.7546771E-02  0.1104233E+00
         21   -1    0    0  504  503  0.00000000000E+00  0.00000000000E+00  0.58994568106E+03  0.58994568106E+03  0.00000000000E+00 0. -1.
         21   -1    0    0  503  504 -0.00000000000E+00 -0.00000000000E+00 -0.29737146071E+02  0.29737146071E+02  0.00000000000E+00 0. -1.
         25    2    1    2    0    0 -0.25039000307E+02  0.31546512483E+02  0.32032405573E+03  0.34620056055E+03  0.12500077384E+03 0.  0.
         25    2    1    2    0    0  0.25039000307E+02 -0.31546512483E+02  0.23988447926E+03  0.27348226658E+03  0.12500341098E+03 0.  0.
          5    1    3    3  501    0  0.27998405034E+02  0.39032984112E+02  0.46063468948E+02  0.66718945620E+02  0.47000000000E+01 0. -1.
         -5    1    3    3    0  501 -0.53037405341E+02 -0.74864716291E+01  0.27426058678E+03  0.27948161493E+03  0.47000000000E+01 0. -1.
          5    1    4    4  502    0 -0.27595243945E+02 -0.63442506279E+02  0.13554388557E+03  0.15225204106E+03  0.47000000000E+01 0.  1.
         -5    1    4    4    0  502  0.52634244252E+02  0.31895993796E+02  0.10434059369E+03  0.12123022552E+03  0.47000000000E+01 0.  1.
<mgrwt>
<rscale>  0 0.26490225E+03</rscale>
<asrwt>0</asrwt>
<pdfrwt beam="1">  1       21 0.90760865E-01 0.26490225E+03</pdfrwt>
<pdfrwt beam="2">  1       21 0.45749460E-02 0.26490225E+03</pdfrwt>
<totfact> 0.31591518E+05</totfact>
</mgrwt>
</event>
<event>
 8    1  0.9691636E-006  0.3706536E+03  0.7546771E-02  0.1054443E+00
         21   -1    0    0  504  503  0.00000000000E+00  0.00000000000E+00  0.64093775340E+02  0.64093775340E+02  0.00000000000E+00 0.  1.
         21   -1    0    0  503  504 -0.00000000000E+00 -0.00000000000E+00 -0.53587143813E+03  0.53587143813E+03  0.00000000000E+00 0.  1.
         25    2    1    2    0    0  0.36487571603E+02 -0.13098302117E+03 -0.26038932901E+03  0.31924897338E+03  0.12501763726E+03 0.  0.
         25    2    1    2    0    0 -0.36487571603E+02  0.13098302117E+03 -0.21138833378E+03  0.28071624009E+03  0.12501473943E+03 0.  0.
          5    1    3    3  501    0 -0.43224133579E-01  0.11272287520E+02  0.70474790924E+01  0.14100471475E+02  0.47000000000E+01 0. -1.
         -5    1    3    3    0  501  0.36530795737E+02 -0.14225530869E+03 -0.26743680810E+03  0.30514850191E+03  0.47000000000E+01 0. -1.
          5    1    4    4  502    0  0.20771187245E+02  0.26779509560E+01  0.55874324641E+01  0.22179338187E+02  0.47000000000E+01 0. -1.
         -5    1    4    4    0  502 -0.57258758848E+02  0.12830507021E+03 -0.21697576624E+03  0.25853690190E+03  0.47000000000E+01 0. -1.
<mgrwt>
<rscale>  0 0.37065360E+03</rscale>
<asrwt>0</asrwt>
<pdfrwt beam="1">  1       21 0.98605810E-02 0.37065360E+03</pdfrwt>
<pdfrwt beam="2">  1       21 0.82441758E-01 0.37065360E+03</pdfrwt>
<totfact> 0.10110802E+05</totfact>
</mgrwt>
</event>
<event>
 8    1  0.9691636E-006  0.2738272E+03  0.7546771E-02  0.1099109E+00
         21   -1    0    0  504  503  0.00000000000E+00  0.00000000000E+00  0.64227662446E+03  0.64227662446E+03  0.00000000000E+00 0.  1.
         21   -1    0    0  503  504 -0.00000000000E+00 -0.00000000000E+00 -0.29185762178E+02  0.29185762178E+02  0.00000000000E+00 0.  1.
         25    2    1    2    0    0 -0.48227012008E+02  0.16584503624E+02  0.36228520389E+03  0.38663091798E+03  0.12502802619E+03 0.  0.
         25    2    1    2    0    0  0.48227012008E+02 -0.16584503624E+02  0.25080565839E+03  0.28483146866E+03  0.12499838722E+03 0.  0.
          5    1    3    3  501    0  0.24041075486E+02  0.18310822841E+02  0.25710652984E+03  0.25891913260E+03  0.47000000000E+01 0. -1.
         -5    1    3    3    0  501 -0.72268087493E+02 -0.17263192170E+01  0.10517867405E+03  0.12771178537E+03  0.47000000000E+01 0. -1.
          5    1    4    4  502    0  0.50886009185E+02 -0.55629454517E+02  0.22592554676E+03  0.23821936282E+03  0.47000000000E+01 0.  1.
         -5    1    4    4    0  502 -0.26589971775E+01  0.39044950893E+02  0.24880111628E+02  0.46612105840E+02  0.47000000000E+01 0.  1.
<mgrwt>
<rscale>  0 0.27382719E+03</rscale>
<asrwt>0</asrwt>
<pdfrwt beam="1">  1       21 0.98811778E-01 0.27382719E+03</pdfrwt>
<pdfrwt beam="2">  1       21 0.44901177E-02 0.27382719E+03</pdfrwt>
<totfact> 0.26622535E+05</totfact>
</mgrwt>
</event>
<event>
 8    1  0.9691636E-006  0.2735080E+03  0.7546771E-02  0.1099289E+00
         21   -1    0    0  504  503  0.00000000000E+00  0.00000000000E+00  0.52776269215E+02  0.52776269215E+02  0.00000000000E+00 0. -1.
         21   -1    0    0  503  504 -0.00000000000E+00 -0.00000000000E+00 -0.35435731550E+03  0.35435731550E+03  0.00000000000E+00 0. -1.
         25    2    1    2    0    0 -0.24659020044E+02  0.18660140200E+01 -0.76892053622E+02  0.14882791062E+03  0.12500323912E+03 0.  0.
         25    2    1    2    0    0  0.24659020044E+02 -0.18660140200E+01 -0.22468899266E+03  0.25830567410E+03  0.12500051428E+03 0.  0.
          5    1    3    3  501    0 -0.66090324138E+02  0.26359237471E+02 -0.19796323155E+02  0.74004896833E+02  0.47000000000E+01 0.  1.
         -5    1    3    3    0  501  0.41431304095E+02 -0.24493223451E+02 -0.57095730467E+02  0.74823013783E+02  0.47000000000E+01 0.  1.
          5    1    4    4  502    0 -0.41496444224E+02  0.19818385438E+02 -0.14596192771E+03  0.15310681769E+03  0.47000000000E+01 0. -1.
         -5    1    4    4    0  502  0.66155464268E+02 -0.21684399458E+02 -0.78727064955E+02  0.10519885640E+03  0.47000000000E+01 0. -1.
<mgrwt>
<rscale>  0 0.27350800E+03</rscale>
<asrwt>0</asrwt>
<pdfrwt beam="1">  1       21 0.81194262E-02 0.27350800E+03</pdfrwt>
<pdfrwt beam="2">  1       21 0.54516509E-01 0.27350800E+03</pdfrwt>
<totfact> 0.36483193E+05</totfact>
</mgrwt>
</event>
<event>
 8    1  0.9691636E-006  0.3300246E+03  0.7546771E-02  0.1071126E+00
         21   -1    0    0  504  503  0.00000000000E+00  0.00000000000E+00  0.74789492824E+02  0.74789492824E+02  0.00000000000E+00 0.  1.
         21   -1    0    0  503  504 -0.00000000000E+00 -0.00000000000E+00 -0.36407591447E+03  0.36407591447E+03  0.00000000000E+00 0.  1.
         25    2    1    2    0    0 -0.92588922429E+02 -0.19720720702E+02 -0.76283125815E+02  0.17437037781E+03  0.12499719193E+03 0.  0.
         25    2    1    2    0    0  0.92588922429E+02  0.19720720702E+02 -0.21300329583E+03  0.26449502948E+03  0.12500240480E+03 0.  0.
          5    1    3    3  501    0 -0.13599182061E+02  0.47775006522E+02 -0.40884224166E+02  0.64505804286E+02  0.47000000000E+01 0.  1.
         -5    1    3    3    0  501 -0.78989740368E+02 -0.67495727224E+02 -0.35398901649E+02  0.10986457352E+03  0.47000000000E+01 0.  1.
          5    1    4    4  502    0  0.70406470313E+02  0.27922699864E+02 -0.22507889570E+03  0.23752757213E+03  0.47000000000E+01 0.  1.
         -5    1    4    4    0  502  0.22182452116E+02 -0.82019791618E+01  0.12075599874E+02  0.26967457358E+02  0.47000000000E+01 0.  1.
<mgrwt>
<rscale>  0 0.33002456E+03</rscale>
<asrwt>0</asrwt>
<pdfrwt beam="1">  1       21 0.11506076E-01 0.33002456E+03</pdfrwt>
<pdfrwt beam="2">  1       21 0.56011679E-01 0.33002456E+03</pdfrwt>
<totfact> 0.18293962E+05</totfact>
</mgrwt>
</event>
<event>
 8    1  0.9691636E-006  0.4682537E+03  0.7546771E-02  0.1022414E+00
         21   -1    0    0  504  503  0.00000000000E+00  0.00000000000E+00  0.19596521569E+04  0.19596521569E+04  0.00000000000E+00 0. -1.
         21   -1    0    0  503  504 -0.00000000000E+00 -0.00000000000E+00 -0.27971993103E+02  0.27971993103E+02  0.00000000000E+00 0. -1.
         25    2    1    2    0    0  0.11154164115E+03  0.64188913289E+02  0.16043526116E+04  0.16143525177E+04  0.12499997871E+03 0.  0.
         25    2    1    2    0    0 -0.11154164115E+03 -0.64188913289E+02  0.32732755211E+03  0.37327163224E+03  0.12500652290E+03 0.  0.
          5    1    3    3  501    0 -0.22378713693E+02  0.35364692868E+02  0.41244697564E+03  0.41459144473E+03  0.47000000000E+01 0.  1.
         -5    1    3    3    0  501  0.13392035484E+03  0.28824220421E+02  0.11919056360E+04  0.11997610730E+04  0.47000000000E+01 0.  1.
          5    1    4    4  502    0 -0.11917872837E+03 -0.54810904351E+01  0.20354329915E+03  0.23597791481E+03  0.47000000000E+01 0.  1.
         -5    1    4    4    0  502  0.76370872257E+01 -0.58707822854E+02  0.12378425296E+03  0.13729371744E+03  0.47000000000E+01 0.  1.
<mgrwt>
<rscale>  0 0.46825368E+03</rscale>
<asrwt>0</asrwt>
<pdfrwt beam="1">  1       21 0.30148484E+00 0.46825368E+03</pdfrwt>
<pdfrwt beam="2">  1       21 0.43033851E-02 0.46825368E+03</pdfrwt>
<totfact> 0.96750736E+03</totfact>
</mgrwt>
</event>
<event>
 8    1  0.9691636E-006  0.2728327E+03  0.7546771E-02  0.1099669E+00
         21   -1    0    0  504  503  0.00000000000E+00  0.00000000000E+00  0.37481301816E+03  0.37481301816E+03  0.00000000000E+00 0.  1.
         21   -1    0    0  503  504 -0.00000000000E+00 -0.00000000000E+00 -0.49649867051E+02  0.49649867051E+02  0.00000000000E+00 0.  1.
         25    2    1    2    0    0  0.21337848490E+02  0.43297100807E+02  0.12288073543E+03  0.18182503570E+03  0.12502290091E+03 0.  0.
         25    2    1    2    0    0 -0.21337848490E+02 -0.43297100807E+02  0.20228241568E+03  0.24263784952E+03  0.12500003043E+03 0.  0.
          5    1    3    3  501    0  0.16626760283E+00  0.80118394268E+02  0.11189722230E+03  0.13770280718E+03  0.47000000000E+01 0. -1.
         -5    1    3    3    0  501  0.21171580887E+02 -0.36821293461E+02  0.10983513128E+02  0.44122228525E+02  0.47000000000E+01 0. -1.
          5    1    4    4  502    0 -0.68284851657E+02 -0.64717928975E+01  0.73592530768E+02  0.10071075243E+03  0.47000000000E+01 0.  1.
         -5    1    4    4    0  502  0.46947003168E+02 -0.36825307910E+02  0.12868988492E+03  0.14192709709E+03  0.47000000000E+01 0.  1.
<mgrwt>
<rscale>  0 0.27283267E+03</rscale>
<asrwt>0</asrwt>
<pdfrwt beam="1">  1       21 0.57663539E-01 0.27283267E+03</pdfrwt>
<pdfrwt beam="2">  1       21 0.76384413E-02 0.27283267E+03</pdfrwt>
<totfact> 0.36012584E+05</totfact>
</mgrwt>
</event>
<event>
 8    1  0.9691636E-006  0.3075879E+03  0.7546771E-02  0.1081508E+00
         21   -1    0    0  504  503  0.00000000000E+00  0.00000000000E+00  0.35209944041E+03  0.35209944041E+03  0.00000000000E+00 0.  1.
         21   -1    0    0  503  504 -0.00000000000E+00 -0.00000000000E+00 -0.67175838284E+02  0.67175838284E+02  0.00000000000E+00 0.  1.
         25    2    1    2    0    0 -0.42676596004E+02 -0.30833238411E+02  0.24128560796E+03  0.27679673041E+03  0.12500281964E+03 0.  0.
         25    2    1    2    0    0  0.42676596004E+02  0.30833238411E+02  0.43637994170E+02  0.14247854829E+03  0.12499552692E+03 0.  0.
          5    1    3    3  501    0 -0.55935541494E+02 -0.32239261237E+02  0.42339776330E+02  0.77349217365E+02  0.47000000000E+01 0. -1.
         -5    1    3    3    0  501  0.13258945490E+02  0.14060228257E+01  0.19894583163E+03  0.19944751304E+03  0.47000000000E+01 0. -1.
          5    1    4    4  502    0  0.54927676095E+02 -0.14835549886E+01 -0.28701026644E+02  0.62169843711E+02  0.47000000000E+01 0. -1.
         -5    1    4    4    0  502 -0.12251080091E+02  0.32316793400E+02  0.72339020814E+02  0.80308704580E+02  0.47000000000E+01 0. -1.
<mgrwt>
<rscale>  0 0.30758787E+03</rscale>
<asrwt>0</asrwt>
<pdfrwt beam="1">  1       21 0.54169144E-01 0.30758787E+03</pdfrwt>
<pdfrwt beam="2">  1       21 0.10334745E-01 0.30758787E+03</pdfrwt>
<totfact> 0.23948755E+05</totfact>
</mgrwt>
</event>
<event>
 8    1  0.9691636E-006  0.5399780E+03  0.7546771E-02  0.1003841E+00
         21   -1    0    0  504  503  0.00000000000E+00  0.00000000000E+00  0.21808627294E+03  0.21808627294E+03  0.00000000000E+00 0. -1.
         21   -1    0    0  503  504 -0.00000000000E+00 -0.00000000000E+00 -0.33424411543E+03  0.33424411543E+03  0.00000000000E+00 0. -1.
         25    2    1    2    0    0 -0.16978108530E+03  0.15508640775E+03  0.97426027638E+01  0.26192797551E+03  0.12503573591E+03 0.  0.
         25    2    1    2    0    0  0.16978108530E+03 -0.15508640775E+03 -0.12590044526E+03  0.29040241286E+03  0.12492088890E+03 0.  0.
          5    1    3    3  501    0 -0.84900529025E+02  0.13385279386E+03 -0.36685325012E+02  0.16276539351E+03  0.47000000000E+01 0. -1.
         -5    1    3    3    0  501 -0.84880556275E+02  0.21233613889E+02  0.46427927776E+02  0.99162582005E+02  0.47000000000E+01 0. -1.
          5    1    4    4  502    0 -0.67221335438E+01 -0.59368713794E+02 -0.39410749597E+02  0.71729550680E+02  0.47000000000E+01 0.  1.
         -5    1    4    4    0  502  0.17650321884E+03 -0.95717693952E+02 -0.86489695658E+02  0.21867286218E+03  0.47000000000E+01 0.  1.
<mgrwt>
<rscale>  0 0.53997798E+03</rscale>
<asrwt>0</asrwt>
<pdfrwt beam="1">  1       21 0.33551734E-01 0.53997798E+03</pdfrwt>
<pdfrwt beam="2">  1       21 0.51422171E-01 0.53997798E+03</pdfrwt>
<totfact> 0.27447103E+04</totfact>
</mgrwt>
</event>
<event>
 8    1  0.9691636E-006  0.3571097E+03  0.7546771E-02  0.1059734E+00
         21   -1    0    0  504  503  0.00000000000E+00  0.00000000000E+00  0.15278356380E+03  0.15278356380E+03  0.00000000000E+00 0.  1.
         21   -1    0    0  503  504 -0.00000000000E+00 -0.00000000000E+00 -0.20867324732E+03  0.20867324732E+03  0.00000000000E+00 0.  1.
         25    2    1    2    0    0 -0.97884908956E+02 -0.75687158960E+02 -0.59073031452E+02  0.18553726069E+03  0.12499780249E+03 0.  0.
         25    2    1    2    0    0  0.97884908956E+02  0.75687158960E+02  0.31833479334E+01  0.17591955042E+03  0.12501021191E+03 0.  0.
          5    1    3    3  501    0 -0.61268367112E+02 -0.39675716931E+02  0.32813556589E+02  0.80167292698E+02  0.47000000000E+01 0.  1.
         -5    1    3    3    0  501 -0.36616541844E+02 -0.36011442029E+02 -0.91886588042E+02  0.10536996800E+03  0.47000000000E+01 0.  1.
          5    1    4    4  502    0  0.10536773784E+03  0.86400659813E+01 -0.12313624051E+02  0.10653978719E+03  0.47000000000E+01 0.  1.
         -5    1    4    4    0  502 -0.74828288802E+01  0.67047092978E+02  0.15496971984E+02  0.69379763228E+02  0.47000000000E+01 0.  1.
<mgrwt>
<rscale>  0 0.35710974E+03</rscale>
<asrwt>0</asrwt>
<pdfrwt beam="1">  1       21 0.23505164E-01 0.35710974E+03</pdfrwt>
<pdfrwt beam="2">  1       21 0.32103577E-01 0.35710974E+03</pdfrwt>
<totfact> 0.15208761E+05</totfact>
</mgrwt>
</event>
<event>
 8    1  0.9691636E-006  0.2590399E+03  0.7546771E-02  0.1107721E+00
         21   -1    0    0  504  503  0.00000000000E+00  0.00000000000E+00  0.27129441909E+03  0.27129441909E+03  0.00000000000E+00 0. -1.
         21   -1    0    0  503  504 -0.00000000000E+00 -0.00000000000E+00 -0.61834708672E+02  0.61834708672E+02  0.00000000000E+00 0. -1.
         25    2    1    2    0    0  0.18811340936E+02 -0.22838522065E+02  0.12603280366E+03  0.17995710995E+03  0.12499931674E+03 0.  0.
         25    2    1    2    0    0 -0.18811340936E+02  0.22838522065E+02  0.83426906763E+02  0.15317201782E+03  0.12500461444E+03 0.  0.
          5    1    3    3  501    0 -0.66203365140E+01 -0.30420592587E+02  0.14410719521E+03  0.14750666093E+03  0.47000000000E+01 0.  1.
         -5    1    3    3    0  501  0.25431677450E+02  0.75820705225E+01 -0.18074391552E+02  0.32450449015E+02  0.47000000000E+01 0.  1.
          5    1    4    4  502    0  0.44530561962E+02 -0.10530095779E+02  0.64044894341E+02  0.78852345285E+02  0.47000000000E+01 0.  1.
         -5    1    4    4    0  502 -0.63341902898E+02  0.33368617843E+02  0.19382012422E+02  0.74319672531E+02  0.47000000000E+01 0.  1.
<mgrwt>
<rscale>  0 0.25903985E+03</rscale>
<asrwt>0</asrwt>
<pdfrwt beam="1">  1       21 0.41737602E-01 0.25903985E+03</pdfrwt>
<pdfrwt beam="2">  1       21 0.95130323E-02 0.25903985E+03</pdfrwt>
<totfact> 0.48319953E+05</totfact>
</mgrwt>
</event>
<event>
 8    1  0.9691636E-006  0.3155102E+03  0.7546771E-02  0.1077734E+00
         21   -1    0    0  504  503  0.00000000000E+00  0.00000000000E+00  0.37637238690E+02  0.37637238690E+02  0.00000000000E+00 0. -1.
         21   -1    0    0  503  504 -0.00000000000E+00 -0.00000000000E+00 -0.66122469374E+03  0.66122469374E+03  0.00000000000E+00 0. -1.
         25    2    1    2    0    0  0.16221162160E+00 -0.96223401685E+02 -0.31577762842E+03  0.35298341516E+03  0.12499124538E+03 0.  0.
         25    2    1    2    0    0 -0.16221162160E+00  0.96223401685E+02 -0.30780982662E+03  0.34587851727E+03  0.12500435991E+03 0.  0.
          5    1    3    3  501    0 -0.43673256319E+01 -0.40888136506E+02 -0.10550187033E+02  0.42711938454E+02  0.47000000000E+01 0. -1.
         -5    1    3    3    0  501  0.45295372535E+01 -0.55335265180E+02 -0.30522744139E+03  0.31027147671E+03  0.47000000000E+01 0. -1.
          5    1    4    4  502    0 -0.31484410844E+02  0.75199707461E+02 -0.29448209163E+03  0.30559459488E+03  0.47000000000E+01 0.  1.
         -5    1    4    4    0  502  0.31322199223E+02  0.21023694224E+02 -0.13327734995E+02  0.40283922389E+02  0.47000000000E+01 0.  1.
<mgrwt>
<rscale>  0 0.31551020E+03</rscale>
<asrwt>0</asrwt>
<pdfrwt beam="1">  1       21 0.57903442E-02 0.31551020E+03</pdfrwt>
<pdfrwt beam="2">  1       21 0.10172688E+00 0.31551020E+03</pdfrwt>
<totfact> 0.15892877E+05</totfact>
</mgrwt>
</event>
<event>
 8    1  0.9691636E-006  0.2563494E+03  0.7546771E-02  0.1109357E+00
         21   -1    0    0  504  503  0.00000000000E+00  0.00000000000E+00  0.13024726875E+03  0.13024726875E+03  0.00000000000E+00 0. -1.
         21   -1    0    0  503  504 -0.00000000000E+00 -0.00000000000E+00 -0.12613513575E+03  0.12613513575E+03  0.00000000000E+00 0. -1.
         25    2    1    2    0    0 -0.78858474937E+01 -0.25188614343E+02  0.12390338436E+02  0.12835676017E+03  0.12500113804E+03 0.  0.
         25    2    1    2    0    0  0.78858474937E+01  0.25188614343E+02 -0.82782054383E+01  0.12802564433E+03  0.12500153614E+03 0.  0.
          5    1    3    3  501    0 -0.97355752028E+01 -0.75565049135E+02  0.14431351852E+02  0.77686626852E+02  0.47000000000E+01 0.  1.
         -5    1    3    3    0  501  0.18497277091E+01  0.50376434792E+02 -0.20410134165E+01  0.50670133321E+02  0.47000000000E+01 0.  1.
          5    1    4    4  502    0  0.57026130920E+02 -0.20102490051E+02 -0.66591374880E+01  0.61012489099E+02  0.47000000000E+01 0.  1.
         -5    1    4    4    0  502 -0.49140283426E+02  0.45291104394E+02 -0.16190679504E+01  0.67013155227E+02  0.47000000000E+01 0.  1.
<mgrwt>
<rscale>  0 0.25634943E+03</rscale>
<asrwt>0</asrwt>
<pdfrwt beam="1">  1       21 0.20038041E-01 0.25634943E+03</pdfrwt>
<pdfrwt beam="2">  1       21 0.19405406E-01 0.25634943E+03</pdfrwt>
<totfact> 0.55520298E+05</totfact>
</mgrwt>
</event>
<event>
 8    1  0.9691636E-006  0.3713191E+03  0.7546771E-02  0.1054190E+00
         21   -1    0    0  504  503  0.00000000000E+00  0.00000000000E+00  0.84781490497E+03  0.84781490497E+03  0.00000000000E+00 0. -1.
         21   -1    0    0  503  504 -0.00000000000E+00 -0.00000000000E+00 -0.40656842859E+02  0.40656842859E+02  0.00000000000E+00 0. -1.
         25    2    1    2    0    0 -0.34844035931E+02 -0.90852124621E+02  0.63524390372E+03  0.65469700690E+03  0.12500055297E+03 0.  0.
         25    2    1    2    0    0  0.34844035931E+02  0.90852124621E+02  0.17191415838E+03  0.23377474092E+03  0.12501174446E+03 0.  0.
          5    1    3    3  501    0  0.50186413894E+01 -0.77232948180E+02  0.16244159580E+03  0.17999854747E+03  0.47000000000E+01 0.  1.
         -5    1    3    3    0  501 -0.39862677321E+02 -0.13619176440E+02  0.47280230792E+03  0.47469845943E+03  0.47000000000E+01 0.  1.
          5    1    4    4  502    0  0.63146536187E+02  0.51378159347E+02  0.35574890130E+02  0.88965516342E+02  0.47000000000E+01 0.  1.
         -5    1    4    4    0  502 -0.28302500255E+02  0.39473965274E+02  0.13633926825E+03  0.14480922458E+03  0.47000000000E+01 0.  1.
<mgrwt>
<rscale>  0 0.37131915E+03</rscale>
<asrwt>0</asrwt>
<pdfrwt beam="1">  1       21 0.13043305E+00 0.37131915E+03</pdfrwt>
<pdfrwt beam="2">  1       21 0.62548995E-02 0.37131915E+03</pdfrwt>
<totfact> 0.73692258E+04</totfact>
</mgrwt>
</event>
<event>
 8    1  0.9691636E-006  0.2847488E+03  0.7546771E-02  0.1093123E+00
         21   -1    0    0  504  503  0.00000000000E+00  0.00000000000E+00  0.18756503694E+03  0.18756503694E+03  0.00000000000E+00 0.  1.
         21   -1    0    0  503  504 -0.00000000000E+00 -0.00000000000E+00 -0.10807169310E+03  0.10807169310E+03  0.00000000000E+00 0.  1.
         25    2    1    2    0    0  0.65098155382E+02  0.78760572675E+01  0.59054092433E+02  0.15300053132E+03  0.12498789797E+03 0.  0.
         25    2    1    2    0    0 -0.65098155382E+02 -0.78760572675E+01  0.20439251399E+02  0.14263619872E+03  0.12501007989E+03 0.  0.
          5    1    3    3  501    0  0.34274410451E+02 -0.51280784763E+02  0.59923170112E+02  0.86123924748E+02  0.47000000000E+01 0.  1.
         -5    1    3    3    0  501  0.30823744931E+02  0.59156842031E+02 -0.86907767871E+00  0.66876606572E+02  0.47000000000E+01 0.  1.
          5    1    4    4  502    0 -0.96924041491E+02 -0.19532192259E+02 -0.63376589780E+01  0.99186855353E+02  0.47000000000E+01 0.  1.
         -5    1    4    4    0  502  0.31825886110E+02  0.11656134992E+02  0.26776910377E+02  0.43449343366E+02  0.47000000000E+01 0.  1.
<mgrwt>
<rscale>  0 0.28474881E+03</rscale>
<asrwt>0</asrwt>
<pdfrwt beam="1">  1       21 0.28856159E-01 0.28474881E+03</pdfrwt>
<pdfrwt beam="2">  1       21 0.16626414E-01 0.28474881E+03</pdfrwt>
<totfact> 0.36614089E+05</totfact>
</mgrwt>
</event>
<event>
 8    1  0.9691636E-006  0.5228553E+03  0.7546771E-02  0.1007980E+00
         21   -1    0    0  504  503  0.00000000000E+00  0.00000000000E+00  0.19692594300E+03  0.19692594300E+03  0.00000000000E+00 0. -1.
         21   -1    0    0  503  504 -0.00000000000E+00 -0.00000000000E+00 -0.34705649608E+03  0.34705649608E+03  0.00000000000E+00 0. -1.
         25    2    1    2    0    0  0.83331203018E+02  0.20909812932E+03 -0.27916041495E+02  0.25897848609E+03  0.12499773518E+03 0.  0.
         25    2    1    2    0    0 -0.83331203018E+02 -0.20909812932E+03 -0.12221451159E+03  0.28500395299E+03  0.12499899719E+03 0.  0.
          5    1    3    3  501    0 -0.10286522976E+02  0.75108797281E+01  0.26788455951E+02  0.30032270002E+02  0.47000000000E+01 0.  1.
         -5    1    3    3    0  501  0.93617725994E+02  0.20158724959E+03 -0.54704497446E+02  0.22894621609E+03  0.47000000000E+01 0.  1.
          5    1    4    4  502    0 -0.64230089126E+02 -0.14917217389E+03 -0.18383045710E+02  0.16351718009E+03  0.47000000000E+01 0. -1.
         -5    1    4    4    0  502 -0.19101113892E+02 -0.59925955427E+02 -0.10383146588E+03  0.12148677291E+03  0.47000000000E+01 0. -1.
<mgrwt>
<rscale>  0 0.52285534E+03</rscale>
<asrwt>0</asrwt>
<pdfrwt beam="1">  1       21 0.30296299E-01 0.52285534E+03</pdfrwt>
<pdfrwt beam="2">  1       21 0.53393307E-01 0.52285534E+03</pdfrwt>
<totfact> 0.31180999E+04</totfact>
</mgrwt>
</event>
<event>
 8    1  0.9691636E-006  0.4491193E+03  0.7546771E-02  0.1027985E+00
         21   -1    0    0  504  503  0.00000000000E+00  0.00000000000E+00  0.47173420423E+02  0.47173420423E+02  0.00000000000E+00 0.  1.
         21   -1    0    0  503  504 -0.00000000000E+00 -0.00000000000E+00 -0.10689715572E+04  0.10689715572E+04  0.00000000000E+00 0.  1.
         25    2    1    2    0    0 -0.11328704823E+03  0.10120103831E+03 -0.77998787541E+03  0.80441586939E+03  0.12501279812E+03 0.  0.
         25    2    1    2    0    0  0.11328704823E+03 -0.10120103831E+03 -0.24181026140E+03  0.31172910826E+03  0.12500891555E+03 0.  0.
          5    1    3    3  501    0  0.26791684717E+01  0.13014333542E+02 -0.37139089909E+01  0.14575113764E+02  0.47000000000E+01 0.  1.
         -5    1    3    3    0  501 -0.11596621670E+03  0.88186704768E+02 -0.77627396642E+03  0.78984075563E+03  0.47000000000E+01 0.  1.
          5    1    4    4  502    0  0.10173982547E+03 -0.68776807765E+02 -0.24768437783E+03  0.27649752692E+03  0.47000000000E+01 0.  1.
         -5    1    4    4    0  502  0.11547222765E+02 -0.32424230545E+02  0.58741164293E+01  0.35231581342E+02  0.47000000000E+01 0.  1.
<mgrwt>
<rscale>  0 0.44911934E+03</rscale>
<asrwt>0</asrwt>
<pdfrwt beam="1">  1       21 0.72574492E-02 0.44911934E+03</pdfrwt>
<pdfrwt beam="2">  1       21 0.16445717E+00 0.44911934E+03</pdfrwt>
<totfact> 0.29791001E+04</totfact>
</mgrwt>
</event>
<event>
 8    1  0.9691636E-006  0.2746913E+03  0.7546771E-02  0.1098624E+00
         21   -1    0    0  504  503  0.00000000000E+00  0.00000000000E+00  0.32923028567E+03  0.32923028567E+03  0.00000000000E+00 0. -1.
         21   -1    0    0  503  504 -0.00000000000E+00 -0.00000000000E+00 -0.57296746142E+02  0.57296746142E+02  0.00000000000E+00 0. -1.
         25    2    1    2    0    0 -0.47128310502E+02 -0.15163285533E+02  0.96537433952E+02  0.16552732828E+03  0.12501526857E+03 0.  0.
         25    2    1    2    0    0  0.47128310502E+02  0.15163285533E+02  0.17539610557E+03  0.22099970353E+03  0.12500428884E+03 0.  0.
          5    1    3    3  501    0 -0.36315113755E+02 -0.21967343506E+02  0.12601761577E+03  0.13305593242E+03  0.47000000000E+01 0. -1.
         -5    1    3    3    0  501 -0.10813196748E+02  0.68040579727E+01 -0.29480181823E+02  0.32471395860E+02  0.47000000000E+01 0. -1.
          5    1    4    4  502    0 -0.13190876042E+02  0.31146243135E+02  0.14937308764E+03  0.15322694601E+03  0.47000000000E+01 0. -1.
         -5    1    4    4    0  502  0.60319186544E+02 -0.15982957601E+02  0.26023017935E+02  0.67772757517E+02  0.47000000000E+01 0. -1.
<mgrwt>
<rscale>  0 0.27469127E+03</rscale>
<asrwt>0</asrwt>
<pdfrwt beam="1">  1       21 0.50650812E-01 0.27469127E+03</pdfrwt>
<pdfrwt beam="2">  1       21 0.88148842E-02 0.27469127E+03</pdfrwt>
<totfact> 0.36884829E+05</totfact>
</mgrwt>
</event>
<event>
 8    1  0.9691636E-006  0.3011233E+03  0.7546771E-02  0.1084680E+00
         21   -1    0    0  504  503  0.00000000000E+00  0.00000000000E+00  0.57248369867E+02  0.57248369867E+02  0.00000000000E+00 0. -1.
         21   -1    0    0  503  504 -0.00000000000E+00 -0.00000000000E+00 -0.39597292791E+03  0.39597292791E+03  0.00000000000E+00 0. -1.
         25    2    1    2    0    0  0.61291892341E+02 -0.57142773832E+02 -0.16244175340E+03  0.22144066431E+03  0.12500660740E+03 0.  0.
         25    2    1    2    0    0 -0.61291892341E+02  0.57142773832E+02 -0.17628280464E+03  0.23178063346E+03  0.12499856867E+03 0.  0.
          5    1    3    3  501    0  0.49586377378E+02 -0.37031602206E+02 -0.50531578148E+01  0.62271765571E+02  0.47000000000E+01 0.  1.
         -5    1    3    3    0  501  0.11705514963E+02 -0.20111171626E+02 -0.15738859559E+03  0.15916889874E+03  0.47000000000E+01 0.  1.
          5    1    4    4  502    0 -0.55128400781E+02  0.70611599757E+02 -0.19059725454E+03  0.21065265731E+03  0.47000000000E+01 0.  1.
         -5    1    4    4    0  502 -0.61634915594E+01 -0.13468825925E+02  0.14314449908E+02  0.21127976150E+02  0.47000000000E+01 0.  1.
<mgrwt>
<rscale>  0 0.30112326E+03</rscale>
<asrwt>0</asrwt>
<pdfrwt beam="1">  1       21 0.88074413E-02 0.30112326E+03</pdfrwt>
<pdfrwt beam="2">  1       21 0.60918913E-01 0.30112326E+03</pdfrwt>
<totfact> 0.24745435E+05</totfact>
</mgrwt>
</event>
<event>
 8    1  0.9691636E-006  0.3967450E+03  0.7546771E-02  0.1044913E+00
         21   -1    0    0  504  503  0.00000000000E+00  0.00000000000E+00  0.46206221250E+03  0.46206221250E+03  0.00000000000E+00 0.  1.
         21   -1    0    0  503  504 -0.00000000000E+00 -0.00000000000E+00 -0.85165244509E+02  0.85165244509E+02  0.00000000000E+00 0.  1.
         25    2    1    2    0    0  0.97280445206E+02 -0.21968313126E+02  0.35036662046E+03  0.38513356791E+03  0.12500001839E+03 0.  0.
         25    2    1    2    0    0 -0.97280445206E+02  0.21968313126E+02  0.26530347535E+02  0.16209388910E+03  0.12499791096E+03 0.  0.
          5    1    3    3  501    0  0.10092455964E+03  0.33805936604E+01  0.34369744016E+03  0.35825579621E+03  0.47000000000E+01 0. -1.
         -5    1    3    3    0  501 -0.36441144295E+01 -0.25348906786E+02  0.66691803007E+01  0.26877771692E+02  0.47000000000E+01 0. -1.
          5    1    4    4  502    0 -0.63814681098E+02  0.30802092788E+02  0.74389063015E+02  0.10284408170E+03  0.47000000000E+01 0.  1.
         -5    1    4    4    0  502 -0.33465764108E+02 -0.88337796624E+01 -0.47858715480E+02  0.59249807407E+02  0.47000000000E+01 0.  1.
<mgrwt>
<rscale>  0 0.39674496E+03</rscale>
<asrwt>0</asrwt>
<pdfrwt beam="1">  1       21 0.71086493E-01 0.39674496E+03</pdfrwt>
<pdfrwt beam="2">  1       21 0.13102346E-01 0.39674496E+03</pdfrwt>
<totfact> 0.84270913E+04</totfact>
</mgrwt>
</event>
<event>
 8    1  0.9691636E-006  0.3454333E+03  0.7546771E-02  0.1064505E+00
         21   -1    0    0  504  503  0.00000000000E+00  0.00000000000E+00  0.21863781148E+03  0.21863781148E+03  0.00000000000E+00 0.  1.
         21   -1    0    0  503  504 -0.00000000000E+00 -0.00000000000E+00 -0.13644042554E+03  0.13644042554E+03  0.00000000000E+00 0.  1.
         25    2    1    2    0    0 -0.34239858965E+02  0.63209223225E+02 -0.56622590414E+02  0.15491449830E+03  0.12499844077E+03 0.  0.
         25    2    1    2    0    0  0.34239858965E+02 -0.63209223225E+02  0.13881997636E+03  0.20016373872E+03  0.12500705028E+03 0.  0.
          5    1    3    3  501    0 -0.45361989041E+02 -0.16116676605E+02  0.11431783409E+02  0.49701438474E+02  0.47000000000E+01 0. -1.
         -5    1    3    3    0  501  0.11122130076E+02  0.79325899830E+02 -0.68054373822E+02  0.10521305982E+03  0.47000000000E+01 0. -1.
          5    1    4    4  502    0  0.38646902042E+02  0.97970184763E+01 -0.32775593165E+01  0.40278989604E+02  0.47000000000E+01 0. -1.
         -5    1    4    4    0  502 -0.44070430767E+01 -0.73006241701E+02  0.14209753568E+03  0.15988474912E+03  0.47000000000E+01 0. -1.
<mgrwt>
<rscale>  0 0.34543327E+03</rscale>
<asrwt>0</asrwt>
<pdfrwt beam="1">  1       21 0.33636586E-01 0.34543327E+03</pdfrwt>
<pdfrwt beam="2">  1       21 0.20990835E-01 0.34543327E+03</pdfrwt>
<totfact> 0.17244436E+05</totfact>
</mgrwt>
</event>
<event>
 8    1  0.9691636E-006  0.2942911E+03  0.7546771E-02  0.1088130E+00
         21   -1    0    0  504  503  0.00000000000E+00  0.00000000000E+00  0.41231597699E+03  0.41231597699E+03  0.00000000000E+00 0. -1.
         21   -1    0    0  503  504 -0.00000000000E+00 -0.00000000000E+00 -0.52512659730E+02  0.52512659730E+02  0.00000000000E+00 0. -1.
         25    2    1    2    0    0 -0.88860370928E+01 -0.58770037074E+01  0.58390879285E+02  0.13836156288E+03  0.12498370483E+03 0.  0.
         25    2    1    2    0    0  0.88860370928E+01  0.58770037074E+01  0.30141243798E+03  0.32646707384E+03  0.12497116350E+03 0.  0.
          5    1    3    3  501    0  0.29836164629E+02  0.41224798234E+02 -0.36629861135E+01  0.51236590211E+02  0.47000000000E+01 0. -1.
         -5    1    3    3    0  501 -0.38722201722E+02 -0.47101801942E+02  0.62053865399E+02  0.87124972673E+02  0.47000000000E+01 0. -1.
          5    1    4    4  502    0 -0.54903917085E+02 -0.84131122845E+01  0.18079687084E+03  0.18919518777E+03  0.47000000000E+01 0.  1.
         -5    1    4    4    0  502  0.63789954177E+02  0.14290115992E+02  0.12061556713E+03  0.13727188606E+03  0.47000000000E+01 0.  1.
<mgrwt>
<rscale>  0 0.29429107E+03</rscale>
<asrwt>0</asrwt>
<pdfrwt beam="1">  1       21 0.63433225E-01 0.29429107E+03</pdfrwt>
<pdfrwt beam="2">  1       21 0.80788710E-02 0.29429107E+03</pdfrwt>
<totfact> 0.26417531E+05</totfact>
</mgrwt>
</event>
<event>
 8    1  0.9691636E-006  0.5157732E+03  0.7546771E-02  0.1009742E+00
         21   -1    0    0  504  503  0.00000000000E+00  0.00000000000E+00  0.13743263273E+04  0.13743263273E+04  0.00000000000E+00 0.  1.
         21   -1    0    0  503  504 -0.00000000000E+00 -0.00000000000E+00 -0.48391349515E+02  0.48391349515E+02  0.00000000000E+00 0.  1.
         25    2    1    2    0    0  0.18491788711E+03  0.88026089378E+02  0.92373983866E+03  0.95439136890E+03  0.12499751250E+03 0.  0.
         25    2    1    2    0    0 -0.18491788711E+03 -0.88026089378E+02  0.40219513915E+03  0.46832630793E+03  0.12500153344E+03 0.  0.
          5    1    3    3  501    0  0.11724686967E+03  0.63962819215E+02  0.32593931039E+03  0.35227346585E+03  0.47000000000E+01 0. -1.
         -5    1    3    3    0  501  0.67671017442E+02  0.24063270163E+02  0.59780052827E+03  0.60211790305E+03  0.47000000000E+01 0. -1.
          5    1    4    4  502    0 -0.82630016082E+01 -0.10695073959E+02 -0.70106927602E+01  0.15934290557E+02  0.47000000000E+01 0. -1.
         -5    1    4    4    0  502 -0.17665488550E+03 -0.77331015419E+02  0.40920583191E+03  0.45239201738E+03  0.47000000000E+01 0. -1.
<mgrwt>
<rscale>  0 0.51577323E+03</rscale>
<asrwt>0</asrwt>
<pdfrwt beam="1">  1       21 0.21143479E+00 0.51577323E+03</pdfrwt>
<pdfrwt beam="2">  1       21 0.74448241E-02 0.51577323E+03</pdfrwt>
<totfact> 0.13198984E+04</totfact>
</mgrwt>
</event>
<event>
 8    1  0.9691636E-006  0.2690136E+03  0.7546771E-02  0.1101845E+00
         21   -1    0    0  504  503  0.00000000000E+00  0.00000000000E+00  0.34836353741E+03  0.34836353741E+03  0.00000000000E+00 0.  1.
         21   -1    0    0  503  504 -0.00000000000E+00 -0.00000000000E+00 -0.51934465202E+02  0.51934465202E+02  0.00000000000E+00 0.  1.
         25    2    1    2    0    0  0.27370180280E+02  0.38761073765E+02  0.16998504790E+03  0.21626917679E+03  0.12500357079E+03 0.  0.
         25    2    1    2    0    0 -0.27370180280E+02 -0.38761073765E+02  0.12644402431E+03  0.18402882583E+03  0.12500787913E+03 0.  0.
          5    1    3    3  501    0  0.70536419972E+02  0.37086821040E+02  0.14659043101E+03  0.16691813353E+03  0.47000000000E+01 0.  1.
         -5    1    3    3    0  501 -0.43166239692E+02  0.16742527252E+01  0.23394616896E+02  0.49351043262E+02  0.47000000000E+01 0.  1.
          5    1    4    4  502    0  0.30270092615E+02 -0.29246165964E+01  0.10974084272E+03  0.11397356909E+03  0.47000000000E+01 0. -1.
         -5    1    4    4    0  502 -0.57640272895E+02 -0.35836457168E+02  0.16703181588E+02  0.70055256740E+02  0.47000000000E+01 0. -1.
<mgrwt>
<rscale>  0 0.26901356E+03</rscale>
<asrwt>0</asrwt>
<pdfrwt beam="1">  1       21 0.53594389E-01 0.26901356E+03</pdfrwt>
<pdfrwt beam="2">  1       21 0.79899179E-02 0.26901356E+03</pdfrwt>
<totfact> 0.38949049E+05</totfact>
</mgrwt>
</event>
<event>
 8    1  0.9691636E-006  0.3585365E+03  0.7546771E-02  0.1059165E+00
         21   -1    0    0  504  503  0.00000000000E+00  0.00000000000E+00  0.73131210437E+02  0.73131210437E+02  0.00000000000E+00 0. -1.
         21   -1    0    0  503  504 -0.00000000000E+00 -0.00000000000E+00 -0.43944439262E+03  0.43944439262E+03  0.00000000000E+00 0. -1.
         25    2    1    2    0    0 -0.86289536125E+02 -0.76840317958E+02 -0.10276012464E+03  0.19883463220E+03  0.12500099694E+03 0.  0.
         25    2    1    2    0    0  0.86289536125E+02  0.76840317958E+02 -0.26355305754E+03  0.31374097085E+03  0.12499145630E+03 0.  0.
          5    1    3    3  501    0 -0.79471928482E+02 -0.10516364302E+03 -0.10591094117E+03  0.16915790460E+03  0.47000000000E+01 0. -1.
         -5    1    3    3    0  501 -0.68176076434E+01  0.28323325058E+02  0.31508165252E+01  0.29676727601E+02  0.47000000000E+01 0. -1.
          5    1    4    4  502    0  0.10655122745E+03  0.20138409830E+02 -0.18717975877E+03  0.21637252995E+03  0.47000000000E+01 0. -1.
         -5    1    4    4    0  502 -0.20261691322E+02  0.56701908129E+02 -0.76373298762E+02  0.97368440906E+02  0.47000000000E+01 0. -1.
<mgrwt>
<rscale>  0 0.35853647E+03</rscale>
<asrwt>0</asrwt>
<pdfrwt beam="1">  1       21 0.11250956E-01 0.35853647E+03</pdfrwt>
<pdfrwt beam="2">  1       21 0.67606829E-01 0.35853647E+03</pdfrwt>
<totfact> 0.12543414E+05</totfact>
</mgrwt>
</event>
<event>
 8    1  0.9691636E-006  0.3213551E+03  0.7546771E-02  0.1075027E+00
         21   -1    0    0  504  503  0.00000000000E+00  0.00000000000E+00  0.96805576826E+02  0.96805576826E+02  0.00000000000E+00 0.  1.
         21   -1    0    0  503  504 -0.00000000000E+00 -0.00000000000E+00 -0.26669195630E+03  0.26669195630E+03  0.00000000000E+00 0.  1.
         25    2    1    2    0    0  0.76212233435E+02 -0.65842292294E+02 -0.92890181142E+02  0.18546228491E+03  0.12499664552E+03 0.  0.
         25    2    1    2    0    0 -0.76212233435E+02  0.65842292294E+02 -0.76996198328E+02  0.17803524822E+03  0.12499849227E+03 0.  0.
          5    1    3    3  501    0 -0.20546172109E+02  0.17566581170E+02  0.10262027367E-01  0.27437566723E+02  0.47000000000E+01 0. -1.
         -5    1    3    3    0  501  0.96758405544E+02 -0.83408873464E+02 -0.92900443169E+02  0.15802471818E+03  0.47000000000E+01 0. -1.
          5    1    4    4  502    0 -0.43061384665E+02 -0.27525720945E+02 -0.57271719975E+02  0.76903108335E+02  0.47000000000E+01 0.  1.
         -5    1    4    4    0  502 -0.33150848770E+02  0.93368013239E+02 -0.19724478353E+02  0.10113213988E+03  0.47000000000E+01 0.  1.
<mgrwt>
<rscale>  0 0.32135506E+03</rscale>
<asrwt>0</asrwt>
<pdfrwt beam="1">  1       21 0.14893166E-01 0.32135506E+03</pdfrwt>
<pdfrwt beam="2">  1       21 0.41029531E-01 0.32135506E+03</pdfrwt>
<totfact> 0.22011921E+05</totfact>
</mgrwt>
</event>
<event>
 8    1  0.9691636E-006  0.2806460E+03  0.7546771E-02  0.1095337E+00
         21   -1    0    0  504  503  0.00000000000E+00  0.00000000000E+00  0.12460683560E+02  0.12460683560E+02  0.00000000000E+00 0.  1.
         21   -1    0    0  503  504 -0.00000000000E+00 -0.00000000000E+00 -0.15802139749E+04  0.15802139749E+04  0.00000000000E+00 0.  1.
         25    2    1    2    0    0  0.24093318411E+02  0.45672869059E+02 -0.99645805656E+03  0.10055880929E+04  0.12494901043E+03 0.  0.
         25    2    1    2    0    0 -0.24093318411E+02 -0.45672869059E+02 -0.57129523481E+03  0.58708656556E+03  0.12500356467E+03 0.  0.
          5    1    3    3  501    0  0.20364198693E+01  0.33891176633E+02 -0.96272510607E+03  0.96333508123E+03  0.47000000000E+01 0.  1.
         -5    1    3    3    0  501  0.22056898542E+02  0.11781692426E+02 -0.33732950486E+02  0.42253011706E+02  0.47000000000E+01 0.  1.
          5    1    4    4  502    0 -0.22007881169E+02 -0.81813894444E+02 -0.25624819895E+03  0.26993163880E+03  0.47000000000E+01 0. -1.
         -5    1    4    4    0  502 -0.20854372428E+01  0.36141025385E+02 -0.31504703586E+03  0.31715492676E+03  0.47000000000E+01 0. -1.
<mgrwt>
<rscale>  0 0.28064601E+03</rscale>
<asrwt>0</asrwt>
<pdfrwt beam="1">  1       21 0.19170274E-02 0.28064601E+03</pdfrwt>
<pdfrwt beam="2">  1       21 0.24310995E+00 0.28064601E+03</pdfrwt>
<totfact> 0.91444631E+04</totfact>
</mgrwt>
</event>
<event>
 8    1  0.9691636E-006  0.3512121E+03  0.7546771E-02  0.1062119E+00
         21   -1    0    0  504  503  0.00000000000E+00  0.00000000000E+00  0.42170908554E+03  0.42170908554E+03  0.00000000000E+00 0. -1.
         21   -1    0    0  503  504 -0.00000000000E+00 -0.00000000000E+00 -0.73125036287E+02  0.73125036287E+02  0.00000000000E+00 0. -1.
         25    2    1    2    0    0  0.10410741259E+03 -0.64483738939E+02  0.19498927639E+03  0.26199715821E+03  0.12500074824E+03 0.  0.
         25    2    1    2    0    0 -0.10410741259E+03  0.64483738939E+02  0.15359477287E+03  0.23283696362E+03  0.12500076572E+03 0.  0.
          5    1    3    3  501    0  0.36525074892E+02 -0.17121153893E+02  0.17124454333E+03  0.17599431419E+03  0.47000000000E+01 0. -1.
         -5    1    3    3    0  501  0.67582337699E+02 -0.47362585045E+02  0.23744733054E+02  0.86002844016E+02  0.47000000000E+01 0. -1.
          5    1    4    4  502    0 -0.54928145996E+02 -0.22473460968E+02  0.14075527163E+02  0.61174897919E+02  0.47000000000E+01 0.  1.
         -5    1    4    4    0  502 -0.49179266595E+02  0.86957199907E+02  0.13951924571E+03  0.17166206570E+03  0.47000000000E+01 0.  1.
<mgrwt>
<rscale>  0 0.35121214E+03</rscale>
<asrwt>0</asrwt>
<pdfrwt beam="1">  1       21 0.64878319E-01 0.35121214E+03</pdfrwt>
<pdfrwt beam="2">  1       21 0.11250006E-01 0.35121214E+03</pdfrwt>
<totfact> 0.13767491E+05</totfact>
</mgrwt>
</event>
<event>
 8    1  0.9691636E-006  0.2630209E+03  0.7546771E-02  0.1105342E+00
         21   -1    0    0  504  503  0.00000000000E+00  0.00000000000E+00  0.15857744427E+02  0.15857744427E+02  0.00000000000E+00 0.  1.
         21   -1    0    0  503  504 -0.00000000000E+00 -0.00000000000E+00 -0.10906341899E+04  0.10906341899E+04  0.00000000000E+00 0.  1.
         25    2    1    2    0    0  0.40819169420E+02 -0.16558721166E+01 -0.54151115458E+03  0.55725054833E+03  0.12499958633E+03 0.  0.
         25    2    1    2    0    0 -0.40819169420E+02  0.16558721166E+01 -0.53326529085E+03  0.54924138595E+03  0.12500113242E+03 0.  0.
          5    1    3    3  501    0  0.61081779083E+02  0.12456075427E+02 -0.12290841186E+03  0.13789381877E+03  0.47000000000E+01 0. -1.
         -5    1    3    3    0  501 -0.20262609663E+02 -0.14111947543E+02 -0.41860274272E+03  0.41935672956E+03  0.47000000000E+01 0. -1.
          5    1    4    4  502    0 -0.11209269924E+02 -0.48515814128E+02 -0.97559168458E+02  0.10963262882E+03  0.47000000000E+01 0.  1.
         -5    1    4    4    0  502 -0.29609899496E+02  0.50171686245E+02 -0.43570612239E+03  0.43960875712E+03  0.47000000000E+01 0.  1.
<mgrwt>
<rscale>  0 0.26302090E+03</rscale>
<asrwt>0</asrwt>
<pdfrwt beam="1">  1       21 0.24396525E-02 0.26302090E+03</pdfrwt>
<pdfrwt beam="2">  1       21 0.16778991E+00 0.26302090E+03</pdfrwt>
<totfact> 0.19126293E+05</totfact>
</mgrwt>
</event>
<event>
 8    1  0.9691636E-006  0.6213224E+03  0.7546771E-02  0.9862130E-01
         21   -1    0    0  504  503  0.00000000000E+00  0.00000000000E+00  0.26456755420E+03  0.26456755420E+03  0.00000000000E+00 0. -1.
         21   -1    0    0  503  504 -0.00000000000E+00 -0.00000000000E+00 -0.36478543544E+03  0.36478543544E+03  0.00000000000E+00 0. -1.
         25    2    1    2    0    0  0.10561432561E+03  0.88654704439E+02  0.20184468297E+03  0.27455587972E+03  0.12500245060E+03 0.  0.
         25    2    1    2    0    0 -0.10561432561E+03 -0.88654704439E+02 -0.30206256421E+03  0.35479710992E+03  0.12500061646E+03 0.  0.
          5    1    3    3  501    0  0.38611753150E+02  0.30719414762E+02 -0.46834893586E+01  0.49785288964E+02  0.47000000000E+01 0.  1.
         -5    1    3    3    0  501  0.67002572459E+02  0.57935289677E+02  0.20652817233E+03  0.22477059076E+03  0.47000000000E+01 0.  1.
          5    1    4    4  502    0 -0.11226139934E+03 -0.11346847855E+03 -0.26641782052E+03  0.31060950162E+03  0.47000000000E+01 0.  1.
         -5    1    4    4    0  502  0.66470737266E+01  0.24813774107E+02 -0.35644743687E+02  0.44187608298E+02  0.47000000000E+01 0.  1.
<mgrwt>
<rscale>  0 0.62132243E+03</rscale>
<asrwt>0</asrwt>
<pdfrwt beam="1">  1       21 0.40702700E-01 0.62132243E+03</pdfrwt>
<pdfrwt beam="2">  1       21 0.56120837E-01 0.62132243E+03</pdfrwt>
<totfact> 0.15046414E+04</totfact>
</mgrwt>
</event>
<event>
 8    1  0.9691636E-006  0.4272850E+03  0.7546771E-02  0.1034721E+00
         21   -1    0    0  504  503  0.00000000000E+00  0.00000000000E+00  0.15006816253E+03  0.15006816253E+03  0.00000000000E+00 0. -1.
         21   -1    0    0  503  504 -0.00000000000E+00 -0.00000000000E+00 -0.30414926288E+03  0.30414926288E+03  0.00000000000E+00 0. -1.
         25    2    1    2    0    0  0.50890879031E+02 -0.93082585162E+02 -0.22265519682E+03  0.27650314509E+03  0.12499761336E+03 0.  0.
         25    2    1    2    0    0 -0.50890879031E+02  0.93082585162E+02  0.68574096468E+02  0.17771428031E+03  0.12500283794E+03 0.  0.
          5    1    3    3  501    0 -0.11825798441E+02 -0.54099280339E+02 -0.18561326510E+03  0.19375488594E+03  0.47000000000E+01 0.  1.
         -5    1    3    3    0  501  0.62716677472E+02 -0.38983304823E+02 -0.37041931716E+02  0.82748259156E+02  0.47000000000E+01 0.  1.
          5    1    4    4  502    0 -0.72464560975E+02  0.85229814647E+02  0.74107545813E+01  0.11221516469E+03  0.47000000000E+01 0. -1.
         -5    1    4    4    0  502  0.21573681944E+02  0.78527705149E+01  0.61163341887E+02  0.65499115629E+02  0.47000000000E+01 0. -1.
<mgrwt>
<rscale>  0 0.42728502E+03</rscale>
<asrwt>0</asrwt>
<pdfrwt beam="1">  1       21 0.23087410E-01 0.42728502E+03</pdfrwt>
<pdfrwt beam="2">  1       21 0.46792194E-01 0.42728502E+03</pdfrwt>
<totfact> 0.71772113E+04</totfact>
</mgrwt>
</event>
<event>
 8    1  0.9691636E-006  0.2781542E+03  0.7546771E-02  0.1096701E+00
         21   -1    0    0  504  503  0.00000000000E+00  0.00000000000E+00  0.69592481645E+02  0.69592481645E+02  0.00000000000E+00 0.  1.
         21   -1    0    0  503  504 -0.00000000000E+00 -0.00000000000E+00 -0.27793860748E+03  0.27793860748E+03  0.00000000000E+00 0.  1.
         25    2    1    2    0    0  0.56167237691E+02  0.12640244174E+02 -0.12922956307E+03  0.18878681101E+03  0.12500258268E+03 0.  0.
         25    2    1    2    0    0 -0.56167237691E+02 -0.12640244174E+02 -0.79116562766E+02  0.15874427812E+03  0.12500312383E+03 0.  0.
          5    1    3    3  501    0  0.90392138061E+02  0.27279353235E+01 -0.54052883150E+02  0.10546081941E+03  0.47000000000E+01 0.  1.
         -5    1    3    3    0  501 -0.34224900369E+02  0.99123088510E+01 -0.75176679921E+02  0.83325991599E+02  0.47000000000E+01 0.  1.
          5    1    4    4  502    0  0.65630605090E+01 -0.57174813473E+02 -0.49906158308E+02  0.76320034695E+02  0.47000000000E+01 0. -1.
         -5    1    4    4    0  502 -0.62730298200E+02  0.44534569298E+02 -0.29210404459E+02  0.82424243421E+02  0.47000000000E+01 0. -1.
<mgrwt>
<rscale>  0 0.27815418E+03</rscale>
<asrwt>0</asrwt>
<pdfrwt beam="1">  1       21 0.10706535E-01 0.27815418E+03</pdfrwt>
<pdfrwt beam="2">  1       21 0.42759787E-01 0.27815418E+03</pdfrwt>
<totfact> 0.37119573E+05</totfact>
</mgrwt>
</event>
<event>
 8    1  0.9691636E-006  0.2680972E+03  0.7546771E-02  0.1102374E+00
         21   -1    0    0  504  503  0.00000000000E+00  0.00000000000E+00  0.75328799206E+02  0.75328799206E+02  0.00000000000E+00 0. -1.
         21   -1    0    0  503  504 -0.00000000000E+00 -0.00000000000E+00 -0.23854127694E+03  0.23854127694E+03  0.00000000000E+00 0. -1.
         25    2    1    2    0    0 -0.27036828439E+02  0.57330905437E+01 -0.12811770924E+03  0.18111623133E+03  0.12500033365E+03 0.  0.
         25    2    1    2    0    0  0.27036828439E+02 -0.57330905437E+01 -0.35094768500E+02  0.13275384482E+03  0.12501232787E+03 0.  0.
          5    1    3    3  501    0  0.16054983302E+02 -0.43000793236E+02 -0.99920964466E+02  0.11005961951E+03  0.47000000000E+01 0. -1.
         -5    1    3    3    0  501 -0.43091811741E+02  0.48733883780E+02 -0.28196744773E+02  0.71056611819E+02  0.47000000000E+01 0. -1.
          5    1    4    4  502    0 -0.34872518461E+02 -0.37509993851E+02  0.60329891450E+01  0.51783966057E+02  0.47000000000E+01 0.  1.
         -5    1    4    4    0  502  0.61909346901E+02  0.31776903307E+02 -0.41127757645E+02  0.80969878760E+02  0.47000000000E+01 0.  1.
<mgrwt>
<rscale>  0 0.26809721E+03</rscale>
<asrwt>0</asrwt>
<pdfrwt beam="1">  1       21 0.11589046E-01 0.26809721E+03</pdfrwt>
<pdfrwt beam="2">  1       21 0.36698658E-01 0.26809721E+03</pdfrwt>
<totfact> 0.44032778E+05</totfact>
</mgrwt>
</event>
<event>
 8    1  0.9691636E-006  0.3123446E+03  0.7546771E-02  0.1079227E+00
         21   -1    0    0  504  503  0.00000000000E+00  0.00000000000E+00  0.48863908154E+02  0.48863908154E+02  0.00000000000E+00 0.  1.
         21   -1    0    0  503  504 -0.00000000000E+00 -0.00000000000E+00 -0.49913696821E+03  0.49913696821E+03  0.00000000000E+00 0.  1.
         25    2    1    2    0    0 -0.78878184001E+02  0.34929243351E+02 -0.28900747151E+03  0.32646539833E+03  0.12495006109E+03 0.  0.
         25    2    1    2    0    0  0.78878184001E+02 -0.34929243351E+02 -0.16126558854E+03  0.22153547803E+03  0.12501823078E+03 0.  0.
          5    1    3    3  501    0 -0.98960945743E+02  0.62393733751E+02 -0.21301666734E+03  0.24307290544E+03  0.47000000000E+01 0. -1.
         -5    1    3    3    0  501  0.20082761742E+02 -0.27464490400E+02 -0.75990804174E+02  0.83392492894E+02  0.47000000000E+01 0. -1.
          5    1    4    4  502    0 -0.64498691950E+01  0.19965168915E+02 -0.10136094879E+03  0.10361631494E+03  0.47000000000E+01 0. -1.
         -5    1    4    4    0  502  0.85328053196E+02 -0.54894412266E+02 -0.59904639752E+02  0.11791916309E+03  0.47000000000E+01 0. -1.
<mgrwt>
<rscale>  0 0.31234457E+03</rscale>
<asrwt>0</asrwt>
<pdfrwt beam="1">  1       21 0.75175239E-02 0.31234457E+03</pdfrwt>
<pdfrwt beam="2">  1       21 0.76790307E-01 0.31234457E+03</pdfrwt>
<totfact> 0.19498210E+05</totfact>
</mgrwt>
</event>
<event>
 8    1  0.9691636E-006  0.2896110E+03  0.7546771E-02  0.1090552E+00
         21   -1    0    0  504  503  0.00000000000E+00  0.00000000000E+00  0.33722362520E+03  0.33722362520E+03  0.00000000000E+00 0. -1.
         21   -1    0    0  503  504 -0.00000000000E+00 -0.00000000000E+00 -0.62180200778E+02  0.62180200778E+02  0.00000000000E+00 0. -1.
         25    2    1    2    0    0  0.28318427935E+01  0.53001669251E+02  0.68207737852E+02  0.15197072983E+03  0.12500244376E+03 0.  0.
         25    2    1    2    0    0 -0.28318427935E+01 -0.53001669251E+02  0.20683568657E+03  0.24743309614E+03  0.12499975820E+03 0.  0.
          5    1    3    3  501    0 -0.79487809653E+01  0.19685807376E+02 -0.35933125890E+02  0.41999924608E+02  0.47000000000E+01 0. -1.
         -5    1    3    3    0  501  0.10780623759E+02  0.33315861875E+02  0.10414086374E+03  0.10997080523E+03  0.47000000000E+01 0. -1.
          5    1    4    4  502    0 -0.34229533143E+02 -0.73085966757E+02  0.74732096373E+02  0.11009176038E+03  0.47000000000E+01 0.  1.
         -5    1    4    4    0  502  0.31397690349E+02  0.20084297505E+02  0.13210359019E+03  0.13734133576E+03  0.47000000000E+01 0.  1.
<mgrwt>
<rscale>  0 0.28961100E+03</rscale>
<asrwt>0</asrwt>
<pdfrwt beam="1">  1       21 0.51880557E-01 0.28961100E+03</pdfrwt>
<pdfrwt beam="2">  1       21 0.95661849E-02 0.28961100E+03</pdfrwt>
<totfact> 0.30241814E+05</totfact>
</mgrwt>
</event>
<event>
 8    1  0.9691636E-006  0.3292825E+03  0.7546771E-02  0.1071455E+00
         21   -1    0    0  504  503  0.00000000000E+00  0.00000000000E+00  0.39232408271E+02  0.39232408271E+02  0.00000000000E+00 0.  1.
         21   -1    0    0  503  504 -0.00000000000E+00 -0.00000000000E+00 -0.69092719754E+03  0.69092719754E+03  0.00000000000E+00 0.  1.
         25    2    1    2    0    0  0.45999040593E+02 -0.96610977196E+02 -0.31332769670E+03  0.35390566862E+03  0.12500153644E+03 0.  0.
         25    2    1    2    0    0 -0.45999040593E+02  0.96610977196E+02 -0.33836709257E+03  0.37625393719E+03  0.12500057307E+03 0.  0.
          5    1    3    3  501    0  0.41196220220E+01 -0.65196934118E+02 -0.28837831672E+03  0.29572242908E+03  0.47000000000E+01 0. -1.
         -5    1    3    3    0  501  0.41879418571E+02 -0.31414043077E+02 -0.24949379976E+02  0.58183239541E+02  0.47000000000E+01 0. -1.
          5    1    4    4  502    0 -0.82590638399E+01  0.37041576231E+02 -0.28535744869E+03  0.28790841257E+03  0.47000000000E+01 0.  1.
         -5    1    4    4    0  502 -0.37739976753E+02  0.59569400964E+02 -0.53009643879E+02  0.88345524622E+02  0.47000000000E+01 0.  1.
<mgrwt>
<rscale>  0 0.32928248E+03</rscale>
<asrwt>0</asrwt>
<pdfrwt beam="1">  1       21 0.60357547E-02 0.32928248E+03</pdfrwt>
<pdfrwt beam="2">  1       21 0.10629650E+00 0.32928248E+03</pdfrwt>
<totfact> 0.13245343E+05</totfact>
</mgrwt>
</event>
<event>
 8    1  0.9691636E-006  0.3856279E+03  0.7546771E-02  0.1048873E+00
         21   -1    0    0  504  503  0.00000000000E+00  0.00000000000E+00  0.66259790717E+03  0.66259790717E+03  0.00000000000E+00 0. -1.
         21   -1    0    0  503  504 -0.00000000000E+00 -0.00000000000E+00 -0.56108266754E+02  0.56108266754E+02  0.00000000000E+00 0. -1.
         25    2    1    2    0    0 -0.68612936577E+02 -0.12582056637E+03  0.36251084814E+03  0.40936199315E+03  0.12499830573E+03 0.  0.
         25    2    1    2    0    0  0.68612936577E+02  0.12582056637E+03  0.24397879227E+03  0.30934418076E+03  0.12501848306E+03 0.  0.
          5    1    3    3  501    0 -0.98233837849E+02 -0.12641817336E+03  0.30590473890E+03  0.34529877025E+03  0.47000000000E+01 0.  1.
         -5    1    3    3    0  501  0.29620901272E+02  0.59760698980E+00  0.56606109239E+02  0.64063222909E+02  0.47000000000E+01 0.  1.
          5    1    4    4  502    0  0.29264104273E+02 -0.31433967919E+01 -0.83401888386E+00  0.29817014099E+02  0.47000000000E+01 0. -1.
         -5    1    4    4    0  502  0.39348832304E+02  0.12896396316E+03  0.24481281116E+03  0.27952716667E+03  0.47000000000E+01 0. -1.
<mgrwt>
<rscale>  0 0.38562790E+03</rscale>
<asrwt>0</asrwt>
<pdfrwt beam="1">  1       21 0.10193813E+00 0.38562790E+03</pdfrwt>
<pdfrwt beam="2">  1       21 0.86320415E-02 0.38562790E+03</pdfrwt>
<totfact> 0.77243652E+04</totfact>
</mgrwt>
</event>
<event>
 8    1  0.9691636E-006  0.2856467E+03  0.7546771E-02  0.1092644E+00
         21   -1    0    0  504  503  0.00000000000E+00  0.00000000000E+00  0.31323003613E+03  0.31323003613E+03  0.00000000000E+00 0. -1.
         21   -1    0    0  503  504 -0.00000000000E+00 -0.00000000000E+00 -0.65123105055E+02  0.65123105055E+02  0.00000000000E+00 0. -1.
         25    2    1    2    0    0  0.65713598919E+02  0.19728935429E+02  0.11331164285E+03  0.18213073703E+03  0.12499827594E+03 0.  0.
         25    2    1    2    0    0 -0.65713598919E+02 -0.19728935429E+02  0.13479528822E+03  0.19622240415E+03  0.12500381670E+03 0.  0.
          5    1    3    3  501    0  0.46906837285E+02  0.16926121890E+02  0.14019203160E+03  0.14887122191E+03  0.47000000000E+01 0.  1.
         -5    1    3    3    0  501  0.18806761634E+02  0.28028135390E+01 -0.26880388751E+02  0.33259515124E+02  0.47000000000E+01 0.  1.
          5    1    4    4  502    0 -0.82961138876E+01 -0.61013687810E+02  0.99348639881E+02  0.11697751003E+03  0.47000000000E+01 0. -1.
         -5    1    4    4    0  502 -0.57417485032E+02  0.41284752382E+02  0.35446648337E+02  0.79244894125E+02  0.47000000000E+01 0. -1.
<mgrwt>
<rscale>  0 0.28564672E+03</rscale>
<asrwt>0</asrwt>
<pdfrwt beam="1">  1       21 0.48189235E-01 0.28564672E+03</pdfrwt>
<pdfrwt beam="2">  1       21 0.10018939E-01 0.28564672E+03</pdfrwt>
<totfact> 0.32561669E+05</totfact>
</mgrwt>
</event>
<event>
 8    1  0.9691636E-006  0.2912222E+03  0.7546771E-02  0.1089713E+00
         21   -1    0    0  504  503  0.00000000000E+00  0.00000000000E+00  0.40956429429E+02  0.40956429429E+02  0.00000000000E+00 0.  1.
         21   -1    0    0  503  504 -0.00000000000E+00 -0.00000000000E+00 -0.51768657107E+03  0.51768657107E+03  0.00000000000E+00 0.  1.
         25    2    1    2    0    0 -0.67766111704E+02  0.28315578040E+02 -0.26438269200E+03  0.30152539599E+03  0.12500135497E+03 0.  0.
         25    2    1    2    0    0  0.67766111704E+02 -0.28315578040E+02 -0.21234744964E+03  0.25711760451E+03  0.12499602123E+03 0.  0.
          5    1    3    3  501    0 -0.10332791419E+03  0.30900848888E+02 -0.18151732376E+03  0.21119220898E+03  0.47000000000E+01 0. -1.
         -5    1    3    3    0  501  0.35561802482E+02 -0.25852708477E+01 -0.82865368241E+02  0.90333187007E+02  0.47000000000E+01 0. -1.
          5    1    4    4  502    0  0.26865934771E+02 -0.53028685898E+02 -0.26655586745E+02  0.65317917021E+02  0.47000000000E+01 0.  1.
         -5    1    4    4    0  502  0.40900176934E+02  0.24713107859E+02 -0.18569186290E+03  0.19179968749E+03  0.47000000000E+01 0.  1.
<mgrwt>
<rscale>  0 0.29122221E+03</rscale>
<asrwt>0</asrwt>
<pdfrwt beam="1">  1       21 0.63009893E-02 0.29122221E+03</pdfrwt>
<pdfrwt beam="2">  1       21 0.79644085E-01 0.29122221E+03</pdfrwt>
<totfact> 0.24524069E+05</totfact>
</mgrwt>
</event>
<event>
 8    1  0.9691636E-006  0.3138698E+03  0.7546771E-02  0.1078506E+00
         21   -1    0    0  504  503  0.00000000000E+00  0.00000000000E+00  0.75376073092E+03  0.75376073092E+03  0.00000000000E+00 0. -1.
         21   -1    0    0  503  504 -0.00000000000E+00 -0.00000000000E+00 -0.32674239477E+02  0.32674239477E+02  0.00000000000E+00 0. -1.
         25    2    1    2    0    0  0.39306202000E+01 -0.79613750631E+02  0.48949579928E+03  0.51145420216E+03  0.12500185730E+03 0.  0.
         25    2    1    2    0    0 -0.39306202000E+01  0.79613750631E+02  0.23159069216E+03  0.27498076823E+03  0.12500550043E+03 0.  0.
          5    1    3    3  501    0 -0.57323110774E+02 -0.15744643221E+02  0.19523711792E+03  0.20414077259E+03  0.47000000000E+01 0.  1.
         -5    1    3    3    0  501  0.61253730974E+02 -0.63869107410E+02  0.29425868136E+03  0.30731342957E+03  0.47000000000E+01 0.  1.
          5    1    4    4  502    0 -0.32050308876E+02  0.19646166316E+02  0.42276226036E+01  0.38120295682E+02  0.47000000000E+01 0. -1.
         -5    1    4    4    0  502  0.28119688676E+02  0.59967584314E+02  0.22736306956E+03  0.23686047255E+03  0.47000000000E+01 0. -1.
<mgrwt>
<rscale>  0 0.31386977E+03</rscale>
<asrwt>0</asrwt>
<pdfrwt beam="1">  1       21 0.11596318E+00 0.31386977E+03</pdfrwt>
<pdfrwt beam="2">  1       21 0.50268067E-02 0.31386977E+03</pdfrwt>
<totfact> 0.14709708E+05</totfact>
</mgrwt>
</event>
<event>
 8    1  0.9691636E-006  0.2706773E+03  0.7546771E-02  0.1100893E+00
         21   -1    0    0  504  503  0.00000000000E+00  0.00000000000E+00  0.18160314486E+03  0.18160314486E+03  0.00000000000E+00 0. -1.
         21   -1    0    0  503  504 -0.00000000000E+00 -0.00000000000E+00 -0.10086033530E+03  0.10086033530E+03  0.00000000000E+00 0. -1.
         25    2    1    2    0    0 -0.97628335721E+01  0.50901861819E+02  0.37934297834E+02  0.14053490119E+03  0.12499894017E+03 0.  0.
         25    2    1    2    0    0  0.97628335721E+01 -0.50901861819E+02  0.42808511730E+02  0.14192857897E+03  0.12499936158E+03 0.  0.
          5    1    3    3  501    0 -0.97705689697E+01  0.19605833070E+02  0.82717662001E+02  0.85698041491E+02  0.47000000000E+01 0.  1.
         -5    1    3    3    0  501  0.77353976478E-02  0.31296028749E+02 -0.44783364168E+02  0.54836859698E+02  0.47000000000E+01 0.  1.
          5    1    4    4  502    0  0.24949163550E+02  0.19381744085E+02  0.59887914824E+02  0.67873154543E+02  0.47000000000E+01 0. -1.
         -5    1    4    4    0  502 -0.15186329978E+02 -0.70283605904E+02 -0.17079403095E+02  0.74055424428E+02  0.47000000000E+01 0. -1.
<mgrwt>
<rscale>  0 0.27067733E+03</rscale>
<asrwt>0</asrwt>
<pdfrwt beam="1">  1       21 0.27938945E-01 0.27067733E+03</pdfrwt>
<pdfrwt beam="2">  1       21 0.15516975E-01 0.27067733E+03</pdfrwt>
<totfact> 0.44416400E+05</totfact>
</mgrwt>
</event>
<event>
 8    1  0.9691636E-006  0.2877273E+03  0.7546771E-02  0.1091542E+00
         21   -1    0    0  504  503  0.00000000000E+00  0.00000000000E+00  0.67284748549E+02  0.67284748549E+02  0.00000000000E+00 0. -1.
         21   -1    0    0  503  504 -0.00000000000E+00 -0.00000000000E+00 -0.30759938582E+03  0.30759938582E+03  0.00000000000E+00 0. -1.
         25    2    1    2    0    0 -0.26392228410E+02 -0.20132181185E+02 -0.38054569981E+02  0.13481138809E+03  0.12499642244E+03 0.  0.
         25    2    1    2    0    0  0.26392228410E+02  0.20132181185E+02 -0.20226006729E+03  0.24007274628E+03  0.12499573691E+03 0.  0.
          5    1    3    3  501    0 -0.70884198778E+02 -0.38532417986E+02 -0.20801234932E+02  0.83451172831E+02  0.47000000000E+01 0.  1.
         -5    1    3    3    0  501  0.44491970367E+02  0.18400236801E+02 -0.17253335049E+02  0.51360215262E+02  0.47000000000E+01 0.  1.
          5    1    4    4  502    0 -0.15306509549E+02  0.36067804298E+02 -0.74512347705E+01  0.40159514950E+02  0.47000000000E+01 0.  1.
         -5    1    4    4    0  502  0.41698737960E+02 -0.15935623112E+02 -0.19480883252E+03  0.19991323133E+03  0.47000000000E+01 0.  1.
<mgrwt>
<rscale>  0 0.28772728E+03</rscale>
<asrwt>0</asrwt>
<pdfrwt beam="1">  1       21 0.10351500E-01 0.28772728E+03</pdfrwt>
<pdfrwt beam="2">  1       21 0.47322982E-01 0.28772728E+03</pdfrwt>
<totfact> 0.31892825E+05</totfact>
</mgrwt>
</event>
<event>
 8    1  0.9691636E-006  0.3534158E+03  0.7546771E-02  0.1061222E+00
         21   -1    0    0  504  503  0.00000000000E+00  0.00000000000E+00  0.61730580268E+02  0.61730580268E+02  0.00000000000E+00 0. -1.
         21   -1    0    0  503  504 -0.00000000000E+00 -0.00000000000E+00 -0.50583819432E+03  0.50583819432E+03  0.00000000000E+00 0. -1.
         25    2    1    2    0    0  0.92400039897E+02  0.84036569590E+02 -0.22116189277E+03  0.28308619652E+03  0.12500119776E+03 0.  0.
         25    2    1    2    0    0 -0.92400039897E+02 -0.84036569590E+02 -0.22294572128E+03  0.28448257808E+03  0.12500252073E+03 0.  0.
          5    1    3    3  501    0  0.61155981033E+02 -0.18955455936E+02 -0.11576299942E+03  0.13237267603E+03  0.47000000000E+01 0. -1.
         -5    1    3    3    0  501  0.31244058864E+02  0.10299202553E+03 -0.10539889336E+03  0.15071352049E+03  0.47000000000E+01 0. -1.
          5    1    4    4  502    0  0.12417195865E+01 -0.61339634898E+02 -0.29328308056E+02  0.68164010521E+02  0.47000000000E+01 0. -1.
         -5    1    4    4    0  502 -0.93641759484E+02 -0.22696934693E+02 -0.19361741323E+03  0.21631856755E+03  0.47000000000E+01 0. -1.
<mgrwt>
<rscale>  0 0.35341582E+03</rscale>
<asrwt>0</asrwt>
<pdfrwt beam="1">  1       21 0.94970118E-02 0.35341582E+03</pdfrwt>
<pdfrwt beam="2">  1       21 0.77821265E-01 0.35341582E+03</pdfrwt>
<totfact> 0.12394994E+05</totfact>
</mgrwt>
</event>
<event>
 8    1  0.9691636E-006  0.3129001E+03  0.7546771E-02  0.1078964E+00
         21   -1    0    0  504  503  0.00000000000E+00  0.00000000000E+00  0.83001816371E+02  0.83001816371E+02  0.00000000000E+00 0.  1.
         21   -1    0    0  503  504 -0.00000000000E+00 -0.00000000000E+00 -0.29489256726E+03  0.29489256726E+03  0.00000000000E+00 0.  1.
         25    2    1    2    0    0 -0.72401905920E+02 -0.56741320454E+02 -0.12974164800E+03  0.20229539116E+03  0.12501566555E+03 0.  0.
         25    2    1    2    0    0  0.72401905920E+02  0.56741320454E+02 -0.82149102895E+02  0.17559899247E+03  0.12499967049E+03 0.  0.
          5    1    3    3  501    0 -0.71184369797E+00  0.34203023578E+02 -0.53125275600E+02  0.63361963755E+02  0.47000000000E+01 0.  1.
         -5    1    3    3    0  501 -0.71690062222E+02 -0.90944344031E+02 -0.76616372397E+02  0.13893342741E+03  0.47000000000E+01 0.  1.
          5    1    4    4  502    0  0.91924465765E+02 -0.16242018616E+01 -0.37423774993E+02  0.99374918227E+02  0.47000000000E+01 0. -1.
         -5    1    4    4    0  502 -0.19522559845E+02  0.58365522315E+02 -0.44725327901E+02  0.76224074241E+02  0.47000000000E+01 0. -1.
<mgrwt>
<rscale>  0 0.31290010E+03</rscale>
<asrwt>0</asrwt>
<pdfrwt beam="1">  1       21 0.12769510E-01 0.31290010E+03</pdfrwt>
<pdfrwt beam="2">  1       21 0.45368088E-01 0.31290010E+03</pdfrwt>
<totfact> 0.23737021E+05</totfact>
</mgrwt>
</event>
<event>
 8    1  0.9691636E-006  0.2982967E+03  0.7546771E-02  0.1086095E+00
         21   -1    0    0  504  503  0.00000000000E+00  0.00000000000E+00  0.33083436438E+02  0.33083436438E+02  0.00000000000E+00 0. -1.
         21   -1    0    0  503  504 -0.00000000000E+00 -0.00000000000E+00 -0.67239793429E+03  0.67239793429E+03  0.00000000000E+00 0. -1.
         25    2    1    2    0    0 -0.36471687498E+02  0.62266520149E+02 -0.40862939202E+03  0.43336764869E+03  0.12498894106E+03 0.  0.
         25    2    1    2    0    0  0.36471687498E+02 -0.62266520149E+02 -0.23068510584E+03  0.27211372204E+03  0.12499182433E+03 0.  0.
          5    1    3    3  501    0 -0.29730867879E+02  0.33657614597E+02 -0.39976931081E+03  0.40231126182E+03  0.47000000000E+01 0. -1.
         -5    1    3    3    0  501 -0.67408196194E+01  0.28608905551E+02 -0.88600812097E+01  0.31056386864E+02  0.47000000000E+01 0. -1.
          5    1    4    4  502    0  0.19284303472E+02  0.22225317321E+02 -0.46662163828E+01  0.30161443363E+02  0.47000000000E+01 0.  1.
         -5    1    4    4    0  502  0.17187384026E+02 -0.84491837470E+02 -0.22601888945E+03  0.24195227868E+03  0.47000000000E+01 0.  1.
<mgrwt>
<rscale>  0 0.29829673E+03</rscale>
<asrwt>0</asrwt>
<pdfrwt beam="1">  1       21 0.50897597E-02 0.29829673E+03</pdfrwt>
<pdfrwt beam="2">  1       21 0.10344583E+00 0.29829673E+03</pdfrwt>
<totfact> 0.19132251E+05</totfact>
</mgrwt>
</event>
<event>
 8    1  0.9691636E-006  0.2540135E+03  0.7546771E-02  0.1110794E+00
         21   -1    0    0  504  503  0.00000000000E+00  0.00000000000E+00  0.72428513531E+03  0.72428513531E+03  0.00000000000E+00 0.  1.
         21   -1    0    0  503  504 -0.00000000000E+00 -0.00000000000E+00 -0.22271221459E+02  0.22271221459E+02  0.00000000000E+00 0.  1.
         25    2    1    2    0    0 -0.30379134372E+01 -0.20011127645E+01  0.41621185503E+03  0.43459272713E+03  0.12500118737E+03 0.  0.
         25    2    1    2    0    0  0.30379134372E+01  0.20011127645E+01  0.28580205883E+03  0.31196362964E+03  0.12500102406E+03 0.  0.
          5    1    3    3  501    0  0.18140790185E+02 -0.53029863873E+02  0.30701548226E+03  0.31212473641E+03  0.47000000000E+01 0.  1.
         -5    1    3    3    0  501 -0.21178703622E+02  0.51028751109E+02  0.10919637276E+03  0.12246799072E+03  0.47000000000E+01 0.  1.
          5    1    4    4  502    0 -0.15949020781E+02 -0.20789100936E+02  0.21293029492E+01  0.26705465969E+02  0.47000000000E+01 0. -1.
         -5    1    4    4    0  502  0.18986934218E+02  0.22790213701E+02  0.28367275588E+03  0.28525816367E+03  0.47000000000E+01 0. -1.
<mgrwt>
<rscale>  0 0.25401350E+03</rscale>
<asrwt>0</asrwt>
<pdfrwt beam="1">  1       21 0.11142846E+00 0.25401350E+03</pdfrwt>
<pdfrwt beam="2">  1       21 0.34263423E-02 0.25401350E+03</pdfrwt>
<totfact> 0.31556003E+05</totfact>
</mgrwt>
</event>
<event>
 8    1  0.9691636E-006  0.3193112E+03  0.7546771E-02  0.1075967E+00
         21   -1    0    0  504  503  0.00000000000E+00  0.00000000000E+00  0.12995751488E+04  0.12995751488E+04  0.00000000000E+00 0. -1.
         21   -1    0    0  503  504 -0.00000000000E+00 -0.00000000000E+00 -0.19614028623E+02  0.19614028623E+02  0.00000000000E+00 0. -1.
         25    2    1    2    0    0  0.19089214313E+02 -0.56616922796E+01  0.23794092454E+03  0.26950916119E+03  0.12499140584E+03 0.  0.
         25    2    1    2    0    0 -0.19089214313E+02  0.56616922796E+01  0.10420201956E+04  0.10496800162E+04  0.12500238194E+03 0.  0.
          5    1    3    3  501    0 -0.13427364676E+02 -0.51766159433E+02  0.50497347492E+02  0.73702791591E+02  0.47000000000E+01 0.  1.
         -5    1    3    3    0  501  0.32516578990E+02  0.46104467154E+02  0.18744357705E+03  0.19580636960E+03  0.47000000000E+01 0.  1.
          5    1    4    4  502    0  0.12229600322E+02  0.22362447011E+02  0.44351786782E+02  0.51369379508E+02  0.47000000000E+01 0. -1.
         -5    1    4    4    0  502 -0.31318814635E+02 -0.16700754732E+02  0.99766840885E+03  0.99831063671E+03  0.47000000000E+01 0. -1.
<mgrwt>
<rscale>  0 0.31931116E+03</rscale>
<asrwt>0</asrwt>
<pdfrwt beam="1">  1       21 0.19993457E+00 0.31931116E+03</pdfrwt>
<pdfrwt beam="2">  1       21 0.30175439E-02 0.31931116E+03</pdfrwt>
<totfact> 0.79229938E+04</totfact>
</mgrwt>
</event>
<event>
 8    1  0.9691636E-006  0.2637865E+03  0.7546771E-02  0.1104889E+00
         21   -1    0    0  504  503  0.00000000000E+00  0.00000000000E+00  0.63413191803E+02  0.63413191803E+02  0.00000000000E+00 0. -1.
         21   -1    0    0  503  504 -0.00000000000E+00 -0.00000000000E+00 -0.27432503832E+03  0.27432503832E+03  0.00000000000E+00 0. -1.
         25    2    1    2    0    0 -0.26102043100E+02 -0.16267157854E+02 -0.14222928187E+03  0.19183367028E+03  0.12500020542E+03 0.  0.
         25    2    1    2    0    0  0.26102043100E+02  0.16267157854E+02 -0.68682564653E+02  0.14590455984E+03  0.12499963527E+03 0.  0.
          5    1    3    3  501    0  0.19989365810E+02  0.29435467459E+02 -0.51852735080E+00  0.35894015667E+02  0.47000000000E+01 0. -1.
         -5    1    3    3    0  501 -0.46091408910E+02 -0.45702625313E+02 -0.14171075452E+03  0.15593965462E+03  0.47000000000E+01 0. -1.
          5    1    4    4  502    0  0.70006243981E+02  0.20017143946E+02 -0.11980666114E+02  0.73940426078E+02  0.47000000000E+01 0.  1.
         -5    1    4    4    0  502 -0.43904200881E+02 -0.37499860926E+01 -0.56701898539E+02  0.71964133765E+02  0.47000000000E+01 0.  1.
<mgrwt>
<rscale>  0 0.26378648E+03</rscale>
<asrwt>0</asrwt>
<pdfrwt beam="1">  1       21 0.97558758E-02 0.26378648E+03</pdfrwt>
<pdfrwt beam="2">  1       21 0.42203851E-01 0.26378648E+03</pdfrwt>
<totfact> 0.45127406E+05</totfact>
</mgrwt>
</event>
<event>
 8    1  0.9691636E-006  0.3271832E+03  0.7546771E-02  0.1072390E+00
         21   -1    0    0  504  503  0.00000000000E+00  0.00000000000E+00  0.49003657511E+03  0.49003657511E+03  0.00000000000E+00 0.  1.
         21   -1    0    0  503  504 -0.00000000000E+00 -0.00000000000E+00 -0.54612681007E+02  0.54612681007E+02  0.00000000000E+00 0.  1.
         25    2    1    2    0    0  0.56119970996E+01 -0.15091656630E+01  0.42307383128E+02  0.13209518714E+03  0.12500180681E+03 0.  0.
         25    2    1    2    0    0 -0.56119970996E+01  0.15091656630E+01  0.39311651097E+03  0.41255406897E+03  0.12500598600E+03 0.  0.
          5    1    3    3  501    0 -0.22385476989E+02 -0.36270492282E+02  0.67992015247E+02  0.80384465712E+02  0.47000000000E+01 0.  1.
         -5    1    3    3    0  501  0.27997474088E+02  0.34761326619E+02 -0.25684632119E+02  0.51710721429E+02  0.47000000000E+01 0.  1.
          5    1    4    4  502    0 -0.60711290497E+02  0.14009752260E+01  0.12828226488E+03  0.14200793290E+03  0.47000000000E+01 0.  1.
         -5    1    4    4    0  502  0.55099293398E+02  0.10819043700E+00  0.26483424610E+03  0.27054613607E+03  0.47000000000E+01 0.  1.
<mgrwt>
<rscale>  0 0.32718320E+03</rscale>
<asrwt>0</asrwt>
<pdfrwt beam="1">  1       21 0.75390239E-01 0.32718320E+03</pdfrwt>
<pdfrwt beam="2">  1       21 0.84019512E-02 0.32718320E+03</pdfrwt>
<totfact> 0.16659446E+05</totfact>
</mgrwt>
</event>
<event>
 8    1  0.9691636E-006  0.3117197E+03  0.7546771E-02  0.1079525E+00
         21   -1    0    0  504  503  0.00000000000E+00  0.00000000000E+00  0.83828761532E+01  0.83828761532E+01  0.00000000000E+00 0. -1.
         21   -1    0    0  503  504 -0.00000000000E+00 -0.00000000000E+00 -0.28978468250E+04  0.28978468250E+04  0.00000000000E+00 0. -1.
         25    2    1    2    0    0 -0.69155774105E+02  0.51853563969E+02 -0.17671447206E+04  0.17736677026E+04  0.12500136890E+03 0.  0.
         25    2    1    2    0    0  0.69155774105E+02 -0.51853563969E+02 -0.11223192282E+04  0.11325619985E+04  0.12499966987E+03 0.  0.
          5    1    3    3  501    0 -0.49227499506E+02 -0.30593786797E+02 -0.10307752965E+04  0.10324142232E+04  0.47000000000E+01 0.  1.
         -5    1    3    3    0  501 -0.19928274599E+02  0.82447350766E+02 -0.73636942418E+03  0.74125347934E+03  0.47000000000E+01 0.  1.
          5    1    4    4  502    0  0.10556411680E+03 -0.34682961733E+02 -0.79409437050E+03  0.80184452972E+03  0.47000000000E+01 0. -1.
         -5    1    4    4    0  502 -0.36408342691E+02 -0.17170602236E+02 -0.32822485766E+03  0.33071746882E+03  0.47000000000E+01 0. -1.
<mgrwt>
<rscale>  0 0.31171969E+03</rscale>
<asrwt>0</asrwt>
<pdfrwt beam="1">  1       21 0.12896732E-02 0.31171969E+03</pdfrwt>
<pdfrwt beam="2">  1       21 0.44582260E+00 0.31171969E+03</pdfrwt>
<totfact> 0.98113878E+03</totfact>
</mgrwt>
</event>
<event>
 8    1  0.9691636E-006  0.7392216E+03  0.7546771E-02  0.9652413E-01
         21   -1    0    0  504  503  0.00000000000E+00  0.00000000000E+00  0.86039466543E+03  0.86039466543E+03  0.00000000000E+00 0.  1.
         21   -1    0    0  503  504 -0.00000000000E+00 -0.00000000000E+00 -0.15877848539E+03  0.15877848539E+03  0.00000000000E+00 0.  1.
         25    2    1    2    0    0 -0.30314455762E+03  0.16454948078E+03  0.41268190337E+03  0.55218162181E+03  0.12500014262E+03 0.  0.
         25    2    1    2    0    0  0.30314455762E+03 -0.16454948078E+03  0.28893427666E+03  0.46699152900E+03  0.12499966995E+03 0.  0.
          5    1    3    3  501    0 -0.26840424036E+03  0.11328286038E+03  0.27285129184E+03  0.39917885735E+03  0.47000000000E+01 0. -1.
         -5    1    3    3    0  501 -0.34740317266E+02  0.51266620398E+02  0.13983061153E+03  0.15300276446E+03  0.47000000000E+01 0. -1.
          5    1    4    4  502    0  0.26972347314E+03 -0.94874214505E+02  0.25225950605E+03  0.38132508039E+03  0.47000000000E+01 0.  1.
         -5    1    4    4    0  502  0.33421084479E+02 -0.69675266275E+02  0.36674770614E+02  0.85666448612E+02  0.47000000000E+01 0.  1.
<mgrwt>
<rscale>  0 0.73922165E+03</rscale>
<asrwt>0</asrwt>
<pdfrwt beam="1">  1       21 0.13236841E+00 0.73922165E+03</pdfrwt>
<pdfrwt beam="2">  1       21 0.24427460E-01 0.73922165E+03</pdfrwt>
<totfact> 0.53168868E+03</totfact>
</mgrwt>
</event>
<event>
 8    1  0.9691636E-006  0.3264680E+03  0.7546771E-02  0.1072710E+00
         21   -1    0    0  504  503  0.00000000000E+00  0.00000000000E+00  0.10414331095E+03  0.10414331095E+03  0.00000000000E+00 0.  1.
         21   -1    0    0  503  504 -0.00000000000E+00 -0.00000000000E+00 -0.25585262327E+03  0.25585262327E+03  0.00000000000E+00 0.  1.
         25    2    1    2    0    0  0.23564372855E+02  0.99542600400E+02 -0.10184123631E+03  0.19094827517E+03  0.12500238963E+03 0.  0.
         25    2    1    2    0    0 -0.23564372855E+02 -0.99542600400E+02 -0.49868076008E+02  0.16904765906E+03  0.12500510816E+03 0.  0.
          5    1    3    3  501    0  0.20523658436E+02  0.38864446516E+02  0.24602784827E+02  0.50587081155E+02  0.47000000000E+01 0.  1.
         -5    1    3    3    0  501  0.30407144190E+01  0.60678153884E+02 -0.12644402114E+03  0.14036119401E+03  0.47000000000E+01 0.  1.
          5    1    4    4  502    0  0.18613643177E+02 -0.58344595830E+02  0.31044778923E+02  0.68821710769E+02  0.47000000000E+01 0. -1.
         -5    1    4    4    0  502 -0.42178016031E+02 -0.41198004571E+02 -0.80912854931E+02  0.10022594829E+03  0.47000000000E+01 0. -1.
<mgrwt>
<rscale>  0 0.32646800E+03</rscale>
<asrwt>0</asrwt>
<pdfrwt beam="1">  1       21 0.16022048E-01 0.32646800E+03</pdfrwt>
<pdfrwt beam="2">  1       21 0.39361941E-01 0.32646800E+03</pdfrwt>
<totfact> 0.20916759E+05</totfact>
</mgrwt>
</event>
<event>
 8    1  0.9691636E-006  0.3859464E+03  0.7546771E-02  0.1048758E+00
         21   -1    0    0  504  503  0.00000000000E+00  0.00000000000E+00  0.93581917354E+02  0.93581917354E+02  0.00000000000E+00 0. -1.
         21   -1    0    0  503  504 -0.00000000000E+00 -0.00000000000E+00 -0.39792577520E+03  0.39792577520E+03  0.00000000000E+00 0. -1.
         25    2    1    2    0    0 -0.41505016298E+02 -0.97165587040E+02 -0.21989172589E+02  0.16514480434E+03  0.12500186002E+03 0.  0.
         25    2    1    2    0    0  0.41505016298E+02  0.97165587040E+02 -0.28235468525E+03  0.32636288821E+03  0.12499899532E+03 0.  0.
          5    1    3    3  501    0 -0.31170849714E+02 -0.12668073491E+03 -0.86712924292E+01  0.13083161614E+03  0.47000000000E+01 0. -1.
         -5    1    3    3    0  501 -0.10334166584E+02  0.29515147870E+02 -0.13317880160E+02  0.34313188204E+02  0.47000000000E+01 0. -1.
          5    1    4    4  502    0  0.34441946603E+02  0.93032516480E+02 -0.90769727282E+02  0.13454564355E+03  0.47000000000E+01 0. -1.
         -5    1    4    4    0  502  0.70630696947E+01  0.41330705602E+01 -0.19158495797E+03  0.19181724465E+03  0.47000000000E+01 0. -1.
<mgrwt>
<rscale>  0 0.38594641E+03</rscale>
<asrwt>0</asrwt>
<pdfrwt beam="1">  1       21 0.14397218E-01 0.38594641E+03</pdfrwt>
<pdfrwt beam="2">  1       21 0.61219350E-01 0.38594641E+03</pdfrwt>
<totfact> 0.99009086E+04</totfact>
</mgrwt>
</event>
<event>
 8    1  0.9691636E-006  0.3147244E+03  0.7546771E-02  0.1078103E+00
         21   -1    0    0  504  503  0.00000000000E+00  0.00000000000E+00  0.45764335417E+02  0.45764335417E+02  0.00000000000E+00 0.  1.
         21   -1    0    0  503  504 -0.00000000000E+00 -0.00000000000E+00 -0.54109512175E+03  0.54109512175E+03  0.00000000000E+00 0.  1.
         25    2    1    2    0    0  0.12204975964E+02 -0.19739210621E+02 -0.74746762482E+02  0.14747842823E+03  0.12499684163E+03 0.  0.
         25    2    1    2    0    0 -0.12204975964E+02  0.19739210621E+02 -0.42058402386E+03  0.43938102894E+03  0.12500467831E+03 0.  0.
          5    1    3    3  501    0  0.74351855947E+01 -0.68933915291E+02 -0.68256884396E+02  0.97407694407E+02  0.47000000000E+01 0. -1.
         -5    1    3    3    0  501  0.47697903692E+01  0.49194704670E+02 -0.64898780856E+01  0.50070733821E+02  0.47000000000E+01 0. -1.
          5    1    4    4  502    0 -0.53277530963E+02  0.51285516066E+02 -0.27414303037E+03  0.28398096866E+03  0.47000000000E+01 0.  1.
         -5    1    4    4    0  502  0.41072554999E+02 -0.31546305444E+02 -0.14644099349E+03  0.15540006028E+03  0.47000000000E+01 0.  1.
<mgrwt>
<rscale>  0 0.31472438E+03</rscale>
<asrwt>0</asrwt>
<pdfrwt beam="1">  1       21 0.70406671E-02 0.31472438E+03</pdfrwt>
<pdfrwt beam="2">  1       21 0.83245402E-01 0.31472438E+03</pdfrwt>
<totfact> 0.18167517E+05</totfact>
</mgrwt>
</event>
<event>
 8    1  0.9691636E-006  0.2698007E+03  0.7546771E-02  0.1101394E+00
         21   -1    0    0  504  503  0.00000000000E+00  0.00000000000E+00  0.41911064039E+02  0.41911064039E+02  0.00000000000E+00 0. -1.
         21   -1    0    0  503  504 -0.00000000000E+00 -0.00000000000E+00 -0.43420765547E+03  0.43420765547E+03  0.00000000000E+00 0. -1.
         25    2    1    2    0    0 -0.50640414405E+02  0.29339536075E+01 -0.19567947243E+03  0.23767211052E+03  0.12499806613E+03 0.  0.
         25    2    1    2    0    0  0.50640414405E+02 -0.29339536075E+01 -0.19661711900E+03  0.23844660898E+03  0.12500173678E+03 0.  0.
          5    1    3    3  501    0  0.26372856913E+02 -0.30795401375E+02 -0.11093196177E+03  0.11820268385E+03  0.47000000000E+01 0. -1.
         -5    1    3    3    0  501 -0.77013271317E+02  0.33729354982E+02 -0.84747510661E+02  0.11946942667E+03  0.47000000000E+01 0. -1.
          5    1    4    4  502    0  0.63938235147E+02  0.41697371029E+02 -0.70852649549E+02  0.10425428822E+03  0.47000000000E+01 0.  1.
         -5    1    4    4    0  502 -0.13297820742E+02 -0.44631324637E+02 -0.12576446945E+03  0.13419232076E+03  0.47000000000E+01 0.  1.
<mgrwt>
<rscale>  0 0.26980070E+03</rscale>
<asrwt>0</asrwt>
<pdfrwt beam="1">  1       21 0.64478558E-02 0.26980070E+03</pdfrwt>
<pdfrwt beam="2">  1       21 0.66801180E-01 0.26980070E+03</pdfrwt>
<totfact> 0.35127333E+05</totfact>
</mgrwt>
</event>
<event>
 8    1  0.9691636E-006  0.2603875E+03  0.7546771E-02  0.1106911E+00
         21   -1    0    0  504  503  0.00000000000E+00  0.00000000000E+00  0.17202797001E+03  0.17202797001E+03  0.00000000000E+00 0. -1.
         21   -1    0    0  503  504 -0.00000000000E+00 -0.00000000000E+00 -0.98532908968E+02  0.98532908968E+02  0.00000000000E+00 0. -1.
         25    2    1    2    0    0  0.19143044946E+02  0.25525980741E+02  0.18575310970E+02  0.13035073116E+03  0.12501295562E+03 0.  0.
         25    2    1    2    0    0 -0.19143044946E+02 -0.25525980741E+02  0.54919750068E+02  0.14021014782E+03  0.12499869896E+03 0.  0.
          5    1    3    3  501    0  0.65421478475E+02 -0.26081651581E+01 -0.13801223224E+02  0.67077090976E+02  0.47000000000E+01 0. -1.
         -5    1    3    3    0  501 -0.46278433529E+02  0.28134145899E+02  0.32376534195E+02  0.63273640182E+02  0.47000000000E+01 0. -1.
          5    1    4    4  502    0  0.47470301915E+01  0.26035468842E+01 -0.38757830791E+02  0.39415380243E+02  0.47000000000E+01 0. -1.
         -5    1    4    4    0  502 -0.23890075137E+02 -0.28129527625E+02  0.93677580860E+02  0.10079476757E+03  0.47000000000E+01 0. -1.
<mgrwt>
<rscale>  0 0.26038753E+03</rscale>
<asrwt>0</asrwt>
<pdfrwt beam="1">  1       21 0.26465841E-01 0.26038753E+03</pdfrwt>
<pdfrwt beam="2">  1       21 0.15158909E-01 0.26038753E+03</pdfrwt>
<totfact> 0.51597114E+05</totfact>
</mgrwt>
</event>
<event>
 8    1  0.9691636E-006  0.2933524E+03  0.7546771E-02  0.1088612E+00
         21   -1    0    0  504  503  0.00000000000E+00  0.00000000000E+00  0.74080784295E+03  0.74080784295E+03  0.00000000000E+00 0.  1.
         21   -1    0    0  503  504 -0.00000000000E+00 -0.00000000000E+00 -0.29041137990E+02  0.29041137990E+02  0.00000000000E+00 0.  1.
         25    2    1    2    0    0  0.17825276737E+02  0.73653798317E+02  0.32413219602E+03  0.35556955203E+03  0.12500161333E+03 0.  0.
         25    2    1    2    0    0 -0.17825276737E+02 -0.73653798317E+02  0.38763450894E+03  0.41427942891E+03  0.12499724077E+03 0.  0.
          5    1    3    3  501    0  0.20013111187E+01  0.82754826783E+02  0.32623183729E+03  0.33660313169E+03  0.47000000000E+01 0.  1.
         -5    1    3    3    0  501  0.15823965619E+02 -0.91010284653E+01 -0.20996412687E+01  0.18966420339E+02  0.47000000000E+01 0.  1.
          5    1    4    4  502    0 -0.46213515467E+02 -0.97919338879E+02  0.29585996814E+03  0.31508585606E+03  0.47000000000E+01 0.  1.
         -5    1    4    4    0  502  0.28388238730E+02  0.24265540561E+02  0.91774540798E+02  0.99193572854E+02  0.47000000000E+01 0.  1.
<mgrwt>
<rscale>  0 0.29335237E+03</rscale>
<asrwt>0</asrwt>
<pdfrwt beam="1">  1       21 0.11397042E+00 0.29335237E+03</pdfrwt>
<pdfrwt beam="2">  1       21 0.44678679E-02 0.29335237E+03</pdfrwt>
<totfact> 0.18879603E+05</totfact>
</mgrwt>
</event>
<event>
 8    1  0.9691636E-006  0.2797089E+03  0.7546771E-02  0.1095848E+00
         21   -1    0    0  504  503  0.00000000000E+00  0.00000000000E+00  0.21482885711E+03  0.21482885711E+03  0.00000000000E+00 0. -1.
         21   -1    0    0  503  504 -0.00000000000E+00 -0.00000000000E+00 -0.91045832260E+02  0.91045832260E+02  0.00000000000E+00 0. -1.
         25    2    1    2    0    0  0.34477896850E+02 -0.49317001252E+02  0.81367296574E+02  0.16081114804E+03  0.12497478304E+03 0.  0.
         25    2    1    2    0    0 -0.34477896850E+02  0.49317001252E+02  0.42415728279E+02  0.14506354134E+03  0.12499377999E+03 0.  0.
          5    1    3    3  501    0  0.43134379589E+02  0.16334811716E+02  0.82251959848E+02  0.94418619325E+02  0.47000000000E+01 0.  1.
         -5    1    3    3    0  501 -0.86564827390E+01 -0.65651812968E+02 -0.88466327442E+00  0.66392528710E+02  0.47000000000E+01 0.  1.
          5    1    4    4  502    0  0.68787689446E+01  0.68260658665E+02  0.64497194139E+02  0.94280501883E+02  0.47000000000E+01 0. -1.
         -5    1    4    4    0  502 -0.41356665795E+02 -0.18943657412E+02 -0.22081465860E+02  0.50783039455E+02  0.47000000000E+01 0. -1.
<mgrwt>
<rscale>  0 0.27970894E+03</rscale>
<asrwt>0</asrwt>
<pdfrwt beam="1">  1       21 0.33050593E-01 0.27970894E+03</pdfrwt>
<pdfrwt beam="2">  1       21 0.14007051E-01 0.27970894E+03</pdfrwt>
<totfact> 0.38432594E+05</totfact>
</mgrwt>
</event>
<event>
 8    1  0.9691636E-006  0.4119544E+03  0.7546771E-02  0.1039717E+00
         21   -1    0    0  504  503  0.00000000000E+00  0.00000000000E+00  0.22725490798E+03  0.22725490798E+03  0.00000000000E+00 0. -1.
         21   -1    0    0  503  504 -0.00000000000E+00 -0.00000000000E+00 -0.18669167841E+03  0.18669167841E+03  0.00000000000E+00 0. -1.
         25    2    1    2    0    0 -0.26793289861E+02 -0.16148844450E+03  0.18446921607E+02  0.20679708238E+03  0.12501338438E+03 0.  0.
         25    2    1    2    0    0  0.26793289861E+02  0.16148844450E+03  0.22116307965E+02  0.20714950401E+03  0.12500155137E+03 0.  0.
          5    1    3    3  501    0 -0.24100665752E+02 -0.10242906665E+03 -0.49690794534E+02  0.11646381776E+03  0.47000000000E+01 0. -1.
         -5    1    3    3    0  501 -0.26926241092E+01 -0.59059377850E+02  0.68137716141E+02  0.90333264623E+02  0.47000000000E+01 0. -1.
          5    1    4    4  502    0  0.60587461204E+01  0.15529623687E+03  0.57190647788E+02  0.16566982159E+03  0.47000000000E+01 0. -1.
         -5    1    4    4    0  502  0.20734543741E+02  0.61922076264E+01 -0.35074339823E+02  0.41479682418E+02  0.47000000000E+01 0. -1.
<mgrwt>
<rscale>  0 0.41195437E+03</rscale>
<asrwt>0</asrwt>
<pdfrwt beam="1">  1       21 0.34962294E-01 0.41195437E+03</pdfrwt>
<pdfrwt beam="2">  1       21 0.28721797E-01 0.41195437E+03</pdfrwt>
<totfact> 0.85757594E+04</totfact>
</mgrwt>
</event>
<event>
 8    1  0.9691636E-006  0.4147962E+03  0.7546771E-02  0.1038773E+00
         21   -1    0    0  504  503  0.00000000000E+00  0.00000000000E+00  0.20575166562E+03  0.20575166562E+03  0.00000000000E+00 0. -1.
         21   -1    0    0  503  504 -0.00000000000E+00 -0.00000000000E+00 -0.20905775119E+03  0.20905775119E+03  0.00000000000E+00 0. -1.
         25    2    1    2    0    0 -0.47219903360E+02 -0.50714349393E+02  0.14864842444E+03  0.20621439077E+03  0.12500542533E+03 0.  0.
         25    2    1    2    0    0  0.47219903360E+02  0.50714349393E+02 -0.15195451001E+03  0.20859502604E+03  0.12498018751E+03 0.  0.
          5    1    3    3  501    0 -0.34565682293E+02 -0.55347610803E+00 -0.12376341780E+02  0.37018327408E+02  0.47000000000E+01 0. -1.
         -5    1    3    3    0  501 -0.12654221067E+02 -0.50160873285E+02  0.16102476622E+03  0.16919606336E+03  0.47000000000E+01 0. -1.
          5    1    4    4  502    0  0.88742521858E+02  0.37433031742E+02 -0.84905752989E+02  0.12848168718E+03  0.47000000000E+01 0. -1.
         -5    1    4    4    0  502 -0.41522618498E+02  0.13281317651E+02 -0.67048757020E+02  0.80113338860E+02  0.47000000000E+01 0. -1.
<mgrwt>
<rscale>  0 0.41479624E+03</rscale>
<asrwt>0</asrwt>
<pdfrwt beam="1">  1       21 0.31654102E-01 0.41479624E+03</pdfrwt>
<pdfrwt beam="2">  1       21 0.32162731E-01 0.41479624E+03</pdfrwt>
<totfact> 0.83574048E+04</totfact>
</mgrwt>
</event>
<event>
 8    1  0.9691636E-006  0.5967660E+03  0.7546771E-02  0.9912138E-01
         21   -1    0    0  504  503  0.00000000000E+00  0.00000000000E+00  0.17325051088E+03  0.17325051088E+03  0.00000000000E+00 0.  1.
         21   -1    0    0  503  504 -0.00000000000E+00 -0.00000000000E+00 -0.51389406157E+03  0.51389406157E+03  0.00000000000E+00 0.  1.
         25    2    1    2    0    0 -0.13934112924E+03  0.61501988053E+01  0.97135394452E+02  0.21098195215E+03  0.12499729611E+03 0.  0.
         25    2    1    2    0    0  0.13934112924E+03 -0.61501988053E+01 -0.43777894514E+03  0.47616262031E+03  0.12500664351E+03 0.  0.
          5    1    3    3  501    0 -0.28736124851E+02  0.57483696424E+02  0.24280997642E+02  0.68860707755E+02  0.47000000000E+01 0.  1.
         -5    1    3    3    0  501 -0.11060500439E+03 -0.51333497619E+02  0.72854396810E+02  0.14212124439E+03  0.47000000000E+01 0.  1.
          5    1    4    4  502    0  0.14280932593E+03  0.32364241845E+02 -0.31611833859E+03  0.34841762544E+03  0.47000000000E+01 0.  1.
         -5    1    4    4    0  502 -0.34681966911E+01 -0.38514440650E+02 -0.12166060655E+03  0.12774499487E+03  0.47000000000E+01 0.  1.
<mgrwt>
<rscale>  0 0.59676598E+03</rscale>
<asrwt>0</asrwt>
<pdfrwt beam="1">  1       21 0.26653925E-01 0.59676598E+03</pdfrwt>
<pdfrwt beam="2">  1       21 0.79060624E-01 0.59676598E+03</pdfrwt>
<totfact> 0.16472527E+04</totfact>
</mgrwt>
</event>
<event>
 8    1  0.9691636E-006  0.2871172E+03  0.7546771E-02  0.1091864E+00
         21   -1    0    0  504  503  0.00000000000E+00  0.00000000000E+00  0.44271322917E+03  0.44271322917E+03  0.00000000000E+00 0.  1.
         21   -1    0    0  503  504 -0.00000000000E+00 -0.00000000000E+00 -0.46551746044E+02  0.46551746044E+02  0.00000000000E+00 0.  1.
         25    2    1    2    0    0 -0.31652711813E+02 -0.11019308428E+02  0.92241449339E+02  0.15893595243E+03  0.12501532976E+03 0.  0.
         25    2    1    2    0    0  0.31652711813E+02  0.11019308428E+02  0.30392003379E+03  0.33032902279E+03  0.12500622798E+03 0.  0.
          5    1    3    3  501    0  0.22972522353E+02 -0.54534538524E+02  0.39707788992E+02  0.71418143226E+02  0.47000000000E+01 0.  1.
         -5    1    3    3    0  501 -0.54625234166E+02  0.43515230096E+02  0.52533660347E+02  0.87517809202E+02  0.47000000000E+01 0.  1.
          5    1    4    4  502    0  0.60637578173E+02  0.30442721316E+00  0.28965314891E+03  0.29596966946E+03  0.47000000000E+01 0.  1.
         -5    1    4    4    0  502 -0.28984866360E+02  0.10714881215E+02  0.14266884875E+02  0.34359353332E+02  0.47000000000E+01 0.  1.
<mgrwt>
<rscale>  0 0.28711722E+03</rscale>
<asrwt>0</asrwt>
<pdfrwt beam="1">  1       21 0.68109725E-01 0.28711722E+03</pdfrwt>
<pdfrwt beam="2">  1       21 0.71618074E-02 0.28711722E+03</pdfrwt>
<totfact> 0.27933891E+05</totfact>
</mgrwt>
</event>
<event>
 8    1  0.9691636E-006  0.2681835E+03  0.7546771E-02  0.1102324E+00
         21   -1    0    0  504  503  0.00000000000E+00  0.00000000000E+00  0.83002713789E+03  0.83002713789E+03  0.00000000000E+00 0.  1.
         21   -1    0    0  503  504 -0.00000000000E+00 -0.00000000000E+00 -0.21662662243E+02  0.21662662243E+02  0.00000000000E+00 0.  1.
         25    2    1    2    0    0  0.45495825846E+02 -0.14792025486E+02  0.37816361348E+03  0.40115005390E+03  0.12499989197E+03 0.  0.
         25    2    1    2    0    0 -0.45495825846E+02  0.14792025486E+02  0.43020086217E+03  0.45053974624E+03  0.12499842776E+03 0.  0.
          5    1    3    3  501    0 -0.18325429148E+02 -0.46508950787E+02  0.24448624538E+03  0.24958869773E+03  0.47000000000E+01 0.  1.
         -5    1    3    3    0  501  0.63821254993E+02  0.31716925301E+02  0.13367736810E+03  0.15156135616E+03  0.47000000000E+01 0.  1.
          5    1    4    4  502    0 -0.51352662253E+02 -0.25357641328E+02  0.38639736919E+03  0.39064705658E+03  0.47000000000E+01 0.  1.
         -5    1    4    4    0  502  0.58568364072E+01  0.40149666814E+02  0.43803492978E+02  0.59892689663E+02  0.47000000000E+01 0.  1.
<mgrwt>
<rscale>  0 0.26818350E+03</rscale>
<asrwt>0</asrwt>
<pdfrwt beam="1">  1       21 0.12769646E+00 0.26818350E+03</pdfrwt>
<pdfrwt beam="2">  1       21 0.33327179E-02 0.26818350E+03</pdfrwt>
<totfact> 0.23441740E+05</totfact>
</mgrwt>
</event>
<event>
 8    1  0.9691636E-006  0.5544828E+03  0.7546771E-02  0.1000462E+00
         21   -1    0    0  504  503  0.00000000000E+00  0.00000000000E+00  0.32142523951E+03  0.32142523951E+03  0.00000000000E+00 0. -1.
         21   -1    0    0  503  504 -0.00000000000E+00 -0.00000000000E+00 -0.23913118704E+03  0.23913118704E+03  0.00000000000E+00 0. -1.
         25    2    1    2    0    0 -0.16456797016E+03 -0.18296879075E+03  0.67435936792E+02  0.28413597386E+03  0.12500180349E+03 0.  0.
         25    2    1    2    0    0  0.16456797016E+03  0.18296879075E+03  0.14858115672E+02  0.27642045269E+03  0.12500923115E+03 0.  0.
          5    1    3    3  501    0 -0.88497275761E+02 -0.14348864033E+02  0.97275599770E+01  0.90301567756E+02  0.47000000000E+01 0.  1.
         -5    1    3    3    0  501 -0.76070694402E+02 -0.16861992672E+03  0.57708376815E+02  0.19383440610E+03  0.47000000000E+01 0.  1.
          5    1    4    4  502    0  0.16107856163E+02  0.10837923032E+03  0.10206438217E+02  0.11014436879E+03  0.47000000000E+01 0. -1.
         -5    1    4    4    0  502  0.14846011400E+03  0.74589560431E+02  0.46516774552E+01  0.16627608390E+03  0.47000000000E+01 0. -1.
<mgrwt>
<rscale>  0 0.55448282E+03</rscale>
<asrwt>0</asrwt>
<pdfrwt beam="1">  1       21 0.49450037E-01 0.55448282E+03</pdfrwt>
<pdfrwt beam="2">  1       21 0.36789413E-01 0.55448282E+03</pdfrwt>
<totfact> 0.24672735E+04</totfact>
</mgrwt>
</event>
<event>
 8    1  0.9691636E-006  0.2824420E+03  0.7546771E-02  0.1094363E+00
         21   -1    0    0  504  503  0.00000000000E+00  0.00000000000E+00  0.57755897370E+02  0.57755897370E+02  0.00000000000E+00 0. -1.
         21   -1    0    0  503  504 -0.00000000000E+00 -0.00000000000E+00 -0.34530448312E+03  0.34530448312E+03  0.00000000000E+00 0. -1.
         25    2    1    2    0    0 -0.14729220223E+02 -0.55375501059E+02 -0.18969855363E+03  0.23429153246E+03  0.12499433942E+03 0.  0.
         25    2    1    2    0    0  0.14729220223E+02  0.55375501059E+02 -0.97850032125E+02  0.16876884804E+03  0.12499959694E+03 0.  0.
          5    1    3    3  501    0  0.26440863933E+02 -0.25468051237E+02  0.83819667280E+00  0.37020717078E+02  0.47000000000E+01 0.  1.
         -5    1    3    3    0  501 -0.41170084156E+02 -0.29907449822E+02 -0.19053675030E+03  0.19727081538E+03  0.47000000000E+01 0.  1.
          5    1    4    4  502    0  0.66590584890E+02  0.53234586338E+02 -0.59983350131E+02  0.10434711051E+03  0.47000000000E+01 0. -1.
         -5    1    4    4    0  502 -0.51861364667E+02  0.21409147211E+01 -0.37866681993E+02  0.64421737528E+02  0.47000000000E+01 0. -1.
<mgrwt>
<rscale>  0 0.28244200E+03</rscale>
<asrwt>0</asrwt>
<pdfrwt beam="1">  1       21 0.88855228E-02 0.28244200E+03</pdfrwt>
<pdfrwt beam="2">  1       21 0.53123766E-01 0.28244200E+03</pdfrwt>
<totfact> 0.32828787E+05</totfact>
</mgrwt>
</event>
<event>
 8    1  0.9691636E-006  0.4247433E+03  0.7546771E-02  0.1035533E+00
         21   -1    0    0  504  503  0.00000000000E+00  0.00000000000E+00  0.17845730785E+03  0.17845730785E+03  0.00000000000E+00 0.  1.
         21   -1    0    0  503  504 -0.00000000000E+00 -0.00000000000E+00 -0.25273115759E+03  0.25273115759E+03  0.00000000000E+00 0.  1.
         25    2    1    2    0    0  0.11235046842E+02 -0.14596445742E+03  0.53916735126E+02  0.19990922280E+03  0.12499933570E+03 0.  0.
         25    2    1    2    0    0 -0.11235046842E+02  0.14596445742E+03 -0.12819058486E+03  0.23127924263E+03  0.12500165166E+03 0.  0.
          5    1    3    3  501    0  0.69390905767E+01  0.21055011112E+02  0.18030026935E+02  0.28959218605E+02  0.47000000000E+01 0. -1.
         -5    1    3    3    0  501  0.42959562651E+01 -0.16701946853E+03  0.35886708191E+02  0.17095000420E+03  0.47000000000E+01 0. -1.
          5    1    4    4  502    0 -0.14508906144E+02  0.16226020892E+03 -0.13605363017E+03  0.21230064540E+03  0.47000000000E+01 0.  1.
         -5    1    4    4    0  502  0.32738593024E+01 -0.16295751494E+02  0.78630453074E+01  0.18978597235E+02  0.47000000000E+01 0.  1.
<mgrwt>
<rscale>  0 0.42474332E+03</rscale>
<asrwt>0</asrwt>
<pdfrwt beam="1">  1       21 0.27454971E-01 0.42474332E+03</pdfrwt>
<pdfrwt beam="2">  1       21 0.38881716E-01 0.42474332E+03</pdfrwt>
<totfact> 0.75307247E+04</totfact>
</mgrwt>
</event>
<event>
 8    1  0.9691636E-006  0.3628469E+03  0.7546771E-02  0.1057462E+00
         21   -1    0    0  504  503  0.00000000000E+00  0.00000000000E+00  0.46359563372E+03  0.46359563372E+03  0.00000000000E+00 0. -1.
         21   -1    0    0  503  504 -0.00000000000E+00 -0.00000000000E+00 -0.70998226649E+02  0.70998226649E+02  0.00000000000E+00 0. -1.
         25    2    1    2    0    0 -0.23263467814E+02  0.12926039854E+03  0.18713679235E+03  0.26056396971E+03  0.12499585472E+03 0.  0.
         25    2    1    2    0    0  0.23263467814E+02 -0.12926039854E+03  0.20546061472E+03  0.27402989066E+03  0.12501550786E+03 0.  0.
          5    1    3    3  501    0  0.12125867340E+02  0.14056283324E+03  0.16467100212E+03  0.21689531043E+03  0.47000000000E+01 0. -1.
         -5    1    3    3    0  501 -0.35389335154E+02 -0.11302434704E+02  0.22465790228E+02  0.43668659281E+02  0.47000000000E+01 0. -1.
          5    1    4    4  502    0 -0.15177098585E+02  0.19591535397E+02  0.15489039986E+02  0.29600218586E+02  0.47000000000E+01 0. -1.
         -5    1    4    4    0  502  0.38440566398E+02 -0.14885193393E+03  0.18997157474E+03  0.24442967207E+03  0.47000000000E+01 0. -1.
<mgrwt>
<rscale>  0 0.36284690E+03</rscale>
<asrwt>0</asrwt>
<pdfrwt beam="1">  1       21 0.71322403E-01 0.36284690E+03</pdfrwt>
<pdfrwt beam="2">  1       21 0.10922804E-01 0.36284690E+03</pdfrwt>
<totfact> 0.11727595E+05</totfact>
</mgrwt>
</event>
<event>
 8    1  0.9691636E-006  0.3283187E+03  0.7546771E-02  0.1071883E+00
         21   -1    0    0  504  503  0.00000000000E+00  0.00000000000E+00  0.25051331759E+02  0.25051331759E+02  0.00000000000E+00 0. -1.
         21   -1    0    0  503  504 -0.00000000000E+00 -0.00000000000E+00 -0.10757226475E+04  0.10757226475E+04  0.00000000000E+00 0. -1.
         25    2    1    2    0    0  0.17822859762E+02 -0.26174770131E+02 -0.18474247308E+03  0.22529553529E+03  0.12500209575E+03 0.  0.
         25    2    1    2    0    0 -0.17822859762E+02  0.26174770131E+02 -0.86592884269E+03  0.87547844399E+03  0.12500788926E+03 0.  0.
          5    1    3    3  501    0  0.52294919059E+02 -0.22903943306E+02 -0.26277532307E+02  0.63023391550E+02  0.47000000000E+01 0.  1.
         -5    1    3    3    0  501 -0.34472059296E+02 -0.32708268246E+01 -0.15846494077E+03  0.16227214374E+03  0.47000000000E+01 0.  1.
          5    1    4    4  502    0  0.12735907645E+02  0.46779100261E+02 -0.78407750679E+03  0.78558902374E+03  0.47000000000E+01 0.  1.
         -5    1    4    4    0  502 -0.30558767407E+02 -0.20604330130E+02 -0.81851335901E+02  0.89889420258E+02  0.47000000000E+01 0.  1.
<mgrwt>
<rscale>  0 0.32831866E+03</rscale>
<asrwt>0</asrwt>
<pdfrwt beam="1">  1       21 0.38540511E-02 0.32831866E+03</pdfrwt>
<pdfrwt beam="2">  1       21 0.16549579E+00 0.32831866E+03</pdfrwt>
<totfact> 0.90516645E+04</totfact>
</mgrwt>
</event>
<event>
 8    1  0.9691636E-006  0.4880732E+03  0.7546771E-02  0.1016940E+00
         21   -1    0    0  504  503  0.00000000000E+00  0.00000000000E+00  0.38356922145E+03  0.38356922145E+03  0.00000000000E+00 0. -1.
         21   -1    0    0  503  504 -0.00000000000E+00 -0.00000000000E+00 -0.15526235155E+03  0.15526235155E+03  0.00000000000E+00 0. -1.
         25    2    1    2    0    0 -0.50342660842E+01 -0.11572421449E+03 -0.78680415492E+02  0.18771082369E+03  0.12500923124E+03 0.  0.
         25    2    1    2    0    0  0.50342660842E+01  0.11572421449E+03  0.30698728539E+03  0.35112074931E+03  0.12500859792E+03 0.  0.
          5    1    3    3  501    0 -0.18784407913E+02 -0.14043214171E+03 -0.65357044321E+02  0.15610148509E+03  0.47000000000E+01 0.  1.
         -5    1    3    3    0  501  0.13750141829E+02  0.24707927214E+02 -0.13323371170E+02  0.31609338602E+02  0.47000000000E+01 0.  1.
          5    1    4    4  502    0 -0.81892776434E+00  0.20115373076E+02 -0.77639118305E+01  0.22083188257E+02  0.47000000000E+01 0.  1.
         -5    1    4    4    0  502  0.58531938485E+01  0.95608841418E+02  0.31475119722E+03  0.32903756106E+03  0.47000000000E+01 0.  1.
<mgrwt>
<rscale>  0 0.48807319E+03</rscale>
<asrwt>0</asrwt>
<pdfrwt beam="1">  1       21 0.59010649E-01 0.48807319E+03</pdfrwt>
<pdfrwt beam="2">  1       21 0.23886516E-01 0.48807319E+03</pdfrwt>
<totfact> 0.40336888E+04</totfact>
</mgrwt>
</event>
<event>
 8    1  0.9691636E-006  0.4950812E+03  0.7546771E-02  0.1015071E+00
         21   -1    0    0  504  503  0.00000000000E+00  0.00000000000E+00  0.76735320766E+03  0.76735320766E+03  0.00000000000E+00 0. -1.
         21   -1    0    0  503  504 -0.00000000000E+00 -0.00000000000E+00 -0.79854172183E+02  0.79854172183E+02  0.00000000000E+00 0. -1.
         25    2    1    2    0    0 -0.67548079128E+02 -0.12772026924E+03  0.74390990478E+02  0.20502240191E+03  0.12499982261E+03 0.  0.
         25    2    1    2    0    0  0.67548079128E+02  0.12772026924E+03  0.61310804500E+03  0.64218497794E+03  0.12499944349E+03 0.  0.
          5    1    3    3  501    0 -0.49449014996E+02 -0.97129203033E+02  0.10969323849E+03  0.15470612056E+03  0.47000000000E+01 0. -1.
         -5    1    3    3    0  501 -0.18099064131E+02 -0.30591066209E+02 -0.35302248017E+02  0.50316281354E+02  0.47000000000E+01 0. -1.
          5    1    4    4  502    0  0.76427171424E+02  0.82953614628E+02  0.56315798499E+03  0.57436175079E+03  0.47000000000E+01 0.  1.
         -5    1    4    4    0  502 -0.88790922964E+01  0.44766654615E+02  0.49950060007E+02  0.67823227143E+02  0.47000000000E+01 0.  1.
<mgrwt>
<rscale>  0 0.49508123E+03</rscale>
<asrwt>0</asrwt>
<pdfrwt beam="1">  1       21 0.11805433E+00 0.49508123E+03</pdfrwt>
<pdfrwt beam="2">  1       21 0.12285258E-01 0.49508123E+03</pdfrwt>
<totfact> 0.27682241E+04</totfact>
</mgrwt>
</event>
<event>
 8    1  0.9691636E-006  0.3191804E+03  0.7546771E-02  0.1076027E+00
         21   -1    0    0  504  503  0.00000000000E+00  0.00000000000E+00  0.71294528936E+02  0.71294528936E+02  0.00000000000E+00 0. -1.
         21   -1    0    0  503  504 -0.00000000000E+00 -0.00000000000E+00 -0.35723681917E+03  0.35723681917E+03  0.00000000000E+00 0. -1.
         25    2    1    2    0    0 -0.55279373405E+02 -0.74588079920E+02 -0.96054092739E+02  0.18295501749E+03  0.12500783536E+03 0.  0.
         25    2    1    2    0    0  0.55279373405E+02  0.74588079920E+02 -0.18988819750E+03  0.24557633062E+03  0.12502406097E+03 0.  0.
          5    1    3    3  501    0 -0.69963963358E+02  0.88459890378E+01 -0.39191780915E+02  0.80816417776E+02  0.47000000000E+01 0. -1.
         -5    1    3    3    0  501  0.14684589953E+02 -0.83434068958E+02 -0.56862311824E+02  0.10213859971E+03  0.47000000000E+01 0. -1.
          5    1    4    4  502    0 -0.25708464866E+02  0.14050391520E+02 -0.11735813460E+03  0.12105106536E+03  0.47000000000E+01 0. -1.
         -5    1    4    4    0  502  0.80987838271E+02  0.60537688400E+02 -0.72530062896E+02  0.12452526526E+03  0.47000000000E+01 0. -1.
<mgrwt>
<rscale>  0 0.31918039E+03</rscale>
<asrwt>0</asrwt>
<pdfrwt beam="1">  1       21 0.10968389E-01 0.31918039E+03</pdfrwt>
<pdfrwt beam="2">  1       21 0.54959510E-01 0.31918039E+03</pdfrwt>
<totfact> 0.20817264E+05</totfact>
</mgrwt>
</event>
<event>
 8    1  0.9691636E-006  0.2565115E+03  0.7546771E-02  0.1109258E+00
         21   -1    0    0  504  503  0.00000000000E+00  0.00000000000E+00  0.15955200027E+03  0.15955200027E+03  0.00000000000E+00 0.  1.
         21   -1    0    0  503  504 -0.00000000000E+00 -0.00000000000E+00 -0.10309825581E+03  0.10309825581E+03  0.00000000000E+00 0.  1.
         25    2    1    2    0    0  0.12082646063E+02  0.35018202052E+01  0.18049850588E+01  0.12564589873E+03  0.12500152326E+03 0.  0.
         25    2    1    2    0    0 -0.12082646063E+02 -0.35018202052E+01  0.54648759396E+02  0.13700435735E+03  0.12500181578E+03 0.  0.
          5    1    3    3  501    0 -0.14644089613E+02  0.20635870957E+02  0.56581633376E+02  0.62159953075E+02  0.47000000000E+01 0. -1.
         -5    1    3    3    0  501  0.26726735676E+02 -0.17134050752E+02 -0.54776648318E+02  0.63485945657E+02  0.47000000000E+01 0. -1.
          5    1    4    4  502    0  0.50559572971E+02 -0.28487234311E+01 -0.40612502301E+01  0.51019304166E+02  0.47000000000E+01 0.  1.
         -5    1    4    4    0  502 -0.62642219034E+02 -0.65309677410E+00  0.58710009626E+02  0.85985053184E+02  0.47000000000E+01 0.  1.
<mgrwt>
<rscale>  0 0.25651147E+03</rscale>
<asrwt>0</asrwt>
<pdfrwt beam="1">  1       21 0.24546462E-01 0.25651147E+03</pdfrwt>
<pdfrwt beam="2">  1       21 0.15861270E-01 0.25651147E+03</pdfrwt>
<totfact> 0.54920536E+05</totfact>
</mgrwt>
</event>
<event>
 8    1  0.9691636E-006  0.3011592E+03  0.7546771E-02  0.1084663E+00
         21   -1    0    0  504  503  0.00000000000E+00  0.00000000000E+00  0.31364265341E+03  0.31364265341E+03  0.00000000000E+00 0.  1.
         21   -1    0    0  503  504 -0.00000000000E+00 -0.00000000000E+00 -0.72293154900E+02  0.72293154900E+02  0.00000000000E+00 0.  1.
         25    2    1    2    0    0  0.65830174043E+02  0.32001832902E+02  0.17339467753E+03  0.22593509879E+03  0.12499290199E+03 0.  0.
         25    2    1    2    0    0 -0.65830174043E+02 -0.32001832902E+02  0.67954820979E+02  0.16000070952E+03  0.12499856090E+03 0.  0.
          5    1    3    3  501    0 -0.36046245093E+01  0.66101229641E+02  0.93180732572E+02  0.11439888461E+03  0.47000000000E+01 0. -1.
         -5    1    3    3    0  501  0.69434798553E+02 -0.34099396739E+02  0.80213944958E+02  0.11153621418E+03  0.47000000000E+01 0. -1.
          5    1    4    4  502    0 -0.57883968399E+02  0.62542321132E+01 -0.21524063388E+02  0.62249855596E+02  0.47000000000E+01 0.  1.
         -5    1    4    4    0  502 -0.79462056445E+01 -0.38256065015E+02  0.89478884367E+02  0.97750853920E+02  0.47000000000E+01 0.  1.
<mgrwt>
<rscale>  0 0.30115921E+03</rscale>
<asrwt>0</asrwt>
<pdfrwt beam="1">  1       21 0.48252715E-01 0.30115921E+03</pdfrwt>
<pdfrwt beam="2">  1       21 0.11122024E-01 0.30115921E+03</pdfrwt>
<totfact> 0.26850708E+05</totfact>
</mgrwt>
</event>
<event>
 8    1  0.9691636E-006  0.3220177E+03  0.7546771E-02  0.1074724E+00
         21   -1    0    0  504  503  0.00000000000E+00  0.00000000000E+00  0.14234800551E+04  0.14234800551E+04  0.00000000000E+00 0. -1.
         21   -1    0    0  503  504 -0.00000000000E+00 -0.00000000000E+00 -0.18211604834E+02  0.18211604834E+02  0.00000000000E+00 0. -1.
         25    2    1    2    0    0  0.91012346383E+02 -0.35897558451E+02  0.82339602642E+03  0.83855692454E+03  0.12499926988E+03 0.  0.
         25    2    1    2    0    0 -0.91012346383E+02  0.35897558451E+02  0.58187242380E+03  0.60313473535E+03  0.12499643799E+03 0.  0.
          5    1    3    3  501    0  0.13562014686E+02 -0.16183681379E+02  0.61396239501E+03  0.61434335048E+03  0.47000000000E+01 0.  1.
         -5    1    3    3    0  501  0.77450331697E+02 -0.19713877073E+02  0.20943363141E+03  0.22421357406E+03  0.47000000000E+01 0.  1.
          5    1    4    4  502    0  0.25289704759E+02 -0.69856680309E+01  0.19625921742E+03  0.19806094806E+03  0.47000000000E+01 0.  1.
         -5    1    4    4    0  502 -0.11630205114E+03  0.42883226482E+02  0.38561320638E+03  0.40507378729E+03  0.47000000000E+01 0.  1.
<mgrwt>
<rscale>  0 0.32201774E+03</rscale>
<asrwt>0</asrwt>
<pdfrwt beam="1">  1       21 0.21899684E+00 0.32201774E+03</pdfrwt>
<pdfrwt beam="2">  1       21 0.28017865E-02 0.32201774E+03</pdfrwt>
<totfact> 0.67544742E+04</totfact>
</mgrwt>
</event>
<event>
 8    1  0.9691636E-006  0.2792152E+03  0.7546771E-02  0.1096118E+00
         21   -1    0    0  504  503  0.00000000000E+00  0.00000000000E+00  0.72044369172E+02  0.72044369172E+02  0.00000000000E+00 0. -1.
         21   -1    0    0  503  504 -0.00000000000E+00 -0.00000000000E+00 -0.27053155624E+03  0.27053155624E+03  0.00000000000E+00 0. -1.
         25    2    1    2    0    0 -0.25531232366E+02  0.47803117923E+02 -0.61832515593E+02  0.14961222711E+03  0.12499430629E+03 0.  0.
         25    2    1    2    0    0  0.25531232366E+02 -0.47803117923E+02 -0.13665467147E+03  0.19296369830E+03  0.12499403073E+03 0.  0.
          5    1    3    3  501    0 -0.55920826356E+01 -0.42284035181E+02 -0.11593528450E+02  0.44448969857E+02  0.47000000000E+01 0.  1.
         -5    1    3    3    0  501 -0.19939149730E+02  0.90087153104E+02 -0.50238987142E+02  0.10516325725E+03  0.47000000000E+01 0.  1.
          5    1    4    4  502    0  0.27244146178E+02 -0.75312846248E+02 -0.14329524855E+03  0.16422510943E+03  0.47000000000E+01 0. -1.
         -5    1    4    4    0  502 -0.17129138125E+01  0.27509728326E+02  0.66405770780E+01  0.28738588870E+02  0.47000000000E+01 0. -1.
<mgrwt>
<rscale>  0 0.27921515E+03</rscale>
<asrwt>0</asrwt>
<pdfrwt beam="1">  1       21 0.11083749E-01 0.27921515E+03</pdfrwt>
<pdfrwt beam="2">  1       21 0.41620239E-01 0.27921515E+03</pdfrwt>
<totfact> 0.36869132E+05</totfact>
</mgrwt>
</event>
<event>
 8    1  0.9691636E-006  0.4547587E+03  0.7546771E-02  0.1026312E+00
         21   -1    0    0  504  503  0.00000000000E+00  0.00000000000E+00  0.45660092010E+03  0.45660092010E+03  0.00000000000E+00 0.  1.
         21   -1    0    0  503  504 -0.00000000000E+00 -0.00000000000E+00 -0.11323095644E+03  0.11323095644E+03  0.00000000000E+00 0.  1.
         25    2    1    2    0    0 -0.14294038183E+03 -0.12212256983E+03  0.20553566055E+03  0.30531333823E+03  0.12500180768E+03 0.  0.
         25    2    1    2    0    0  0.14294038183E+03  0.12212256983E+03  0.13783430311E+03  0.26451853831E+03  0.12500354866E+03 0.  0.
          5    1    3    3  501    0 -0.58661153729E+02 -0.10170257752E+03  0.51095527048E+02  0.12813035594E+03  0.47000000000E+01 0.  1.
         -5    1    3    3    0  501 -0.84279228098E+02 -0.20419992316E+02  0.15444013350E+03  0.17718298228E+03  0.47000000000E+01 0.  1.
          5    1    4    4  502    0  0.15896124929E+03  0.78930149070E+02  0.12264669376E+03  0.21578449597E+03  0.47000000000E+01 0. -1.
         -5    1    4    4    0  502 -0.16020867466E+02  0.43192420762E+02  0.15187609348E+02  0.48734042346E+02  0.47000000000E+01 0. -1.
<mgrwt>
<rscale>  0 0.45475866E+03</rscale>
<asrwt>0</asrwt>
<pdfrwt beam="1">  1       21 0.70246295E-01 0.45475866E+03</pdfrwt>
<pdfrwt beam="2">  1       21 0.17420147E-01 0.45475866E+03</pdfrwt>
<totfact> 0.50395122E+04</totfact>
</mgrwt>
</event>
<event>
 8    1  0.9691636E-006  0.2905606E+03  0.7546771E-02  0.1090057E+00
         21   -1    0    0  504  503  0.00000000000E+00  0.00000000000E+00  0.13883295760E+03  0.13883295760E+03  0.00000000000E+00 0. -1.
         21   -1    0    0  503  504 -0.00000000000E+00 -0.00000000000E+00 -0.15202710490E+03  0.15202710490E+03  0.00000000000E+00 0. -1.
         25    2    1    2    0    0 -0.58077664204E+02  0.40924757944E+02 -0.27451588194E+02  0.14637355525E+03  0.12499510826E+03 0.  0.
         25    2    1    2    0    0  0.58077664204E+02 -0.40924757944E+02  0.14257440891E+02  0.14448650725E+03  0.12500090105E+03 0.  0.
          5    1    3    3  501    0 -0.22047874067E+01 -0.17748953501E+02  0.37902787623E+02  0.42173424660E+02  0.47000000000E+01 0. -1.
         -5    1    3    3    0  501 -0.55872876798E+02  0.58673711446E+02 -0.65354375818E+02  0.10420013059E+03  0.47000000000E+01 0. -1.
          5    1    4    4  502    0  0.51302876204E+02  0.20444176534E+02  0.48568923975E+02  0.73695181912E+02  0.47000000000E+01 0. -1.
         -5    1    4    4    0  502  0.67747880007E+01 -0.61368934479E+02 -0.34311483084E+02  0.70791325337E+02  0.47000000000E+01 0. -1.
<mgrwt>
<rscale>  0 0.29056065E+03</rscale>
<asrwt>0</asrwt>
<pdfrwt beam="1">  1       21 0.21358917E-01 0.29056065E+03</pdfrwt>
<pdfrwt beam="2">  1       21 0.23388785E-01 0.29056065E+03</pdfrwt>
<totfact> 0.34342296E+05</totfact>
</mgrwt>
</event>
<event>
 8    1  0.9691636E-006  0.3560122E+03  0.7546771E-02  0.1060174E+00
         21   -1    0    0  504  503  0.00000000000E+00  0.00000000000E+00  0.88638754408E+02  0.88638754408E+02  0.00000000000E+00 0. -1.
         21   -1    0    0  503  504 -0.00000000000E+00 -0.00000000000E+00 -0.35747528383E+03  0.35747528383E+03  0.00000000000E+00 0. -1.
         25    2    1    2    0    0  0.12328796286E+03 -0.60804676758E+01 -0.98415810690E+02  0.20135662242E+03  0.12498769430E+03 0.  0.
         25    2    1    2    0    0 -0.12328796286E+03  0.60804676758E+01 -0.17042071874E+03  0.24475741582E+03  0.12500430933E+03 0.  0.
          5    1    3    3  501    0  0.56569086326E+02 -0.50049333843E+02 -0.15420357869E+01  0.75693231007E+02  0.47000000000E+01 0.  1.
         -5    1    3    3    0  501  0.66718876535E+02  0.43968866167E+02 -0.96873774903E+02  0.12566339142E+03  0.47000000000E+01 0.  1.
          5    1    4    4  502    0 -0.10502632153E+03  0.20866640207E+02 -0.18705530096E+03  0.21558692100E+03  0.47000000000E+01 0.  1.
         -5    1    4    4    0  502 -0.18261641332E+02 -0.14786172531E+02  0.16634582226E+02  0.29170494821E+02  0.47000000000E+01 0.  1.
<mgrwt>
<rscale>  0 0.35601216E+03</rscale>
<asrwt>0</asrwt>
<pdfrwt beam="1">  1       21 0.13636732E-01 0.35601216E+03</pdfrwt>
<pdfrwt beam="2">  1       21 0.54996196E-01 0.35601216E+03</pdfrwt>
<totfact> 0.13893209E+05</totfact>
</mgrwt>
</event>
<event>
 8    1  0.9691636E-006  0.2676442E+03  0.7546771E-02  0.1102636E+00
         21   -1    0    0  504  503  0.00000000000E+00  0.00000000000E+00  0.10231082348E+03  0.10231082348E+03  0.00000000000E+00 0. -1.
         21   -1    0    0  503  504 -0.00000000000E+00 -0.00000000000E+00 -0.17503864720E+03  0.17503864720E+03  0.00000000000E+00 0. -1.
         25    2    1    2    0    0  0.70727126069E+01  0.21041554473E+02 -0.80167004168E+02  0.15017115142E+03  0.12502742052E+03 0.  0.
         25    2    1    2    0    0 -0.70727126069E+01 -0.21041554473E+02  0.74391804445E+01  0.12717831926E+03  0.12500485272E+03 0.  0.
          5    1    3    3  501    0 -0.23199614777E+02 -0.26721968352E+02 -0.86013151197E+02  0.93126998755E+02  0.47000000000E+01 0. -1.
         -5    1    3    3    0  501  0.30272327384E+02  0.47763522825E+02  0.58461470293E+01  0.57044152662E+02  0.47000000000E+01 0. -1.
          5    1    4    4  502    0 -0.61396391054E+01 -0.56916463560E+02  0.46518178174E+02  0.73913529838E+02  0.47000000000E+01 0. -1.
         -5    1    4    4    0  502 -0.93307350152E+00  0.35874909087E+02 -0.39078997729E+02  0.53264789418E+02  0.47000000000E+01 0. -1.
<mgrwt>
<rscale>  0 0.26764415E+03</rscale>
<asrwt>0</asrwt>
<pdfrwt beam="1">  1       21 0.15740127E-01 0.26764415E+03</pdfrwt>
<pdfrwt beam="2">  1       21 0.26929022E-01 0.26764415E+03</pdfrwt>
<totfact> 0.46499501E+05</totfact>
</mgrwt>
</event>
<event>
 8    1  0.9691636E-006  0.2815363E+03  0.7546771E-02  0.1094853E+00
         21   -1    0    0  504  503  0.00000000000E+00  0.00000000000E+00  0.16644137025E+04  0.16644137025E+04  0.00000000000E+00 0. -1.
         21   -1    0    0  503  504 -0.00000000000E+00 -0.00000000000E+00 -0.11905497432E+02  0.11905497432E+02  0.00000000000E+00 0. -1.
         25    2    1    2    0    0 -0.41956960593E+02 -0.47357945791E+02  0.90723192790E+03  0.91798587460E+03  0.12500053361E+03 0.  0.
         25    2    1    2    0    0  0.41956960593E+02  0.47357945791E+02  0.74527627714E+03  0.75833332530E+03  0.12501816435E+03 0.  0.
          5    1    3    3  501    0  0.29551446533E+02  0.22629461204E+02  0.17834611636E+03  0.18224930104E+03  0.47000000000E+01 0.  1.
         -5    1    3    3    0  501 -0.71508407126E+02 -0.69987406996E+02  0.72888581154E+03  0.73573657357E+03  0.47000000000E+01 0.  1.
          5    1    4    4  502    0 -0.47179644724E+01 -0.24133010960E+02  0.35583647359E+02  0.43508014965E+02  0.47000000000E+01 0.  1.
         -5    1    4    4    0  502  0.46674925066E+02  0.71490956752E+02  0.70969262979E+03  0.71482531034E+03  0.47000000000E+01 0.  1.
<mgrwt>
<rscale>  0 0.28153631E+03</rscale>
<asrwt>0</asrwt>
<pdfrwt beam="1">  1       21 0.25606346E+00 0.28153631E+03</pdfrwt>
<pdfrwt beam="2">  1       21 0.18316163E-02 0.28153631E+03</pdfrwt>
<totfact> 0.82328596E+04</totfact>
</mgrwt>
</event>
<event>
 8    1  0.9691636E-006  0.2584815E+03  0.7546771E-02  0.1108059E+00
         21   -1    0    0  504  503  0.00000000000E+00  0.00000000000E+00  0.32828798523E+03  0.32828798523E+03  0.00000000000E+00 0.  1.
         21   -1    0    0  503  504 -0.00000000000E+00 -0.00000000000E+00 -0.50879619999E+02  0.50879619999E+02  0.00000000000E+00 0.  1.
         25    2    1    2    0    0 -0.26989264012E+02 -0.14030562040E+02  0.12062925294E+03  0.17635823561E+03  0.12500213422E+03 0.  0.
         25    2    1    2    0    0  0.26989264012E+02  0.14030562040E+02  0.15677911228E+03  0.20280936961E+03  0.12500669306E+03 0.  0.
          5    1    3    3  501    0  0.22394242878E+02  0.39086428972E+02  0.82909819898E+02  0.94474225477E+02  0.47000000000E+01 0.  1.
         -5    1    3    3    0  501 -0.49383506890E+02 -0.53116991013E+02  0.37719433046E+02  0.81884010138E+02  0.47000000000E+01 0.  1.
          5    1    4    4  502    0  0.50167229652E+01 -0.31481676617E+02 -0.55785112276E+01  0.32702802012E+02  0.47000000000E+01 0. -1.
         -5    1    4    4    0  502  0.21972541047E+02  0.45512238657E+02  0.16235762351E+03  0.17010656760E+03  0.47000000000E+01 0. -1.
<mgrwt>
<rscale>  0 0.25848147E+03</rscale>
<asrwt>0</asrwt>
<pdfrwt beam="1">  1       21 0.50505842E-01 0.25848147E+03</pdfrwt>
<pdfrwt beam="2">  1       21 0.78276341E-02 0.25848147E+03</pdfrwt>
<totfact> 0.45865111E+05</totfact>
</mgrwt>
</event>
<event>
 8    1  0.9691636E-006  0.2857237E+03  0.7546771E-02  0.1092603E+00
         21   -1    0    0  504  503  0.00000000000E+00  0.00000000000E+00  0.19512286772E+03  0.19512286772E+03  0.00000000000E+00 0. -1.
         21   -1    0    0  503  504 -0.00000000000E+00 -0.00000000000E+00 -0.10459823812E+03  0.10459823812E+03  0.00000000000E+00 0. -1.
         25    2    1    2    0    0  0.13730247875E+02  0.32340561135E+02 -0.17254240289E+02  0.13097898935E+03  0.12499342080E+03 0.  0.
         25    2    1    2    0    0 -0.13730247875E+02 -0.32340561135E+02  0.10777886989E+03  0.16874211649E+03  0.12499274172E+03 0.  0.
          5    1    3    3  501    0 -0.53061299349E+02  0.12544788840E+02  0.10711929556E+02  0.55764761727E+02  0.47000000000E+01 0.  1.
         -5    1    3    3    0  501  0.66791547225E+02  0.19795772295E+02 -0.27966169845E+02  0.75214227625E+02  0.47000000000E+01 0.  1.
          5    1    4    4  502    0 -0.61200868181E+02 -0.37036787006E+02  0.30725684531E+02  0.77996330347E+02  0.47000000000E+01 0. -1.
         -5    1    4    4    0  502  0.47470620305E+02  0.46962258706E+01  0.77053185354E+02  0.90745786144E+02  0.47000000000E+01 0. -1.
<mgrwt>
<rscale>  0 0.28572370E+03</rscale>
<asrwt>0</asrwt>
<pdfrwt beam="1">  1       21 0.30018903E-01 0.28572370E+03</pdfrwt>
<pdfrwt beam="2">  1       21 0.16092037E-01 0.28572370E+03</pdfrwt>
<totfact> 0.35986956E+05</totfact>
</mgrwt>
</event>
<event>
 8    1  0.9691636E-006  0.3022794E+03  0.7546771E-02  0.1084107E+00
         21   -1    0    0  504  503  0.00000000000E+00  0.00000000000E+00  0.13629481068E+04  0.13629481068E+04  0.00000000000E+00 0.  1.
         21   -1    0    0  503  504 -0.00000000000E+00 -0.00000000000E+00 -0.16760148329E+02  0.16760148329E+02  0.00000000000E+00 0.  1.
         25    2    1    2    0    0  0.99648086721E+01  0.73388357092E+02  0.86315613775E+03  0.87529938631E+03  0.12500139663E+03 0.  0.
         25    2    1    2    0    0 -0.99648086721E+01 -0.73388357092E+02  0.48303182076E+03  0.50440886886E+03  0.12499367485E+03 0.  0.
          5    1    3    3  501    0 -0.29103385655E+02 -0.24109229800E+02  0.16990255669E+03  0.17411843896E+03  0.47000000000E+01 0. -1.
         -5    1    3    3    0  501  0.39068194327E+02  0.97497586892E+02  0.69325358106E+03  0.70118094734E+03  0.47000000000E+01 0. -1.
          5    1    4    4  502    0 -0.62628985958E+02 -0.38423096222E+02  0.34124441844E+03  0.34909678790E+03  0.47000000000E+01 0. -1.
         -5    1    4    4    0  502  0.52664177286E+02 -0.34965260870E+02  0.14178740231E+03  0.15531208096E+03  0.47000000000E+01 0. -1.
<mgrwt>
<rscale>  0 0.30227942E+03</rscale>
<asrwt>0</asrwt>
<pdfrwt beam="1">  1       21 0.20968424E+00 0.30227942E+03</pdfrwt>
<pdfrwt beam="2">  1       21 0.25784854E-02 0.30227942E+03</pdfrwt>
<totfact> 0.89606380E+04</totfact>
</mgrwt>
</event>
<event>
 8    1  0.9691636E-006  0.3479251E+03  0.7546771E-02  0.1063470E+00
         21   -1    0    0  504  503  0.00000000000E+00  0.00000000000E+00  0.16960368246E+03  0.16960368246E+03  0.00000000000E+00 0.  1.
         21   -1    0    0  503  504 -0.00000000000E+00 -0.00000000000E+00 -0.17843348630E+03  0.17843348630E+03  0.00000000000E+00 0.  1.
         25    2    1    2    0    0  0.88042165283E+02 -0.26070061673E+02 -0.83196159191E+02  0.17600722768E+03  0.12500348918E+03 0.  0.
         25    2    1    2    0    0 -0.88042165283E+02  0.26070061673E+02  0.74366355351E+02  0.17202994109E+03  0.12503149539E+03 0.  0.
          5    1    3    3  501    0  0.77990498400E+02  0.35946627313E+02 -0.23363404185E+02  0.89121358332E+02  0.47000000000E+01 0.  1.
         -5    1    3    3    0  501  0.10051666883E+02 -0.62016688986E+02 -0.59832755006E+02  0.86885869343E+02  0.47000000000E+01 0.  1.
          5    1    4    4  502    0 -0.48550473250E+02  0.72421705650E+02  0.67907169893E+02  0.11061431022E+03  0.47000000000E+01 0.  1.
         -5    1    4    4    0  502 -0.39491692033E+02 -0.46351643976E+02  0.64591854583E+01  0.61415630875E+02  0.47000000000E+01 0.  1.
<mgrwt>
<rscale>  0 0.34792514E+03</rscale>
<asrwt>0</asrwt>
<pdfrwt beam="1">  1       21 0.26092874E-01 0.34792514E+03</pdfrwt>
<pdfrwt beam="2">  1       21 0.27451305E-01 0.34792514E+03</pdfrwt>
<totfact> 0.16959893E+05</totfact>
</mgrwt>
</event>
<event>
 8    1  0.9691636E-006  0.3210598E+03  0.7546771E-02  0.1075163E+00
         21   -1    0    0  504  503  0.00000000000E+00  0.00000000000E+00  0.14069960977E+04  0.14069960977E+04  0.00000000000E+00 0. -1.
         21   -1    0    0  503  504 -0.00000000000E+00 -0.00000000000E+00 -0.18315512410E+02  0.18315512410E+02  0.00000000000E+00 0. -1.
         25    2    1    2    0    0  0.57867950891E+02 -0.73815806398E+02  0.53132487962E+03  0.55383072232E+03  0.12499947307E+03 0.  0.
         25    2    1    2    0    0 -0.57867950891E+02  0.73815806398E+02  0.85735570571E+03  0.87148088783E+03  0.12499063454E+03 0.  0.
          5    1    3    3  501    0 -0.29662146887E+02 -0.42732599839E+02  0.29994695583E+03  0.30446048079E+03  0.47000000000E+01 0.  1.
         -5    1    3    3    0  501  0.87530097778E+02 -0.31083206559E+02  0.23137792379E+03  0.24937024154E+03  0.47000000000E+01 0.  1.
          5    1    4    4  502    0 -0.90734641255E+01  0.19898810648E+01  0.71198025329E+00  0.10434763714E+02  0.47000000000E+01 0. -1.
         -5    1    4    4    0  502 -0.48794486765E+02  0.71825925333E+02  0.85664372546E+03  0.86104612411E+03  0.47000000000E+01 0. -1.
<mgrwt>
<rscale>  0 0.32105984E+03</rscale>
<asrwt>0</asrwt>
<pdfrwt beam="1">  1       21 0.21646085E+00 0.32105984E+03</pdfrwt>
<pdfrwt beam="2">  1       21 0.28177723E-02 0.32105984E+03</pdfrwt>
<totfact> 0.69452075E+04</totfact>
</mgrwt>
</event>
<event>
 8    1  0.9691636E-006  0.2774753E+03  0.7546771E-02  0.1097076E+00
         21   -1    0    0  504  503  0.00000000000E+00  0.00000000000E+00  0.47461192566E+02  0.47461192566E+02  0.00000000000E+00 0.  1.
         21   -1    0    0  503  504 -0.00000000000E+00 -0.00000000000E+00 -0.40555537739E+03  0.40555537739E+03  0.00000000000E+00 0.  1.
         25    2    1    2    0    0 -0.78112830955E+01 -0.56090990841E+02 -0.14575763862E+03  0.20019421965E+03  0.12500088387E+03 0.  0.
         25    2    1    2    0    0  0.78112830955E+01  0.56090990841E+02 -0.21233654620E+03  0.25282235030E+03  0.12500046625E+03 0.  0.
          5    1    3    3  501    0  0.12989477093E+02  0.18088496859E+02 -0.11479824740E+03  0.11703267851E+03  0.47000000000E+01 0.  1.
         -5    1    3    3    0  501 -0.20800760188E+02 -0.74179487700E+02 -0.30959391219E+02  0.83161541139E+02  0.47000000000E+01 0.  1.
          5    1    4    4  502    0 -0.62007736783E+01  0.28939683045E+02  0.74442448919E+01  0.30878174023E+02  0.47000000000E+01 0.  1.
         -5    1    4    4    0  502  0.14012056774E+02  0.27151307796E+02 -0.21978079110E+03  0.22194417628E+03  0.47000000000E+01 0.  1.
<mgrwt>
<rscale>  0 0.27747535E+03</rscale>
<asrwt>0</asrwt>
<pdfrwt beam="1">  1       21 0.73017220E-02 0.27747535E+03</pdfrwt>
<pdfrwt beam="2">  1       21 0.62393135E-01 0.27747535E+03</pdfrwt>
<totfact> 0.32815458E+05</totfact>
</mgrwt>
</event>
<event>
 8    1  0.9691636E-006  0.3496129E+03  0.7546771E-02  0.1062774E+00
         21   -1    0    0  504  503  0.00000000000E+00  0.00000000000E+00  0.21831314335E+03  0.21831314335E+03  0.00000000000E+00 0. -1.
         21   -1    0    0  503  504 -0.00000000000E+00 -0.00000000000E+00 -0.13997004405E+03  0.13997004405E+03  0.00000000000E+00 0. -1.
         25    2    1    2    0    0 -0.97080131092E+02 -0.86057835607E+00  0.11523205097E+03  0.19577141217E+03  0.12499091088E+03 0.  0.
         25    2    1    2    0    0  0.97080131092E+02  0.86057835607E+00 -0.36888951665E+02  0.16251177523E+03  0.12499595948E+03 0.  0.
          5    1    3    3  501    0 -0.92523415617E+02  0.18979068494E+02  0.17929701341E+02  0.96251502162E+02  0.47000000000E+01 0. -1.
         -5    1    3    3    0  501 -0.45567154750E+01 -0.19839646850E+02  0.97302349633E+02  0.99519910003E+02  0.47000000000E+01 0. -1.
          5    1    4    4  502    0  0.12117957216E+03 -0.15671556919E+02 -0.10281621165E+02  0.12271058690E+03  0.47000000000E+01 0. -1.
         -5    1    4    4    0  502 -0.24099441064E+02  0.16532135275E+02 -0.26607330500E+02  0.39801188332E+02  0.47000000000E+01 0. -1.
<mgrwt>
<rscale>  0 0.34961293E+03</rscale>
<asrwt>0</asrwt>
<pdfrwt beam="1">  1       21 0.33586638E-01 0.34961293E+03</pdfrwt>
<pdfrwt beam="2">  1       21 0.21533853E-01 0.34961293E+03</pdfrwt>
<totfact> 0.16460671E+05</totfact>
</mgrwt>
</event>
<event>
 8    1  0.9691636E-006  0.3420565E+03  0.7546771E-02  0.1065923E+00
         21   -1    0    0  504  503  0.00000000000E+00  0.00000000000E+00  0.43821446060E+03  0.43821446060E+03  0.00000000000E+00 0.  1.
         21   -1    0    0  503  504 -0.00000000000E+00 -0.00000000000E+00 -0.66749658855E+02  0.66749658855E+02  0.00000000000E+00 0.  1.
         25    2    1    2    0    0  0.45195180105E+01  0.10018554539E+03  0.97524784638E+02  0.18759172924E+03  0.12498801427E+03 0.  0.
         25    2    1    2    0    0 -0.45195180105E+01 -0.10018554539E+03  0.27394001711E+03  0.31737239022E+03  0.12499812619E+03 0.  0.
          5    1    3    3  501    0 -0.53249058298E+02  0.14295067546E+02  0.45545640734E+02  0.71668030220E+02  0.47000000000E+01 0.  1.
         -5    1    3    3    0  501  0.57768576309E+02  0.85890477843E+02  0.51979143905E+02  0.11592369902E+03  0.47000000000E+01 0.  1.
          5    1    4    4  502    0 -0.18046009870E+02  0.21562208836E+02  0.18344224388E+02  0.33899673900E+02  0.47000000000E+01 0. -1.
         -5    1    4    4    0  502  0.13526491859E+02 -0.12174775423E+03  0.25559579272E+03  0.28347271632E+03  0.47000000000E+01 0. -1.
<mgrwt>
<rscale>  0 0.34205652E+03</rscale>
<asrwt>0</asrwt>
<pdfrwt beam="1">  1       21 0.67417608E-01 0.34205652E+03</pdfrwt>
<pdfrwt beam="2">  1       21 0.10269179E-01 0.34205652E+03</pdfrwt>
<totfact> 0.14929428E+05</totfact>
</mgrwt>
</event>
<event>
 8    1  0.9691636E-006  0.3232242E+03  0.7546771E-02  0.1074175E+00
         21   -1    0    0  504  503  0.00000000000E+00  0.00000000000E+00  0.79133979361E+01  0.79133979361E+01  0.00000000000E+00 0. -1.
         21   -1    0    0  503  504 -0.00000000000E+00 -0.00000000000E+00 -0.33005378404E+04  0.33005378404E+04  0.00000000000E+00 0. -1.
         25    2    1    2    0    0  0.58434379019E+02 -0.53184843888E+02 -0.23135799085E+04  0.23183008942E+04  0.12499535497E+03 0.  0.
         25    2    1    2    0    0 -0.58434379019E+02  0.53184843888E+02 -0.97904453390E+03  0.99015034408E+03  0.12500520083E+03 0.  0.
          5    1    3    3  501    0  0.53316376905E+02 -0.60546278143E+02 -0.69397543532E+03  0.69866478562E+03  0.47000000000E+01 0. -1.
         -5    1    3    3    0  501  0.51180021136E+01  0.73614342547E+01 -0.16196044732E+04  0.16196361086E+04  0.47000000000E+01 0. -1.
          5    1    4    4  502    0  0.17920990856E+02 -0.70790561197E+01 -0.54304474946E+03  0.54340681342E+03  0.47000000000E+01 0.  1.
         -5    1    4    4    0  502 -0.76355369875E+02  0.60263900008E+02 -0.43599978444E+03  0.44674353066E+03  0.47000000000E+01 0.  1.
<mgrwt>
<rscale>  0 0.32322419E+03</rscale>
<asrwt>0</asrwt>
<pdfrwt beam="1">  1       21 0.12174463E-02 0.32322419E+03</pdfrwt>
<pdfrwt beam="2">  1       21 0.50777484E+00 0.32322419E+03</pdfrwt>
<totfact> 0.39730413E+03</totfact>
</mgrwt>
</event>
<event>
 8    1  0.9691636E-006  0.2982638E+03  0.7546771E-02  0.1086112E+00
         21   -1    0    0  504  503  0.00000000000E+00  0.00000000000E+00  0.49460677662E+03  0.49460677662E+03  0.00000000000E+00 0. -1.
         21   -1    0    0  503  504 -0.00000000000E+00 -0.00000000000E+00 -0.44965661599E+02  0.44965661599E+02  0.00000000000E+00 0. -1.
         25    2    1    2    0    0  0.55150007168E+02  0.34502499975E+02  0.31311760724E+03  0.34336561283E+03  0.12500144926E+03 0.  0.
         25    2    1    2    0    0 -0.55150007168E+02 -0.34502499975E+02  0.13652350779E+03  0.19620682539E+03  0.12500601729E+03 0.  0.
          5    1    3    3  501    0  0.69439215621E+02 -0.24043924456E+02  0.11791476383E+03  0.13901761219E+03  0.47000000000E+01 0. -1.
         -5    1    3    3    0  501 -0.14289208454E+02  0.58546424431E+02  0.19520284341E+03  0.20434800064E+03  0.47000000000E+01 0. -1.
          5    1    4    4  502    0 -0.26320953278E+00 -0.29094135916E+02  0.13772308264E+03  0.14084131324E+03  0.47000000000E+01 0. -1.
         -5    1    4    4    0  502 -0.54886797635E+02 -0.54083640589E+01 -0.11995748486E+01  0.55365512155E+02  0.47000000000E+01 0. -1.
<mgrwt>
<rscale>  0 0.29826378E+03</rscale>
<asrwt>0</asrwt>
<pdfrwt beam="1">  1       21 0.76093346E-01 0.29826378E+03</pdfrwt>
<pdfrwt beam="2">  1       21 0.69177944E-02 0.29826378E+03</pdfrwt>
<totfact> 0.23092202E+05</totfact>
</mgrwt>
</event>
<event>
 8    1  0.9691636E-006  0.2977373E+03  0.7546771E-02  0.1086377E+00
         21   -1    0    0  504  503  0.00000000000E+00  0.00000000000E+00  0.17718143648E+02  0.17718143648E+02  0.00000000000E+00 0.  1.
         21   -1    0    0  503  504 -0.00000000000E+00 -0.00000000000E+00 -0.12508008133E+04  0.12508008133E+04  0.00000000000E+00 0.  1.
         25    2    1    2    0    0 -0.17781117675E+02  0.46284114738E+02 -0.34446410696E+03  0.36978377416E+03  0.12500452483E+03 0.  0.
         25    2    1    2    0    0  0.17781117675E+02 -0.46284114738E+02 -0.88861856265E+03  0.89873518275E+03  0.12499436543E+03 0.  0.
          5    1    3    3  501    0 -0.62289715941E+02  0.92477206430E+01 -0.25800604226E+03  0.26562141648E+03  0.47000000000E+01 0. -1.
         -5    1    3    3    0  501  0.44508598266E+02  0.37036394095E+02 -0.86458064701E+02  0.10416235769E+03  0.47000000000E+01 0. -1.
          5    1    4    4  502    0  0.23875656732E+02  0.39549096195E+02 -0.38588782877E+03  0.38867169229E+03  0.47000000000E+01 0.  1.
         -5    1    4    4    0  502 -0.60945390575E+01 -0.85833210933E+02 -0.50273073389E+03  0.51006349046E+03  0.47000000000E+01 0.  1.
<mgrwt>
<rscale>  0 0.29773726E+03</rscale>
<asrwt>0</asrwt>
<pdfrwt beam="1">  1       21 0.27258682E-02 0.29773726E+03</pdfrwt>
<pdfrwt beam="2">  1       21 0.19243090E+00 0.29773726E+03</pdfrwt>
<totfact> 0.10612838E+05</totfact>
</mgrwt>
</event>
<event>
 8    1  0.9691636E-006  0.2772715E+03  0.7546771E-02  0.1097189E+00
         21   -1    0    0  504  503  0.00000000000E+00  0.00000000000E+00  0.34154640398E+03  0.34154640398E+03  0.00000000000E+00 0.  1.
         21   -1    0    0  503  504 -0.00000000000E+00 -0.00000000000E+00 -0.56273096440E+02  0.56273096440E+02  0.00000000000E+00 0.  1.
         25    2    1    2    0    0  0.47553198303E+02 -0.36449076864E+02  0.13983793899E+03  0.19689910737E+03  0.12499906972E+03 0.  0.
         25    2    1    2    0    0 -0.47553198303E+02  0.36449076864E+02  0.14543536855E+03  0.20092039305E+03  0.12501086370E+03 0.  0.
          5    1    3    3  501    0  0.90169060492E+02 -0.24492918478E+02  0.86348441992E+02  0.12731263080E+03  0.47000000000E+01 0.  1.
         -5    1    3    3    0  501 -0.42615862190E+02 -0.11956158386E+02  0.53489496997E+02  0.69586476577E+02  0.47000000000E+01 0.  1.
          5    1    4    4  502    0 -0.88550921952E+02  0.39501781233E+02  0.10648425495E+03  0.14409248090E+03  0.47000000000E+01 0. -1.
         -5    1    4    4    0  502  0.40997723650E+02 -0.30527043685E+01  0.38951113601E+02  0.56827912149E+02  0.47000000000E+01 0. -1.
<mgrwt>
<rscale>  0 0.27727152E+03</rscale>
<asrwt>0</asrwt>
<pdfrwt beam="1">  1       21 0.52545599E-01 0.27727152E+03</pdfrwt>
<pdfrwt beam="2">  1       21 0.86573997E-02 0.27727152E+03</pdfrwt>
<totfact> 0.35215064E+05</totfact>
</mgrwt>
</event>
<event>
 8    1  0.9691636E-006  0.3372565E+03  0.7546771E-02  0.1067970E+00
         21   -1    0    0  504  503  0.00000000000E+00  0.00000000000E+00  0.26273546210E+03  0.26273546210E+03  0.00000000000E+00 0.  1.
         21   -1    0    0  503  504 -0.00000000000E+00 -0.00000000000E+00 -0.10822857518E+03  0.10822857518E+03  0.00000000000E+00 0.  1.
         25    2    1    2    0    0 -0.67244148777E+02  0.61951569931E+02  0.39018298067E+01  0.15494055217E+03  0.12502630871E+03 0.  0.
         25    2    1    2    0    0  0.67244148777E+02 -0.61951569931E+02  0.15060505711E+03  0.21602348511E+03  0.12499796130E+03 0.  0.
          5    1    3    3  501    0 -0.61129862954E+02  0.19205700763E+01 -0.45858083294E+02  0.76587221764E+02  0.47000000000E+01 0.  1.
         -5    1    3    3    0  501 -0.61142858227E+01  0.60030999855E+02  0.49759913101E+02  0.78353330411E+02  0.47000000000E+01 0.  1.
          5    1    4    4  502    0 -0.48166378836E+00 -0.58557181450E+02  0.13361366936E+03  0.14595848087E+03  0.47000000000E+01 0. -1.
         -5    1    4    4    0  502  0.67725812565E+02 -0.33943884807E+01  0.16991387750E+02  0.70065004235E+02  0.47000000000E+01 0. -1.
<mgrwt>
<rscale>  0 0.33725649E+03</rscale>
<asrwt>0</asrwt>
<pdfrwt beam="1">  1       21 0.40420840E-01 0.33725649E+03</pdfrwt>
<pdfrwt beam="2">  1       21 0.16650550E-01 0.33725649E+03</pdfrwt>
<totfact> 0.18404693E+05</totfact>
</mgrwt>
</event>
<event>
 8    1  0.9691636E-006  0.2539326E+03  0.7546771E-02  0.1110844E+00
         21   -1    0    0  504  503  0.00000000000E+00  0.00000000000E+00  0.22878667996E+02  0.22878667996E+02  0.00000000000E+00 0. -1.
         21   -1    0    0  503  504 -0.00000000000E+00 -0.00000000000E+00 -0.70460562954E+03  0.70460562954E+03  0.00000000000E+00 0. -1.
         25    2    1    2    0    0  0.46007672176E+00 -0.19587627505E+02 -0.37114005496E+03  0.39211469916E+03  0.12500044030E+03 0.  0.
         25    2    1    2    0    0 -0.46007672176E+00  0.19587627505E+02 -0.31058690658E+03  0.33536959838E+03  0.12499861661E+03 0.  0.
          5    1    3    3  501    0  0.33507004060E+02  0.42555865657E+02 -0.13115050419E+03  0.14197276419E+03  0.47000000000E+01 0. -1.
         -5    1    3    3    0  501 -0.33046927338E+02 -0.62143493162E+02 -0.23998955078E+03  0.25014193497E+03  0.47000000000E+01 0. -1.
          5    1    4    4  502    0  0.62331279294E+01 -0.37043015055E+02 -0.28099442758E+02  0.47145578069E+02  0.47000000000E+01 0.  1.
         -5    1    4    4    0  502 -0.66932046512E+01  0.56630642560E+02 -0.28248746383E+03  0.28822402031E+03  0.47000000000E+01 0.  1.
<mgrwt>
<rscale>  0 0.25393258E+03</rscale>
<asrwt>0</asrwt>
<pdfrwt beam="1">  1       21 0.35197961E-02 0.25393258E+03</pdfrwt>
<pdfrwt beam="2">  1       21 0.10840083E+00 0.25393258E+03</pdfrwt>
<totfact> 0.32263006E+05</totfact>
</mgrwt>
</event>
<event>
 8    1  0.9691636E-006  0.2963855E+03  0.7546771E-02  0.1087062E+00
         21   -1    0    0  504  503  0.00000000000E+00  0.00000000000E+00  0.53773927329E+03  0.53773927329E+03  0.00000000000E+00 0. -1.
         21   -1    0    0  503  504 -0.00000000000E+00 -0.00000000000E+00 -0.40839661182E+02  0.40839661182E+02  0.00000000000E+00 0. -1.
         25    2    1    2    0    0  0.59666664316E+02 -0.51090825282E+02  0.27263144416E+03  0.31003946502E+03  0.12500472898E+03 0.  0.
         25    2    1    2    0    0 -0.59666664316E+02  0.51090825282E+02  0.22426816795E+03  0.26853946946E+03  0.12508737842E+03 0.  0.
          5    1    3    3  501    0  0.28881007540E+02 -0.47279859987E+02  0.25930177473E+02  0.61351135773E+02  0.47000000000E+01 0.  1.
         -5    1    3    3    0  501  0.30785656776E+02 -0.38109652950E+01  0.24670126668E+03  0.24868832924E+03  0.47000000000E+01 0.  1.
          5    1    4    4  502    0 -0.17270976873E+02  0.28863297469E+02  0.21729991386E+03  0.21993798932E+03  0.47000000000E+01 0. -1.
         -5    1    4    4    0  502 -0.42395687443E+02  0.22227527813E+02  0.69682540966E+01  0.48601480138E+02  0.47000000000E+01 0. -1.
<mgrwt>
<rscale>  0 0.29638549E+03</rscale>
<asrwt>0</asrwt>
<pdfrwt beam="1">  1       21 0.82729114E-01 0.29638549E+03</pdfrwt>
<pdfrwt beam="2">  1       21 0.62830252E-02 0.29638549E+03</pdfrwt>
<totfact> 0.22562670E+05</totfact>
</mgrwt>
</event>
<event>
 8    1  0.9691636E-006  0.4676706E+03  0.7546771E-02  0.1022580E+00
         21   -1    0    0  504  503  0.00000000000E+00  0.00000000000E+00  0.47343271846E+02  0.47343271846E+02  0.00000000000E+00 0. -1.
         21   -1    0    0  503  504 -0.00000000000E+00 -0.00000000000E+00 -0.11549467173E+04  0.11549467173E+04  0.00000000000E+00 0. -1.
         25    2    1    2    0    0  0.19196076917E+03 -0.38258716148E+02 -0.62377539888E+03  0.66560688102E+03  0.12499642216E+03 0.  0.
         25    2    1    2    0    0 -0.19196076917E+03  0.38258716148E+02 -0.48382804659E+03  0.53668310814E+03  0.12500605439E+03 0.  0.
          5    1    3    3  501    0  0.76955034523E+02 -0.78612089011E+02 -0.30842971128E+03  0.32749490786E+03  0.47000000000E+01 0. -1.
         -5    1    3    3    0  501  0.11500573465E+03  0.40353372863E+02 -0.31534568760E+03  0.33811197315E+03  0.47000000000E+01 0. -1.
          5    1    4    4  502    0 -0.75183319326E+02  0.76429865048E+02 -0.26071749544E+03  0.28193928106E+03  0.47000000000E+01 0.  1.
         -5    1    4    4    0  502 -0.11677744985E+03 -0.38171148900E+02 -0.22311055114E+03  0.25474382707E+03  0.47000000000E+01 0.  1.
<mgrwt>
<rscale>  0 0.46767064E+03</rscale>
<asrwt>0</asrwt>
<pdfrwt beam="1">  1       21 0.72835801E-02 0.46767064E+03</pdfrwt>
<pdfrwt beam="2">  1       21 0.17768412E+00 0.46767064E+03</pdfrwt>
<totfact> 0.23603721E+04</totfact>
</mgrwt>
</event>
<event>
 8    1  0.9691636E-006  0.3508495E+03  0.7546771E-02  0.1062267E+00
         21   -1    0    0  504  503  0.00000000000E+00  0.00000000000E+00  0.10888068891E+04  0.10888068891E+04  0.00000000000E+00 0.  1.
         21   -1    0    0  503  504 -0.00000000000E+00 -0.00000000000E+00 -0.28263815535E+02  0.28263815535E+02  0.00000000000E+00 0.  1.
         25    2    1    2    0    0 -0.11984061440E+03 -0.95795497272E+01  0.61423080886E+03  0.63824602375E+03  0.12499983859E+03 0.  0.
         25    2    1    2    0    0  0.11984061440E+03  0.95795497272E+01  0.44631226472E+03  0.47882468090E+03  0.12499958707E+03 0.  0.
          5    1    3    3  501    0 -0.10523497449E+03 -0.54621454499E+01  0.61333009883E+03  0.62233442377E+03  0.47000000000E+01 0.  1.
         -5    1    3    3    0  501 -0.14605639910E+02 -0.41174042773E+01  0.90071003278E+00  0.15911599974E+02  0.47000000000E+01 0.  1.
          5    1    4    4  502    0  0.86245664511E+02 -0.40401888425E+02  0.16042126562E+03  0.18662180928E+03  0.47000000000E+01 0. -1.
         -5    1    4    4    0  502  0.33594949889E+02  0.49981438152E+02  0.28589099910E+03  0.29220287163E+03  0.47000000000E+01 0. -1.
<mgrwt>
<rscale>  0 0.35084947E+03</rscale>
<asrwt>0</asrwt>
<pdfrwt beam="1">  1       21 0.16750872E+00 0.35084947E+03</pdfrwt>
<pdfrwt beam="2">  1       21 0.43482802E-02 0.35084947E+03</pdfrwt>
<totfact> 0.70777467E+04</totfact>
</mgrwt>
</event>
<event>
 8    1  0.9691636E-006  0.2874586E+03  0.7546771E-02  0.1091684E+00
         21   -1    0    0  504  503  0.00000000000E+00  0.00000000000E+00  0.30341415988E+03  0.30341415988E+03  0.00000000000E+00 0.  1.
         21   -1    0    0  503  504 -0.00000000000E+00 -0.00000000000E+00 -0.68085520878E+02  0.68085520878E+02  0.00000000000E+00 0.  1.
         25    2    1    2    0    0 -0.18338933319E+02 -0.52991768593E+02  0.17383443254E+03  0.22133076293E+03  0.12499781066E+03 0.  0.
         25    2    1    2    0    0  0.18338933319E+02  0.52991768593E+02  0.61494206458E+02  0.15016891782E+03  0.12499888975E+03 0.  0.
          5    1    3    3  501    0 -0.32483529057E+02 -0.58508360263E+02  0.24910817904E+02  0.71561489150E+02  0.47000000000E+01 0.  1.
         -5    1    3    3    0  501  0.14144595739E+02  0.55165916704E+01  0.14892361464E+03  0.14976927378E+03  0.47000000000E+01 0.  1.
          5    1    4    4  502    0  0.11928038378E+02  0.93858932277E+02  0.35941397700E+02  0.10131955061E+03  0.47000000000E+01 0. -1.
         -5    1    4    4    0  502  0.64108949413E+01 -0.40867163684E+02  0.25552808758E+02  0.48849367211E+02  0.47000000000E+01 0. -1.
<mgrwt>
<rscale>  0 0.28745860E+03</rscale>
<asrwt>0</asrwt>
<pdfrwt beam="1">  1       21 0.46679101E-01 0.28745860E+03</pdfrwt>
<pdfrwt beam="2">  1       21 0.10474696E-01 0.28745860E+03</pdfrwt>
<totfact> 0.32132699E+05</totfact>
</mgrwt>
</event>
<event>
 8    1  0.9691636E-006  0.2594043E+03  0.7546771E-02  0.1107502E+00
         21   -1    0    0  504  503  0.00000000000E+00  0.00000000000E+00  0.33581299847E+02  0.33581299847E+02  0.00000000000E+00 0.  1.
         21   -1    0    0  503  504 -0.00000000000E+00 -0.00000000000E+00 -0.50095282112E+03  0.50095282112E+03  0.00000000000E+00 0.  1.
         25    2    1    2    0    0  0.24659386045E+02 -0.68508557163E+01 -0.28182566720E+03  0.30936314554E+03  0.12499931833E+03 0.  0.
         25    2    1    2    0    0 -0.24659386045E+02  0.68508557163E+01 -0.18554585408E+03  0.22517097543E+03  0.12497873686E+03 0.  0.
          5    1    3    3  501    0  0.34961156607E+02 -0.61706817498E+02 -0.14387513252E+03  0.16047478791E+03  0.47000000000E+01 0.  1.
         -5    1    3    3    0  501 -0.10301770561E+02  0.54855961782E+02 -0.13795053467E+03  0.14888835762E+03  0.47000000000E+01 0.  1.
          5    1    4    4  502    0 -0.15625828163E+02  0.19226046190E+02 -0.20119639686E+03  0.20277052909E+03  0.47000000000E+01 0. -1.
         -5    1    4    4    0  502 -0.90335578820E+01 -0.12375190474E+02  0.15650542777E+02  0.22400446346E+02  0.47000000000E+01 0. -1.
<mgrwt>
<rscale>  0 0.25940429E+03</rscale>
<asrwt>0</asrwt>
<pdfrwt beam="1">  1       21 0.51663539E-02 0.25940429E+03</pdfrwt>
<pdfrwt beam="2">  1       21 0.77069664E-01 0.25940429E+03</pdfrwt>
<totfact> 0.37450054E+05</totfact>
</mgrwt>
</event>
<event>
 8    1  0.9691636E-006  0.2652382E+03  0.7546771E-02  0.1104036E+00
         21   -1    0    0  504  503  0.00000000000E+00  0.00000000000E+00  0.79472530982E+02  0.79472530982E+02  0.00000000000E+00 0.  1.
         21   -1    0    0  503  504 -0.00000000000E+00 -0.00000000000E+00 -0.22130698324E+03  0.22130698324E+03  0.00000000000E+00 0.  1.
         25    2    1    2    0    0  0.20224076112E+02  0.37403006012E+02 -0.56823692707E+02  0.14374339592E+03  0.12500093481E+03 0.  0.
         25    2    1    2    0    0 -0.20224076112E+02 -0.37403006012E+02 -0.85010759550E+02  0.15703611830E+03  0.12500206038E+03 0.  0.
          5    1    3    3  501    0 -0.14953709818E+02 -0.37491421568E+02  0.41569715078E+01  0.40848384799E+02  0.47000000000E+01 0.  1.
         -5    1    3    3    0  501  0.35177785930E+02  0.74894427581E+02 -0.60980664215E+02  0.10289501112E+03  0.47000000000E+01 0.  1.
          5    1    4    4  502    0  0.42768018674E+02 -0.26041501515E+02 -0.77540097455E+02  0.92421966739E+02  0.47000000000E+01 0. -1.
         -5    1    4    4    0  502 -0.62992094786E+02 -0.11361504497E+02 -0.74706620942E+01  0.64614151562E+02  0.47000000000E+01 0. -1.
<mgrwt>
<rscale>  0 0.26523820E+03</rscale>
<asrwt>0</asrwt>
<pdfrwt beam="1">  1       21 0.12226544E-01 0.26523820E+03</pdfrwt>
<pdfrwt beam="2">  1       21 0.34047227E-01 0.26523820E+03</pdfrwt>
<totfact> 0.46487755E+05</totfact>
</mgrwt>
</event>
<event>
 8    1  0.9691636E-006  0.2967704E+03  0.7546771E-02  0.1086866E+00
         21   -1    0    0  504  503  0.00000000000E+00  0.00000000000E+00  0.97507445608E+03  0.97507445608E+03  0.00000000000E+00 0.  1.
         21   -1    0    0  503  504 -0.00000000000E+00 -0.00000000000E+00 -0.22581006009E+02  0.22581006009E+02  0.00000000000E+00 0.  1.
         25    2    1    2    0    0 -0.59235745645E+02  0.34951107779E+02  0.61329961741E+03  0.62967767414E+03  0.12500839609E+03 0.  0.
         25    2    1    2    0    0  0.59235745645E+02 -0.34951107779E+02  0.33919383266E+03  0.36797778795E+03  0.12499897126E+03 0.  0.
          5    1    3    3  501    0 -0.14519204392E+02 -0.13687183389E+02  0.10100868576E+02  0.22853092379E+02  0.47000000000E+01 0. -1.
         -5    1    3    3    0  501 -0.44716541253E+02  0.48638291168E+02  0.60319874884E+03  0.60682458176E+03  0.47000000000E+01 0. -1.
          5    1    4    4  502    0  0.86411965099E+00 -0.56428778287E+02  0.26530348906E+03  0.27128027026E+03  0.47000000000E+01 0. -1.
         -5    1    4    4    0  502  0.58371625994E+02  0.21477670508E+02  0.73890343598E+02  0.96697517697E+02  0.47000000000E+01 0. -1.
<mgrwt>
<rscale>  0 0.29677036E+03</rscale>
<asrwt>0</asrwt>
<pdfrwt beam="1">  1       21 0.15001142E+00 0.29677036E+03</pdfrwt>
<pdfrwt beam="2">  1       21 0.34740017E-02 0.29677036E+03</pdfrwt>
<totfact> 0.14245934E+05</totfact>
</mgrwt>
</event>
<event>
 8    1  0.9691636E-006  0.4954518E+03  0.7546771E-02  0.1014973E+00
         21   -1    0    0  504  503  0.00000000000E+00  0.00000000000E+00  0.21680297842E+03  0.21680297842E+03  0.00000000000E+00 0. -1.
         21   -1    0    0  503  504 -0.00000000000E+00 -0.00000000000E+00 -0.28305943976E+03  0.28305943976E+03  0.00000000000E+00 0. -1.
         25    2    1    2    0    0 -0.12441886509E+03  0.16856960568E+03 -0.76505542852E+02  0.25567988689E+03  0.12499336192E+03 0.  0.
         25    2    1    2    0    0  0.12441886509E+03 -0.16856960568E+03  0.10249081509E+02  0.24418253129E+03  0.12499719584E+03 0.  0.
          5    1    3    3  501    0  0.14343557137E+02 -0.81454875342E+00 -0.27298262258E+02  0.31203945957E+02  0.47000000000E+01 0.  1.
         -5    1    3    3    0  501 -0.13876242222E+03  0.16938415443E+03 -0.49207280594E+02  0.22447594093E+03  0.47000000000E+01 0.  1.
          5    1    4    4  502    0  0.11688365989E+03 -0.93688365034E+02  0.51198418595E+02  0.15837508566E+03  0.47000000000E+01 0. -1.
         -5    1    4    4    0  502  0.75352051968E+01 -0.74881240644E+02 -0.40949337086E+02  0.85807445630E+02  0.47000000000E+01 0. -1.
<mgrwt>
<rscale>  0 0.49545183E+03</rscale>
<asrwt>0</asrwt>
<pdfrwt beam="1">  1       21 0.33354305E-01 0.49545183E+03</pdfrwt>
<pdfrwt beam="2">  1       21 0.43547606E-01 0.49545183E+03</pdfrwt>
<totfact> 0.39846459E+04</totfact>
</mgrwt>
</event>
<event>
 8    1  0.9691636E-006  0.2573990E+03  0.7546771E-02  0.1108716E+00
         21   -1    0    0  504  503  0.00000000000E+00  0.00000000000E+00  0.87173826422E+02  0.87173826422E+02  0.00000000000E+00 0. -1.
         21   -1    0    0  503  504 -0.00000000000E+00 -0.00000000000E+00 -0.19000609226E+03  0.19000609226E+03  0.00000000000E+00 0. -1.
         25    2    1    2    0    0  0.23450574255E+02 -0.17299014742E+02 -0.61507211504E+02  0.14232612947E+03  0.12499761885E+03 0.  0.
         25    2    1    2    0    0 -0.23450574255E+02  0.17299014742E+02 -0.41325054331E+02  0.13485378921E+03  0.12501439519E+03 0.  0.
          5    1    3    3  501    0  0.20142775086E+02  0.39342720992E+02  0.15043504063E+02  0.46925239453E+02  0.47000000000E+01 0.  1.
         -5    1    3    3    0  501  0.33077991692E+01 -0.56641735734E+02 -0.76550715567E+02  0.95400890017E+02  0.47000000000E+01 0.  1.
          5    1    4    4  502    0 -0.30241392445E+02  0.49014209427E+02 -0.70375493946E+02  0.91058962716E+02  0.47000000000E+01 0.  1.
         -5    1    4    4    0  502  0.67908181901E+01 -0.31715194684E+02  0.29050439615E+02  0.43794826491E+02  0.47000000000E+01 0.  1.
<mgrwt>
<rscale>  0 0.25739898E+03</rscale>
<asrwt>0</asrwt>
<pdfrwt beam="1">  1       21 0.13411358E-01 0.25739898E+03</pdfrwt>
<pdfrwt beam="2">  1       21 0.29231706E-01 0.25739898E+03</pdfrwt>
<totfact> 0.53209057E+05</totfact>
</mgrwt>
</event>
<event>
 8    1  0.9691636E-006  0.2973937E+03  0.7546771E-02  0.1086551E+00
         21   -1    0    0  504  503  0.00000000000E+00  0.00000000000E+00  0.12617775234E+03  0.12617775234E+03  0.00000000000E+00 0. -1.
         21   -1    0    0  503  504 -0.00000000000E+00 -0.00000000000E+00 -0.17523499717E+03  0.17523499717E+03  0.00000000000E+00 0. -1.
         25    2    1    2    0    0 -0.48722162287E+02 -0.61955149553E+02 -0.77618664889E+01  0.14798002693E+03  0.12500220856E+03 0.  0.
         25    2    1    2    0    0  0.48722162287E+02  0.61955149553E+02 -0.41295378333E+02  0.15343272258E+03  0.12499600966E+03 0.  0.
          5    1    3    3  501    0 -0.84267949589E+02 -0.70597064987E+02  0.11430884474E+01  0.11003830953E+03  0.47000000000E+01 0. -1.
         -5    1    3    3    0  501  0.35545787302E+02  0.86419154333E+01 -0.89049549363E+01  0.37941717405E+02  0.47000000000E+01 0. -1.
          5    1    4    4  502    0  0.48819886994E+02  0.29322874203E+01 -0.71663643711E+02  0.86889283031E+02  0.47000000000E+01 0.  1.
         -5    1    4    4    0  502 -0.97724707303E-01  0.59022862133E+02  0.30368265379E+02  0.66543439546E+02  0.47000000000E+01 0.  1.
<mgrwt>
<rscale>  0 0.29739373E+03</rscale>
<asrwt>0</asrwt>
<pdfrwt beam="1">  1       21 0.19411962E-01 0.29739373E+03</pdfrwt>
<pdfrwt beam="2">  1       21 0.26959230E-01 0.29739373E+03</pdfrwt>
<totfact> 0.31237650E+05</totfact>
</mgrwt>
</event>
<event>
 8    1  0.9691636E-006  0.2969175E+03  0.7546771E-02  0.1086792E+00
         21   -1    0    0  504  503  0.00000000000E+00  0.00000000000E+00  0.53781621813E+03  0.53781621813E+03  0.00000000000E+00 0. -1.
         21   -1    0    0  503  504 -0.00000000000E+00 -0.00000000000E+00 -0.40980542480E+02  0.40980542480E+02  0.00000000000E+00 0. -1.
         25    2    1    2    0    0  0.60084359726E+01 -0.70285697487E+02  0.32236220104E+03  0.35287109786E+03  0.12499776987E+03 0.  0.
         25    2    1    2    0    0 -0.60084359726E+01  0.70285697487E+02  0.17447347461E+03  0.22592566274E+03  0.12500092468E+03 0.  0.
          5    1    3    3  501    0  0.42863445386E+02 -0.12076190535E+02  0.24547216998E+03  0.24952311629E+03  0.47000000000E+01 0. -1.
         -5    1    3    3    0  501 -0.36855009413E+02 -0.58209506952E+02  0.76890031054E+02  0.10334798157E+03  0.47000000000E+01 0. -1.
          5    1    4    4  502    0  0.32951429809E+02  0.55622439062E+02  0.17217218017E+03  0.18397011191E+03  0.47000000000E+01 0.  1.
         -5    1    4    4    0  502 -0.38959865782E+02  0.14663258425E+02  0.23012944394E+01  0.41955550830E+02  0.47000000000E+01 0.  1.
<mgrwt>
<rscale>  0 0.29691750E+03</rscale>
<asrwt>0</asrwt>
<pdfrwt beam="1">  1       21 0.82740952E-01 0.29691750E+03</pdfrwt>
<pdfrwt beam="2">  1       21 0.63046992E-02 0.29691750E+03</pdfrwt>
<totfact> 0.22418267E+05</totfact>
</mgrwt>
</event>
<event>
 8    1  0.9691636E-006  0.3435519E+03  0.7546771E-02  0.1065293E+00
         21   -1    0    0  504  503  0.00000000000E+00  0.00000000000E+00  0.71683712570E+02  0.71683712570E+02  0.00000000000E+00 0.  1.
         21   -1    0    0  503  504 -0.00000000000E+00 -0.00000000000E+00 -0.41162725990E+03  0.41162725990E+03  0.00000000000E+00 0.  1.
         25    2    1    2    0    0 -0.91846634862E+02  0.21806678662E+01 -0.27377335270E+03  0.31466906606E+03  0.12499685132E+03 0.  0.
         25    2    1    2    0    0  0.91846634862E+02 -0.21806678662E+01 -0.66170194632E+02  0.16864190641E+03  0.12498415216E+03 0.  0.
          5    1    3    3  501    0 -0.27624730361E+02 -0.14990513321E+02 -0.23586868179E+03  0.23799992913E+03  0.47000000000E+01 0.  1.
         -5    1    3    3    0  501 -0.64221904502E+02  0.17171181187E+02 -0.37904670913E+02  0.76669136934E+02  0.47000000000E+01 0.  1.
          5    1    4    4  502    0  0.42073589625E+02  0.15187281639E+02  0.33303599899E+02  0.55964812461E+02  0.47000000000E+01 0.  1.
         -5    1    4    4    0  502  0.49773045237E+02 -0.17367949506E+02 -0.99473794531E+02  0.11267709395E+03  0.47000000000E+01 0.  1.
<mgrwt>
<rscale>  0 0.34355186E+03</rscale>
<asrwt>0</asrwt>
<pdfrwt beam="1">  1       21 0.11028264E-01 0.34355186E+03</pdfrwt>
<pdfrwt beam="2">  1       21 0.63327269E-01 0.34355186E+03</pdfrwt>
<totfact> 0.15077533E+05</totfact>
</mgrwt>
</event>
<event>
 8    1  0.9691636E-006  0.2662222E+03  0.7546771E-02  0.1103461E+00
         21   -1    0    0  504  503  0.00000000000E+00  0.00000000000E+00  0.28394565839E+03  0.28394565839E+03  0.00000000000E+00 0. -1.
         21   -1    0    0  503  504 -0.00000000000E+00 -0.00000000000E+00 -0.62401235136E+02  0.62401235136E+02  0.00000000000E+00 0. -1.
         25    2    1    2    0    0 -0.14027888571E+02  0.31831279951E+02  0.14940157387E+03  0.19789035584E+03  0.12501900104E+03 0.  0.
         25    2    1    2    0    0  0.14027888571E+02 -0.31831279951E+02  0.72142849389E+02  0.14845653769E+03  0.12499896329E+03 0.  0.
          5    1    3    3  501    0  0.10644572847E+02 -0.43580934319E+02  0.82378091220E+02  0.93919352001E+02  0.47000000000E+01 0.  1.
         -5    1    3    3    0  501 -0.24672461418E+02  0.75412214270E+02  0.67023482647E+02  0.10397100384E+03  0.47000000000E+01 0.  1.
          5    1    4    4  502    0 -0.47420861663E+02 -0.45978156602E+02  0.31858683750E+02  0.73483295623E+02  0.47000000000E+01 0. -1.
         -5    1    4    4    0  502  0.61448750234E+02  0.14146876652E+02  0.40284165639E+02  0.74973242064E+02  0.47000000000E+01 0. -1.
<mgrwt>
<rscale>  0 0.26622216E+03</rscale>
<asrwt>0</asrwt>
<pdfrwt beam="1">  1       21 0.43683947E-01 0.26622216E+03</pdfrwt>
<pdfrwt beam="2">  1       21 0.96001902E-02 0.26622216E+03</pdfrwt>
<totfact> 0.43238315E+05</totfact>
</mgrwt>
</event>
<event>
 8    1  0.9691636E-006  0.3319398E+03  0.7546771E-02  0.1070282E+00
         21   -1    0    0  504  503  0.00000000000E+00  0.00000000000E+00  0.26624581344E+03  0.26624581344E+03  0.00000000000E+00 0. -1.
         21   -1    0    0  503  504 -0.00000000000E+00 -0.00000000000E+00 -0.10346081672E+03  0.10346081672E+03  0.00000000000E+00 0. -1.
         25    2    1    2    0    0  0.55780462582E+02  0.93838418595E+02  0.78751305983E+02  0.18368979373E+03  0.12499225302E+03 0.  0.
         25    2    1    2    0    0 -0.55780462582E+02 -0.93838418595E+02  0.84033690735E+02  0.18601683643E+03  0.12499397365E+03 0.  0.
          5    1    3    3  501    0  0.56046869895E+02  0.70632210865E+01 -0.12105635484E+02  0.57963584496E+02  0.47000000000E+01 0.  1.
         -5    1    3    3    0  501 -0.26640731300E+00  0.86775197508E+02  0.90856941467E+02  0.12572620923E+03  0.47000000000E+01 0.  1.
          5    1    4    4  502    0 -0.77788826216E+02 -0.10898179835E+03  0.51201243840E+02  0.14342869736E+03  0.47000000000E+01 0.  1.
         -5    1    4    4    0  502  0.22008363634E+02  0.15143379760E+02  0.32832446895E+02  0.42588139070E+02  0.47000000000E+01 0.  1.
<mgrwt>
<rscale>  0 0.33193981E+03</rscale>
<asrwt>0</asrwt>
<pdfrwt beam="1">  1       21 0.40960894E-01 0.33193981E+03</pdfrwt>
<pdfrwt beam="2">  1       21 0.15917049E-01 0.33193981E+03</pdfrwt>
<totfact> 0.19493515E+05</totfact>
</mgrwt>
</event>
<event>
 8    1  0.9691636E-006  0.3617670E+03  0.7546771E-02  0.1057886E+00
         21   -1    0    0  504  503  0.00000000000E+00  0.00000000000E+00  0.26226706237E+03  0.26226706237E+03  0.00000000000E+00 0. -1.
         21   -1    0    0  503  504 -0.00000000000E+00 -0.00000000000E+00 -0.12475392613E+03  0.12475392613E+03  0.00000000000E+00 0. -1.
         25    2    1    2    0    0 -0.92018353779E+02 -0.15757639588E+02  0.16668593005E+03  0.22830352811E+03  0.12499048377E+03 0.  0.
         25    2    1    2    0    0  0.92018353779E+02  0.15757639588E+02 -0.29172793808E+02  0.15871746039E+03  0.12499799877E+03 0.  0.
          5    1    3    3  501    0 -0.45199469128E+01 -0.49824669550E+02  0.20016684579E+02  0.54089604152E+02  0.47000000000E+01 0.  1.
         -5    1    3    3    0  501 -0.87498406866E+02  0.34067029962E+02  0.14666924547E+03  0.17421392396E+03  0.47000000000E+01 0.  1.
          5    1    4    4  502    0 -0.22433748116E+02  0.23881785408E+02  0.14125906183E+02  0.35989497833E+02  0.47000000000E+01 0.  1.
         -5    1    4    4    0  502  0.11445210189E+03 -0.81241458201E+01 -0.43298699991E+02  0.12272796256E+03  0.47000000000E+01 0.  1.
<mgrwt>
<rscale>  0 0.36176703E+03</rscale>
<asrwt>0</asrwt>
<pdfrwt beam="1">  1       21 0.40348779E-01 0.36176703E+03</pdfrwt>
<pdfrwt beam="2">  1       21 0.19192912E-01 0.36176703E+03</pdfrwt>
<totfact> 0.14083790E+05</totfact>
</mgrwt>
</event>
<event>
 8    1  0.9691636E-006  0.3060422E+03  0.7546771E-02  0.1082259E+00
         21   -1    0    0  504  503  0.00000000000E+00  0.00000000000E+00  0.42614147029E+03  0.42614147029E+03  0.00000000000E+00 0.  1.
         21   -1    0    0  503  504 -0.00000000000E+00 -0.00000000000E+00 -0.54947621922E+02  0.54947621922E+02  0.00000000000E+00 0.  1.
         25    2    1    2    0    0  0.60800229823E+02  0.19650963571E+02  0.28131557386E+03  0.31439755816E+03  0.12499817665E+03 0.  0.
         25    2    1    2    0    0 -0.60800229823E+02 -0.19650963571E+02  0.89878274513E+02  0.16669153405E+03  0.12500053992E+03 0.  0.
          5    1    3    3  501    0  0.96322994124E+02  0.13641633574E+02  0.24200008957E+03  0.26086461377E+03  0.47000000000E+01 0. -1.
         -5    1    3    3    0  501 -0.35522764302E+02  0.60093299964E+01  0.39315484284E+02  0.53532944390E+02  0.47000000000E+01 0. -1.
          5    1    4    4  502    0 -0.24277678092E+02  0.20146481596E+02 -0.24429191994E+02  0.40176632458E+02  0.47000000000E+01 0. -1.
         -5    1    4    4    0  502 -0.36522551731E+02 -0.39797445166E+02  0.11430746651E+03  0.12651490160E+03  0.47000000000E+01 0. -1.
<mgrwt>
<rscale>  0 0.30604222E+03</rscale>
<asrwt>0</asrwt>
<pdfrwt beam="1">  1       21 0.65560224E-01 0.30604222E+03</pdfrwt>
<pdfrwt beam="2">  1       21 0.84534806E-02 0.30604222E+03</pdfrwt>
<totfact> 0.22627389E+05</totfact>
</mgrwt>
</event>
<event>
 8    1  0.9691636E-006  0.3088742E+03  0.7546771E-02  0.1080887E+00
         21   -1    0    0  504  503  0.00000000000E+00  0.00000000000E+00  0.85938539178E+02  0.85938539178E+02  0.00000000000E+00 0.  1.
         21   -1    0    0  503  504 -0.00000000000E+00 -0.00000000000E+00 -0.27753348414E+03  0.27753348414E+03  0.00000000000E+00 0.  1.
         25    2    1    2    0    0 -0.22534396494E+02 -0.28631432117E+02 -0.19354775491E+03  0.23326066238E+03  0.12498898052E+03 0.  0.
         25    2    1    2    0    0  0.22534396494E+02  0.28631432117E+02  0.19528099556E+01  0.13021136093E+03  0.12499450835E+03 0.  0.
          5    1    3    3  501    0  0.21879520448E+02 -0.66599312175E+02 -0.88880181603E+02  0.11329588906E+03  0.47000000000E+01 0. -1.
         -5    1    3    3    0  501 -0.44413916942E+02  0.37967880057E+02 -0.10466757331E+03  0.11996477332E+03  0.47000000000E+01 0. -1.
          5    1    4    4  502    0  0.52501227908E+02  0.40895611188E+02  0.41741816468E+02  0.78697517041E+02  0.47000000000E+01 0.  1.
         -5    1    4    4    0  502 -0.29966831414E+02 -0.12264179071E+02 -0.39789006513E+02  0.51513843892E+02  0.47000000000E+01 0.  1.
<mgrwt>
<rscale>  0 0.30887423E+03</rscale>
<asrwt>0</asrwt>
<pdfrwt beam="1">  1       21 0.13221314E-01 0.30887423E+03</pdfrwt>
<pdfrwt beam="2">  1       21 0.42697459E-01 0.30887423E+03</pdfrwt>
<totfact> 0.25285407E+05</totfact>
</mgrwt>
</event>
<event>
 8    1  0.9691636E-006  0.3190514E+03  0.7546771E-02  0.1076087E+00
         21   -1    0    0  504  503  0.00000000000E+00  0.00000000000E+00  0.20479155725E+03  0.20479155725E+03  0.00000000000E+00 0.  1.
         21   -1    0    0  503  504 -0.00000000000E+00 -0.00000000000E+00 -0.12426515379E+03  0.12426515379E+03  0.00000000000E+00 0.  1.
         25    2    1    2    0    0 -0.52395018253E+02 -0.20647610652E+02  0.12438961813E+03  0.18511731645E+03  0.12499632789E+03 0.  0.
         25    2    1    2    0    0  0.52395018253E+02  0.20647610652E+02 -0.43863214673E+02  0.14393939459E+03  0.12499202354E+03 0.  0.
          5    1    3    3  501    0 -0.47341462824E+02  0.47708802137E+02  0.72854466741E+02  0.99233095426E+02  0.47000000000E+01 0.  1.
         -5    1    3    3    0  501 -0.50535554284E+01 -0.68356412789E+02  0.51535151390E+02  0.85884221022E+02  0.47000000000E+01 0.  1.
          5    1    4    4  502    0 -0.93380652120E+01  0.56582322645E+02 -0.43867474171E+02  0.72354709507E+02  0.47000000000E+01 0. -1.
         -5    1    4    4    0  502  0.61733083465E+02 -0.35934711992E+02  0.42594977174E-02  0.71584685081E+02  0.47000000000E+01 0. -1.
<mgrwt>
<rscale>  0 0.31905143E+03</rscale>
<asrwt>0</asrwt>
<pdfrwt beam="1">  1       21 0.31506393E-01 0.31905143E+03</pdfrwt>
<pdfrwt beam="2">  1       21 0.19117716E-01 0.31905143E+03</pdfrwt>
<totfact> 0.23570621E+05</totfact>
</mgrwt>
</event>
<event>
 8    1  0.9691636E-006  0.3914918E+03  0.7546771E-02  0.1046766E+00
         21   -1    0    0  504  503  0.00000000000E+00  0.00000000000E+00  0.47455336790E+02  0.47455336790E+02  0.00000000000E+00 0. -1.
         21   -1    0    0  503  504 -0.00000000000E+00 -0.00000000000E+00 -0.80742129201E+03  0.80742129201E+03  0.00000000000E+00 0. -1.
         25    2    1    2    0    0 -0.86389641209E+02 -0.47569423768E+01 -0.11071037467E+03  0.18806169803E+03  0.12499846637E+03 0.  0.
         25    2    1    2    0    0  0.86389641209E+02  0.47569423768E+01 -0.64925558055E+03  0.66681493078E+03  0.12499417755E+03 0.  0.
          5    1    3    3  501    0  0.22330048732E+01 -0.13747807625E+02  0.23018956015E+02  0.27312101005E+02  0.47000000000E+01 0. -1.
         -5    1    3    3    0  501 -0.88622646083E+02  0.89908652486E+01 -0.13372933069E+03  0.16074959702E+03  0.47000000000E+01 0. -1.
          5    1    4    4  502    0 -0.29759425040E+02  0.13359761179E+02 -0.98754039531E+02  0.10410839025E+03  0.47000000000E+01 0.  1.
         -5    1    4    4    0  502  0.11614906625E+03 -0.86028188023E+01 -0.55050154102E+03  0.56270654052E+03  0.47000000000E+01 0.  1.
<mgrwt>
<rscale>  0 0.39149176E+03</rscale>
<asrwt>0</asrwt>
<pdfrwt beam="1">  1       21 0.73008210E-02 0.39149176E+03</pdfrwt>
<pdfrwt beam="2">  1       21 0.12421866E+00 0.39149176E+03</pdfrwt>
<totfact> 0.63400207E+04</totfact>
</mgrwt>
</event>
<event>
 8    1  0.9691636E-006  0.3808972E+03  0.7546771E-02  0.1050603E+00
         21   -1    0    0  504  503  0.00000000000E+00  0.00000000000E+00  0.65009779415E+03  0.65009779415E+03  0.00000000000E+00 0. -1.
         21   -1    0    0  503  504 -0.00000000000E+00 -0.00000000000E+00 -0.55792624372E+02  0.55792624372E+02  0.00000000000E+00 0. -1.
         25    2    1    2    0    0 -0.12417467625E+03 -0.52209623183E+02  0.20448568540E+03  0.27492683369E+03  0.12500069349E+03 0.  0.
         25    2    1    2    0    0  0.12417467625E+03  0.52209623183E+02  0.38981948438E+03  0.43096358484E+03  0.12500074431E+03 0.  0.
          5    1    3    3  501    0  0.48915374196E+01 -0.30622081658E+02 -0.86905462408E+00  0.31376492464E+02  0.47000000000E+01 0.  1.
         -5    1    3    3    0  501 -0.12906621367E+03 -0.21587541525E+02  0.20535474002E+03  0.24355034122E+03  0.47000000000E+01 0.  1.
          5    1    4    4  502    0  0.79337155571E+02 -0.99146775989E+01  0.31018376401E+03  0.32035721084E+03  0.47000000000E+01 0. -1.
         -5    1    4    4    0  502  0.44837520679E+02  0.62124300782E+02  0.79635720372E+02  0.11060637399E+03  0.47000000000E+01 0. -1.
<mgrwt>
<rscale>  0 0.38089716E+03</rscale>
<asrwt>0</asrwt>
<pdfrwt beam="1">  1       21 0.10001504E+00 0.38089716E+03</pdfrwt>
<pdfrwt beam="2">  1       21 0.85834811E-02 0.38089716E+03</pdfrwt>
<totfact> 0.81813357E+04</totfact>
</mgrwt>
</event>
<event>
 8    1  0.9691636E-006  0.3469199E+03  0.7546771E-02  0.1063886E+00
         21   -1    0    0  504  503  0.00000000000E+00  0.00000000000E+00  0.34986746856E+03  0.34986746856E+03  0.00000000000E+00 0.  1.
         21   -1    0    0  503  504 -0.00000000000E+00 -0.00000000000E+00 -0.85999306975E+02  0.85999306975E+02  0.00000000000E+00 0.  1.
         25    2    1    2    0    0  0.11617735415E+03  0.97919186047E+01  0.16901784396E+03  0.24038232564E+03  0.12499428633E+03 0.  0.
         25    2    1    2    0    0 -0.11617735415E+03 -0.97919186047E+01  0.94850317625E+02  0.19548444990E+03  0.12499811243E+03 0.  0.
          5    1    3    3  501    0  0.13175431684E+03  0.21920957543E+02  0.95885961153E+02  0.16448688681E+03  0.47000000000E+01 0.  1.
         -5    1    3    3    0  501 -0.15576962693E+02 -0.12129038938E+02  0.73131882807E+02  0.75895438830E+02  0.47000000000E+01 0.  1.
          5    1    4    4  502    0 -0.36658150480E+02  0.54203833987E+01  0.10713650121E+03  0.11346153729E+03  0.47000000000E+01 0.  1.
         -5    1    4    4    0  502 -0.79519203668E+02 -0.15212302003E+02 -0.12286183589E+02  0.82022912601E+02  0.47000000000E+01 0.  1.
<mgrwt>
<rscale>  0 0.34691993E+03</rscale>
<asrwt>0</asrwt>
<pdfrwt beam="1">  1       21 0.53825764E-01 0.34691993E+03</pdfrwt>
<pdfrwt beam="2">  1       21 0.13230663E-01 0.34691993E+03</pdfrwt>
<totfact> 0.15406011E+05</totfact>
</mgrwt>
</event>
<event>
 8    1  0.9691636E-006  0.2600570E+03  0.7546771E-02  0.1107109E+00
         21   -1    0    0  504  503  0.00000000000E+00  0.00000000000E+00  0.53481008367E+02  0.53481008367E+02  0.00000000000E+00 0. -1.
         21   -1    0    0  503  504 -0.00000000000E+00 -0.00000000000E+00 -0.31613853403E+03  0.31613853403E+03  0.00000000000E+00 0. -1.
         25    2    1    2    0    0 -0.20049397075E+02  0.21857752737E+02 -0.15988758217E+03  0.20510542389E+03  0.12499782518E+03 0.  0.
         25    2    1    2    0    0  0.20049397075E+02 -0.21857752737E+02 -0.10276994349E+03  0.16451411850E+03  0.12499397675E+03 0.  0.
          5    1    3    3  501    0 -0.52028517099E+02  0.36267611854E+02 -0.29691417518E+02  0.70185301419E+02  0.47000000000E+01 0. -1.
         -5    1    3    3    0  501  0.31979120024E+02 -0.14409859117E+02 -0.13019616466E+03  0.13492012247E+03  0.47000000000E+01 0. -1.
          5    1    4    4  502    0  0.36608532904E+02  0.33957306701E+01 -0.12260144317E+03  0.12808169087E+03  0.47000000000E+01 0. -1.
         -5    1    4    4    0  502 -0.16559135829E+02 -0.25253483407E+02  0.19831499685E+02  0.36432427634E+02  0.47000000000E+01 0. -1.
<mgrwt>
<rscale>  0 0.26005698E+03</rscale>
<asrwt>0</asrwt>
<pdfrwt beam="1">  1       21 0.82278476E-02 0.26005698E+03</pdfrwt>
<pdfrwt beam="2">  1       21 0.48636697E-01 0.26005698E+03</pdfrwt>
<totfact> 0.45473071E+05</totfact>
</mgrwt>
</event>
<event>
 8    1  0.9691636E-006  0.3342208E+03  0.7546771E-02  0.1069284E+00
         21   -1    0    0  504  503  0.00000000000E+00  0.00000000000E+00  0.19707682755E+03  0.19707682755E+03  0.00000000000E+00 0.  1.
         21   -1    0    0  503  504 -0.00000000000E+00 -0.00000000000E+00 -0.14170046202E+03  0.14170046202E+03  0.00000000000E+00 0.  1.
         25    2    1    2    0    0 -0.39772075914E+02 -0.83847436729E+02  0.89253930969E+02  0.17945613556E+03  0.12500411885E+03 0.  0.
         25    2    1    2    0    0  0.39772075914E+02  0.83847436729E+02 -0.33877565433E+02  0.15932115401E+03  0.12499331985E+03 0.  0.
          5    1    3    3  501    0 -0.24124139727E+02 -0.94852563533E+01 -0.28767530992E+02  0.39007756216E+02  0.47000000000E+01 0.  1.
         -5    1    3    3    0  501 -0.15647936187E+02 -0.74362180376E+02  0.11802146196E+03  0.14044837934E+03  0.47000000000E+01 0.  1.
          5    1    4    4  502    0  0.78217837079E+02  0.42854489005E+02  0.71232552647E+01  0.89595580419E+02  0.47000000000E+01 0. -1.
         -5    1    4    4    0  502 -0.38445761164E+02  0.40992947724E+02 -0.41000820698E+02  0.69725573591E+02  0.47000000000E+01 0. -1.
<mgrwt>
<rscale>  0 0.33422075E+03</rscale>
<asrwt>0</asrwt>
<pdfrwt beam="1">  1       21 0.30319512E-01 0.33422075E+03</pdfrwt>
<pdfrwt beam="2">  1       21 0.21800071E-01 0.33422075E+03</pdfrwt>
<totfact> 0.19772160E+05</totfact>
</mgrwt>
</event>
<event>
 8    1  0.9691636E-006  0.2792141E+03  0.7546771E-02  0.1096119E+00
         21   -1    0    0  504  503  0.00000000000E+00  0.00000000000E+00  0.85093656909E+02  0.85093656909E+02  0.00000000000E+00 0.  1.
         21   -1    0    0  503  504 -0.00000000000E+00 -0.00000000000E+00 -0.22904327209E+03  0.22904327209E+03  0.00000000000E+00 0.  1.
         25    2    1    2    0    0 -0.10324423462E+02  0.60593804146E+02 -0.61275122218E+02  0.15214570422E+03  0.12496188175E+03 0.  0.
         25    2    1    2    0    0  0.10324423462E+02 -0.60593804146E+02 -0.82674492963E+02  0.16199122478E+03  0.12501152866E+03 0.  0.
          5    1    3    3  501    0 -0.61293185061E+02  0.57601402640E+01 -0.42077708261E+02  0.74717181981E+02  0.47000000000E+01 0.  1.
         -5    1    3    3    0  501  0.50968761599E+02  0.54833663882E+02 -0.19197413957E+02  0.77428522240E+02  0.47000000000E+01 0.  1.
          5    1    4    4  502    0  0.46158938704E+02 -0.56222771857E+02 -0.13697151793E+01  0.72908256167E+02  0.47000000000E+01 0. -1.
         -5    1    4    4    0  502 -0.35834515242E+02 -0.43710322889E+01 -0.81304777783E+02  0.89082968610E+02  0.47000000000E+01 0. -1.
<mgrwt>
<rscale>  0 0.27921411E+03</rscale>
<asrwt>0</asrwt>
<pdfrwt beam="1">  1       21 0.13091332E-01 0.27921411E+03</pdfrwt>
<pdfrwt beam="2">  1       21 0.35237426E-01 0.27921411E+03</pdfrwt>
<totfact> 0.38254304E+05</totfact>
</mgrwt>
</event>
<event>
 8    1  0.9691636E-006  0.2687641E+03  0.7546771E-02  0.1101989E+00
         21   -1    0    0  504  503  0.00000000000E+00  0.00000000000E+00  0.24290683074E+03  0.24290683074E+03  0.00000000000E+00 0. -1.
         21   -1    0    0  503  504 -0.00000000000E+00 -0.00000000000E+00 -0.74343477427E+02  0.74343477427E+02  0.00000000000E+00 0. -1.
         25    2    1    2    0    0  0.18223385418E+02 -0.82199271681E+01  0.31057609690E+02  0.13034623498E+03  0.12500362745E+03 0.  0.
         25    2    1    2    0    0 -0.18223385418E+02  0.82199271681E+01  0.13750574362E+03  0.18690407319E+03  0.12500257624E+03 0.  0.
          5    1    3    3  501    0 -0.15487061893E+02 -0.47763930225E+02  0.53523862525E+02  0.73540029754E+02  0.47000000000E+01 0.  1.
         -5    1    3    3    0  501  0.33710447311E+02  0.39544003057E+02 -0.22466252835E+02  0.56806205225E+02  0.47000000000E+01 0.  1.
          5    1    4    4  502    0  0.12328126930E-01 -0.57535550105E+02  0.55004559129E+02  0.79736636516E+02  0.47000000000E+01 0.  1.
         -5    1    4    4    0  502 -0.18235713545E+02  0.65755477273E+02  0.82501184495E+02  0.10716743667E+03  0.47000000000E+01 0.  1.
<mgrwt>
<rscale>  0 0.26876412E+03</rscale>
<asrwt>0</asrwt>
<pdfrwt beam="1">  1       21 0.37370281E-01 0.26876412E+03</pdfrwt>
<pdfrwt beam="2">  1       21 0.11437458E-01 0.26876412E+03</pdfrwt>
<totfact> 0.43464125E+05</totfact>
</mgrwt>
</event>
<event>
 8    1  0.9691636E-006  0.2899097E+03  0.7546771E-02  0.1090396E+00
         21   -1    0    0  504  503  0.00000000000E+00  0.00000000000E+00  0.21993731632E+03  0.21993731632E+03  0.00000000000E+00 0.  1.
         21   -1    0    0  503  504 -0.00000000000E+00 -0.00000000000E+00 -0.95535893439E+02  0.95535893439E+02  0.00000000000E+00 0.  1.
         25    2    1    2    0    0  0.67212274264E+02  0.18165061192E+02  0.87491634559E+02  0.16771124899E+03  0.12499927063E+03 0.  0.
         25    2    1    2    0    0 -0.67212274264E+02 -0.18165061192E+02  0.36909788324E+02  0.14776196078E+03  0.12499522118E+03 0.  0.
          5    1    3    3  501    0  0.51563718084E+02  0.64436912055E+02  0.85014405411E+02  0.11857686024E+03  0.47000000000E+01 0. -1.
         -5    1    3    3    0  501  0.15648556181E+02 -0.46271850863E+02  0.24772291483E+01  0.49134388742E+02  0.47000000000E+01 0. -1.
          5    1    4    4  502    0 -0.43782097187E+02 -0.70827695187E+02  0.10067609098E+02  0.84005245029E+02  0.47000000000E+01 0. -1.
         -5    1    4    4    0  502 -0.23430177078E+02  0.52662633994E+02  0.26842179227E+02  0.63756715746E+02  0.47000000000E+01 0. -1.
<mgrwt>
<rscale>  0 0.28990970E+03</rscale>
<asrwt>0</asrwt>
<pdfrwt beam="1">  1       21 0.33836510E-01 0.28990970E+03</pdfrwt>
<pdfrwt beam="2">  1       21 0.14697830E-01 0.28990970E+03</pdfrwt>
<totfact> 0.33515955E+05</totfact>
</mgrwt>
</event>
<event>
 8    1  0.9691636E-006  0.3039031E+03  0.7546771E-02  0.1083306E+00
         21   -1    0    0  504  503  0.00000000000E+00  0.00000000000E+00  0.17299198696E+03  0.17299198696E+03  0.00000000000E+00 0. -1.
         21   -1    0    0  503  504 -0.00000000000E+00 -0.00000000000E+00 -0.13347019087E+03  0.13347019087E+03  0.00000000000E+00 0. -1.
         25    2    1    2    0    0  0.62100445442E+02  0.26327687929E+02 -0.34681195344E+02  0.14620980670E+03  0.12499963916E+03 0.  0.
         25    2    1    2    0    0 -0.62100445442E+02 -0.26327687929E+02  0.74202991433E+02  0.16025237113E+03  0.12500050416E+03 0.  0.
          5    1    3    3  501    0  0.82129878739E+02 -0.24114744140E+02 -0.32530910953E+02  0.91690719455E+02  0.47000000000E+01 0.  1.
         -5    1    3    3    0  501 -0.20029433297E+02  0.50442432069E+02 -0.21502843915E+01  0.54519087246E+02  0.47000000000E+01 0.  1.
          5    1    4    4  502    0 -0.90727148134E+02 -0.12114501096E+02  0.15088242917E+02  0.92886606244E+02  0.47000000000E+01 0.  1.
         -5    1    4    4    0  502  0.28626702691E+02 -0.14213186832E+02  0.59114748516E+02  0.67365764888E+02  0.47000000000E+01 0.  1.
<mgrwt>
<rscale>  0 0.30390310E+03</rscale>
<asrwt>0</asrwt>
<pdfrwt beam="1">  1       21 0.26614152E-01 0.30390310E+03</pdfrwt>
<pdfrwt beam="2">  1       21 0.20533876E-01 0.30390310E+03</pdfrwt>
<totfact> 0.28771516E+05</totfact>
</mgrwt>
</event>
<event>
 8    1  0.9691636E-006  0.5537576E+03  0.7546771E-02  0.1000628E+00
         21   -1    0    0  504  503  0.00000000000E+00  0.00000000000E+00  0.93575293130E+02  0.93575293130E+02  0.00000000000E+00 0.  1.
         21   -1    0    0  503  504 -0.00000000000E+00 -0.00000000000E+00 -0.81925335500E+03  0.81925335500E+03  0.00000000000E+00 0.  1.
         25    2    1    2    0    0  0.21683220384E+03 -0.98559531133E+02 -0.25466880591E+03  0.37042156061E+03  0.12500298420E+03 0.  0.
         25    2    1    2    0    0 -0.21683220384E+03  0.98559531133E+02 -0.47100925596E+03  0.54240708753E+03  0.12500217438E+03 0.  0.
          5    1    3    3  501    0  0.20476344079E+03 -0.61252177056E+02 -0.15749903903E+03  0.26553329956E+03  0.47000000000E+01 0.  1.
         -5    1    3    3    0  501  0.12068763047E+02 -0.37307354077E+02 -0.97169766884E+02  0.10488826105E+03  0.47000000000E+01 0.  1.
          5    1    4    4  502    0 -0.97735661712E+00 -0.20835259070E+02 -0.50904989348E+02  0.55212962128E+02  0.47000000000E+01 0. -1.
         -5    1    4    4    0  502 -0.21585484722E+03  0.11939479020E+03 -0.42010426661E+03  0.48719412540E+03  0.47000000000E+01 0. -1.
<mgrwt>
<rscale>  0 0.55375761E+03</rscale>
<asrwt>0</asrwt>
<pdfrwt beam="1">  1       21 0.14396199E-01 0.55375761E+03</pdfrwt>
<pdfrwt beam="2">  1       21 0.12603897E+00 0.55375761E+03</pdfrwt>
<totfact> 0.17234553E+04</totfact>
</mgrwt>
</event>
<event>
 8    1  0.9691636E-006  0.2559882E+03  0.7546771E-02  0.1109578E+00
         21   -1    0    0  504  503  0.00000000000E+00  0.00000000000E+00  0.51805050715E+02  0.51805050715E+02  0.00000000000E+00 0. -1.
         21   -1    0    0  503  504 -0.00000000000E+00 -0.00000000000E+00 -0.31623342614E+03  0.31623342614E+03  0.00000000000E+00 0. -1.
         25    2    1    2    0    0 -0.25059477629E+02  0.23012911869E+01 -0.11613565612E+03  0.17246960739E+03  0.12500000597E+03 0.  0.
         25    2    1    2    0    0  0.25059477629E+02 -0.23012911869E+01 -0.14829271931E+03  0.19556886946E+03  0.12499271476E+03 0.  0.
          5    1    3    3  501    0 -0.66827457312E+02  0.31597758869E+02 -0.83992073995E+02  0.11198698992E+03  0.47000000000E+01 0. -1.
         -5    1    3    3    0  501  0.41767979683E+02 -0.29296467682E+02 -0.32143582121E+02  0.60482617478E+02  0.47000000000E+01 0. -1.
          5    1    4    4  502    0 -0.31830089868E+01  0.51520309020E+02 -0.11492205895E+03  0.12606999413E+03  0.47000000000E+01 0.  1.
         -5    1    4    4    0  502  0.28242486616E+02 -0.53821600207E+02 -0.33370660362E+02  0.69498875330E+02  0.47000000000E+01 0.  1.
<mgrwt>
<rscale>  0 0.25598819E+03</rscale>
<asrwt>0</asrwt>
<pdfrwt beam="1">  1       21 0.79700078E-02 0.25598819E+03</pdfrwt>
<pdfrwt beam="2">  1       21 0.48651297E-01 0.25598819E+03</pdfrwt>
<totfact> 0.48090269E+05</totfact>
</mgrwt>
</event>
<event>
 8    1  0.9691636E-006  0.6645427E+03  0.7546771E-02  0.9779867E-01
         21   -1    0    0  504  503  0.00000000000E+00  0.00000000000E+00  0.17291235911E+03  0.17291235911E+03  0.00000000000E+00 0.  1.
         21   -1    0    0  503  504 -0.00000000000E+00 -0.00000000000E+00 -0.63849827314E+03  0.63849827314E+03  0.00000000000E+00 0.  1.
         25    2    1    2    0    0  0.19503832297E+03 -0.11716759503E+03  0.20429294300E+02  0.26040986844E+03  0.12501100257E+03 0.  0.
         25    2    1    2    0    0 -0.19503832297E+03  0.11716759503E+03 -0.48601520833E+03  0.55100076381E+03  0.12499146465E+03 0.  0.
          5    1    3    3  501    0  0.16804484970E+03 -0.34166940557E+02  0.47820191878E+01  0.17161412834E+03  0.47000000000E+01 0.  1.
         -5    1    3    3    0  501  0.26993473269E+02 -0.83000654470E+02  0.15647275113E+02  0.88795740100E+02  0.47000000000E+01 0.  1.
          5    1    4    4  502    0 -0.17612195559E+03  0.58503903767E+02 -0.28033031980E+03  0.33622734600E+03  0.47000000000E+01 0. -1.
         -5    1    4    4    0  502 -0.18916367377E+02  0.58663691259E+02 -0.20568488853E+03  0.21477341781E+03  0.47000000000E+01 0. -1.
<mgrwt>
<rscale>  0 0.66454268E+03</rscale>
<asrwt>0</asrwt>
<pdfrwt beam="1">  1       21 0.26601902E-01 0.66454268E+03</pdfrwt>
<pdfrwt beam="2">  1       21 0.98230503E-01 0.66454268E+03</pdfrwt>
<totfact> 0.97347718E+03</totfact>
</mgrwt>
</event>
<event>
 8    1  0.9691636E-006  0.3779889E+03  0.7546771E-02  0.1051680E+00
         21   -1    0    0  504  503  0.00000000000E+00  0.00000000000E+00  0.27110226554E+03  0.27110226554E+03  0.00000000000E+00 0. -1.
         21   -1    0    0  503  504 -0.00000000000E+00 -0.00000000000E+00 -0.13175435920E+03  0.13175435920E+03  0.00000000000E+00 0. -1.
         25    2    1    2    0    0  0.11087283937E+02 -0.55488566647E+02  0.20818715195E+03  0.24933932763E+03  0.12500520458E+03 0.  0.
         25    2    1    2    0    0 -0.11087283937E+02  0.55488566647E+02 -0.68839245608E+02  0.15351729712E+03  0.12500723933E+03 0.  0.
          5    1    3    3  501    0  0.30758104628E+02 -0.88133161077E+02  0.11266185248E+03  0.14638407729E+03  0.47000000000E+01 0. -1.
         -5    1    3    3    0  501 -0.19670820692E+02  0.32644594430E+02  0.95525299469E+02  0.10295525033E+03  0.47000000000E+01 0. -1.
          5    1    4    4  502    0 -0.31522907342E+02  0.59167862632E+02 -0.97128282848E+02  0.11811233206E+03  0.47000000000E+01 0. -1.
         -5    1    4    4    0  502  0.20435623405E+02 -0.36792959846E+01  0.28289037240E+02  0.35404965059E+02  0.47000000000E+01 0. -1.
<mgrwt>
<rscale>  0 0.37798892E+03</rscale>
<asrwt>0</asrwt>
<pdfrwt beam="1">  1       21 0.41708041E-01 0.37798892E+03</pdfrwt>
<pdfrwt beam="2">  1       21 0.20269901E-01 0.37798892E+03</pdfrwt>
<totfact> 0.11823012E+05</totfact>
</mgrwt>
</event>
<event>
 8    1  0.9691636E-006  0.2566817E+03  0.7546771E-02  0.1109153E+00
         21   -1    0    0  504  503  0.00000000000E+00  0.00000000000E+00  0.34773377898E+03  0.34773377898E+03  0.00000000000E+00 0. -1.
         21   -1    0    0  503  504 -0.00000000000E+00 -0.00000000000E+00 -0.47367781675E+02  0.47367781675E+02  0.00000000000E+00 0. -1.
         25    2    1    2    0    0 -0.25483545499E+01  0.13100826218E+02  0.11039310517E+03  0.16729885406E+03  0.12499657252E+03 0.  0.
         25    2    1    2    0    0  0.25483545499E+01 -0.13100826218E+02  0.18997289214E+03  0.22780270660E+03  0.12500499041E+03 0.  0.
          5    1    3    3  501    0 -0.18178222462E+02 -0.14098455432E+02 -0.21383764843E+02  0.31757985079E+02  0.47000000000E+01 0.  1.
         -5    1    3    3    0  501  0.15629867912E+02  0.27199281650E+02  0.13177687001E+03  0.13554086898E+03  0.47000000000E+01 0.  1.
          5    1    4    4  502    0 -0.14305210596E+02 -0.14681425631E+02  0.20414849887E+03  0.20522885494E+03  0.47000000000E+01 0. -1.
         -5    1    4    4    0  502  0.16853565146E+02  0.15805994134E+01 -0.14175606731E+02  0.22573851661E+02  0.47000000000E+01 0. -1.
<mgrwt>
<rscale>  0 0.25668173E+03</rscale>
<asrwt>0</asrwt>
<pdfrwt beam="1">  1       21 0.53497503E-01 0.25668173E+03</pdfrwt>
<pdfrwt beam="2">  1       21 0.72873513E-02 0.25668173E+03</pdfrwt>
<totfact> 0.46033099E+05</totfact>
</mgrwt>
</event>
<event>
 8    1  0.9691636E-006  0.2980127E+03  0.7546771E-02  0.1086238E+00
         21   -1    0    0  504  503  0.00000000000E+00  0.00000000000E+00  0.89413939506E+02  0.89413939506E+02  0.00000000000E+00 0. -1.
         21   -1    0    0  503  504 -0.00000000000E+00 -0.00000000000E+00 -0.24831571751E+03  0.24831571751E+03  0.00000000000E+00 0. -1.
         25    2    1    2    0    0  0.64184228821E+02 -0.26848703595E+02 -0.12666414070E+03  0.19107673932E+03  0.12500419054E+03 0.  0.
         25    2    1    2    0    0 -0.64184228821E+02  0.26848703595E+02 -0.32237637306E+02  0.14665291770E+03  0.12500937924E+03 0.  0.
          5    1    3    3  501    0 -0.12359761600E+02 -0.58407295362E+02 -0.47599396808E+02  0.76498159682E+02  0.47000000000E+01 0. -1.
         -5    1    3    3    0  501  0.76543990421E+02  0.31558591766E+02 -0.79064743895E+02  0.11457857963E+03  0.47000000000E+01 0. -1.
          5    1    4    4  502    0 -0.13287478461E+02  0.36197681774E+02  0.41243235368E+02  0.56656188658E+02  0.47000000000E+01 0. -1.
         -5    1    4    4    0  502 -0.50896750360E+02 -0.93489781786E+01 -0.73480872673E+02  0.89996729046E+02  0.47000000000E+01 0. -1.
<mgrwt>
<rscale>  0 0.29801266E+03</rscale>
<asrwt>0</asrwt>
<pdfrwt beam="1">  1       21 0.13755991E-01 0.29801266E+03</pdfrwt>
<pdfrwt beam="2">  1       21 0.38202418E-01 0.29801266E+03</pdfrwt>
<totfact> 0.29593505E+05</totfact>
</mgrwt>
</event>
<event>
 8    1  0.9691636E-006  0.2709376E+03  0.7546771E-02  0.1100744E+00
         21   -1    0    0  504  503  0.00000000000E+00  0.00000000000E+00  0.55499946073E+03  0.55499946073E+03  0.00000000000E+00 0. -1.
         21   -1    0    0  503  504 -0.00000000000E+00 -0.00000000000E+00 -0.33066341757E+02  0.33066341757E+02  0.00000000000E+00 0. -1.
         25    2    1    2    0    0 -0.19290356368E+02 -0.44659544751E+02  0.30221615087E+03  0.33064525230E+03  0.12500035293E+03 0.  0.
         25    2    1    2    0    0  0.19290356368E+02  0.44659544751E+02  0.21971696810E+03  0.25742055019E+03  0.12499280300E+03 0.  0.
          5    1    3    3  501    0 -0.39906483168E+02 -0.78914592235E+02  0.16034984581E+03  0.18317806451E+03  0.47000000000E+01 0. -1.
         -5    1    3    3    0  501  0.20616126800E+02  0.34255047485E+02  0.14186630506E+03  0.14746718778E+03  0.47000000000E+01 0. -1.
          5    1    4    4  502    0  0.11410902247E+02 -0.21498054209E+02  0.17567712536E+03  0.17741735371E+03  0.47000000000E+01 0.  1.
         -5    1    4    4    0  502  0.78794541213E+01  0.66157598959E+02  0.44039842743E+02  0.80003196475E+02  0.47000000000E+01 0.  1.
<mgrwt>
<rscale>  0 0.27093764E+03</rscale>
<asrwt>0</asrwt>
<pdfrwt beam="1">  1       21 0.85384526E-01 0.27093764E+03</pdfrwt>
<pdfrwt beam="2">  1       21 0.50871299E-02 0.27093764E+03</pdfrwt>
<totfact> 0.30344008E+05</totfact>
</mgrwt>
</event>
<event>
 8    1  0.9691636E-006  0.2971877E+03  0.7546771E-02  0.1086655E+00
         21   -1    0    0  504  503  0.00000000000E+00  0.00000000000E+00  0.30774982078E+03  0.30774982078E+03  0.00000000000E+00 0. -1.
         21   -1    0    0  503  504 -0.00000000000E+00 -0.00000000000E+00 -0.71747007755E+02  0.71747007755E+02  0.00000000000E+00 0. -1.
         25    2    1    2    0    0 -0.19606612123E+02 -0.17500722056E+02  0.21494685523E+03  0.25003802448E+03  0.12500467431E+03 0.  0.
         25    2    1    2    0    0  0.19606612123E+02  0.17500722056E+02  0.21055957795E+02  0.12945880406E+03  0.12500213629E+03 0.  0.
          5    1    3    3  501    0  0.50582083313E+02  0.89403532566E+01  0.72409556455E+02  0.88902817361E+02  0.47000000000E+01 0.  1.
         -5    1    3    3    0  501 -0.70188695436E+02 -0.26441075313E+02  0.14253729878E+03  0.16113520712E+03  0.47000000000E+01 0.  1.
          5    1    4    4  502    0  0.55539885680E+02 -0.11568969043E+02 -0.26661750020E+02  0.62860630447E+02  0.47000000000E+01 0. -1.
         -5    1    4    4    0  502 -0.35933273557E+02  0.29069691099E+02  0.47717707815E+02  0.66598173611E+02  0.47000000000E+01 0. -1.
<mgrwt>
<rscale>  0 0.29718768E+03</rscale>
<asrwt>0</asrwt>
<pdfrwt beam="1">  1       21 0.47346126E-01 0.29718768E+03</pdfrwt>
<pdfrwt beam="2">  1       21 0.11038001E-01 0.29718768E+03</pdfrwt>
<totfact> 0.28344532E+05</totfact>
</mgrwt>
</event>
