<event>
 8    1  0.3573290E-007  0.1500163E+03  0.7546771E-02  0.1200453E+00
         -5   -1    0    0    0  501 -0.00000000000E+00  0.00000000000E+00  0.27390952080E+03  0.27394984137E+03  0.47000000000E+01 0.  1.
          5   -1    0    0  501    0  0.00000000000E+00 -0.00000000000E+00 -0.10572631808E+03  0.10583073436E+03  0.47000000000E+01 0.  1.
         25    2    1    2    0    0  0.81638372733E+02  0.14653487545E+02  0.17388902492E+03  0.22965577439E+03  0.12499933250E+03 0.  0.
         25    2    1    2    0    0 -0.81638372733E+02 -0.14653487545E+02 -0.57058221967E+01  0.15012480134E+03  0.12500140388E+03 0.  0.
          5    1    3    3  502    0  0.98979816877E+02 -0.28534457304E+02  0.12383626370E+03  0.16114816043E+03  0.47000000000E+01 0. -1.
         -5    1    3    3    0  502 -0.17341444144E+02  0.43187944849E+02  0.50052761212E+02  0.68507613958E+02  0.47000000000E+01 0. -1.
          5    1    4    4  503    0 -0.84777416978E+02 -0.58016507425E+02 -0.18663242839E+02  0.10451570311E+03  0.47000000000E+01 0.  1.
         -5    1    4    4    0  503  0.31390442450E+01  0.43363019880E+02  0.12957420642E+02  0.45609098232E+02  0.47000000000E+01 0.  1.
<mgrwt>
<rscale>  0 0.15001590E+03</rscale>
<asrwt>0</asrwt>
<pdfrwt beam="2">  1        5 0.16276721E-01 0.15001633E+03</pdfrwt>
<pdfrwt beam="1">  1       -5 0.42151060E-01 0.15001633E+03</pdfrwt>
<totfact> 0.13648185E+02</totfact>
</mgrwt>
</event>
<event>
 8    1  0.3573290E-007  0.1683542E+03  0.7546771E-02  0.1179578E+00
         -5   -1    0    0    0  501 -0.00000000000E+00  0.00000000000E+00  0.24753429238E+03  0.24757890844E+03  0.47000000000E+01 0.  1.
          5   -1    0    0  501    0  0.00000000000E+00 -0.00000000000E+00 -0.11698823975E+03  0.11708261288E+03  0.47000000000E+01 0.  1.
         25    2    1    2    0    0 -0.11141832816E+03  0.17317979039E+02  0.92431107443E+02  0.19205898052E+03  0.12501674339E+03 0.  0.
         25    2    1    2    0    0  0.11141832816E+03 -0.17317979039E+02  0.38114945193E+02  0.17260254081E+03  0.12499972719E+03 0.  0.
          5    1    3    3  502    0 -0.90623450500E+01  0.26794616446E+02 -0.23481194361E+02  0.37061220392E+02  0.47000000000E+01 0. -1.
         -5    1    3    3    0  502 -0.10235598311E+03 -0.94766374075E+01  0.11591230180E+03  0.15499776012E+03  0.47000000000E+01 0. -1.
          5    1    4    4  503    0  0.10972000636E+03 -0.50304448096E+02 -0.15095657602E+01  0.12080308805E+03  0.47000000000E+01 0. -1.
         -5    1    4    4    0  503  0.16983217997E+01  0.32986469058E+02  0.39624510954E+02  0.51799452759E+02  0.47000000000E+01 0. -1.
<mgrwt>
<rscale>  0 0.16835106E+03</rscale>
<asrwt>0</asrwt>
<pdfrwt beam="2">  1        5 0.18008882E-01 0.16835422E+03</pdfrwt>
<pdfrwt beam="1">  1       -5 0.38092890E-01 0.16835422E+03</pdfrwt>
<totfact> 0.14458348E+02</totfact>
</mgrwt>
</event>
<event>
 8    1  0.3573290E-007  0.1335105E+03  0.7546771E-02  0.1222341E+00
          5   -1    0    0  501    0  0.00000000000E+00  0.00000000000E+00  0.18021221500E+03  0.18027349343E+03  0.47000000000E+01 0.  1.
         -5   -1    0    0    0  501 -0.00000000000E+00 -0.00000000000E+00 -0.11919627003E+03  0.11928889633E+03  0.47000000000E+01 0.  1.
         25    2    1    2    0    0  0.38201102518E+02 -0.27114043925E+02 -0.31452432917E+02  0.13716528568E+03  0.12502225581E+03 0.  0.
         25    2    1    2    0    0 -0.38201102518E+02  0.27114043925E+02  0.92468377888E+02  0.16239710408E+03  0.12501169103E+03 0.  0.
          5    1    3    3  502    0 -0.12290006475E+02  0.30448235171E+02 -0.48330214885E+02  0.58617735840E+02  0.47000000000E+01 0.  1.
         -5    1    3    3    0  502  0.50491108993E+02 -0.57562279096E+02  0.16877781968E+02  0.78547549843E+02  0.47000000000E+01 0.  1.
          5    1    4    4  503    0 -0.33506554824E+02 -0.37773319480E+01 -0.24042001188E+02  0.41678115048E+02  0.47000000000E+01 0.  1.
         -5    1    4    4    0  503 -0.46945476938E+01  0.30891375873E+02  0.11651037908E+03  0.12071898904E+03  0.47000000000E+01 0.  1.
<mgrwt>
<rscale>  0 0.13350805E+03</rscale>
<asrwt>0</asrwt>
<pdfrwt beam="1">  1        5 0.27736795E-01 0.13351052E+03</pdfrwt>
<pdfrwt beam="2">  1       -5 0.18349727E-01 0.13351052E+03</pdfrwt>
<totfact> 0.24334269E+02</totfact>
</mgrwt>
</event>
<event>
 8    1  0.3573290E-007  0.1518683E+03  0.7546771E-02  0.1198197E+00
          5   -1    0    0  501    0  0.00000000000E+00  0.00000000000E+00  0.14839440823E+04  0.14839515253E+04  0.47000000000E+01 0.  1.
         -5   -1    0    0    0  501 -0.00000000000E+00 -0.00000000000E+00 -0.15276268079E+02  0.15982939855E+02  0.47000000000E+01 0.  1.
         25    2    1    2    0    0 -0.95716000818E+01 -0.85716774099E+02  0.79279677998E+03  0.80721111632E+03  0.12499628425E+03 0.  0.
         25    2    1    2    0    0  0.95716000818E+01  0.85716774099E+02  0.67587103421E+03  0.69272334879E+03  0.12500000872E+03 0.  0.
          5    1    3    3  502    0 -0.54590307336E+02 -0.30943745197E+02  0.56742387597E+03  0.57090241027E+03  0.47000000000E+01 0.  1.
         -5    1    3    3    0  502  0.45018707254E+02 -0.54773028902E+02  0.22537290401E+03  0.23630870606E+03  0.47000000000E+01 0.  1.
          5    1    4    4  503    0  0.21026738073E+02  0.20136727518E+02  0.54518879017E+03  0.54598582256E+03  0.47000000000E+01 0.  1.
         -5    1    4    4    0  503 -0.11455137992E+02  0.65580046580E+02  0.13068224404E+03  0.14673752623E+03  0.47000000000E+01 0.  1.
<mgrwt>
<rscale>  0 0.15186754E+03</rscale>
<asrwt>0</asrwt>
<pdfrwt beam="1">  1        5 0.22835403E+00 0.15186831E+03</pdfrwt>
<pdfrwt beam="2">  1       -5 0.24051269E-02 0.15186831E+03</pdfrwt>
<totfact> 0.50539111E+01</totfact>
</mgrwt>
</event>
<event>
 8    1  0.3573290E-007  0.1363162E+03  0.7546771E-02  0.1218375E+00
          5   -1    0    0  501    0  0.00000000000E+00  0.00000000000E+00  0.50648527439E+02  0.50866131480E+02  0.47000000000E+01 0. -1.
         -5   -1    0    0    0  501 -0.00000000000E+00 -0.00000000000E+00 -0.38658012119E+03  0.38660869119E+03  0.47000000000E+01 0. -1.
         25    2    1    2    0    0  0.47066297452E+02  0.27237127060E+02 -0.21859594049E+03  0.25761444753E+03  0.12499568365E+03 0.  0.
         25    2    1    2    0    0 -0.47066297452E+02 -0.27237127060E+02 -0.11733565326E+03  0.17986037513E+03  0.12500000628E+03 0.  0.
          5    1    4    4  502    0 -0.51566247028E+02  0.33292466935E+02 -0.98464741877E+02  0.11612433673E+03  0.47000000000E+01 0.  1.
         -5    1    4    4    0  502  0.44999495762E+01 -0.60529593996E+02 -0.18870911382E+02  0.63736038407E+02  0.47000000000E+01 0.  1.
          5    1    3    3  503    0  0.18554273444E+02 -0.37189710723E+02 -0.16144053651E+03  0.16677071828E+03  0.47000000000E+01 0. -1.
         -5    1    3    3    0  503  0.28512024008E+02  0.64426837784E+02 -0.57155403979E+02  0.90843729249E+02  0.47000000000E+01 0. -1.
<mgrwt>
<rscale>  0 0.13631518E+03</rscale>
<asrwt>0</asrwt>
<pdfrwt beam="1">  1        5 0.78110179E-02 0.13631617E+03</pdfrwt>
<pdfrwt beam="2">  1       -5 0.59492799E-01 0.13631617E+03</pdfrwt>
<totfact> 0.23268675E+02</totfact>
</mgrwt>
</event>
<event>
 8    1  0.3573290E-007  0.1321318E+03  0.7546771E-02  0.1224329E+00
          5   -1    0    0  501    0  0.00000000000E+00  0.00000000000E+00  0.79248943996E+02  0.79388192601E+02  0.47000000000E+01 0.  1.
         -5   -1    0    0    0  501 -0.00000000000E+00 -0.00000000000E+00 -0.22203949880E+03  0.22208923663E+03  0.47000000000E+01 0.  1.
         25    2    1    2    0    0  0.74541789630E+01 -0.42157377164E+02 -0.86077669114E+02  0.15769645611E+03  0.12500399161E+03 0.  0.
         25    2    1    2    0    0 -0.74541789630E+01  0.42157377164E+02 -0.56712885689E+02  0.14378097312E+03  0.12499523029E+03 0.  0.
          5    1    3    3  502    0 -0.40144517576E+02 -0.36893813565E+02  0.47283917537E+01  0.54928894576E+02  0.47000000000E+01 0.  1.
         -5    1    3    3    0  502  0.47598696539E+02 -0.52635635996E+01 -0.90806060867E+02  0.10276756154E+03  0.47000000000E+01 0.  1.
          5    1    4    4  503    0 -0.50383367914E+02 -0.26761985136E+01  0.10946402638E+02  0.51841677553E+02  0.47000000000E+01 0. -1.
         -5    1    4    4    0  503  0.42929188951E+02  0.44833575678E+02 -0.67659288327E+02  0.91939295565E+02  0.47000000000E+01 0. -1.
<mgrwt>
<rscale>  0 0.13212971E+03</rscale>
<asrwt>0</asrwt>
<pdfrwt beam="1">  1        5 0.12206683E-01 0.13213178E+03</pdfrwt>
<pdfrwt beam="2">  1       -5 0.34174460E-01 0.13213178E+03</pdfrwt>
<totfact> 0.33615229E+02</totfact>
</mgrwt>
</event>
<event>
 8    1  0.3573290E-007  0.1565242E+03  0.7546771E-02  0.1192697E+00
         -5   -1    0    0    0  501 -0.00000000000E+00  0.00000000000E+00  0.36899726646E+03  0.36902719772E+03  0.47000000000E+01 0.  1.
          5   -1    0    0  501    0  0.00000000000E+00 -0.00000000000E+00 -0.67784404883E+02  0.67947152592E+02  0.47000000000E+01 0.  1.
         25    2    1    2    0    0 -0.64877944802E+01  0.93884355616E+02  0.18343763748E+03  0.24114145785E+03  0.12507386675E+03 0.  0.
         25    2    1    2    0    0  0.64877944802E+01 -0.93884355616E+02  0.11777522409E+03  0.19583289245E+03  0.12499261838E+03 0.  0.
          5    1    4    4  502    0 -0.58991398705E+02 -0.49314096020E+02  0.61127985226E+02  0.98339136488E+02  0.47000000000E+01 0. -1.
         -5    1    4    4    0  502  0.65479193186E+02 -0.44570259596E+02  0.56647238867E+02  0.97493755964E+02  0.47000000000E+01 0. -1.
          5    1    3    3  503    0  0.56940034458E+02  0.55946329509E+02  0.11658520519E+03  0.14137312114E+03  0.47000000000E+01 0. -1.
         -5    1    3    3    0  503 -0.63427828938E+02  0.37938026107E+02  0.66852432287E+02  0.99768336718E+02  0.47000000000E+01 0. -1.
<mgrwt>
<rscale>  0 0.15650800E+03</rscale>
<asrwt>0</asrwt>
<pdfrwt beam="2">  1        5 0.10443191E-01 0.15652423E+03</pdfrwt>
<pdfrwt beam="1">  1       -5 0.56783633E-01 0.15652423E+03</pdfrwt>
<totfact> 0.16296212E+02</totfact>
</mgrwt>
</event>
<event>
 8    1  0.3573290E-007  0.1357922E+03  0.7546771E-02  0.1219107E+00
         -5   -1    0    0    0  501 -0.00000000000E+00  0.00000000000E+00  0.39399562588E+01  0.61329646437E+01  0.47000000000E+01 0.  1.
          5   -1    0    0  501    0  0.00000000000E+00 -0.00000000000E+00 -0.38967017965E+04  0.38967046310E+04  0.47000000000E+01 0.  1.
         25    2    1    2    0    0 -0.19857137983E+02  0.49190134259E+02 -0.14644689185E+04  0.14707508281E+04  0.12499923874E+03 0.  0.
         25    2    1    2    0    0  0.19857137983E+02 -0.49190134259E+02 -0.24282929217E+04  0.24320867675E+04  0.12500222353E+03 0.  0.
          5    1    3    3  502    0  0.43442996072E+02  0.18724203762E+02 -0.98431208981E+03  0.98545942071E+03  0.47000000000E+01 0. -1.
         -5    1    3    3    0  502 -0.63300134055E+02  0.30465930497E+02 -0.48015682873E+03  0.48529140737E+03  0.47000000000E+01 0. -1.
          5    1    4    4  503    0 -0.58212826359E+01  0.38609063740E+02 -0.46574643601E+03  0.46740387225E+03  0.47000000000E+01 0. -1.
         -5    1    4    4    0  503  0.25678420619E+02 -0.87799197999E+02 -0.19625464857E+04  0.19646828953E+04  0.47000000000E+01 0. -1.
<mgrwt>
<rscale>  0 0.13579155E+03</rscale>
<asrwt>0</asrwt>
<pdfrwt beam="2">  1        5 0.59965908E+00 0.13579224E+03</pdfrwt>
<pdfrwt beam="1">  1       -5 0.77506122E-03 0.13579224E+03</pdfrwt>
<totfact> 0.56428198E-01</totfact>
</mgrwt>
</event>
<event>
 8    1  0.3573290E-007  0.1346365E+03  0.7546771E-02  0.1220734E+00
          5   -1    0    0  501    0  0.00000000000E+00  0.00000000000E+00  0.43498686264E+03  0.43501225347E+03  0.47000000000E+01 0. -1.
         -5   -1    0    0    0  501 -0.00000000000E+00 -0.00000000000E+00 -0.57336685441E+02  0.57528997013E+02  0.47000000000E+01 0. -1.
         25    2    1    2    0    0 -0.32416611619E+02 -0.38076676488E+02  0.59736138802E+02  0.14729306063E+03  0.12500467764E+03 0.  0.
         25    2    1    2    0    0  0.32416611619E+02  0.38076676488E+02  0.31791403840E+03  0.34524818985E+03  0.12500522702E+03 0.  0.
          5    1    3    3  502    0 -0.17201244544E+02 -0.26216252710E+02  0.98642470199E+02  0.10361274848E+03  0.47000000000E+01 0.  1.
         -5    1    3    3    0  502 -0.15215367075E+02 -0.11860423778E+02 -0.38906331396E+02  0.43680312157E+02  0.47000000000E+01 0.  1.
          5    1    4    4  503    0 -0.14523640011E+02  0.67948447344E+02  0.23639231872E+03  0.24643730636E+03  0.47000000000E+01 0.  1.
         -5    1    4    4    0  503  0.46940251630E+02 -0.29871770856E+02  0.81521719679E+02  0.98810883493E+02  0.47000000000E+01 0.  1.
<mgrwt>
<rscale>  0 0.13463633E+03</rscale>
<asrwt>0</asrwt>
<pdfrwt beam="1">  1        5 0.66937803E-01 0.13463646E+03</pdfrwt>
<pdfrwt beam="2">  1       -5 0.88377748E-02 0.13463646E+03</pdfrwt>
<totfact> 0.14444645E+02</totfact>
</mgrwt>
</event>
<event>
 8    1  0.3573290E-007  0.1251828E+03  0.7546771E-02  0.1234785E+00
          5   -1    0    0  501    0  0.00000000000E+00  0.00000000000E+00  0.68657725872E+03  0.68659334558E+03  0.47000000000E+01 0. -1.
         -5   -1    0    0    0  501 -0.00000000000E+00 -0.00000000000E+00 -0.24625327495E+02  0.25069837539E+02  0.47000000000E+01 0. -1.
         25    2    1    2    0    0 -0.22203440209E+01  0.63177217301E+01  0.22905439740E+03  0.26102996015E+03  0.12500351832E+03 0.  0.
         25    2    1    2    0    0  0.22203440209E+01 -0.63177217301E+01  0.43289753383E+03  0.45063322297E+03  0.12500073325E+03 0.  0.
          5    1    4    4  502    0 -0.22228627153E+02  0.44562349201E+02  0.32445224964E+03  0.32828534407E+03  0.47000000000E+01 0.  1.
         -5    1    4    4    0  502  0.24448971174E+02 -0.50880070931E+02  0.10844528418E+03  0.12234787890E+03  0.47000000000E+01 0.  1.
          5    1    3    3  503    0 -0.23497261825E+02 -0.37581259145E+02  0.24857205977E+02  0.51033744142E+02  0.47000000000E+01 0. -1.
         -5    1    3    3    0  503  0.21276917804E+02  0.43898980875E+02  0.20419719143E+03  0.20999621601E+03  0.47000000000E+01 0. -1.
<mgrwt>
<rscale>  0 0.12518206E+03</rscale>
<asrwt>0</asrwt>
<pdfrwt beam="1">  1        5 0.10566270E+00 0.12518276E+03</pdfrwt>
<pdfrwt beam="2">  1       -5 0.38239426E-02 0.12518276E+03</pdfrwt>
<totfact> 0.19729455E+02</totfact>
</mgrwt>
</event>
<event>
 8    1  0.3573290E-007  0.1541828E+03  0.7546771E-02  0.1195430E+00
          5   -1    0    0  501    0  0.00000000000E+00  0.00000000000E+00  0.16831695882E+04  0.16831761503E+04  0.47000000000E+01 0. -1.
         -5   -1    0    0    0  501 -0.00000000000E+00 -0.00000000000E+00 -0.17342957847E+02  0.17968533242E+02  0.47000000000E+01 0. -1.
         25    2    1    2    0    0 -0.18398402928E+02 -0.88355367027E+02  0.45214210536E+03  0.47770789172E+03  0.12500869672E+03 0.  0.
         25    2    1    2    0    0  0.18398402928E+02  0.88355367027E+02  0.12136845250E+04  0.12234367918E+04  0.12498913977E+03 0.  0.
          5    1    3    3  502    0  0.18602767717E+02 -0.10099385426E+03  0.22761024686E+03  0.24974854563E+03  0.47000000000E+01 0. -1.
         -5    1    3    3    0  502 -0.37001170644E+02  0.12638487238E+02  0.22453185850E+03  0.22795934609E+03  0.47000000000E+01 0. -1.
          5    1    4    4  503    0 -0.11850334371E+02 -0.25183931748E+02  0.11232875918E+03  0.11582098679E+03  0.47000000000E+01 0.  1.
         -5    1    4    4    0  503  0.30248737299E+02  0.11353929877E+03  0.11013557659E+04  0.11076158050E+04  0.47000000000E+01 0.  1.
<mgrwt>
<rscale>  0 0.15417887E+03</rscale>
<asrwt>0</asrwt>
<pdfrwt beam="1">  1        5 0.25899771E+00 0.15418283E+03</pdfrwt>
<pdfrwt beam="2">  1       -5 0.27167742E-02 0.15418283E+03</pdfrwt>
<totfact> 0.26584232E+01</totfact>
</mgrwt>
</event>
<event>
 8    1  0.3573290E-007  0.1256975E+03  0.7546771E-02  0.1233991E+00
         -5   -1    0    0    0  501 -0.00000000000E+00  0.00000000000E+00  0.12230682775E+03  0.12239710011E+03  0.47000000000E+01 0.  1.
          5   -1    0    0  501    0  0.00000000000E+00 -0.00000000000E+00 -0.12914692590E+03  0.12923242035E+03  0.47000000000E+01 0.  1.
         25    2    1    2    0    0  0.12068153691E+02  0.54159613306E+01  0.11028460458E+01  0.12570236029E+03  0.12499957657E+03 0.  0.
         25    2    1    2    0    0 -0.12068153691E+02 -0.54159613306E+01 -0.79429441971E+01  0.12592716016E+03  0.12497834346E+03 0.  0.
          5    1    4    4  502    0 -0.40231770563E+02 -0.39961245309E+02  0.32527312771E+02  0.65540922829E+02  0.47000000000E+01 0.  1.
         -5    1    4    4    0  502  0.28163616871E+02  0.34545283978E+02 -0.40470256968E+02  0.60386237335E+02  0.47000000000E+01 0.  1.
          5    1    3    3  503    0  0.41278917574E+01 -0.30641755665E+02 -0.52104338975E+02  0.60769308213E+02  0.47000000000E+01 0.  1.
         -5    1    3    3    0  503  0.79402619341E+01  0.36057716996E+02  0.53207185021E+02  0.64933052080E+02  0.47000000000E+01 0.  1.
<mgrwt>
<rscale>  0 0.12569224E+03</rscale>
<asrwt>0</asrwt>
<pdfrwt beam="2">  1        5 0.19882278E-01 0.12569752E+03</pdfrwt>
<pdfrwt beam="1">  1       -5 0.18829956E-01 0.12569752E+03</pdfrwt>
<totfact> 0.42723085E+02</totfact>
</mgrwt>
</event>
<event>
 8    1  0.3573290E-007  0.1365141E+03  0.7546771E-02  0.1218100E+00
         -5   -1    0    0    0  501 -0.00000000000E+00  0.00000000000E+00  0.59537226703E+03  0.59539081816E+03  0.47000000000E+01 0.  1.
          5   -1    0    0  501    0  0.00000000000E+00 -0.00000000000E+00 -0.49174739597E+02  0.49398836165E+02  0.47000000000E+01 0.  1.
         25    2    1    2    0    0  0.50516066019E+02 -0.21396942236E+02  0.46792038646E+03  0.48742566934E+03  0.12499837198E+03 0.  0.
         25    2    1    2    0    0 -0.50516066019E+02  0.21396942236E+02  0.78277140968E+02  0.15736398498E+03  0.12500564351E+03 0.  0.
          5    1    4    4  502    0  0.40239862558E+02 -0.64601105866E+01  0.17917654988E+02  0.44767308695E+02  0.47000000000E+01 0.  1.
         -5    1    4    4    0  502 -0.90755928577E+02  0.27857052822E+02  0.60359485980E+02  0.11259667629E+03  0.47000000000E+01 0.  1.
          5    1    3    3  503    0  0.81123446446E+02  0.13599669262E+02  0.36811435300E+03  0.37722172717E+03  0.47000000000E+01 0. -1.
         -5    1    3    3    0  503 -0.30607380427E+02 -0.34996611497E+02  0.99806033467E+02  0.11020394217E+03  0.47000000000E+01 0. -1.
<mgrwt>
<rscale>  0 0.13651248E+03</rscale>
<asrwt>0</asrwt>
<pdfrwt beam="2">  1        5 0.75840097E-02 0.13651415E+03</pdfrwt>
<pdfrwt beam="1">  1       -5 0.91614399E-01 0.13651415E+03</pdfrwt>
<totfact> 0.91567496E+01</totfact>
</mgrwt>
</event>
<event>
 8    1  0.3573290E-007  0.1298537E+03  0.7546771E-02  0.1227695E+00
         -5   -1    0    0    0  501 -0.00000000000E+00  0.00000000000E+00  0.26835884359E+03  0.26839999801E+03  0.47000000000E+01 0. -1.
          5   -1    0    0  501    0  0.00000000000E+00 -0.00000000000E+00 -0.82560202720E+02  0.82693875669E+02  0.47000000000E+01 0. -1.
         25    2    1    2    0    0  0.34860421293E+02  0.49407723053E+01  0.17897527989E+03  0.22112017190E+03  0.12498927716E+03 0.  0.
         25    2    1    2    0    0 -0.34860421293E+02 -0.49407723053E+01  0.68233609808E+01  0.12997370178E+03  0.12492775791E+03 0.  0.
          5    1    4    4  502    0 -0.12417144686E+02  0.34847152805E+02 -0.46497196921E+02  0.59603597730E+02  0.47000000000E+01 0. -1.
         -5    1    4    4    0  502 -0.22443276607E+02 -0.39787925110E+02  0.53320557902E+02  0.70370104053E+02  0.47000000000E+01 0. -1.
          5    1    3    3  503    0  0.43422414591E+01 -0.67591454830E+01  0.18692487954E+03  0.18715646316E+03  0.47000000000E+01 0.  1.
         -5    1    3    3    0  503  0.30518179834E+02  0.11699917788E+02 -0.79495996574E+01  0.33963708739E+02  0.47000000000E+01 0.  1.
<mgrwt>
<rscale>  0 0.12983888E+03</rscale>
<asrwt>0</asrwt>
<pdfrwt beam="2">  1        5 0.12715018E-01 0.12985369E+03</pdfrwt>
<pdfrwt beam="1">  1       -5 0.41299423E-01 0.12985369E+03</pdfrwt>
<totfact> 0.21177151E+02</totfact>
</mgrwt>
</event>
<event>
 8    1  0.3573290E-007  0.1293243E+03  0.7546771E-02  0.1228463E+00
          5   -1    0    0  501    0  0.00000000000E+00  0.00000000000E+00  0.28853820738E+03  0.28857648400E+03  0.47000000000E+01 0. -1.
         -5   -1    0    0    0  501 -0.00000000000E+00 -0.00000000000E+00 -0.59387456909E+02  0.59573148633E+02  0.47000000000E+01 0. -1.
         25    2    1    2    0    0 -0.32404631360E+02 -0.71207573456E+01  0.86397252410E+02  0.15552893324E+03  0.12499599407E+03 0.  0.
         25    2    1    2    0    0  0.32404631360E+02  0.71207573456E+01  0.14275349806E+03  0.19262069938E+03  0.12499362906E+03 0.  0.
          5    1    4    4  502    0  0.35531049237E+02  0.42552530743E+02  0.11841728494E+02  0.56881366600E+02  0.47000000000E+01 0.  1.
         -5    1    4    4    0  502 -0.31264178768E+01 -0.35431773397E+02  0.13091176956E+03  0.13573933278E+03  0.47000000000E+01 0.  1.
          5    1    3    3  503    0 -0.12871882569E+02 -0.57548192647E+02  0.73125193745E+01  0.59607405391E+02  0.47000000000E+01 0.  1.
         -5    1    3    3    0  503 -0.19532748791E+02  0.50427435302E+02  0.79084733036E+02  0.95921527854E+02  0.47000000000E+01 0.  1.
<mgrwt>
<rscale>  0 0.12932369E+03</rscale>
<asrwt>0</asrwt>
<pdfrwt beam="1">  1        5 0.44407722E-01 0.12932426E+03</pdfrwt>
<pdfrwt beam="2">  1       -5 0.91537601E-02 0.12932426E+03</pdfrwt>
<totfact> 0.32401895E+02</totfact>
</mgrwt>
</event>
<event>
 8    1  0.3573290E-007  0.1334249E+03  0.7546771E-02  0.1222468E+00
          5   -1    0    0  501    0  0.00000000000E+00  0.00000000000E+00  0.21616290178E+03  0.21621399147E+03  0.47000000000E+01 0.  1.
         -5   -1    0    0    0  501 -0.00000000000E+00 -0.00000000000E+00 -0.10934372811E+03  0.10944469323E+03  0.47000000000E+01 0.  1.
         25    2    1    2    0    0  0.44651170408E+02 -0.13477890661E+02 -0.27629986796E+02  0.13625571084E+03  0.12500728783E+03 0.  0.
         25    2    1    2    0    0 -0.44651170408E+02  0.13477890661E+02  0.13444916047E+03  0.18940297386E+03  0.12498611603E+03 0.  0.
          5    1    4    4  502    0 -0.51408665783E+02  0.52141080413E+02  0.13045314160E+03  0.14967182547E+03  0.47000000000E+01 0.  1.
         -5    1    4    4    0  502  0.67574953752E+01 -0.38663189752E+02  0.39960188657E+01  0.39731148389E+02  0.47000000000E+01 0.  1.
          5    1    3    3  503    0 -0.20106607358E+02 -0.21369528548E+02 -0.57213699621E+02  0.64470379510E+02  0.47000000000E+01 0. -1.
         -5    1    3    3    0  503  0.64757777766E+02  0.78916378873E+01  0.29583712825E+02  0.71785331331E+02  0.47000000000E+01 0. -1.
<mgrwt>
<rscale>  0 0.13341994E+03</rscale>
<asrwt>0</asrwt>
<pdfrwt beam="1">  1        5 0.33267527E-01 0.13342489E+03</pdfrwt>
<pdfrwt beam="2">  1       -5 0.16833809E-01 0.13342489E+03</pdfrwt>
<totfact> 0.19944987E+02</totfact>
</mgrwt>
</event>
<event>
 8    1  0.3573290E-007  0.1295651E+03  0.7546771E-02  0.1228103E+00
          5   -1    0    0  501    0  0.00000000000E+00  0.00000000000E+00  0.12511713058E+03  0.12520537674E+03  0.47000000000E+01 0.  1.
         -5   -1    0    0    0  501 -0.00000000000E+00 -0.00000000000E+00 -0.14246502818E+03  0.14254253489E+03  0.47000000000E+01 0.  1.
         25    2    1    2    0    0  0.12157590808E+01 -0.34068236605E+02 -0.41298882225E+02  0.13598767416E+03  0.12499970814E+03 0.  0.
         25    2    1    2    0    0 -0.12157590808E+01  0.34068236605E+02  0.23950984630E+02  0.13176023747E+03  0.12499995079E+03 0.  0.
          5    1    4    4  502    0 -0.78180881091E+00  0.40462475709E+02  0.72177908997E+02  0.82882831230E+02  0.47000000000E+01 0.  1.
         -5    1    4    4    0  502 -0.43395026990E+00 -0.63942391040E+01 -0.48226924367E+02  0.48877406237E+02  0.47000000000E+01 0.  1.
          5    1    3    3  503    0 -0.31628355804E+02 -0.52226274081E+02  0.19601491407E+02  0.64298095311E+02  0.47000000000E+01 0. -1.
         -5    1    3    3    0  503  0.32844114884E+02  0.18158037476E+02 -0.60900373632E+02  0.71689578852E+02  0.47000000000E+01 0. -1.
<mgrwt>
<rscale>  0 0.12956502E+03</rscale>
<asrwt>0</asrwt>
<pdfrwt beam="1">  1        5 0.19261540E-01 0.12956508E+03</pdfrwt>
<pdfrwt beam="2">  1       -5 0.21930447E-01 0.12956508E+03</pdfrwt>
<totfact> 0.34477795E+02</totfact>
</mgrwt>
</event>
<event>
 8    1  0.3573290E-007  0.1279124E+03  0.7546771E-02  0.1230588E+00
          5   -1    0    0  501    0  0.00000000000E+00  0.00000000000E+00  0.13509548071E+04  0.13509629828E+04  0.47000000000E+01 0. -1.
         -5   -1    0    0    0  501 -0.00000000000E+00 -0.00000000000E+00 -0.12874449385E+02  0.13705526147E+02  0.47000000000E+01 0. -1.
         25    2    1    2    0    0  0.23211399922E+02  0.14056708848E+02  0.46515224496E+03  0.48241910207E+03  0.12500087560E+03 0.  0.
         25    2    1    2    0    0 -0.23211399922E+02 -0.14056708848E+02  0.87292811278E+03  0.88224940687E+03  0.12499666277E+03 0.  0.
          5    1    4    4  502    0  0.31947043898E+02 -0.46966758376E+02  0.55118405451E+03  0.55412312887E+03  0.47000000000E+01 0.  1.
         -5    1    4    4    0  502 -0.55158443821E+02  0.32910049528E+02  0.32174405827E+03  0.32812627800E+03  0.47000000000E+01 0.  1.
          5    1    3    3  503    0 -0.46623802460E+00 -0.44015819065E+02  0.33452224605E+03  0.33743863562E+03  0.47000000000E+01 0.  1.
         -5    1    3    3    0  503  0.23677637947E+02  0.58072527912E+02  0.13062999891E+03  0.14498046645E+03  0.47000000000E+01 0.  1.
<mgrwt>
<rscale>  0 0.12791136E+03</rscale>
<asrwt>0</asrwt>
<pdfrwt beam="1">  1        5 0.20790380E+00 0.12791239E+03</pdfrwt>
<pdfrwt beam="2">  1       -5 0.20452420E-02 0.12791239E+03</pdfrwt>
<totfact> 0.84791251E+01</totfact>
</mgrwt>
</event>
<event>
 8    1  0.3573290E-007  0.1792998E+03  0.7546771E-02  0.1168485E+00
          5   -1    0    0  501    0  0.00000000000E+00  0.00000000000E+00  0.30701504712E+03  0.30705102045E+03  0.47000000000E+01 0.  1.
         -5   -1    0    0    0  501 -0.00000000000E+00 -0.00000000000E+00 -0.10580189192E+03  0.10590623369E+03  0.47000000000E+01 0.  1.
         25    2    1    2    0    0  0.12816087633E+03  0.99001276645E+01  0.12249192777E+03  0.21713729205E+03  0.12498443296E+03 0.  0.
         25    2    1    2    0    0 -0.12816087633E+03 -0.99001276645E+01  0.78721227427E+02  0.19581996208E+03  0.12500081261E+03 0.  0.
          5    1    4    4  502    0 -0.92266606807E+01 -0.51180778899E+02  0.13397735211E+02  0.53909115230E+02  0.47000000000E+01 0.  1.
         -5    1    4    4    0  502 -0.11893421565E+03  0.41280651235E+02  0.65323492215E+02  0.14191084685E+03  0.47000000000E+01 0.  1.
          5    1    3    3  503    0  0.12881043013E+03 -0.22521835840E+02  0.12898252909E+03  0.18373334703E+03  0.47000000000E+01 0. -1.
         -5    1    3    3    0  503 -0.64955379914E+00  0.32421963504E+02 -0.64906013203E+01  0.33403945023E+02  0.47000000000E+01 0. -1.
<mgrwt>
<rscale>  0 0.17929697E+03</rscale>
<asrwt>0</asrwt>
<pdfrwt beam="1">  1        5 0.47243877E-01 0.17929982E+03</pdfrwt>
<pdfrwt beam="2">  1       -5 0.16288008E-01 0.17929982E+03</pdfrwt>
<totfact> 0.11343474E+02</totfact>
</mgrwt>
</event>
<event>
 8    1  0.3573290E-007  0.1675986E+03  0.7546771E-02  0.1180379E+00
          5   -1    0    0  501    0  0.00000000000E+00  0.00000000000E+00  0.55239035639E+02  0.55438624246E+02  0.47000000000E+01 0.  1.
         -5   -1    0    0    0  501 -0.00000000000E+00 -0.00000000000E+00 -0.93148269207E+03  0.93149454944E+03  0.47000000000E+01 0.  1.
         25    2    1    2    0    0 -0.52378381899E+02 -0.98573236110E+02 -0.77106175227E+03  0.78906321116E+03  0.12499739049E+03 0.  0.
         25    2    1    2    0    0  0.52378381899E+02  0.98573236110E+02 -0.10518190417E+03  0.19786996252E+03  0.12501644427E+03 0.  0.
          5    1    3    3  502    0 -0.60407961176E+02 -0.35617661129E+02 -0.63473096184E+03  0.63861038473E+03  0.47000000000E+01 0. -1.
         -5    1    3    3    0  502  0.80295792767E+01 -0.62955574981E+02 -0.13633079043E+03  0.15045282644E+03  0.47000000000E+01 0. -1.
          5    1    4    4  503    0  0.85044877391E+02  0.61222310999E+02 -0.32640957325E+02  0.10985592669E+03  0.47000000000E+01 0.  1.
         -5    1    4    4    0  503 -0.32666495491E+02  0.37350925112E+02 -0.72540946841E+02  0.88014035829E+02  0.47000000000E+01 0.  1.
<mgrwt>
<rscale>  0 0.16759504E+03</rscale>
<asrwt>0</asrwt>
<pdfrwt beam="1">  1        5 0.85145790E-02 0.16759860E+03</pdfrwt>
<pdfrwt beam="2">  1       -5 0.14332128E+00 0.16759860E+03</pdfrwt>
<totfact> 0.25713659E+01</totfact>
</mgrwt>
</event>
<event>
 8    1  0.3573290E-007  0.1289878E+03  0.7546771E-02  0.1228966E+00
         -5   -1    0    0    0  501 -0.00000000000E+00  0.00000000000E+00  0.35327837522E+03  0.35330963813E+03  0.47000000000E+01 0. -1.
          5   -1    0    0  501    0  0.00000000000E+00 -0.00000000000E+00 -0.50234725823E+02  0.50454114584E+02  0.47000000000E+01 0. -1.
         25    2    1    2    0    0 -0.14548651439E+02  0.28314810646E+02  0.20305989567E+03  0.24056430342E+03  0.12499788433E+03 0.  0.
         25    2    1    2    0    0  0.14548651439E+02 -0.28314810646E+02  0.99983753719E+02  0.16319944929E+03  0.12499566985E+03 0.  0.
          5    1    4    4  502    0 -0.46424900076E+02 -0.11548760967E+02  0.85605649841E+02  0.98178727388E+02  0.47000000000E+01 0.  1.
         -5    1    4    4    0  502  0.60973551514E+02 -0.16766049680E+02  0.14378103878E+02  0.65020721907E+02  0.47000000000E+01 0.  1.
          5    1    3    3  503    0 -0.59408587195E+02  0.10986380736E+02  0.17383433545E+03  0.18409385372E+03  0.47000000000E+01 0. -1.
         -5    1    3    3    0  503  0.44859935756E+02  0.17328429910E+02  0.29225560221E+02  0.56470449701E+02  0.47000000000E+01 0. -1.
<mgrwt>
<rscale>  0 0.12898730E+03</rscale>
<asrwt>0</asrwt>
<pdfrwt beam="2">  1        5 0.77477004E-02 0.12898784E+03</pdfrwt>
<pdfrwt beam="1">  1       -5 0.54369799E-01 0.12898784E+03</pdfrwt>
<totfact> 0.28127034E+02</totfact>
</mgrwt>
</event>
<event>
 8    1  0.3573290E-007  0.1343116E+03  0.7546771E-02  0.1221196E+00
          5   -1    0    0  501    0  0.00000000000E+00  0.00000000000E+00  0.60079792323E+02  0.60263350766E+02  0.47000000000E+01 0.  1.
         -5   -1    0    0    0  501 -0.00000000000E+00 -0.00000000000E+00 -0.35520949129E+03  0.35524058425E+03  0.47000000000E+01 0.  1.
         25    2    1    2    0    0  0.24968907212E+02 -0.42325931322E+02 -0.22974635318E+03  0.26612590939E+03  0.12499872822E+03 0.  0.
         25    2    1    2    0    0 -0.24968907212E+02  0.42325931322E+02 -0.65383345781E+02  0.14937802563E+03  0.12499552731E+03 0.  0.
          5    1    4    4  502    0 -0.63098774665E+01  0.26280795455E+02 -0.10165679548E+03  0.10529334656E+03  0.47000000000E+01 0. -1.
         -5    1    4    4    0  502 -0.18659029746E+02  0.16045135867E+02  0.36273449695E+02  0.44084679071E+02  0.47000000000E+01 0. -1.
          5    1    3    3  503    0 -0.21600698133E+02  0.32702697918E+02 -0.37185269327E+02  0.54229981245E+02  0.47000000000E+01 0. -1.
         -5    1    3    3    0  503  0.46569605345E+02 -0.75028629240E+02 -0.19256108386E+03  0.21189592814E+03  0.47000000000E+01 0. -1.
<mgrwt>
<rscale>  0 0.13431088E+03</rscale>
<asrwt>0</asrwt>
<pdfrwt beam="1">  1        5 0.92595568E-02 0.13431163E+03</pdfrwt>
<pdfrwt beam="2">  1       -5 0.54664124E-01 0.13431163E+03</pdfrwt>
<totfact> 0.20751889E+02</totfact>
</mgrwt>
</event>
<event>
 8    1  0.3573290E-007  0.1353965E+03  0.7546771E-02  0.1219664E+00
          5   -1    0    0  501    0  0.00000000000E+00  0.00000000000E+00  0.70922053824E+02  0.71077617564E+02  0.47000000000E+01 0. -1.
         -5   -1    0    0    0  501 -0.00000000000E+00 -0.00000000000E+00 -0.25929862380E+03  0.25934121598E+03  0.47000000000E+01 0. -1.
         25    2    1    2    0    0 -0.15759917288E+01 -0.51988338990E+02 -0.10585359174E+03  0.17186389693E+03  0.12500777992E+03 0.  0.
         25    2    1    2    0    0  0.15759917288E+01  0.51988338990E+02 -0.82522978236E+02  0.15855493661E+03  0.12499741936E+03 0.  0.
          5    1    4    4  502    0 -0.14067968331E+01 -0.40542951022E+02 -0.13608598480E+02  0.43046415733E+02  0.47000000000E+01 0. -1.
         -5    1    4    4    0  502  0.29827885619E+01  0.92531290012E+02 -0.68914379756E+02  0.11550852088E+03  0.47000000000E+01 0. -1.
          5    1    3    3  503    0 -0.93886895955E+01 -0.84399848272E+02 -0.32312459841E+02  0.90981684650E+02  0.47000000000E+01 0.  1.
         -5    1    3    3    0  503  0.78126978667E+01  0.32411509282E+02 -0.73541131898E+02  0.80882212276E+02  0.47000000000E+01 0.  1.
<mgrwt>
<rscale>  0 0.13539412E+03</rscale>
<asrwt>0</asrwt>
<pdfrwt beam="1">  1        5 0.10926328E-01 0.13539651E+03</pdfrwt>
<pdfrwt beam="2">  1       -5 0.39907338E-01 0.13539651E+03</pdfrwt>
<totfact> 0.30141737E+02</totfact>
</mgrwt>
</event>
<event>
 8    1  0.3573290E-007  0.1270647E+03  0.7546771E-02  0.1231878E+00
          5   -1    0    0  501    0  0.00000000000E+00  0.00000000000E+00  0.18995827591E+04  0.18995885735E+04  0.47000000000E+01 0.  1.
         -5   -1    0    0    0  501 -0.00000000000E+00 -0.00000000000E+00 -0.15153357935E+02  0.15865505246E+02  0.47000000000E+01 0.  1.
         25    2    1    2    0    0 -0.20279653347E+02 -0.10411100133E+02  0.29819151255E+03  0.32413519002E+03  0.12500315157E+03 0.  0.
         25    2    1    2    0    0  0.20279653347E+02  0.10411100133E+02  0.15862378886E+04  0.15913188888E+04  0.12500204435E+03 0.  0.
          5    1    4    4  502    0  0.48621218787E+02 -0.43136767169E+02  0.92605306042E+03  0.92834323627E+03  0.47000000000E+01 0.  1.
         -5    1    4    4    0  502 -0.28341565440E+02  0.53547867303E+02  0.66018482818E+03  0.66297565248E+03  0.47000000000E+01 0.  1.
          5    1    3    3  503    0  0.27387160425E+02 -0.43981227806E+02  0.22237113496E+03  0.22837560425E+03  0.47000000000E+01 0.  1.
         -5    1    3    3    0  503 -0.47666813771E+02  0.33570127672E+02  0.75820377594E+02  0.95759585764E+02  0.47000000000E+01 0.  1.
<mgrwt>
<rscale>  0 0.12706445E+03</rscale>
<asrwt>0</asrwt>
<pdfrwt beam="1">  1        5 0.29229888E+00 0.12706472E+03</pdfrwt>
<pdfrwt beam="2">  1       -5 0.23865125E-02 0.12706472E+03</pdfrwt>
<totfact> 0.19251185E+01</totfact>
</mgrwt>
</event>
<event>
 8    1  0.3573290E-007  0.1483964E+03  0.7546771E-02  0.1202460E+00
          5   -1    0    0  501    0  0.00000000000E+00  0.00000000000E+00  0.10369564027E+03  0.10380209927E+03  0.47000000000E+01 0.  1.
         -5   -1    0    0    0  501 -0.00000000000E+00 -0.00000000000E+00 -0.27051805700E+03  0.27055888299E+03  0.47000000000E+01 0.  1.
         25    2    1    2    0    0 -0.79915621909E+02  0.30021799359E+01 -0.17036036670E+03  0.22592950503E+03  0.12500386791E+03 0.  0.
         25    2    1    2    0    0  0.79915621909E+02 -0.30021799359E+01  0.35379499690E+01  0.14843147722E+03  0.12499546644E+03 0.  0.
          5    1    4    4  502    0 -0.24236722768E+02  0.27879735968E+02 -0.10751745942E+02  0.38760655941E+02  0.47000000000E+01 0. -1.
         -5    1    4    4    0  502  0.10415234468E+03 -0.30881915903E+02  0.14289695911E+02  0.10967082128E+03  0.47000000000E+01 0. -1.
          5    1    3    3  503    0 -0.22532622263E+02  0.60783404188E+02 -0.58202409560E+02  0.87246500041E+02  0.47000000000E+01 0.  1.
         -5    1    3    3    0  503 -0.57382999645E+02 -0.57781224252E+02 -0.11215795714E+03  0.13868300499E+03  0.47000000000E+01 0.  1.
<mgrwt>
<rscale>  0 0.14839461E+03</rscale>
<asrwt>0</asrwt>
<pdfrwt beam="1">  1        5 0.15964505E-01 0.14839638E+03</pdfrwt>
<pdfrwt beam="2">  1       -5 0.41629492E-01 0.14839638E+03</pdfrwt>
<totfact> 0.14456578E+02</totfact>
</mgrwt>
</event>
<event>
 8    1  0.3573290E-007  0.1265030E+03  0.7546771E-02  0.1232739E+00
          5   -1    0    0  501    0  0.00000000000E+00  0.00000000000E+00  0.21361776535E+03  0.21366946359E+03  0.47000000000E+01 0. -1.
         -5   -1    0    0    0  501 -0.00000000000E+00 -0.00000000000E+00 -0.75118415592E+02  0.75265306490E+02  0.47000000000E+01 0. -1.
         25    2    1    2    0    0  0.19179139298E+02 -0.31730262891E+01  0.78947465778E+02  0.14911647636E+03  0.12500045475E+03 0.  0.
         25    2    1    2    0    0 -0.19179139298E+02  0.31730262891E+01  0.59551883976E+02  0.13981829373E+03  0.12499928358E+03 0.  0.
          5    1    3    3  502    0 -0.25695704890E+02 -0.10412425839E+02  0.96234234213E+02  0.10025869387E+03  0.47000000000E+01 0.  1.
         -5    1    3    3    0  502  0.44874844188E+02  0.72393995498E+01 -0.17286768435E+02  0.48857782488E+02  0.47000000000E+01 0.  1.
          5    1    4    4  503    0 -0.46273499507E+02 -0.17452533071E+02 -0.19693064353E+02  0.53439072324E+02  0.47000000000E+01 0.  1.
         -5    1    4    4    0  503  0.27094360210E+02  0.20625559360E+02  0.79244948330E+02  0.86379221401E+02  0.47000000000E+01 0.  1.
<mgrwt>
<rscale>  0 0.12650276E+03</rscale>
<asrwt>0</asrwt>
<pdfrwt beam="1">  1        5 0.32879548E-01 0.12650305E+03</pdfrwt>
<pdfrwt beam="2">  1       -5 0.11571955E-01 0.12650305E+03</pdfrwt>
<totfact> 0.39263377E+02</totfact>
</mgrwt>
</event>
<event>
 8    1  0.3573290E-007  0.1279609E+03  0.7546771E-02  0.1230515E+00
          5   -1    0    0  501    0  0.00000000000E+00  0.00000000000E+00  0.47235695004E+03  0.47238033221E+03  0.47000000000E+01 0.  1.
         -5   -1    0    0    0  501 -0.00000000000E+00 -0.00000000000E+00 -0.35506768806E+02  0.35816485464E+02  0.47000000000E+01 0.  1.
         25    2    1    2    0    0  0.27215268281E+02  0.27227416753E+01  0.17541357755E+03  0.21712649976E+03  0.12500363819E+03 0.  0.
         25    2    1    2    0    0 -0.27215268281E+02 -0.27227416753E+01  0.26143660368E+03  0.29107031790E+03  0.12499899227E+03 0.  0.
          5    1    4    4  502    0 -0.38126723851E+02  0.20257951537E+02  0.26161936283E+03  0.26519957141E+03  0.47000000000E+01 0. -1.
         -5    1    4    4    0  502  0.10911455570E+02 -0.22980693212E+02 -0.18275914165E+00  0.25870746492E+02  0.47000000000E+01 0. -1.
          5    1    3    3  503    0 -0.33750680949E+02  0.40167093630E+02  0.49795021068E+02  0.72485433008E+02  0.47000000000E+01 0.  1.
         -5    1    3    3    0  503  0.60965949231E+02 -0.37444351955E+02  0.12561855649E+03  0.14464106676E+03  0.47000000000E+01 0.  1.
<mgrwt>
<rscale>  0 0.12795977E+03</rscale>
<asrwt>0</asrwt>
<pdfrwt beam="1">  1        5 0.72695916E-01 0.12796091E+03</pdfrwt>
<pdfrwt beam="2">  1       -5 0.54882034E-02 0.12796091E+03</pdfrwt>
<totfact> 0.26453653E+02</totfact>
</mgrwt>
</event>
<event>
 8    1  0.3573290E-007  0.1334109E+03  0.7546771E-02  0.1222481E+00
          5   -1    0    0  501    0  0.00000000000E+00  0.00000000000E+00  0.18157678513E+03  0.18163760321E+03  0.47000000000E+01 0. -1.
         -5   -1    0    0    0  501 -0.00000000000E+00 -0.00000000000E+00 -0.10272881041E+03  0.10283627030E+03  0.47000000000E+01 0. -1.
         25    2    1    2    0    0  0.44780836023E+01 -0.46419178530E+02  0.85702374695E+01  0.13368452198E+03  0.12499323614E+03 0.  0.
         25    2    1    2    0    0 -0.44780836023E+01  0.46419178530E+02  0.70277737251E+02  0.15078935152E+03  0.12499469913E+03 0.  0.
          5    1    3    3  502    0 -0.42543394572E+02 -0.27111719288E+02 -0.38976435720E+02  0.63923691116E+02  0.47000000000E+01 0. -1.
         -5    1    3    3    0  502  0.47021478174E+02 -0.19307459241E+02  0.47546673190E+02  0.69760830868E+02  0.47000000000E+01 0. -1.
          5    1    4    4  503    0  0.36002058293E+02  0.19488483630E+02 -0.21754788130E+02  0.46597317542E+02  0.47000000000E+01 0. -1.
         -5    1    4    4    0  503 -0.40480141895E+02  0.26930694900E+02  0.92032525381E+02  0.10419203397E+03  0.47000000000E+01 0. -1.
<mgrwt>
<rscale>  0 0.13341056E+03</rscale>
<asrwt>0</asrwt>
<pdfrwt beam="1">  1        5 0.27947834E-01 0.13341090E+03</pdfrwt>
<pdfrwt beam="2">  1       -5 0.15817377E-01 0.13341090E+03</pdfrwt>
<totfact> 0.31471324E+02</totfact>
</mgrwt>
</event>
<event>
 8    1  0.3573290E-007  0.1440190E+03  0.7546771E-02  0.1208024E+00
         -5   -1    0    0    0  501 -0.00000000000E+00  0.00000000000E+00  0.36613894333E+02  0.36914323213E+02  0.47000000000E+01 0.  1.
          5   -1    0    0  501    0  0.00000000000E+00 -0.00000000000E+00 -0.70732987829E+03  0.70734549318E+03  0.47000000000E+01 0.  1.
         25    2    1    2    0    0 -0.44402270678E+02  0.56063014060E+02 -0.16777441927E+03  0.22110430172E+03  0.12499693312E+03 0.  0.
         25    2    1    2    0    0  0.44402270678E+02 -0.56063014060E+02 -0.50294156469E+03  0.52315551468E+03  0.12500740722E+03 0.  0.
          5    1    3    3  502    0 -0.57737427313E+02 -0.23939909205E+02 -0.69273580852E+02  0.93421885923E+02  0.47000000000E+01 0. -1.
         -5    1    3    3    0  502  0.13335156635E+02  0.80002923265E+02 -0.98500838418E+02  0.12768241579E+03  0.47000000000E+01 0. -1.
          5    1    4    4  503    0 -0.41926966948E+02 -0.22084372621E+02 -0.22878651767E+03  0.23368986015E+03  0.47000000000E+01 0.  1.
         -5    1    4    4    0  503  0.86329237626E+02 -0.33978641439E+02 -0.27415504702E+03  0.28946565453E+03  0.47000000000E+01 0.  1.
<mgrwt>
<rscale>  0 0.14401674E+03</rscale>
<asrwt>0</asrwt>
<pdfrwt beam="2">  1        5 0.10884428E+00 0.14401901E+03</pdfrwt>
<pdfrwt beam="1">  1       -5 0.56572184E-02 0.14401901E+03</pdfrwt>
<totfact> 0.10048965E+02</totfact>
</mgrwt>
</event>
<event>
 8    1  0.3573290E-007  0.1315663E+03  0.7546771E-02  0.1225150E+00
         -5   -1    0    0    0  501 -0.00000000000E+00  0.00000000000E+00  0.30329134739E+02  0.30691145531E+02  0.47000000000E+01 0.  1.
          5   -1    0    0  501    0  0.00000000000E+00 -0.00000000000E+00 -0.57133702299E+03  0.57135635451E+03  0.47000000000E+01 0.  1.
         25    2    1    2    0    0 -0.24833557869E+02  0.32680741168E+02 -0.24417940127E+03  0.27736792090E+03  0.12499858840E+03 0.  0.
         25    2    1    2    0    0  0.24833557869E+02 -0.32680741168E+02 -0.29682848698E+03  0.32467957914E+03  0.12499976795E+03 0.  0.
          5    1    3    3  502    0 -0.56059323606E+02  0.57603295831E+02 -0.10396856956E+03  0.13150034566E+03  0.47000000000E+01 0.  1.
         -5    1    3    3    0  502  0.31225765737E+02 -0.24922554663E+02 -0.14021083172E+03  0.14586757524E+03  0.47000000000E+01 0.  1.
          5    1    4    4  503    0  0.57570391014E+02 -0.14452416787E+02 -0.27434047787E+03  0.28072764394E+03  0.47000000000E+01 0. -1.
         -5    1    4    4    0  503 -0.32736833145E+02 -0.18228324381E+02 -0.22488009109E+02  0.43951935200E+02  0.47000000000E+01 0. -1.
<mgrwt>
<rscale>  0 0.13156597E+03</rscale>
<asrwt>0</asrwt>
<pdfrwt beam="2">  1        5 0.87927330E-01 0.13156625E+03</pdfrwt>
<pdfrwt beam="1">  1       -5 0.46953552E-02 0.13156625E+03</pdfrwt>
<totfact> 0.22307313E+02</totfact>
</mgrwt>
</event>
<event>
 8    1  0.3573290E-007  0.1290221E+03  0.7546771E-02  0.1228916E+00
          5   -1    0    0  501    0  0.00000000000E+00  0.00000000000E+00  0.83939277531E+02  0.84070757772E+02  0.47000000000E+01 0.  1.
         -5   -1    0    0    0  501 -0.00000000000E+00 -0.00000000000E+00 -0.22487194261E+03  0.22492105409E+03  0.47000000000E+01 0.  1.
         25    2    1    2    0    0 -0.33647336770E+00  0.31954472590E+02 -0.12385537237E+03  0.17884871459E+03  0.12500203163E+03 0.  0.
         25    2    1    2    0    0  0.33647336770E+00 -0.31954472590E+02 -0.17077292708E+02  0.13014309727E+03  0.12499756121E+03 0.  0.
          5    1    3    3  502    0  0.36484103326E+01  0.30675320090E+02  0.18527446076E+02  0.36326882864E+02  0.47000000000E+01 0.  1.
         -5    1    3    3    0  502 -0.39848837003E+01  0.12791524998E+01 -0.14238281844E+03  0.14252183172E+03  0.47000000000E+01 0.  1.
          5    1    4    4  503    0  0.29257035578E+02 -0.72844422950E+02 -0.12550528374E+02  0.79635983376E+02  0.47000000000E+01 0.  1.
         -5    1    4    4    0  503 -0.28920562211E+02  0.40889950360E+02 -0.45267643336E+01  0.50507113899E+02  0.47000000000E+01 0.  1.
<mgrwt>
<rscale>  0 0.12902104E+03</rscale>
<asrwt>0</asrwt>
<pdfrwt beam="1">  1        5 0.12927627E-01 0.12902213E+03</pdfrwt>
<pdfrwt beam="2">  1       -5 0.34609575E-01 0.12902213E+03</pdfrwt>
<totfact> 0.29341425E+02</totfact>
</mgrwt>
</event>
<event>
 8    1  0.3573290E-007  0.1310832E+03  0.7546771E-02  0.1225857E+00
         -5   -1    0    0    0  501 -0.00000000000E+00  0.00000000000E+00  0.45366555715E+03  0.45368990263E+03  0.47000000000E+01 0.  1.
          5   -1    0    0  501    0  0.00000000000E+00 -0.00000000000E+00 -0.48140243677E+02  0.48369133353E+02  0.47000000000E+01 0.  1.
         25    2    1    2    0    0  0.32442088073E+02 -0.22484050026E+02  0.31929826044E+03  0.34515819652E+03  0.12499911969E+03 0.  0.
         25    2    1    2    0    0 -0.32442088073E+02  0.22484050026E+02  0.86227053038E+02  0.15690083946E+03  0.12499898865E+03 0.  0.
          5    1    4    4  502    0  0.34352468663E+01 -0.49284141984E+02  0.42864773028E+02  0.65575958543E+02  0.47000000000E+01 0. -1.
         -5    1    4    4    0  502 -0.35877334940E+02  0.71768192010E+02  0.43362280010E+02  0.91324880916E+02  0.47000000000E+01 0. -1.
          5    1    3    3  503    0 -0.46460877927E+02  0.51689863436E+01  0.12726567488E+03  0.13566124575E+03  0.47000000000E+01 0.  1.
         -5    1    3    3    0  503  0.78902966000E+02 -0.27653036369E+02  0.19203258556E+03  0.20949695077E+03  0.47000000000E+01 0.  1.
<mgrwt>
<rscale>  0 0.13108315E+03</rscale>
<asrwt>0</asrwt>
<pdfrwt beam="2">  1        5 0.74256710E-02 0.13108319E+03</pdfrwt>
<pdfrwt beam="1">  1       -5 0.69814181E-01 0.13108319E+03</pdfrwt>
<totfact> 0.17559428E+02</totfact>
</mgrwt>
</event>
<event>
 8    1  0.3573290E-007  0.1394474E+03  0.7546771E-02  0.1214076E+00
          5   -1    0    0  501    0  0.00000000000E+00  0.00000000000E+00  0.16589814629E+03  0.16596470993E+03  0.47000000000E+01 0.  1.
         -5   -1    0    0    0  501 -0.00000000000E+00 -0.00000000000E+00 -0.16209138548E+03  0.16215951174E+03  0.47000000000E+01 0.  1.
         25    2    1    2    0    0  0.12048355740E+02  0.60614559807E+02 -0.84519541742E+02  0.16306176542E+03  0.12500519457E+03 0.  0.
         25    2    1    2    0    0 -0.12048355740E+02 -0.60614559807E+02  0.88326302553E+02  0.16506245625E+03  0.12499916401E+03 0.  0.
          5    1    3    3  502    0  0.20135191030E+02  0.79451028500E+02 -0.66094077309E+01  0.82363014260E+02  0.47000000000E+01 0. -1.
         -5    1    3    3    0  502 -0.80868352900E+01 -0.18836468693E+02 -0.77910134011E+02  0.80698751164E+02  0.47000000000E+01 0. -1.
          5    1    4    4  503    0 -0.57317497674E+02  0.23635302165E+01  0.57823732180E+02  0.81587718548E+02  0.47000000000E+01 0. -1.
         -5    1    4    4    0  503  0.45269141934E+02 -0.62978090023E+02  0.30502570372E+02  0.83474737698E+02  0.47000000000E+01 0. -1.
<mgrwt>
<rscale>  0 0.13944608E+03</rscale>
<asrwt>0</asrwt>
<pdfrwt beam="1">  1        5 0.25533153E-01 0.13944743E+03</pdfrwt>
<pdfrwt beam="2">  1       -5 0.24947497E-01 0.13944743E+03</pdfrwt>
<totfact> 0.16258300E+02</totfact>
</mgrwt>
</event>
<event>
 8    1  0.3573290E-007  0.3080270E+03  0.7546771E-02  0.1081295E+00
          5   -1    0    0  501    0  0.00000000000E+00  0.00000000000E+00  0.47748838153E+03  0.47751151242E+03  0.47000000000E+01 0. -1.
         -5   -1    0    0    0  501 -0.00000000000E+00 -0.00000000000E+00 -0.20854101967E+03  0.20859397615E+03  0.47000000000E+01 0. -1.
         25    2    1    2    0    0  0.14205391077E+03 -0.24305744747E+03  0.59783874034E+02  0.31377503358E+03  0.12499769505E+03 0.  0.
         25    2    1    2    0    0 -0.14205391077E+03  0.24305744747E+03  0.20916348782E+03  0.37233045498E+03  0.12499746691E+03 0.  0.
          5    1    4    4  502    0 -0.13929956041E+03  0.16312188974E+03  0.99475070735E+02  0.23649629625E+03  0.47000000000E+01 0.  1.
         -5    1    4    4    0  502 -0.27543503590E+01  0.79935557733E+02  0.10968841709E+03  0.13583415873E+03  0.47000000000E+01 0.  1.
          5    1    3    3  503    0  0.56129443142E+02 -0.10037729636E+03 -0.37225209543E+02  0.12097074951E+03  0.47000000000E+01 0.  1.
         -5    1    3    3    0  503  0.85924467624E+02 -0.14268015112E+03  0.97009083578E+02  0.19280428407E+03  0.47000000000E+01 0.  1.
<mgrwt>
<rscale>  0 0.30802702E+03</rscale>
<asrwt>0</asrwt>
<pdfrwt beam="1">  1        5 0.73465603E-01 0.30802704E+03</pdfrwt>
<pdfrwt beam="2">  1       -5 0.32089087E-01 0.30802704E+03</pdfrwt>
<totfact> 0.13312161E+01</totfact>
</mgrwt>
</event>
<event>
 8    1  0.3573290E-007  0.1280579E+03  0.7546771E-02  0.1230369E+00
         -5   -1    0    0    0  501 -0.00000000000E+00  0.00000000000E+00  0.37370452639E+03  0.37373408066E+03  0.47000000000E+01 0. -1.
          5   -1    0    0  501    0  0.00000000000E+00 -0.00000000000E+00 -0.43735088838E+02  0.43986907094E+02  0.47000000000E+01 0. -1.
         25    2    1    2    0    0 -0.21041253845E+02  0.18142914265E+02  0.16862381992E+03  0.21173255386E+03  0.12499912807E+03 0.  0.
         25    2    1    2    0    0  0.21041253845E+02 -0.18142914265E+02  0.16134561763E+03  0.20598843389E+03  0.12500770723E+03 0.  0.
          5    1    3    3  502    0  0.24406864268E+02 -0.91563647006E+01  0.15437852268E+03  0.15663445439E+03  0.47000000000E+01 0. -1.
         -5    1    3    3    0  502 -0.45448118112E+02  0.27299278965E+02  0.14245297247E+02  0.55098099474E+02  0.47000000000E+01 0. -1.
          5    1    4    4  503    0  0.71306373289E+02 -0.12685283078E+02  0.66655013149E+02  0.98541849263E+02  0.47000000000E+01 0.  1.
         -5    1    4    4    0  503 -0.50265119444E+02 -0.54576311869E+01  0.94690604482E+02  0.10744658463E+03  0.47000000000E+01 0.  1.
<mgrwt>
<rscale>  0 0.12805581E+03</rscale>
<asrwt>0</asrwt>
<pdfrwt beam="2">  1        5 0.67501191E-02 0.12805790E+03</pdfrwt>
<pdfrwt beam="1">  1       -5 0.57514649E-01 0.12805790E+03</pdfrwt>
<totfact> 0.31409520E+02</totfact>
</mgrwt>
</event>
<event>
 8    1  0.3573290E-007  0.1254726E+03  0.7546771E-02  0.1234349E+00
         -5   -1    0    0    0  501 -0.00000000000E+00  0.00000000000E+00  0.10124905674E+04  0.10125014761E+04  0.47000000000E+01 0.  1.
          5   -1    0    0  501    0  0.00000000000E+00 -0.00000000000E+00 -0.15723546868E+02  0.16410969688E+02  0.47000000000E+01 0.  1.
         25    2    1    2    0    0  0.96944508526E+01  0.31437616226E+01  0.59224170126E+03  0.60538716257E+03  0.12505805962E+03 0.  0.
         25    2    1    2    0    0 -0.96944508526E+01 -0.31437616226E+01  0.40452531924E+03  0.42352528318E+03  0.12501626281E+03 0.  0.
          5    1    4    4  502    0  0.29704815147E+02  0.32484673083E+02  0.32357082437E+03  0.32658505541E+03  0.47000000000E+01 0. -1.
         -5    1    4    4    0  502 -0.39399265999E+02 -0.35628434706E+02  0.80954494869E+02  0.96940227771E+02  0.47000000000E+01 0. -1.
          5    1    3    3  503    0  0.64621523548E+01  0.63877522811E+02  0.29222965605E+03  0.29923629327E+03  0.47000000000E+01 0.  1.
         -5    1    3    3    0  503  0.32322984978E+01 -0.60733761188E+02  0.30001204521E+03  0.30615086930E+03  0.47000000000E+01 0.  1.
<mgrwt>
<rscale>  0 0.12546223E+03</rscale>
<asrwt>0</asrwt>
<pdfrwt beam="2">  1        5 0.24727243E-02 0.12547264E+03</pdfrwt>
<pdfrwt beam="1">  1       -5 0.15582154E+00 0.12547264E+03</pdfrwt>
<totfact> 0.14572913E+02</totfact>
</mgrwt>
</event>
<event>
 8    1  0.3573290E-007  0.1382198E+03  0.7546771E-02  0.1215746E+00
          5   -1    0    0  501    0  0.00000000000E+00  0.00000000000E+00  0.40606409612E+03  0.40609129535E+03  0.47000000000E+01 0.  1.
         -5   -1    0    0    0  501 -0.00000000000E+00 -0.00000000000E+00 -0.53983482954E+02  0.54187696314E+02  0.47000000000E+01 0.  1.
         25    2    1    2    0    0  0.18580747721E+02 -0.55986990525E+02  0.92873998003E+02  0.16652418073E+03  0.12499974388E+03 0.  0.
         25    2    1    2    0    0 -0.18580747721E+02  0.55986990525E+02  0.25920661516E+03  0.29375481093E+03  0.12499612917E+03 0.  0.
          5    1    4    4  502    0  0.48279529627E+02  0.32432506920E+01  0.61195202919E+02  0.78156090718E+02  0.47000000000E+01 0. -1.
         -5    1    4    4    0  502 -0.66860277348E+02  0.52743739833E+02  0.19801141224E+03  0.21559872021E+03  0.47000000000E+01 0. -1.
          5    1    3    3  503    0  0.10998497457E+02 -0.10566354949E+02 -0.30680693572E+02  0.34583374059E+02  0.47000000000E+01 0.  1.
         -5    1    3    3    0  503  0.75822502636E+01 -0.45420635576E+02  0.12355469157E+03  0.13194080667E+03  0.47000000000E+01 0.  1.
<mgrwt>
<rscale>  0 0.13821902E+03</rscale>
<asrwt>0</asrwt>
<pdfrwt beam="1">  1        5 0.62489200E-01 0.13821984E+03</pdfrwt>
<pdfrwt beam="2">  1       -5 0.83229523E-02 0.13821984E+03</pdfrwt>
<totfact> 0.18821417E+02</totfact>
</mgrwt>
</event>
<event>
 8    1  0.3573290E-007  0.1335649E+03  0.7546771E-02  0.1222261E+00
         -5   -1    0    0    0  501 -0.00000000000E+00  0.00000000000E+00  0.46575891211E+03  0.46578262549E+03  0.47000000000E+01 0.  1.
          5   -1    0    0  501    0  0.00000000000E+00 -0.00000000000E+00 -0.40391307291E+02  0.40663837801E+02  0.47000000000E+01 0.  1.
         25    2    1    2    0    0 -0.46487633346E+02 -0.72144141031E+01  0.27235161163E+03  0.30333972738E+03  0.12500576796E+03 0.  0.
         25    2    1    2    0    0  0.46487633346E+02  0.72144141031E+01  0.15301599319E+03  0.20310673591E+03  0.12500121670E+03 0.  0.
          5    1    4    4  502    0 -0.16670028796E+02 -0.45605715990E+02  0.39352332297E+02  0.62677485976E+02  0.47000000000E+01 0.  1.
         -5    1    4    4    0  502  0.63157662142E+02  0.52820130094E+02  0.11366366089E+03  0.14042924994E+03  0.47000000000E+01 0.  1.
          5    1    3    3  503    0 -0.62291186464E+02  0.61691932030E+01  0.50745128820E+02  0.80718083196E+02  0.47000000000E+01 0. -1.
         -5    1    3    3    0  503  0.15803553118E+02 -0.13383607306E+02  0.22160648281E+03  0.22262164419E+03  0.47000000000E+01 0. -1.
<mgrwt>
<rscale>  0 0.13356386E+03</rscale>
<asrwt>0</asrwt>
<pdfrwt beam="2">  1        5 0.62368353E-02 0.13356493E+03</pdfrwt>
<pdfrwt beam="1">  1       -5 0.71678005E-01 0.13356493E+03</pdfrwt>
<totfact> 0.22380110E+02</totfact>
</mgrwt>
</event>
<event>
 8    1  0.3573290E-007  0.1258716E+03  0.7546771E-02  0.1233717E+00
          5   -1    0    0  501    0  0.00000000000E+00  0.00000000000E+00  0.58110280652E+03  0.58112181318E+03  0.47000000000E+01 0.  1.
         -5   -1    0    0    0  501 -0.00000000000E+00 -0.00000000000E+00 -0.30693955568E+02  0.31051713453E+02  0.47000000000E+01 0.  1.
         25    2    1    2    0    0 -0.97790768348E+01 -0.11023032763E+02  0.17029768691E+03  0.21176629318E+03  0.12500609251E+03 0.  0.
         25    2    1    2    0    0  0.97790768348E+01  0.11023032763E+02  0.38011116404E+03  0.40040723345E+03  0.12499727187E+03 0.  0.
          5    1    3    3  502    0 -0.48247527849E+02  0.31955189498E+02  0.12650750283E+03  0.13919481439E+03  0.47000000000E+01 0.  1.
         -5    1    3    3    0  502  0.38468451014E+02 -0.42978222261E+02  0.43790184081E+02  0.72571478792E+02  0.47000000000E+01 0.  1.
          5    1    4    4  503    0 -0.12604713966E+02 -0.49653512949E+02  0.95202169868E+02  0.10821226044E+03  0.47000000000E+01 0.  1.
         -5    1    4    4    0  503  0.22383790801E+02  0.60676545712E+02  0.28490899417E+03  0.29219497301E+03  0.47000000000E+01 0.  1.
<mgrwt>
<rscale>  0 0.12586941E+03</rscale>
<asrwt>0</asrwt>
<pdfrwt beam="1">  1        5 0.89429410E-01 0.12587160E+03</pdfrwt>
<pdfrwt beam="2">  1       -5 0.47511291E-02 0.12587160E+03</pdfrwt>
<totfact> 0.20691931E+02</totfact>
</mgrwt>
</event>
<event>
 8    1  0.3573290E-007  0.1384367E+03  0.7546771E-02  0.1215450E+00
         -5   -1    0    0    0  501 -0.00000000000E+00  0.00000000000E+00  0.36579129676E+03  0.36582149032E+03  0.47000000000E+01 0. -1.
          5   -1    0    0  501    0  0.00000000000E+00 -0.00000000000E+00 -0.65123282714E+02  0.65292663841E+02  0.47000000000E+01 0. -1.
         25    2    1    2    0    0 -0.52982156989E+02 -0.27044955182E+02  0.24600357325E+03  0.28228085200E+03  0.12500473110E+03 0.  0.
         25    2    1    2    0    0  0.52982156989E+02  0.27044955182E+02  0.54664440795E+02  0.14883330216E+03  0.12499844873E+03 0.  0.
          5    1    4    4  502    0  0.72916406043E+02  0.25002620652E+01  0.79755792011E+02  0.10819487021E+03  0.47000000000E+01 0.  1.
         -5    1    4    4    0  502 -0.19934249054E+02  0.24544693117E+02 -0.25091351216E+02  0.40638431951E+02  0.47000000000E+01 0.  1.
          5    1    3    3  503    0 -0.63264151151E+02  0.19838261085E+02  0.21477713042E+03  0.22482707838E+03  0.47000000000E+01 0. -1.
         -5    1    3    3    0  503  0.10281994162E+02 -0.46883216268E+02  0.31226442831E+02  0.57453773622E+02  0.47000000000E+01 0. -1.
<mgrwt>
<rscale>  0 0.13843529E+03</rscale>
<asrwt>0</asrwt>
<pdfrwt beam="2">  1        5 0.10034318E-01 0.13843671E+03</pdfrwt>
<pdfrwt beam="1">  1       -5 0.56290936E-01 0.13843671E+03</pdfrwt>
<totfact> 0.17110094E+02</totfact>
</mgrwt>
</event>
<event>
 8    1  0.3573290E-007  0.1533446E+03  0.7546771E-02  0.1196428E+00
         -5   -1    0    0    0  501 -0.00000000000E+00  0.00000000000E+00  0.18846803118E+03  0.18852662617E+03  0.47000000000E+01 0. -1.
          5   -1    0    0  501    0  0.00000000000E+00 -0.00000000000E+00 -0.13188166791E+03  0.13196539065E+03  0.47000000000E+01 0. -1.
         25    2    1    2    0    0  0.76482171757E+02  0.45169565872E+02  0.65853946570E+02  0.16688706940E+03  0.12499895750E+03 0.  0.
         25    2    1    2    0    0 -0.76482171757E+02 -0.45169565872E+02 -0.92675833004E+01  0.15360494742E+03  0.12497511550E+03 0.  0.
          5    1    3    3  502    0 -0.11451120237E+02 -0.32513868241E+02  0.68057851821E+01  0.35449802462E+02  0.47000000000E+01 0.  1.
         -5    1    3    3    0  502  0.87933291994E+02  0.77683434113E+02  0.59048161387E+02  0.13143726694E+03  0.47000000000E+01 0.  1.
          5    1    4    4  503    0 -0.51011765443E+02  0.17447676548E+02  0.42107047219E+02  0.68569053195E+02  0.47000000000E+01 0.  1.
         -5    1    4    4    0  503 -0.25470406313E+02 -0.62617242421E+02 -0.51374630519E+02  0.85035894228E+02  0.47000000000E+01 0.  1.
<mgrwt>
<rscale>  0 0.15333969E+03</rscale>
<asrwt>0</asrwt>
<pdfrwt beam="2">  1        5 0.20300435E-01 0.15334455E+03</pdfrwt>
<pdfrwt beam="1">  1       -5 0.29006029E-01 0.15334455E+03</pdfrwt>
<totfact> 0.19356223E+02</totfact>
</mgrwt>
</event>
<event>
 8    1  0.3573290E-007  0.1398464E+03  0.7546771E-02  0.1213543E+00
          5   -1    0    0  501    0  0.00000000000E+00  0.00000000000E+00  0.50739905624E+02  0.50957119451E+02  0.47000000000E+01 0. -1.
         -5   -1    0    0    0  501 -0.00000000000E+00 -0.00000000000E+00 -0.41491912301E+03  0.41494574181E+03  0.47000000000E+01 0. -1.
         25    2    1    2    0    0  0.30981912287E+02  0.54414791209E+02 -0.24531782279E+03  0.28236801636E+03  0.12502005477E+03 0.  0.
         25    2    1    2    0    0 -0.30981912287E+02 -0.54414791209E+02 -0.11886139460E+03  0.18353484489E+03  0.12504463113E+03 0.  0.
          5    1    4    4  502    0 -0.38966274673E+02  0.31963315460E+02 -0.60480724727E+02  0.78867180504E+02  0.47000000000E+01 0. -1.
         -5    1    4    4    0  502  0.79843623864E+01 -0.86378106669E+02 -0.58380669869E+02  0.10466766439E+03  0.47000000000E+01 0. -1.
          5    1    3    3  503    0  0.54154647230E+02  0.84350949876E+02 -0.19409095336E+03  0.21849758978E+03  0.47000000000E+01 0.  1.
         -5    1    3    3    0  503 -0.23172734944E+02 -0.29936158667E+02 -0.51226869433E+02  0.63870426587E+02  0.47000000000E+01 0.  1.
<mgrwt>
<rscale>  0 0.13984088E+03</rscale>
<asrwt>0</asrwt>
<pdfrwt beam="1">  1        5 0.78248960E-02 0.13984637E+03</pdfrwt>
<pdfrwt beam="2">  1       -5 0.63852465E-01 0.13984637E+03</pdfrwt>
<totfact> 0.20026999E+02</totfact>
</mgrwt>
</event>
<event>
 8    1  0.3573290E-007  0.1297200E+03  0.7546771E-02  0.1227872E+00
          5   -1    0    0  501    0  0.00000000000E+00  0.00000000000E+00  0.11094069215E+02  0.12048583807E+02  0.47000000000E+01 0.  1.
         -5   -1    0    0    0  501 -0.00000000000E+00 -0.00000000000E+00 -0.14687676905E+04  0.14687752104E+04  0.47000000000E+01 0.  1.
         25    2    1    2    0    0  0.14143187572E+02 -0.31717741991E+02 -0.80489676312E+03  0.81528282562E+03  0.12498496529E+03 0.  0.
         25    2    1    2    0    0 -0.14143187572E+02  0.31717741991E+02 -0.65277685817E+03  0.66554096859E+03  0.12498443661E+03 0.  0.
          5    1    4    4  502    0 -0.37727000687E+02  0.42656098234E+02 -0.62347566779E+03  0.62608854615E+03  0.47000000000E+01 0.  1.
         -5    1    4    4    0  502  0.23583813116E+02 -0.10938356243E+02 -0.29301190381E+02  0.39452422437E+02  0.47000000000E+01 0.  1.
          5    1    3    3  503    0 -0.31684608429E+02  0.31270444297E+02 -0.43168284338E+03  0.43399760641E+03  0.47000000000E+01 0.  1.
         -5    1    3    3    0  503  0.45827796001E+02 -0.62988186289E+02 -0.37321391974E+03  0.38128521921E+03  0.47000000000E+01 0.  1.
<mgrwt>
<rscale>  0 0.12971990E+03</rscale>
<asrwt>0</asrwt>
<pdfrwt beam="1">  1        5 0.17807837E-02 0.12972003E+03</pdfrwt>
<pdfrwt beam="2">  1       -5 0.22603812E+00 0.12972003E+03</pdfrwt>
<totfact> 0.80678161E+01</totfact>
</mgrwt>
</event>
<event>
 8    1  0.3573290E-007  0.1325132E+03  0.7546771E-02  0.1223778E+00
          5   -1    0    0  501    0  0.00000000000E+00  0.00000000000E+00  0.16237780069E+03  0.16244580684E+03  0.47000000000E+01 0. -1.
         -5   -1    0    0    0  501 -0.00000000000E+00 -0.00000000000E+00 -0.12239093305E+03  0.12248114342E+03  0.47000000000E+01 0. -1.
         25    2    1    2    0    0 -0.43242269427E+02  0.79837188740E+01 -0.28845064389E+02  0.13560320145E+03  0.12499022711E+03 0.  0.
         25    2    1    2    0    0  0.43242269427E+02 -0.79837188740E+01  0.68831932034E+02  0.14932374880E+03  0.12500445374E+03 0.  0.
          5    1    4    4  502    0 -0.47817348896E+01  0.41262916904E+02 -0.11601734597E+02  0.43384139332E+02  0.47000000000E+01 0.  1.
         -5    1    4    4    0  502  0.48024004316E+02 -0.49246635778E+02  0.80433666632E+02  0.10593960947E+03  0.47000000000E+01 0.  1.
          5    1    3    3  503    0 -0.43548363163E+02 -0.41863066174E+01  0.43628662794E+02  0.61963984011E+02  0.47000000000E+01 0. -1.
         -5    1    3    3    0  503  0.30609373589E+00  0.12170025491E+02 -0.72473727184E+02  0.73639217444E+02  0.47000000000E+01 0. -1.
<mgrwt>
<rscale>  0 0.13250984E+03</rscale>
<asrwt>0</asrwt>
<pdfrwt beam="1">  1        5 0.24993371E-01 0.13251320E+03</pdfrwt>
<pdfrwt beam="2">  1       -5 0.18841545E-01 0.13251320E+03</pdfrwt>
<totfact> 0.28250883E+02</totfact>
</mgrwt>
</event>
<event>
 8    1  0.3573290E-007  0.1431925E+03  0.7546771E-02  0.1209098E+00
          5   -1    0    0  501    0  0.00000000000E+00  0.00000000000E+00  0.21921923470E+03  0.21926961227E+03  0.47000000000E+01 0. -1.
         -5   -1    0    0    0  501 -0.00000000000E+00 -0.00000000000E+00 -0.93414086365E+02  0.93532248617E+02  0.47000000000E+01 0. -1.
         25    2    1    2    0    0  0.69764172536E+02 -0.33469246949E+01  0.61805091557E+02  0.15595767909E+03  0.12499874660E+03 0.  0.
         25    2    1    2    0    0 -0.69764172536E+02  0.33469246949E+01  0.64000056783E+02  0.15684418180E+03  0.12500339364E+03 0.  0.
          5    1    4    4  502    0 -0.86071627992E+02 -0.29733079154E+02  0.10630967629E+02  0.91801354096E+02  0.47000000000E+01 0.  1.
         -5    1    4    4    0  502  0.16307455456E+02  0.33080003849E+02  0.53369089154E+02  0.65042827700E+02  0.47000000000E+01 0.  1.
          5    1    3    3  503    0  0.20659487412E+02 -0.21071349447E+02 -0.34909606661E+02  0.45952005667E+02  0.47000000000E+01 0.  1.
         -5    1    3    3    0  503  0.49104685124E+02  0.17724424752E+02  0.96714698218E+02  0.11000567342E+03  0.47000000000E+01 0.  1.
<mgrwt>
<rscale>  0 0.14319148E+03</rscale>
<asrwt>0</asrwt>
<pdfrwt beam="1">  1        5 0.33739001E-01 0.14319249E+03</pdfrwt>
<pdfrwt beam="2">  1       -5 0.14384363E-01 0.14319249E+03</pdfrwt>
<totfact> 0.26429822E+02</totfact>
</mgrwt>
</event>
<event>
 8    1  0.3573290E-007  0.1379862E+03  0.7546771E-02  0.1216065E+00
         -5   -1    0    0    0  501 -0.00000000000E+00  0.00000000000E+00  0.39105302109E+03  0.39108126432E+03  0.47000000000E+01 0.  1.
          5   -1    0    0  501    0  0.00000000000E+00 -0.00000000000E+00 -0.49376464723E+02  0.49599649883E+02  0.47000000000E+01 0.  1.
         25    2    1    2    0    0  0.48774274889E+02 -0.32188833685E+02  0.19934451685E+03  0.24244218192E+03  0.12499969708E+03 0.  0.
         25    2    1    2    0    0 -0.48774274889E+02  0.32188833685E+02  0.14233203951E+03  0.19823873228E+03  0.12500053840E+03 0.  0.
          5    1    4    4  502    0  0.20421469576E+02  0.57858859271E+02  0.83569760428E+02  0.10378188124E+03  0.47000000000E+01 0. -1.
         -5    1    4    4    0  502 -0.69195744465E+02 -0.25670025586E+02  0.58762279085E+02  0.94456851042E+02  0.47000000000E+01 0. -1.
          5    1    3    3  503    0  0.58534437777E+02 -0.23721634698E+02  0.21350763163E+03  0.22270293021E+03  0.47000000000E+01 0. -1.
         -5    1    3    3    0  503 -0.97601628878E+01 -0.84671989879E+01 -0.14163114773E+02  0.19739251718E+02  0.47000000000E+01 0. -1.
<mgrwt>
<rscale>  0 0.13798599E+03</rscale>
<asrwt>0</asrwt>
<pdfrwt beam="2">  1        5 0.76157201E-02 0.13798618E+03</pdfrwt>
<pdfrwt beam="1">  1       -5 0.60181342E-01 0.13798618E+03</pdfrwt>
<totfact> 0.23791653E+02</totfact>
</mgrwt>
</event>
<event>
 8    1  0.3573290E-007  0.1274623E+03  0.7546771E-02  0.1231271E+00
          5   -1    0    0  501    0  0.00000000000E+00  0.00000000000E+00  0.17224726821E+03  0.17231137921E+03  0.47000000000E+01 0.  1.
         -5   -1    0    0    0  501 -0.00000000000E+00 -0.00000000000E+00 -0.96254060115E+02  0.96368740204E+02  0.47000000000E+01 0.  1.
         25    2    1    2    0    0  0.54496464140E+01 -0.24322082358E+02  0.18299039113E+02  0.12876851226E+03  0.12500085032E+03 0.  0.
         25    2    1    2    0    0 -0.54496464140E+01  0.24322082358E+02  0.57694168980E+02  0.13991160715E+03  0.12500151337E+03 0.  0.
          5    1    4    4  502    0  0.22397083867E+01 -0.46022658425E+02 -0.32129429071E+01  0.46427517533E+02  0.47000000000E+01 0.  1.
         -5    1    4    4    0  502 -0.76893548007E+01  0.70344740784E+02  0.60907111887E+02  0.93484089617E+02  0.47000000000E+01 0.  1.
          5    1    3    3  503    0  0.36352311402E+02 -0.52550801733E+02  0.45541625560E+02  0.78607931951E+02  0.47000000000E+01 0.  1.
         -5    1    3    3    0  503 -0.30902664988E+02  0.28228719374E+02 -0.27242586447E+02  0.50160580312E+02  0.47000000000E+01 0.  1.
<mgrwt>
<rscale>  0 0.12746215E+03</rscale>
<asrwt>0</asrwt>
<pdfrwt beam="1">  1        5 0.26513333E-01 0.12746231E+03</pdfrwt>
<pdfrwt beam="2">  1       -5 0.14822070E-01 0.12746231E+03</pdfrwt>
<totfact> 0.38559434E+02</totfact>
</mgrwt>
</event>
<event>
 8    1  0.3573290E-007  0.1350467E+03  0.7546771E-02  0.1220160E+00
          5   -1    0    0  501    0  0.00000000000E+00  0.00000000000E+00  0.60986399045E+02  0.61167236888E+02  0.47000000000E+01 0. -1.
         -5   -1    0    0    0  501 -0.00000000000E+00 -0.00000000000E+00 -0.35644933875E+03  0.35648032358E+03  0.47000000000E+01 0. -1.
         25    2    1    2    0    0 -0.48717651500E+02  0.15303255709E+02 -0.23201330165E+03  0.26845444697E+03  0.12502007341E+03 0.  0.
         25    2    1    2    0    0  0.48717651500E+02 -0.15303255709E+02 -0.63449638064E+02  0.14919311350E+03  0.12500051736E+03 0.  0.
          5    1    4    4  502    0  0.80332680590E+02 -0.33057530943E+02 -0.70477680142E+02  0.11196130278E+03  0.47000000000E+01 0. -1.
         -5    1    4    4    0  502 -0.31615029091E+02  0.17754275234E+02  0.70280420779E+01  0.37231810712E+02  0.47000000000E+01 0. -1.
          5    1    3    3  503    0 -0.24934394682E+02  0.65014047802E+02 -0.17780579716E+03  0.19101188956E+03  0.47000000000E+01 0. -1.
         -5    1    3    3    0  503 -0.23783256818E+02 -0.49710792093E+02 -0.54207504481E+02  0.77442557405E+02  0.47000000000E+01 0. -1.
<mgrwt>
<rscale>  0 0.13504220E+03</rscale>
<asrwt>0</asrwt>
<pdfrwt beam="1">  1        5 0.93988172E-02 0.13504673E+03</pdfrwt>
<pdfrwt beam="2">  1       -5 0.54854653E-01 0.13504673E+03</pdfrwt>
<totfact> 0.20107380E+02</totfact>
</mgrwt>
</event>
<event>
 8    1  0.3573290E-007  0.1614646E+03  0.7546771E-02  0.1187070E+00
          5   -1    0    0  501    0  0.00000000000E+00  0.00000000000E+00  0.95103940814E+02  0.95220006083E+02  0.47000000000E+01 0.  1.
         -5   -1    0    0    0  501 -0.00000000000E+00 -0.00000000000E+00 -0.31611812256E+03  0.31615306010E+03  0.47000000000E+01 0.  1.
         25    2    1    2    0    0 -0.82029821522E+02 -0.60962237785E+02 -0.18582843499E+03  0.24617684024E+03  0.12500217345E+03 0.  0.
         25    2    1    2    0    0  0.82029821522E+02  0.60962237785E+02 -0.35185746763E+02  0.16519622594E+03  0.12492585896E+03 0.  0.
          5    1    4    4  502    0  0.36567756107E+02  0.23670785280E+02 -0.79935421263E+02  0.91155188744E+02  0.47000000000E+01 0. -1.
         -5    1    4    4    0  502  0.45462065415E+02  0.37291452505E+02  0.44749674501E+02  0.74041037200E+02  0.47000000000E+01 0. -1.
          5    1    3    3  503    0 -0.64011039180E+02 -0.73972849609E+02 -0.52877647374E+02  0.11129928665E+03  0.47000000000E+01 0. -1.
         -5    1    3    3    0  503 -0.18018782341E+02  0.13010611825E+02 -0.13295078761E+03  0.13487755359E+03  0.47000000000E+01 0. -1.
<mgrwt>
<rscale>  0 0.16144987E+03</rscale>
<asrwt>0</asrwt>
<pdfrwt beam="1">  1        5 0.14642991E-01 0.16146464E+03</pdfrwt>
<pdfrwt beam="2">  1       -5 0.48645172E-01 0.16146464E+03</pdfrwt>
<totfact> 0.12551698E+02</totfact>
</mgrwt>
</event>
<event>
 8    1  0.3573290E-007  0.1547424E+03  0.7546771E-02  0.1194764E+00
          5   -1    0    0  501    0  0.00000000000E+00  0.00000000000E+00  0.89656460501E+02  0.89779568441E+02  0.47000000000E+01 0. -1.
         -5   -1    0    0    0  501 -0.00000000000E+00 -0.00000000000E+00 -0.39932777752E+03  0.39935543554E+03  0.47000000000E+01 0. -1.
         25    2    1    2    0    0  0.37116058440E+02  0.83317317906E+02 -0.29572842060E+03  0.33376713755E+03  0.12500330438E+03 0.  0.
         25    2    1    2    0    0 -0.37116058440E+02 -0.83317317906E+02 -0.13942896422E+02  0.15536786643E+03  0.12500156919E+03 0.  0.
          5    1    4    4  502    0  0.13719546066E+02 -0.36998578697E+02 -0.60357444280E+02  0.72265011243E+02  0.47000000000E+01 0. -1.
         -5    1    4    4    0  502 -0.50835604506E+02 -0.46318739209E+02  0.46414547858E+02  0.83102855187E+02  0.47000000000E+01 0. -1.
          5    1    3    3  503    0 -0.14205966793E+02 -0.27458292671E+02 -0.44293564045E+02  0.54219711774E+02  0.47000000000E+01 0.  1.
         -5    1    3    3    0  503  0.51322025233E+02  0.11077561058E+03 -0.25143485655E+03  0.27954742578E+03  0.47000000000E+01 0.  1.
<mgrwt>
<rscale>  0 0.15474203E+03</rscale>
<asrwt>0</asrwt>
<pdfrwt beam="1">  1        5 0.13804899E-01 0.15474238E+03</pdfrwt>
<pdfrwt beam="2">  1       -5 0.61446639E-01 0.15474238E+03</pdfrwt>
<totfact> 0.83212562E+01</totfact>
</mgrwt>
</event>
<event>
 8    1  0.3573290E-007  0.1355995E+03  0.7546771E-02  0.1219377E+00
          5   -1    0    0  501    0  0.00000000000E+00  0.00000000000E+00  0.21616616895E+03  0.21621725787E+03  0.47000000000E+01 0.  1.
         -5   -1    0    0    0  501 -0.00000000000E+00 -0.00000000000E+00 -0.85290282889E+02  0.85419683652E+02  0.47000000000E+01 0.  1.
         25    2    1    2    0    0 -0.17604061950E+02 -0.49509885551E+02  0.55684078369E+02  0.14658768381E+03  0.12500440271E+03 0.  0.
         25    2    1    2    0    0  0.17604061950E+02  0.49509885551E+02  0.75191807695E+02  0.15504925771E+03  0.12500133042E+03 0.  0.
          5    1    3    3  502    0 -0.95948285767E+01  0.40307391052E+02  0.33800055189E+02  0.53677558063E+02  0.47000000000E+01 0. -1.
         -5    1    3    3    0  502 -0.80092333732E+01 -0.89817276603E+02  0.21884023181E+02  0.92910125746E+02  0.47000000000E+01 0. -1.
          5    1    4    4  503    0 -0.28892397512E+02  0.28912424002E+02  0.92408684425E+02  0.10115410942E+03  0.47000000000E+01 0. -1.
         -5    1    4    4    0  503  0.46496459462E+02  0.20597461550E+02 -0.17216876730E+02  0.53895148289E+02  0.47000000000E+01 0. -1.
<mgrwt>
<rscale>  0 0.13559882E+03</rscale>
<asrwt>0</asrwt>
<pdfrwt beam="1">  1        5 0.33270217E-01 0.13559953E+03</pdfrwt>
<pdfrwt beam="2">  1       -5 0.13135466E-01 0.13559953E+03</pdfrwt>
<totfact> 0.31402741E+02</totfact>
</mgrwt>
</event>
<event>
 8    1  0.3573290E-007  0.1299796E+03  0.7546771E-02  0.1227502E+00
          5   -1    0    0  501    0  0.00000000000E+00  0.00000000000E+00  0.95004660696E+02  0.95120847105E+02  0.47000000000E+01 0. -1.
         -5   -1    0    0    0  501 -0.00000000000E+00 -0.00000000000E+00 -0.21759995638E+03  0.21765070874E+03  0.47000000000E+01 0. -1.
         25    2    1    2    0    0 -0.21810242121E+02  0.27975319746E+02 -0.12838373089E+03  0.18266309687E+03  0.12500047769E+03 0.  0.
         25    2    1    2    0    0  0.21810242121E+02 -0.27975319746E+02  0.57884352063E+01  0.13010845898E+03  0.12504559145E+03 0.  0.
          5    1    4    4  502    0  0.71582930664E+02  0.37682686084E+00 -0.38071304187E+01  0.71839001963E+02  0.47000000000E+01 0. -1.
         -5    1    4    4    0  502 -0.49772688543E+02 -0.28352146606E+02  0.95955656250E+01  0.58269457022E+02  0.47000000000E+01 0. -1.
          5    1    3    3  503    0  0.42600777469E+02  0.13625003700E+02 -0.10193442673E+03  0.11141447087E+03  0.47000000000E+01 0.  1.
         -5    1    3    3    0  503 -0.64411019589E+02  0.14350316046E+02 -0.26449304159E+02  0.71248625991E+02  0.47000000000E+01 0.  1.
<mgrwt>
<rscale>  0 0.12996878E+03</rscale>
<asrwt>0</asrwt>
<pdfrwt beam="1">  1        5 0.14628943E-01 0.12997963E+03</pdfrwt>
<pdfrwt beam="2">  1       -5 0.33489758E-01 0.12997963E+03</pdfrwt>
<totfact> 0.25167875E+02</totfact>
</mgrwt>
</event>
<event>
 8    1  0.3573290E-007  0.1284330E+03  0.7546771E-02  0.1229802E+00
         -5   -1    0    0    0  501 -0.00000000000E+00  0.00000000000E+00  0.92713931796E+02  0.92832985243E+02  0.47000000000E+01 0.  1.
          5   -1    0    0  501    0  0.00000000000E+00 -0.00000000000E+00 -0.19297193205E+03  0.19302915987E+03  0.47000000000E+01 0.  1.
         25    2    1    2    0    0 -0.27641638201E+02  0.10296101612E+02 -0.98619851331E+01  0.12881105048E+03  0.12499983242E+03 0.  0.
         25    2    1    2    0    0  0.27641638201E+02 -0.10296101612E+02 -0.90396015125E+02  0.15705109463E+03  0.12499414748E+03 0.  0.
          5    1    3    3  502    0  0.47908612797E+02  0.38706825456E+01 -0.19799942966E+02  0.52195259410E+02  0.47000000000E+01 0.  1.
         -5    1    3    3    0  502 -0.75550250997E+02  0.64254190668E+01  0.99379578330E+01  0.76615791074E+02  0.47000000000E+01 0.  1.
          5    1    4    4  503    0  0.34236655660E+02  0.49643385389E+02 -0.18832296140E+02  0.63351082718E+02  0.47000000000E+01 0.  1.
         -5    1    4    4    0  503 -0.65950174591E+01 -0.59939487002E+02 -0.71563718985E+02  0.93700011912E+02  0.47000000000E+01 0.  1.
<mgrwt>
<rscale>  0 0.12843159E+03</rscale>
<asrwt>0</asrwt>
<pdfrwt beam="2">  1        5 0.29701550E-01 0.12843297E+03</pdfrwt>
<pdfrwt beam="1">  1       -5 0.14277242E-01 0.12843297E+03</pdfrwt>
<totfact> 0.33180070E+02</totfact>
</mgrwt>
</event>
<event>
 8    1  0.3573290E-007  0.1276074E+03  0.7546771E-02  0.1231050E+00
          5   -1    0    0  501    0  0.00000000000E+00  0.00000000000E+00  0.74752795115E+03  0.74754272637E+03  0.47000000000E+01 0. -1.
         -5   -1    0    0    0  501 -0.00000000000E+00 -0.00000000000E+00 -0.22569840318E+02  0.23054016829E+02  0.47000000000E+01 0. -1.
         25    2    1    2    0    0  0.19068128957E+02 -0.17178376962E+02  0.28009423711E+03  0.30779284050E+03  0.12499984329E+03 0.  0.
         25    2    1    2    0    0 -0.19068128957E+02  0.17178376962E+02  0.44486387372E+03  0.46280390270E+03  0.12499958414E+03 0.  0.
          5    1    3    3  502    0  0.49219309678E+02  0.34546825741E+02  0.19140074723E+03  0.20067974401E+03  0.47000000000E+01 0. -1.
         -5    1    3    3    0  502 -0.30151180721E+02 -0.51725202702E+02  0.88693489879E+02  0.10711309649E+03  0.47000000000E+01 0. -1.
          5    1    4    4  503    0  0.52555375628E+02  0.11917215060E+02  0.22717070735E+03  0.23352239251E+03  0.47000000000E+01 0.  1.
         -5    1    4    4    0  503 -0.71623504585E+02  0.52611619012E+01  0.21769316636E+03  0.22928151019E+03  0.47000000000E+01 0.  1.
<mgrwt>
<rscale>  0 0.12760735E+03</rscale>
<asrwt>0</asrwt>
<pdfrwt beam="1">  1        5 0.11504268E+00 0.12760741E+03</pdfrwt>
<pdfrwt beam="2">  1       -5 0.35106640E-02 0.12760741E+03</pdfrwt>
<totfact> 0.18483997E+02</totfact>
</mgrwt>
</event>
<event>
 8    1  0.3573290E-007  0.1398841E+03  0.7546771E-02  0.1213494E+00
         -5   -1    0    0    0  501 -0.00000000000E+00  0.00000000000E+00  0.16052558738E+02  0.16726465318E+02  0.47000000000E+01 0.  1.
          5   -1    0    0  501    0  0.00000000000E+00 -0.00000000000E+00 -0.12241259838E+04  0.12241350065E+04  0.47000000000E+01 0.  1.
         25    2    1    2    0    0  0.58098250159E+02 -0.23665720881E+02 -0.50519659395E+03  0.52420527652E+03  0.12502839824E+03 0.  0.
         25    2    1    2    0    0 -0.58098250159E+02  0.23665720881E+02 -0.70287683109E+03  0.71665619531E+03  0.12499915833E+03 0.  0.
          5    1    3    3  502    0 -0.34729657692E+02 -0.13922350588E+02 -0.24174407285E+03  0.24466766793E+03  0.47000000000E+01 0. -1.
         -5    1    3    3    0  502  0.92827907851E+02 -0.97433702931E+01 -0.26345252110E+03  0.27953760859E+03  0.47000000000E+01 0. -1.
          5    1    4    4  503    0  0.30268022038E+02 -0.98726012318E+01 -0.34434051815E+03  0.34584115408E+03  0.47000000000E+01 0.  1.
         -5    1    4    4    0  503 -0.88366272197E+02  0.33538322113E+02 -0.35853631294E+03  0.37081504123E+03  0.47000000000E+01 0.  1.
<mgrwt>
<rscale>  0 0.13987761E+03</rscale>
<asrwt>0</asrwt>
<pdfrwt beam="2">  1        5 0.18837954E+00 0.13988414E+03</pdfrwt>
<pdfrwt beam="1">  1       -5 0.25221584E-02 0.13988414E+03</pdfrwt>
<totfact> 0.84594401E+01</totfact>
</mgrwt>
</event>
<event>
 8    1  0.3573290E-007  0.1443208E+03  0.7546771E-02  0.1207647E+00
         -5   -1    0    0    0  501 -0.00000000000E+00  0.00000000000E+00  0.31196980932E+03  0.31200521138E+03  0.47000000000E+01 0.  1.
          5   -1    0    0  501    0  0.00000000000E+00 -0.00000000000E+00 -0.67458835143E+02  0.67622366410E+02  0.47000000000E+01 0.  1.
         25    2    1    2    0    0 -0.69507210479E+02  0.19246214284E+02  0.14338707237E+03  0.20340457968E+03  0.12494759477E+03 0.  0.
         25    2    1    2    0    0  0.69507210479E+02 -0.19246214284E+02  0.10112390181E+03  0.17622299811E+03  0.12500732968E+03 0.  0.
          5    1    4    4  502    0  0.16697321101E+02  0.31007338168E+02 -0.15376373675E+02  0.38714059715E+02  0.47000000000E+01 0.  1.
         -5    1    4    4    0  502  0.52809889378E+02 -0.50253552452E+02  0.11650027549E+03  0.13750893840E+03  0.47000000000E+01 0.  1.
          5    1    3    3  503    0  0.10994498397E+02  0.74191494135E+01 -0.17855864976E+02  0.22734218418E+02  0.47000000000E+01 0.  1.
         -5    1    3    3    0  503 -0.80501708876E+02  0.11827064870E+02  0.16124293734E+03  0.18067036126E+03  0.47000000000E+01 0.  1.
<mgrwt>
<rscale>  0 0.14430789E+03</rscale>
<asrwt>0</asrwt>
<pdfrwt beam="2">  1        5 0.10393585E-01 0.14432083E+03</pdfrwt>
<pdfrwt beam="1">  1       -5 0.48010657E-01 0.14432083E+03</pdfrwt>
<totfact> 0.22911476E+02</totfact>
</mgrwt>
</event>
<event>
 8    1  0.3573290E-007  0.1456781E+03  0.7546771E-02  0.1205888E+00
          5   -1    0    0  501    0  0.00000000000E+00  0.00000000000E+00  0.96908494578E+01  0.10770448608E+02  0.47000000000E+01 0. -1.
         -5   -1    0    0    0  501 -0.00000000000E+00 -0.00000000000E+00 -0.21645795436E+04  0.21645846462E+04  0.47000000000E+01 0. -1.
         25    2    1    2    0    0  0.22173672431E+02  0.71446829391E+02 -0.13008723659E+04  0.13090038306E+04  0.12500317960E+03 0.  0.
         25    2    1    2    0    0 -0.22173672431E+02 -0.71446829391E+02 -0.85401632815E+03  0.86635126414E+03  0.12499721181E+03 0.  0.
          5    1    4    4  502    0  0.46662077016E+01 -0.10165472735E+03 -0.52158638633E+03  0.53144134718E+03  0.47000000000E+01 0.  1.
         -5    1    4    4    0  502 -0.26839880133E+02  0.30207897957E+02 -0.33242994182E+03  0.33490991696E+03  0.47000000000E+01 0.  1.
          5    1    3    3  503    0  0.80676687931E+01  0.14023322019E+01 -0.98788110339E+03  0.98792622106E+03  0.47000000000E+01 0.  1.
         -5    1    3    3    0  503  0.14106003638E+02  0.70044497189E+02 -0.31299126256E+03  0.32107760956E+03  0.47000000000E+01 0.  1.
<mgrwt>
<rscale>  0 0.14567684E+03</rscale>
<asrwt>0</asrwt>
<pdfrwt beam="1">  1        5 0.15743402E-02 0.14567812E+03</pdfrwt>
<pdfrwt beam="2">  1       -5 0.33309531E+00 0.14567812E+03</pdfrwt>
<totfact> 0.21110606E+01</totfact>
</mgrwt>
</event>
<event>
 8    1  0.3573290E-007  0.1392438E+03  0.7546771E-02  0.1214361E+00
          5   -1    0    0  501    0  0.00000000000E+00  0.00000000000E+00  0.37334266763E+03  0.37337225054E+03  0.47000000000E+01 0.  1.
         -5   -1    0    0    0  501 -0.00000000000E+00 -0.00000000000E+00 -0.53629903072E+02  0.53835457679E+02  0.47000000000E+01 0.  1.
         25    2    1    2    0    0 -0.56648341950E+02  0.23536862019E+02  0.12032820635E+03  0.18403179071E+03  0.12500321686E+03 0.  0.
         25    2    1    2    0    0  0.56648341950E+02 -0.23536862019E+02  0.19938455820E+03  0.24317591751E+03  0.12496922137E+03 0.  0.
          5    1    3    3  502    0 -0.67494864379E+02 -0.20191013430E+02  0.19121085086E+02  0.73150117127E+02  0.47000000000E+01 0. -1.
         -5    1    3    3    0  502  0.10846522429E+02  0.43727875449E+02  0.10120712127E+03  0.11088167358E+03  0.47000000000E+01 0. -1.
          5    1    4    4  503    0  0.39009864717E+02 -0.74927588751E+02  0.12502897180E+03  0.15096438948E+03  0.47000000000E+01 0.  1.
         -5    1    4    4    0  503  0.17638477233E+02  0.51390726732E+02  0.74355586406E+02  0.92211528037E+02  0.47000000000E+01 0.  1.
<mgrwt>
<rscale>  0 0.13923612E+03</rscale>
<asrwt>0</asrwt>
<pdfrwt beam="1">  1        5 0.57455422E-01 0.13924375E+03</pdfrwt>
<pdfrwt beam="2">  1       -5 0.82688416E-02 0.13924375E+03</pdfrwt>
<totfact> 0.22930281E+02</totfact>
</mgrwt>
</event>
<event>
 8    1  0.3573290E-007  0.1262319E+03  0.7546771E-02  0.1233157E+00
         -5   -1    0    0    0  501 -0.00000000000E+00  0.00000000000E+00  0.18044736271E+03  0.18050856132E+03  0.47000000000E+01 0.  1.
          5   -1    0    0  501    0  0.00000000000E+00 -0.00000000000E+00 -0.97522763514E+02  0.97635953436E+02  0.47000000000E+01 0.  1.
         25    2    1    2    0    0 -0.15639540703E+02 -0.80311681857E+01  0.84502426169E+02  0.15190506509E+03  0.12500157550E+03 0.  0.
         25    2    1    2    0    0  0.15639540703E+02  0.80311681857E+01 -0.15778269733E+01  0.12623944966E+03  0.12499925687E+03 0.  0.
          5    1    3    3  502    0 -0.29136876130E+02  0.13504701992E+02 -0.24000273370E+02  0.40366293468E+02  0.47000000000E+01 0.  1.
         -5    1    3    3    0  502  0.13497335427E+02 -0.21535870178E+02  0.10850269954E+03  0.11153877162E+03  0.47000000000E+01 0.  1.
          5    1    4    4  503    0 -0.27154748130E+02 -0.12448491841E+02 -0.49906626191E+02  0.58353291534E+02  0.47000000000E+01 0. -1.
         -5    1    4    4    0  503  0.42794288833E+02  0.20479660026E+02  0.48328799217E+02  0.67886158127E+02  0.47000000000E+01 0. -1.
<mgrwt>
<rscale>  0 0.12623131E+03</rscale>
<asrwt>0</asrwt>
<pdfrwt beam="2">  1        5 0.15016917E-01 0.12623188E+03</pdfrwt>
<pdfrwt beam="1">  1       -5 0.27774547E-01 0.12623188E+03</pdfrwt>
<totfact> 0.34301091E+02</totfact>
</mgrwt>
</event>
<event>
 8    1  0.3573290E-007  0.1471008E+03  0.7546771E-02  0.1204082E+00
          5   -1    0    0  501    0  0.00000000000E+00  0.00000000000E+00  0.73806957259E+02  0.73956452997E+02  0.47000000000E+01 0.  1.
         -5   -1    0    0    0  501 -0.00000000000E+00 -0.00000000000E+00 -0.33191403927E+03  0.33194731429E+03  0.47000000000E+01 0.  1.
         25    2    1    2    0    0  0.50514410482E+01 -0.77389757983E+02 -0.19878340360E+03  0.24729231580E+03  0.12499582476E+03 0.  0.
         25    2    1    2    0    0 -0.50514410482E+01  0.77389757983E+02 -0.59323678409E+02  0.15861145149E+03  0.12499440798E+03 0.  0.
          5    1    4    4  502    0  0.46621513782E+01 -0.86136555393E+01 -0.70396039699E+02  0.71229369803E+02  0.47000000000E+01 0.  1.
         -5    1    4    4    0  502 -0.97135924264E+01  0.86003413523E+02  0.11072361290E+02  0.87382081687E+02  0.47000000000E+01 0.  1.
          5    1    3    3  503    0  0.65968503690E+01  0.15153224306E+01  0.16231263452E+02  0.18203256580E+02  0.47000000000E+01 0. -1.
         -5    1    3    3    0  503 -0.15454093209E+01 -0.78905080414E+02 -0.21501466706E+03  0.22908905922E+03  0.47000000000E+01 0. -1.
<mgrwt>
<rscale>  0 0.14710051E+03</rscale>
<asrwt>0</asrwt>
<pdfrwt beam="1">  1        5 0.11368976E-01 0.14710081E+03</pdfrwt>
<pdfrwt beam="2">  1       -5 0.51077757E-01 0.14710081E+03</pdfrwt>
<totfact> 0.17269875E+02</totfact>
</mgrwt>
</event>
<event>
 8    1  0.3573290E-007  0.1301755E+03  0.7546771E-02  0.1227196E+00
          5   -1    0    0  501    0  0.00000000000E+00  0.00000000000E+00  0.29686796202E+03  0.29690516478E+03  0.47000000000E+01 0. -1.
         -5   -1    0    0    0  501 -0.00000000000E+00 -0.00000000000E+00 -0.76173109120E+02  0.76317970053E+02  0.47000000000E+01 0. -1.
         25    2    1    2    0    0  0.34400317054E+02 -0.11743177114E+02  0.16713710805E+02  0.13124410227E+03  0.12499752890E+03 0.  0.
         25    2    1    2    0    0 -0.34400317054E+02  0.11743177114E+02  0.20398114209E+03  0.24197903256E+03  0.12499704736E+03 0.  0.
          5    1    4    4  502    0 -0.67230381061E+02  0.17909398757E+02  0.19496662124E+03  0.20706217448E+03  0.47000000000E+01 0. -1.
         -5    1    4    4    0  502  0.32830064007E+02 -0.61662216436E+01  0.90145208487E+01  0.34916858081E+02  0.47000000000E+01 0. -1.
          5    1    3    3  503    0  0.69919638628E+02 -0.28114759592E+02 -0.19230765383E+02  0.77917314571E+02  0.47000000000E+01 0.  1.
         -5    1    3    3    0  503 -0.35519321574E+02  0.16371582479E+02  0.35944476188E+02  0.53326787700E+02  0.47000000000E+01 0.  1.
<mgrwt>
<rscale>  0 0.13017541E+03</rscale>
<asrwt>0</asrwt>
<pdfrwt beam="1">  1        5 0.45685999E-01 0.13017552E+03</pdfrwt>
<pdfrwt beam="2">  1       -5 0.11732945E-01 0.13017552E+03</pdfrwt>
<totfact> 0.19835160E+02</totfact>
</mgrwt>
</event>
<event>
 8    1  0.3573290E-007  0.1340866E+03  0.7546771E-02  0.1221518E+00
          5   -1    0    0  501    0  0.00000000000E+00  0.00000000000E+00  0.97092875719E+01  0.10787041539E+02  0.47000000000E+01 0. -1.
         -5   -1    0    0    0  501 -0.00000000000E+00 -0.00000000000E+00 -0.17922704987E+04  0.17922766612E+04  0.47000000000E+01 0. -1.
         25    2    1    2    0    0 -0.40734515645E+02 -0.26322424670E+02 -0.10243489040E+04  0.10330863536E+04  0.12499826463E+03 0.  0.
         25    2    1    2    0    0  0.40734515645E+02  0.26322424670E+02 -0.75821230714E+03  0.76997734917E+03  0.12500817864E+03 0.  0.
          5    1    3    3  502    0 -0.69611027730E+02  0.60837179432E+01 -0.86605352432E+03  0.86888060388E+03  0.47000000000E+01 0.  1.
         -5    1    3    3    0  502  0.28876512085E+02 -0.32406142614E+02 -0.15829537964E+03  0.16420574973E+03  0.47000000000E+01 0.  1.
          5    1    4    4  503    0 -0.44749016329E+02  0.60219591375E+01 -0.22197110108E+03  0.22656565973E+03  0.47000000000E+01 0. -1.
         -5    1    4    4    0  503  0.85483531974E+02  0.20300465533E+02 -0.53624120607E+03  0.54341168944E+03  0.47000000000E+01 0. -1.
<mgrwt>
<rscale>  0 0.13408429E+03</rscale>
<asrwt>0</asrwt>
<pdfrwt beam="1">  1        5 0.15771162E-02 0.13408660E+03</pdfrwt>
<pdfrwt beam="2">  1       -5 0.27581705E+00 0.13408660E+03</pdfrwt>
<totfact> 0.47710679E+01</totfact>
</mgrwt>
</event>
<event>
 8    1  0.3573290E-007  0.1295118E+03  0.7546771E-02  0.1228183E+00
         -5   -1    0    0    0  501 -0.00000000000E+00  0.00000000000E+00  0.14583060181E+03  0.14590632071E+03  0.47000000000E+01 0. -1.
          5   -1    0    0  501    0  0.00000000000E+00 -0.00000000000E+00 -0.11554110942E+03  0.11563666359E+03  0.47000000000E+01 0. -1.
         25    2    1    2    0    0  0.29521552392E+02  0.16603093190E+02  0.25152601897E+02  0.13192937795E+03  0.12500209048E+03 0.  0.
         25    2    1    2    0    0 -0.29521552392E+02 -0.16603093190E+02  0.51368904978E+01  0.12961360635E+03  0.12500445811E+03 0.  0.
          5    1    3    3  502    0 -0.54646918622E+01  0.61900221983E+02  0.38123779309E+02  0.73054862176E+02  0.47000000000E+01 0. -1.
         -5    1    3    3    0  502  0.34986244255E+02 -0.45297128793E+02 -0.12971177413E+02  0.58874515772E+02  0.47000000000E+01 0. -1.
          5    1    4    4  503    0 -0.73113985853E+02  0.13515918540E+02 -0.76854564063E+01  0.74896536779E+02  0.47000000000E+01 0. -1.
         -5    1    4    4    0  503  0.43592433460E+02 -0.30119011730E+02  0.12822346904E+02  0.54717069574E+02  0.47000000000E+01 0. -1.
<mgrwt>
<rscale>  0 0.12951120E+03</rscale>
<asrwt>0</asrwt>
<pdfrwt beam="2">  1        5 0.17788730E-01 0.12951177E+03</pdfrwt>
<pdfrwt beam="1">  1       -5 0.22448652E-01 0.12951177E+03</pdfrwt>
<totfact> 0.38210314E+02</totfact>
</mgrwt>
</event>
<event>
 8    1  0.3573290E-007  0.1466563E+03  0.7546771E-02  0.1204645E+00
          5   -1    0    0  501    0  0.00000000000E+00  0.00000000000E+00  0.76464670390E+02  0.76608980008E+02  0.47000000000E+01 0. -1.
         -5   -1    0    0    0  501 -0.00000000000E+00 -0.00000000000E+00 -0.30303566904E+03  0.30307211471E+03  0.47000000000E+01 0. -1.
         25    2    1    2    0    0 -0.31967207761E+02 -0.69722746173E+02 -0.16465076059E+03  0.22049480115E+03  0.12499968267E+03 0.  0.
         25    2    1    2    0    0  0.31967207761E+02  0.69722746173E+02 -0.61920238064E+02  0.15918629356E+03  0.12499198562E+03 0.  0.
          5    1    3    3  502    0 -0.24815876952E+01 -0.95600845487E+02 -0.72088237040E+02  0.11985192470E+03  0.47000000000E+01 0.  1.
         -5    1    3    3    0  502 -0.29485620065E+02  0.25878099315E+02 -0.92562523548E+02  0.10064287645E+03  0.47000000000E+01 0.  1.
          5    1    4    4  503    0 -0.47991148327E+00  0.96687493890E+02 -0.18674561217E+02  0.98587681920E+02  0.47000000000E+01 0.  1.
         -5    1    4    4    0  503  0.32447119244E+02 -0.26964747718E+02 -0.43245676847E+02  0.60598611640E+02  0.47000000000E+01 0.  1.
<mgrwt>
<rscale>  0 0.14665471E+03</rscale>
<asrwt>0</asrwt>
<pdfrwt beam="1">  1        5 0.11777700E-01 0.14665635E+03</pdfrwt>
<pdfrwt beam="2">  1       -5 0.46634776E-01 0.14665635E+03</pdfrwt>
<totfact> 0.19645538E+02</totfact>
</mgrwt>
</event>
<event>
 8    1  0.3573290E-007  0.1296161E+03  0.7546771E-02  0.1228027E+00
         -5   -1    0    0    0  501 -0.00000000000E+00  0.00000000000E+00  0.39208176106E+02  0.39488872782E+02  0.47000000000E+01 0.  1.
          5   -1    0    0  501    0  0.00000000000E+00 -0.00000000000E+00 -0.45535807589E+03  0.45538233088E+03  0.47000000000E+01 0.  1.
         25    2    1    2    0    0 -0.21694290672E+01  0.34196511877E+02 -0.14598019356E+03  0.19521807615E+03  0.12500308994E+03 0.  0.
         25    2    1    2    0    0  0.21694290672E+01 -0.34196511877E+02 -0.27016970622E+03  0.29965312752E+03  0.12500487520E+03 0.  0.
          5    1    4    4  502    0 -0.42715659025E+02 -0.22489779753E+01 -0.28207233537E+02  0.51453118969E+02  0.47000000000E+01 0. -1.
         -5    1    4    4    0  502  0.44885088092E+02 -0.31947533902E+02 -0.24196247268E+03  0.24820000855E+03  0.47000000000E+01 0. -1.
          5    1    3    3  503    0 -0.38568860328E+02  0.54413969702E+02 -0.32686587754E+02  0.74424055954E+02  0.47000000000E+01 0.  1.
         -5    1    3    3    0  503  0.36399431261E+02 -0.20217457824E+02 -0.11329360581E+03  0.12079402019E+03  0.47000000000E+01 0.  1.
<mgrwt>
<rscale>  0 0.12961564E+03</rscale>
<asrwt>0</asrwt>
<pdfrwt beam="2">  1        5 0.70078543E-01 0.12961607E+03</pdfrwt>
<pdfrwt beam="1">  1       -5 0.60554852E-02 0.12961607E+03</pdfrwt>
<totfact> 0.24487359E+02</totfact>
</mgrwt>
</event>
<event>
 8    1  0.3573290E-007  0.1643934E+03  0.7546771E-02  0.1183834E+00
          5   -1    0    0  501    0  0.00000000000E+00  0.00000000000E+00  0.27948769958E+02  0.28341202200E+02  0.47000000000E+01 0.  1.
         -5   -1    0    0    0  501 -0.00000000000E+00 -0.00000000000E+00 -0.11382356973E+04  0.11382454009E+04  0.47000000000E+01 0.  1.
         25    2    1    2    0    0 -0.90189981540E+02  0.57041781317E+02 -0.78612798087E+03  0.80312515896E+03  0.12499928425E+03 0.  0.
         25    2    1    2    0    0  0.90189981540E+02 -0.57041781317E+02 -0.32415894651E+03  0.36346144415E+03  0.12504879526E+03 0.  0.
          5    1    4    4  502    0  0.11091939825E+02  0.28273996063E+02 -0.15554160988E+03  0.15854883281E+03  0.47000000000E+01 0. -1.
         -5    1    4    4    0  502  0.79098041715E+02 -0.85315777379E+02 -0.16861733663E+03  0.20491261134E+03  0.47000000000E+01 0. -1.
          5    1    3    3  503    0  0.16690421983E+02  0.52844081457E+02 -0.21698515661E+03  0.22399936455E+03  0.47000000000E+01 0. -1.
         -5    1    3    3    0  503 -0.10688040352E+03  0.41976998601E+01 -0.56914282426E+03  0.57912579441E+03  0.47000000000E+01 0. -1.
<mgrwt>
<rscale>  0 0.16438401E+03</rscale>
<asrwt>0</asrwt>
<pdfrwt beam="1">  1        5 0.43307452E-02 0.16439343E+03</pdfrwt>
<pdfrwt beam="2">  1       -5 0.17514408E+00 0.16439343E+03</pdfrwt>
<totfact> 0.45636730E+01</totfact>
</mgrwt>
</event>
<event>
 8    1  0.3573290E-007  0.1372660E+03  0.7546771E-02  0.1217059E+00
          5   -1    0    0  501    0  0.00000000000E+00  0.00000000000E+00  0.36182284398E+02  0.36486267338E+02  0.47000000000E+01 0.  1.
         -5   -1    0    0    0  501 -0.00000000000E+00 -0.00000000000E+00 -0.55063056752E+03  0.55065062597E+03  0.47000000000E+01 0.  1.
         25    2    1    2    0    0  0.49645318414E+02  0.27389600592E+02 -0.32841847839E+03  0.35594640245E+03  0.12499718642E+03 0.  0.
         25    2    1    2    0    0 -0.49645318414E+02 -0.27389600592E+02 -0.18602980473E+03  0.23119049086E+03  0.12500842753E+03 0.  0.
          5    1    3    3  502    0 -0.50993402342E+01  0.50279947294E+02 -0.26152343051E+03  0.26640321146E+03  0.47000000000E+01 0. -1.
         -5    1    3    3    0  502  0.54744658648E+02 -0.22890346702E+02 -0.66895047876E+02  0.89543190992E+02  0.47000000000E+01 0. -1.
          5    1    4    4  503    0  0.32797223410E+02 -0.57104136176E+00 -0.11293517892E+03  0.11769634059E+03  0.47000000000E+01 0. -1.
         -5    1    4    4    0  503 -0.82442541824E+02 -0.26818559230E+02 -0.73094625817E+02  0.11349415027E+03  0.47000000000E+01 0. -1.
<mgrwt>
<rscale>  0 0.13726344E+03</rscale>
<asrwt>0</asrwt>
<pdfrwt beam="1">  1        5 0.55914320E-02 0.13726600E+03</pdfrwt>
<pdfrwt beam="2">  1       -5 0.84737315E-01 0.13726600E+03</pdfrwt>
<totfact> 0.18458391E+02</totfact>
</mgrwt>
</event>
<event>
 8    1  0.3573290E-007  0.1277062E+03  0.7546771E-02  0.1230901E+00
         -5   -1    0    0    0  501 -0.00000000000E+00  0.00000000000E+00  0.65000675310E+02  0.65170375101E+02  0.47000000000E+01 0. -1.
          5   -1    0    0  501    0  0.00000000000E+00 -0.00000000000E+00 -0.25261301627E+03  0.25265673549E+03  0.47000000000E+01 0. -1.
         25    2    1    2    0    0  0.61007755400E+01  0.25417795453E+02 -0.78858050881E+02  0.15009153799E+03  0.12500237517E+03 0.  0.
         25    2    1    2    0    0 -0.61007755400E+01 -0.25417795453E+02 -0.10875429008E+03  0.16773557261E+03  0.12499777166E+03 0.  0.
          5    1    3    3  502    0 -0.51950453275E+02  0.12048442127E+02 -0.72319424361E+02  0.89978906935E+02  0.47000000000E+01 0.  1.
         -5    1    3    3    0  502  0.58051228815E+02  0.13369353326E+02 -0.65386265199E+01  0.60112631053E+02  0.47000000000E+01 0.  1.
          5    1    4    4  503    0  0.28565007422E+02 -0.13849712423E+02  0.17264425518E+02  0.36440699385E+02  0.47000000000E+01 0.  1.
         -5    1    4    4    0  503 -0.34665782962E+02 -0.11568083030E+02 -0.12601871560E+03  0.13129487322E+03  0.47000000000E+01 0.  1.
<mgrwt>
<rscale>  0 0.12770509E+03</rscale>
<asrwt>0</asrwt>
<pdfrwt beam="2">  1        5 0.38879957E-01 0.12770622E+03</pdfrwt>
<pdfrwt beam="1">  1       -5 0.10016521E-01 0.12770622E+03</pdfrwt>
<totfact> 0.36244470E+02</totfact>
</mgrwt>
</event>
<event>
 8    1  0.3573290E-007  0.1407128E+03  0.7546771E-02  0.1212375E+00
         -5   -1    0    0    0  501 -0.00000000000E+00  0.00000000000E+00  0.58443442516E+03  0.58445332347E+03  0.47000000000E+01 0.  1.
          5   -1    0    0  501    0  0.00000000000E+00 -0.00000000000E+00 -0.35884266712E+02  0.36190752928E+02  0.47000000000E+01 0.  1.
         25    2    1    2    0    0 -0.52910777296E+02 -0.37093021176E+02  0.35057107889E+03  0.37775675239E+03  0.12499856016E+03 0.  0.
         25    2    1    2    0    0  0.52910777296E+02  0.37093021176E+02  0.19797907956E+03  0.24288732401E+03  0.12499237436E+03 0.  0.
          5    1    4    4  502    0 -0.12517952579E+02  0.60745977409E+02  0.13617861602E+03  0.14971131677E+03  0.47000000000E+01 0.  1.
         -5    1    4    4    0  502  0.65428729875E+02 -0.23652956233E+02  0.61800463532E+02  0.93176007236E+02  0.47000000000E+01 0.  1.
          5    1    3    3  503    0 -0.29229981092E+02  0.37572300042E+02  0.22228437204E+03  0.22737304497E+03  0.47000000000E+01 0. -1.
         -5    1    3    3    0  503 -0.23680796204E+02 -0.74665321218E+02  0.12828670685E+03  0.15038370742E+03  0.47000000000E+01 0. -1.
<mgrwt>
<rscale>  0 0.14071139E+03</rscale>
<asrwt>0</asrwt>
<pdfrwt beam="2">  1        5 0.55456866E-02 0.14071277E+03</pdfrwt>
<pdfrwt beam="1">  1       -5 0.89938008E-01 0.14071277E+03</pdfrwt>
<totfact> 0.16395622E+02</totfact>
</mgrwt>
</event>
<event>
 8    1  0.3573290E-007  0.1926548E+03  0.7546771E-02  0.1156089E+00
         -5   -1    0    0    0  501 -0.00000000000E+00  0.00000000000E+00  0.49151621380E+02  0.49375822872E+02  0.47000000000E+01 0. -1.
          5   -1    0    0  501    0  0.00000000000E+00 -0.00000000000E+00 -0.75497324943E+03  0.75498787895E+03  0.47000000000E+01 0. -1.
         25    2    1    2    0    0 -0.12101581754E+03 -0.82744849201E+02 -0.33325411450E+03  0.38493262659E+03  0.12499313590E+03 0.  0.
         25    2    1    2    0    0  0.12101581754E+03  0.82744849201E+02 -0.37256751356E+03  0.41943107523E+03  0.12499734615E+03 0.  0.
          5    1    3    3  502    0 -0.12140978975E+03 -0.20602064775E+02 -0.16827306140E+03  0.20857299756E+03  0.47000000000E+01 0.  1.
         -5    1    3    3    0  502  0.39397220407E+00 -0.62142784425E+02 -0.16498105310E+03  0.17635962903E+03  0.47000000000E+01 0.  1.
          5    1    4    4  503    0 -0.19235262641E+02 -0.59721804325E+01 -0.84042390027E+02  0.86549844538E+02  0.47000000000E+01 0.  1.
         -5    1    4    4    0  503  0.14025108018E+03  0.88717029633E+02 -0.28852512353E+03  0.33288123069E+03  0.47000000000E+01 0.  1.
<mgrwt>
<rscale>  0 0.19265412E+03</rscale>
<asrwt>0</asrwt>
<pdfrwt beam="2">  1        5 0.11616809E+00 0.19265481E+03</pdfrwt>
<pdfrwt beam="1">  1       -5 0.75801601E-02 0.19265481E+03</pdfrwt>
<totfact> 0.56509479E+01</totfact>
</mgrwt>
</event>
<event>
 8    1  0.3573290E-007  0.1294503E+03  0.7546771E-02  0.1228275E+00
          5   -1    0    0  501    0  0.00000000000E+00  0.00000000000E+00  0.11774925887E+03  0.11784302255E+03  0.47000000000E+01 0. -1.
         -5   -1    0    0    0  501 -0.00000000000E+00 -0.00000000000E+00 -0.16286785793E+03  0.16293565953E+03  0.47000000000E+01 0. -1.
         25    2    1    2    0    0 -0.13201966177E+01 -0.33621286952E+02 -0.72640082565E+02  0.14843837739E+03  0.12500094573E+03 0.  0.
         25    2    1    2    0    0  0.13201966177E+01  0.33621286952E+02  0.27521483504E+02  0.13234030469E+03  0.12499756132E+03 0.  0.
          5    1    4    4  502    0 -0.27771705493E+01  0.76158457416E+02 -0.77296920627E+01  0.76744129753E+02  0.47000000000E+01 0.  1.
         -5    1    4    4    0  502  0.40973671670E+01 -0.42537170464E+02  0.35251175567E+02  0.55596174937E+02  0.47000000000E+01 0.  1.
          5    1    3    3  503    0  0.30639270757E+02 -0.64531397560E+02 -0.74979060784E+02  0.10366781439E+03  0.47000000000E+01 0. -1.
         -5    1    3    3    0  503 -0.31959467375E+02  0.30910110609E+02  0.23389782192E+01  0.44770563006E+02  0.47000000000E+01 0. -1.
<mgrwt>
<rscale>  0 0.12944944E+03</rscale>
<asrwt>0</asrwt>
<pdfrwt beam="1">  1        5 0.18127699E-01 0.12945026E+03</pdfrwt>
<pdfrwt beam="2">  1       -5 0.25069022E-01 0.12945026E+03</pdfrwt>
<totfact> 0.29910720E+02</totfact>
</mgrwt>
</event>
<event>
 8    1  0.3573290E-007  0.1348274E+03  0.7546771E-02  0.1220465E+00
          5   -1    0    0  501    0  0.00000000000E+00  0.00000000000E+00  0.13495878769E+03  0.13504060269E+03  0.47000000000E+01 0. -1.
         -5   -1    0    0    0  501 -0.00000000000E+00 -0.00000000000E+00 -0.14398989072E+03  0.14406657707E+03  0.47000000000E+01 0. -1.
         25    2    1    2    0    0 -0.25723338373E+02 -0.43486389339E+02 -0.40268061262E+02  0.14071232102E+03  0.12500273730E+03 0.  0.
         25    2    1    2    0    0  0.25723338373E+02  0.43486389339E+02  0.31236958227E+02  0.13839485874E+03  0.12499853268E+03 0.  0.
          5    1    3    3  502    0 -0.20811992486E+02  0.27598677683E+02 -0.57498847837E+02  0.67253502092E+02  0.47000000000E+01 0. -1.
         -5    1    3    3    0  502 -0.49113458870E+01 -0.71085067022E+02  0.17230786576E+02  0.73458818925E+02  0.47000000000E+01 0. -1.
          5    1    4    4  503    0 -0.56823530560E+00  0.48151799563E+02  0.73611385172E+02  0.88088845602E+02  0.47000000000E+01 0.  1.
         -5    1    4    4    0  503  0.26291573678E+02 -0.46654102248E+01 -0.42374426945E+02  0.50306013139E+02  0.47000000000E+01 0.  1.
<mgrwt>
<rscale>  0 0.13482647E+03</rscale>
<asrwt>0</asrwt>
<pdfrwt beam="1">  1        5 0.20775083E-01 0.13482745E+03</pdfrwt>
<pdfrwt beam="2">  1       -5 0.22164483E-01 0.13482745E+03</pdfrwt>
<totfact> 0.29767582E+02</totfact>
</mgrwt>
</event>
<event>
 8    1  0.3573290E-007  0.1906763E+03  0.7546771E-02  0.1157854E+00
          5   -1    0    0  501    0  0.00000000000E+00  0.00000000000E+00  0.82564530673E+03  0.82565868404E+03  0.47000000000E+01 0. -1.
         -5   -1    0    0    0  501 -0.00000000000E+00 -0.00000000000E+00 -0.44110968857E+02  0.44360653438E+02  0.47000000000E+01 0. -1.
         25    2    1    2    0    0  0.11540725495E+03 -0.86099851324E+02  0.36042931693E+03  0.40775819659E+03  0.12500174196E+03 0.  0.
         25    2    1    2    0    0 -0.11540725495E+03  0.86099851324E+02  0.42110502095E+03  0.46226114089E+03  0.12499561918E+03 0.  0.
          5    1    4    4  502    0 -0.11034397971E+03  0.53773802458E+02  0.17421185656E+03  0.21316490484E+03  0.47000000000E+01 0.  1.
         -5    1    4    4    0  502 -0.50632752418E+01  0.32326048866E+02  0.24689316439E+03  0.24909623605E+03  0.47000000000E+01 0.  1.
          5    1    3    3  503    0  0.46032442889E+02  0.15695702304E+02  0.19745481776E+03  0.20341051085E+03  0.47000000000E+01 0.  1.
         -5    1    3    3    0  503  0.69374812062E+02 -0.10179555363E+03  0.16297449917E+03  0.20434768574E+03  0.47000000000E+01 0.  1.
<mgrwt>
<rscale>  0 0.19067530E+03</rscale>
<asrwt>0</asrwt>
<pdfrwt beam="1">  1        5 0.12704258E+00 0.19067631E+03</pdfrwt>
<pdfrwt beam="2">  1       -5 0.68065389E-02 0.19067631E+03</pdfrwt>
<totfact> 0.53791836E+01</totfact>
</mgrwt>
</event>
<event>
 8    1  0.3573290E-007  0.1409928E+03  0.7546771E-02  0.1212011E+00
          5   -1    0    0  501    0  0.00000000000E+00  0.00000000000E+00  0.36605208506E+03  0.36608225712E+03  0.47000000000E+01 0. -1.
         -5   -1    0    0    0  501 -0.00000000000E+00 -0.00000000000E+00 -0.54292352753E+02  0.54495408682E+02  0.47000000000E+01 0. -1.
         25    2    1    2    0    0  0.44940256211E+02  0.47160112818E+02  0.14544651183E+03  0.20254316515E+03  0.12500137230E+03 0.  0.
         25    2    1    2    0    0 -0.44940256211E+02 -0.47160112818E+02  0.16631322048E+03  0.21803450065E+03  0.12504100646E+03 0.  0.
          5    1    3    3  502    0 -0.23579273268E+02 -0.15804965313E+02 -0.12021476091E+01  0.28797816154E+02  0.47000000000E+01 0. -1.
         -5    1    3    3    0  502  0.68519529479E+02  0.62965078130E+02  0.14664865943E+03  0.17374534900E+03  0.47000000000E+01 0. -1.
          5    1    4    4  503    0 -0.54417078324E+02  0.84693023888E+01  0.14884341492E+03  0.15877468206E+03  0.47000000000E+01 0.  1.
         -5    1    4    4    0  503  0.94768221129E+01 -0.55629415207E+02  0.17469805561E+02  0.59259818595E+02  0.47000000000E+01 0.  1.
<mgrwt>
<rscale>  0 0.14098396E+03</rscale>
<asrwt>0</asrwt>
<pdfrwt beam="1">  1        5 0.56333645E-01 0.14099275E+03</pdfrwt>
<pdfrwt beam="2">  1       -5 0.83706103E-02 0.14099275E+03</pdfrwt>
<totfact> 0.23531710E+02</totfact>
</mgrwt>
</event>
<event>
 8    1  0.3573290E-007  0.1256389E+03  0.7546771E-02  0.1234077E+00
          5   -1    0    0  501    0  0.00000000000E+00  0.00000000000E+00  0.92438180797E+03  0.92439375642E+03  0.47000000000E+01 0.  1.
         -5   -1    0    0    0  501 -0.00000000000E+00 -0.00000000000E+00 -0.19158036784E+02  0.19726134275E+02  0.47000000000E+01 0.  1.
         25    2    1    2    0    0 -0.36586398845E+01  0.12120978813E+02  0.28755324688E+03  0.31380251025E+03  0.12499936751E+03 0.  0.
         25    2    1    2    0    0  0.36586398845E+01 -0.12120978813E+02  0.61767052431E+03  0.63031738044E+03  0.12499127855E+03 0.  0.
          5    1    4    4  502    0  0.43659254046E+02 -0.36644602001E+02  0.50427865899E+03  0.50751158926E+03  0.47000000000E+01 0. -1.
         -5    1    4    4    0  502 -0.40000614161E+02  0.24523623188E+02  0.11339186531E+03  0.12280579118E+03  0.47000000000E+01 0. -1.
          5    1    3    3  503    0  0.21862912747E+02 -0.43326908427E+02  0.20677944619E+03  0.21245008194E+03  0.47000000000E+01 0. -1.
         -5    1    3    3    0  503 -0.25521552631E+02  0.55447887240E+02  0.80773800690E+02  0.10135242832E+03  0.47000000000E+01 0. -1.
<mgrwt>
<rscale>  0 0.12563694E+03</rscale>
<asrwt>0</asrwt>
<pdfrwt beam="1">  1        5 0.14225724E+00 0.12563895E+03</pdfrwt>
<pdfrwt beam="2">  1       -5 0.29920085E-02 0.12563895E+03</pdfrwt>
<totfact> 0.13748002E+02</totfact>
</mgrwt>
</event>
<event>
 8    1  0.3573290E-007  0.1470191E+03  0.7546771E-02  0.1204185E+00
         -5   -1    0    0    0  501 -0.00000000000E+00  0.00000000000E+00  0.30375880547E+03  0.30379516438E+03  0.47000000000E+01 0.  1.
          5   -1    0    0  501    0  0.00000000000E+00 -0.00000000000E+00 -0.79551780755E+02  0.79690500194E+02  0.47000000000E+01 0.  1.
         25    2    1    2    0    0 -0.49280098960E+02  0.59678676586E+02  0.17475616166E+03  0.22837323623E+03  0.12499818557E+03 0.  0.
         25    2    1    2    0    0  0.49280098960E+02 -0.59678676586E+02  0.49450863059E+02  0.15511242835E+03  0.12499761989E+03 0.  0.
          5    1    3    3  502    0  0.78287321923E+01 -0.33398082449E+02  0.64001217989E+02  0.72766522956E+02  0.47000000000E+01 0.  1.
         -5    1    3    3    0  502 -0.57108831152E+02  0.93076759035E+02  0.11075494367E+03  0.15560671327E+03  0.47000000000E+01 0.  1.
          5    1    4    4  503    0 -0.25865679647E+02  0.11508177563E+02  0.42474470497E+02  0.51260532366E+02  0.47000000000E+01 0. -1.
         -5    1    4    4    0  503  0.75145778607E+02 -0.71186854149E+02  0.69763925622E+01  0.10385189598E+03  0.47000000000E+01 0. -1.
<mgrwt>
<rscale>  0 0.14701899E+03</rscale>
<asrwt>0</asrwt>
<pdfrwt beam="2">  1        5 0.12252203E-01 0.14701911E+03</pdfrwt>
<pdfrwt beam="1">  1       -5 0.46745591E-01 0.14701911E+03</pdfrwt>
<totfact> 0.18239529E+02</totfact>
</mgrwt>
</event>
<event>
 8    1  0.3573290E-007  0.1837596E+03  0.7546771E-02  0.1164224E+00
         -5   -1    0    0    0  501 -0.00000000000E+00  0.00000000000E+00  0.56006913415E+02  0.56203775232E+02  0.47000000000E+01 0. -1.
          5   -1    0    0  501    0  0.00000000000E+00 -0.00000000000E+00 -0.60232689318E+03  0.60234523012E+03  0.47000000000E+01 0. -1.
         25    2    1    2    0    0  0.68245932787E+02  0.11612565017E+03 -0.26097160393E+03  0.31915058247E+03  0.12493295107E+03 0.  0.
         25    2    1    2    0    0 -0.68245932787E+02 -0.11612565017E+03 -0.28534837584E+03  0.33939842289E+03  0.12499967957E+03 0.  0.
          5    1    3    3  502    0  0.15787597101E+01  0.11011929188E+03 -0.11952698595E+03  0.16259625240E+03  0.47000000000E+01 0. -1.
         -5    1    3    3    0  502  0.66667173077E+02  0.60063582939E+01 -0.14144461798E+03  0.15655433006E+03  0.47000000000E+01 0. -1.
          5    1    4    4  503    0 -0.56451055676E+02 -0.12369545087E+03 -0.14712735358E+03  0.20038920735E+03  0.47000000000E+01 0.  1.
         -5    1    4    4    0  503 -0.11794877111E+02  0.75698006927E+01 -0.13822102226E+03  0.13900921553E+03  0.47000000000E+01 0.  1.
<mgrwt>
<rscale>  0 0.18374826E+03</rscale>
<asrwt>0</asrwt>
<pdfrwt beam="2">  1        5 0.92682225E-01 0.18375961E+03</pdfrwt>
<pdfrwt beam="1">  1       -5 0.86330024E-02 0.18375961E+03</pdfrwt>
<totfact> 0.77899614E+01</totfact>
</mgrwt>
</event>
<event>
 8    1  0.3573290E-007  0.1263168E+03  0.7546771E-02  0.1233028E+00
         -5   -1    0    0    0  501 -0.00000000000E+00  0.00000000000E+00  0.67062321445E+02  0.67226817250E+02  0.47000000000E+01 0.  1.
          5   -1    0    0  501    0  0.00000000000E+00 -0.00000000000E+00 -0.24123274621E+03  0.24127852752E+03  0.47000000000E+01 0.  1.
         25    2    1    2    0    0  0.91944963655E+01 -0.15701325768E+02 -0.67744637722E+02  0.14333618957E+03  0.12499942762E+03 0.  0.
         25    2    1    2    0    0 -0.91944963655E+01  0.15701325768E+02 -0.10642578704E+03  0.16516915520E+03  0.12499332498E+03 0.  0.
          5    1    4    4  502    0  0.80974247093E+01  0.33640833937E+02 -0.12750209953E+03  0.13219738795E+03  0.47000000000E+01 0.  1.
         -5    1    4    4    0  502 -0.17291921075E+02 -0.17939508169E+02  0.21076312491E+02  0.32971767257E+02  0.47000000000E+01 0.  1.
          5    1    3    3  503    0  0.51888437083E+02  0.27351366853E+02 -0.56330346475E+02  0.81459837378E+02  0.47000000000E+01 0.  1.
         -5    1    3    3    0  503 -0.42693940717E+02 -0.43052692621E+02 -0.11414291247E+02  0.61876352192E+02  0.47000000000E+01 0.  1.
<mgrwt>
<rscale>  0 0.12631526E+03</rscale>
<asrwt>0</asrwt>
<pdfrwt beam="2">  1        5 0.37128905E-01 0.12631677E+03</pdfrwt>
<pdfrwt beam="1">  1       -5 0.10333455E-01 0.12631677E+03</pdfrwt>
<totfact> 0.37533751E+02</totfact>
</mgrwt>
</event>
<event>
 8    1  0.3573290E-007  0.1252568E+03  0.7546771E-02  0.1234670E+00
          5   -1    0    0  501    0  0.00000000000E+00  0.00000000000E+00  0.14279454246E+03  0.14287187042E+03  0.47000000000E+01 0. -1.
         -5   -1    0    0    0  501 -0.00000000000E+00 -0.00000000000E+00 -0.14309578026E+03  0.14317294552E+03  0.47000000000E+01 0. -1.
         25    2    1    2    0    0  0.62148970084E+01  0.49512874329E+01 -0.69190391357E+02  0.14309383413E+03  0.12500157966E+03 0.  0.
         25    2    1    2    0    0 -0.62148970084E+01 -0.49512874329E+01  0.68889153557E+02  0.14295098181E+03  0.12500451005E+03 0.  0.
          5    1    4    4  502    0  0.35461270872E+02  0.42381044422E+02  0.55195481727E+02  0.78245037295E+02  0.47000000000E+01 0.  1.
         -5    1    4    4    0  502 -0.41676167880E+02 -0.47332331855E+02  0.13693671830E+02  0.64705944520E+02  0.47000000000E+01 0.  1.
          5    1    3    3  503    0 -0.37216591543E+01  0.53909463898E+02 -0.75024466567E+02  0.92578840068E+02  0.47000000000E+01 0. -1.
         -5    1    3    3    0  503  0.99365561627E+01 -0.48958176465E+02  0.58340752104E+01  0.50514994059E+02  0.47000000000E+01 0. -1.
<mgrwt>
<rscale>  0 0.12525608E+03</rscale>
<asrwt>0</asrwt>
<pdfrwt beam="1">  1        5 0.21980275E-01 0.12525681E+03</pdfrwt>
<pdfrwt beam="2">  1       -5 0.22026620E-01 0.12525681E+03</pdfrwt>
<totfact> 0.26385610E+02</totfact>
</mgrwt>
</event>
<event>
 8    1  0.3573290E-007  0.1359027E+03  0.7546771E-02  0.1218953E+00
          5   -1    0    0  501    0  0.00000000000E+00  0.00000000000E+00  0.30448579304E+03  0.30452206515E+03  0.47000000000E+01 0. -1.
         -5   -1    0    0    0  501 -0.00000000000E+00 -0.00000000000E+00 -0.13255234331E+03  0.13263564271E+03  0.47000000000E+01 0. -1.
         25    2    1    2    0    0 -0.16733300885E+02  0.50610807383E+02 -0.75055520989E+02  0.15525100725E+03  0.12501234674E+03 0.  0.
         25    2    1    2    0    0  0.16733300885E+02 -0.50610807383E+02  0.24698897071E+03  0.28190670061E+03  0.12500551594E+03 0.  0.
          5    1    4    4  502    0  0.27034133308E+01  0.38331351582E+02  0.37768090993E+02  0.54084375331E+02  0.47000000000E+01 0. -1.
         -5    1    4    4    0  502  0.14029887554E+02 -0.88942158965E+02  0.20922087972E+03  0.22782232528E+03  0.47000000000E+01 0. -1.
          5    1    3    3  503    0 -0.62974162029E+02  0.42310740995E+02 -0.12747261047E+02  0.77074811391E+02  0.47000000000E+01 0. -1.
         -5    1    3    3    0  503  0.46240861144E+02  0.83000663874E+01 -0.62308259942E+02  0.78176195855E+02  0.47000000000E+01 0. -1.
<mgrwt>
<rscale>  0 0.13590113E+03</rscale>
<asrwt>0</asrwt>
<pdfrwt beam="1">  1        5 0.46853165E-01 0.13590270E+03</pdfrwt>
<pdfrwt beam="2">  1       -5 0.20401866E-01 0.13590270E+03</pdfrwt>
<totfact> 0.69899398E+01</totfact>
</mgrwt>
</event>
<event>
 8    1  0.3573290E-007  0.1445279E+03  0.7546771E-02  0.1207364E+00
          5   -1    0    0  501    0  0.00000000000E+00  0.00000000000E+00  0.88658908537E+02  0.88783399704E+02  0.47000000000E+01 0.  1.
         -5   -1    0    0    0  501 -0.00000000000E+00 -0.00000000000E+00 -0.23656037270E+03  0.23660705808E+03  0.47000000000E+01 0.  1.
         25    2    1    2    0    0 -0.31370091020E+02 -0.65418864204E+02 -0.62014727244E+02  0.15727095834E+03  0.12499847014E+03 0.  0.
         25    2    1    2    0    0  0.31370091020E+02  0.65418864204E+02 -0.85886736920E+02  0.16811949944E+03  0.12499569636E+03 0.  0.
          5    1    4    4  502    0 -0.35034611656E+01  0.38946395403E+02 -0.11075403849E+03  0.11754847084E+03  0.47000000000E+01 0.  1.
         -5    1    4    4    0  502  0.34873552186E+02  0.26472468801E+02  0.24867301569E+02  0.50571028601E+02  0.47000000000E+01 0.  1.
          5    1    3    3  503    0  0.43746250943E+02 -0.51475819573E+02 -0.33887072327E+02  0.75722639568E+02  0.47000000000E+01 0.  1.
         -5    1    3    3    0  503 -0.75116341963E+02 -0.13943044630E+02 -0.28127654918E+02  0.81548318773E+02  0.47000000000E+01 0.  1.
<mgrwt>
<rscale>  0 0.14452735E+03</rscale>
<asrwt>0</asrwt>
<pdfrwt beam="1">  1        5 0.13653000E-01 0.14452795E+03</pdfrwt>
<pdfrwt beam="2">  1       -5 0.36407071E-01 0.14452795E+03</pdfrwt>
<totfact> 0.24998239E+02</totfact>
</mgrwt>
</event>
<event>
 8    1  0.3573290E-007  0.1600473E+03  0.7546771E-02  0.1188644E+00
         -5   -1    0    0    0  501 -0.00000000000E+00  0.00000000000E+00  0.38161154118E+03  0.38164048312E+03  0.47000000000E+01 0. -1.
          5   -1    0    0  501    0  0.00000000000E+00 -0.00000000000E+00 -0.70175913288E+02  0.70333127372E+02  0.47000000000E+01 0. -1.
         25    2    1    2    0    0 -0.95327705323E+02  0.30016066620E+02  0.20366507652E+03  0.25902376528E+03  0.12500204770E+03 0.  0.
         25    2    1    2    0    0  0.95327705323E+02 -0.30016066620E+02  0.10777055137E+03  0.19294984522E+03  0.12500726127E+03 0.  0.
          5    1    3    3  502    0 -0.11605161337E+03  0.52596423822E+02  0.14836295512E+03  0.19562212865E+03  0.47000000000E+01 0. -1.
         -5    1    3    3    0  502  0.20723908050E+02 -0.22580357202E+02  0.55302121396E+02  0.63401636629E+02  0.47000000000E+01 0. -1.
          5    1    4    4  503    0  0.53747435430E+02 -0.12044791195E+01  0.12749854577E+03  0.13844929310E+03  0.47000000000E+01 0. -1.
         -5    1    4    4    0  503  0.41580269892E+02 -0.28811587500E+02 -0.19727994398E+02  0.54500552122E+02  0.47000000000E+01 0. -1.
<mgrwt>
<rscale>  0 0.16004632E+03</rscale>
<asrwt>0</asrwt>
<pdfrwt beam="2">  1        5 0.10810614E-01 0.16004734E+03</pdfrwt>
<pdfrwt beam="1">  1       -5 0.58723789E-01 0.16004734E+03</pdfrwt>
<totfact> 0.14354215E+02</totfact>
</mgrwt>
</event>
<event>
 8    1  0.3573290E-007  0.1446653E+03  0.7546771E-02  0.1207188E+00
         -5   -1    0    0    0  501 -0.00000000000E+00  0.00000000000E+00  0.48063153147E+03  0.48065451110E+03  0.47000000000E+01 0. -1.
          5   -1    0    0  501    0  0.00000000000E+00 -0.00000000000E+00 -0.54930404590E+02  0.55131110532E+02  0.47000000000E+01 0. -1.
         25    2    1    2    0    0 -0.67090428558E+02 -0.28240990851E+02  0.33536863484E+03  0.36523988114E+03  0.12501748027E+03 0.  0.
         25    2    1    2    0    0  0.67090428558E+02  0.28240990851E+02  0.90332492036E+02  0.17054574049E+03  0.12500884494E+03 0.  0.
          5    1    4    4  502    0  0.77948262983E+02 -0.27521763012E+02  0.74507068755E+02  0.11138569224E+03  0.47000000000E+01 0. -1.
         -5    1    4    4    0  502 -0.10857834425E+02  0.55762753863E+02  0.15825423281E+02  0.59160048249E+02  0.47000000000E+01 0. -1.
          5    1    3    3  503    0  0.21107945134E+02  0.31272778202E+02  0.81288319725E+02  0.89740809713E+02  0.47000000000E+01 0.  1.
         -5    1    3    3    0  503 -0.88198373692E+02 -0.59513769053E+02  0.25408031511E+03  0.27549907143E+03  0.47000000000E+01 0.  1.
<mgrwt>
<rscale>  0 0.14466344E+03</rscale>
<asrwt>0</asrwt>
<pdfrwt beam="2">  1        5 0.84680378E-02 0.14466530E+03</pdfrwt>
<pdfrwt beam="1">  1       -5 0.73960522E-01 0.14466530E+03</pdfrwt>
<totfact> 0.12709349E+02</totfact>
</mgrwt>
</event>
<event>
 8    1  0.3573290E-007  0.1304496E+03  0.7546771E-02  0.1226793E+00
          5   -1    0    0  501    0  0.00000000000E+00  0.00000000000E+00  0.92957599993E+02  0.93076341765E+02  0.47000000000E+01 0. -1.
         -5   -1    0    0    0  501 -0.00000000000E+00 -0.00000000000E+00 -0.18593264461E+03  0.18599203835E+03  0.47000000000E+01 0. -1.
         25    2    1    2    0    0  0.36825781875E+02  0.59803255515E+01 -0.64625479442E+02  0.14557377970E+03  0.12499348078E+03 0.  0.
         25    2    1    2    0    0 -0.36825781875E+02 -0.59803255515E+01 -0.28349565172E+02  0.13349460042E+03  0.12500083197E+03 0.  0.
          5    1    4    4  502    0  0.39482397694E+02 -0.28607348712E+02 -0.21424893633E+02  0.53463596916E+02  0.47000000000E+01 0.  1.
         -5    1    4    4    0  502 -0.76308179569E+02  0.22627023161E+02 -0.69246715396E+01  0.80031003506E+02  0.47000000000E+01 0.  1.
          5    1    3    3  503    0 -0.25488015609E+02 -0.34580593628E+02 -0.55762959029E+02  0.70548238780E+02  0.47000000000E+01 0.  1.
         -5    1    3    3    0  503  0.62313797484E+02  0.40560919179E+02 -0.88625204126E+01  0.75025540915E+02  0.47000000000E+01 0.  1.
<mgrwt>
<rscale>  0 0.13044789E+03</rscale>
<asrwt>0</asrwt>
<pdfrwt beam="1">  1        5 0.14314872E-01 0.13044965E+03</pdfrwt>
<pdfrwt beam="2">  1       -5 0.28618725E-01 0.13044965E+03</pdfrwt>
<totfact> 0.35710579E+02</totfact>
</mgrwt>
</event>
<event>
 8    1  0.3573290E-007  0.1353364E+03  0.7546771E-02  0.1219747E+00
         -5   -1    0    0    0  501 -0.00000000000E+00  0.00000000000E+00  0.34837521774E+03  0.34840692062E+03  0.47000000000E+01 0. -1.
          5   -1    0    0  501    0  0.00000000000E+00 -0.00000000000E+00 -0.65279949939E+02  0.65448925614E+02  0.47000000000E+01 0. -1.
         25    2    1    2    0    0  0.36935089348E+02 -0.36417267423E+02  0.23318304091E+03  0.26960891550E+03  0.12499687419E+03 0.  0.
         25    2    1    2    0    0 -0.36935089348E+02  0.36417267423E+02  0.49912226887E+02  0.14424693073E+03  0.12500211375E+03 0.  0.
          5    1    4    4  502    0 -0.76786880430E+02  0.48469765507E+02  0.46718536357E+02  0.10222648783E+03  0.47000000000E+01 0.  1.
         -5    1    4    4    0  502  0.39851791082E+02 -0.12052498084E+02  0.31936905305E+01  0.42020442903E+02  0.47000000000E+01 0.  1.
          5    1    3    3  503    0 -0.19802493404E+02 -0.71754382480E+00  0.18691664812E+03  0.18802280968E+03  0.47000000000E+01 0.  1.
         -5    1    3    3    0  503  0.56737582752E+02 -0.35699723598E+02  0.46266392792E+02  0.81586105824E+02  0.47000000000E+01 0.  1.
<mgrwt>
<rscale>  0 0.13533521E+03</rscale>
<asrwt>0</asrwt>
<pdfrwt beam="2">  1        5 0.10058506E-01 0.13533642E+03</pdfrwt>
<pdfrwt beam="1">  1       -5 0.53611624E-01 0.13533642E+03</pdfrwt>
<totfact> 0.18783301E+02</totfact>
</mgrwt>
</event>
<event>
 8    1  0.3573290E-007  0.1366499E+03  0.7546771E-02  0.1217912E+00
         -5   -1    0    0    0  501 -0.00000000000E+00  0.00000000000E+00  0.18689816948E+02  0.19271721707E+02  0.47000000000E+01 0. -1.
          5   -1    0    0  501    0  0.00000000000E+00 -0.00000000000E+00 -0.98660528748E+03  0.98661648237E+03  0.47000000000E+01 0. -1.
         25    2    1    2    0    0  0.54137784125E+02  0.10775168948E+02 -0.45421824529E+03  0.47432836347E+03  0.12500471229E+03 0.  0.
         25    2    1    2    0    0 -0.54137784125E+02 -0.10775168948E+02 -0.51369722524E+03  0.53155984061E+03  0.12499608392E+03 0.  0.
          5    1    3    3  502    0 -0.33835992700E+02  0.15433948024E+02 -0.63195534925E+02  0.73476845251E+02  0.47000000000E+01 0.  1.
         -5    1    3    3    0  502  0.87973776826E+02 -0.46587790764E+01 -0.39102271037E+03  0.40085151822E+03  0.47000000000E+01 0.  1.
          5    1    4    4  503    0  0.22974686254E+02 -0.44924858581E+02 -0.23206003854E+03  0.23752901005E+03  0.47000000000E+01 0. -1.
         -5    1    4    4    0  503 -0.77112470379E+02  0.34149689633E+02 -0.28163718670E+03  0.29403083056E+03  0.47000000000E+01 0. -1.
<mgrwt>
<rscale>  0 0.13664788E+03</rscale>
<asrwt>0</asrwt>
<pdfrwt beam="2">  1        5 0.15183101E+00 0.13664985E+03</pdfrwt>
<pdfrwt beam="1">  1       -5 0.29209803E-02 0.13664985E+03</pdfrwt>
<totfact> 0.12315553E+02</totfact>
</mgrwt>
</event>
<event>
 8    1  0.3573290E-007  0.2452690E+03  0.7546771E-02  0.1116332E+00
         -5   -1    0    0    0  501 -0.00000000000E+00  0.00000000000E+00  0.11446223466E+04  0.11446319960E+04  0.47000000000E+01 0. -1.
          5   -1    0    0  501    0  0.00000000000E+00 -0.00000000000E+00 -0.52907975657E+02  0.53116324121E+02  0.47000000000E+01 0. -1.
         25    2    1    2    0    0 -0.17629608217E+03  0.11597736498E+03  0.48969469845E+03  0.54768402213E+03  0.12500333047E+03 0.  0.
         25    2    1    2    0    0  0.17629608217E+03 -0.11597736498E+03  0.60201967249E+03  0.65006429803E+03  0.12499939088E+03 0.  0.
          5    1    4    4  502    0  0.83375165340E+02 -0.98933670769E+02  0.47099745984E+03  0.48846697594E+03  0.47000000000E+01 0. -1.
         -5    1    4    4    0  502  0.92920916827E+02 -0.17043694210E+02  0.13102221265E+03  0.16159732208E+03  0.47000000000E+01 0. -1.
          5    1    3    3  503    0 -0.10751500689E+03  0.49423250299E+01  0.15861806535E+03  0.19174379766E+03  0.47000000000E+01 0. -1.
         -5    1    3    3    0  503 -0.68781075274E+02  0.11103503995E+03  0.33107663310E+03  0.35594022447E+03  0.47000000000E+01 0. -1.
<mgrwt>
<rscale>  0 0.24526851E+03</rscale>
<asrwt>0</asrwt>
<pdfrwt beam="2">  1        5 0.81564576E-02 0.24526902E+03</pdfrwt>
<pdfrwt beam="1">  1       -5 0.17611252E+00 0.24526902E+03</pdfrwt>
<totfact> 0.16901406E+01</totfact>
</mgrwt>
</event>
<event>
 8    1  0.3573290E-007  0.1301023E+03  0.7546771E-02  0.1227308E+00
         -5   -1    0    0    0  501 -0.00000000000E+00  0.00000000000E+00  0.82249621997E+02  0.82383798885E+02  0.47000000000E+01 0.  1.
          5   -1    0    0  501    0  0.00000000000E+00 -0.00000000000E+00 -0.22478553459E+03  0.22483466494E+03  0.47000000000E+01 0.  1.
         25    2    1    2    0    0 -0.17963260314E+02  0.31259429625E+02 -0.26239146507E+02  0.13272189233E+03  0.12500710873E+03 0.  0.
         25    2    1    2    0    0  0.17963260314E+02 -0.31259429625E+02 -0.11629676608E+03  0.17449657149E+03  0.12499713997E+03 0.  0.
          5    1    4    4  502    0  0.61668832514E+02  0.17433789025E+02 -0.62795206605E+02  0.89846034281E+02  0.47000000000E+01 0. -1.
         -5    1    4    4    0  502 -0.43705572199E+02 -0.48693218650E+02 -0.53501559477E+02  0.84650537212E+02  0.47000000000E+01 0. -1.
          5    1    3    3  503    0 -0.43859865867E+02  0.38151602000E+02 -0.63737440918E+02  0.86393193852E+02  0.47000000000E+01 0.  1.
         -5    1    3    3    0  503  0.25896605553E+02 -0.68921723749E+01  0.37498294412E+02  0.46328698481E+02  0.47000000000E+01 0.  1.
<mgrwt>
<rscale>  0 0.13009990E+03</rscale>
<asrwt>0</asrwt>
<pdfrwt beam="2">  1        5 0.34596490E-01 0.13010230E+03</pdfrwt>
<pdfrwt beam="1">  1       -5 0.12667889E-01 0.13010230E+03</pdfrwt>
<totfact> 0.30536848E+02</totfact>
</mgrwt>
</event>
<event>
 8    1  0.3573290E-007  0.1367583E+03  0.7546771E-02  0.1217765E+00
         -5   -1    0    0    0  501 -0.00000000000E+00  0.00000000000E+00  0.40888814790E+02  0.41158051156E+02  0.47000000000E+01 0.  1.
          5   -1    0    0  501    0  0.00000000000E+00 -0.00000000000E+00 -0.46595480856E+03  0.46597851197E+03  0.47000000000E+01 0.  1.
         25    2    1    2    0    0  0.26670382667E+02 -0.48598359968E+02 -0.17468944087E+03  0.22185410340E+03  0.12501892873E+03 0.  0.
         25    2    1    2    0    0 -0.26670382667E+02  0.48598359968E+02 -0.25037655290E+03  0.28528245973E+03  0.12499821472E+03 0.  0.
          5    1    3    3  502    0  0.76383140354E+02 -0.37212515410E+02 -0.10023243994E+03  0.13148303103E+03  0.47000000000E+01 0. -1.
         -5    1    3    3    0  502 -0.49712757687E+02 -0.11385844558E+02 -0.74457000930E+02  0.90371072366E+02  0.47000000000E+01 0. -1.
          5    1    4    4  503    0 -0.24206509330E+02  0.86921849405E+02 -0.21351243086E+03  0.23184264304E+03  0.47000000000E+01 0.  1.
         -5    1    4    4    0  503 -0.24638733366E+01 -0.38323489437E+02 -0.36864122042E+02  0.53439816695E+02  0.47000000000E+01 0.  1.
<mgrwt>
<rscale>  0 0.13675360E+03</rscale>
<asrwt>0</asrwt>
<pdfrwt beam="2">  1        5 0.71707885E-01 0.13675834E+03</pdfrwt>
<pdfrwt beam="1">  1       -5 0.63131211E-02 0.13675834E+03</pdfrwt>
<totfact> 0.22080012E+02</totfact>
</mgrwt>
</event>
<event>
 8    1  0.3573290E-007  0.1395675E+03  0.7546771E-02  0.1213913E+00
         -5   -1    0    0    0  501 -0.00000000000E+00  0.00000000000E+00  0.19034414453E+03  0.19040216216E+03  0.47000000000E+01 0. -1.
          5   -1    0    0  501    0  0.00000000000E+00 -0.00000000000E+00 -0.10267137922E+03  0.10277889915E+03  0.47000000000E+01 0. -1.
         25    2    1    2    0    0 -0.62010184223E+02  0.29794910901E+01  0.53688707636E+02  0.14953782447E+03  0.12499977322E+03 0.  0.
         25    2    1    2    0    0  0.62010184223E+02 -0.29794910901E+01  0.33984057675E+02  0.14364323685E+03  0.12499729198E+03 0.  0.
          5    1    3    3  502    0 -0.11131832870E+02 -0.44603967210E+02  0.64021091935E+02  0.78957088386E+02  0.47000000000E+01 0. -1.
         -5    1    3    3    0  502 -0.50878351354E+02  0.47583458300E+02 -0.10332384299E+02  0.70580736080E+02  0.47000000000E+01 0. -1.
          5    1    4    4  503    0 -0.19720808452E+02 -0.24900436478E+01 -0.32361008468E+02  0.38267943143E+02  0.47000000000E+01 0.  1.
         -5    1    4    4    0  503  0.81730992675E+02 -0.48944744234E+00  0.66345066143E+02  0.10537529371E+03  0.47000000000E+01 0.  1.
<mgrwt>
<rscale>  0 0.13956693E+03</rscale>
<asrwt>0</asrwt>
<pdfrwt beam="2">  1        5 0.15808330E-01 0.13956749E+03</pdfrwt>
<pdfrwt beam="1">  1       -5 0.29296448E-01 0.13956749E+03</pdfrwt>
<totfact> 0.29186839E+02</totfact>
</mgrwt>
</event>
<event>
 8    1  0.3573290E-007  0.1840128E+03  0.7546771E-02  0.1163979E+00
          5   -1    0    0  501    0  0.00000000000E+00  0.00000000000E+00  0.77213301669E+02  0.77356214713E+02  0.47000000000E+01 0.  1.
         -5   -1    0    0    0  501 -0.00000000000E+00 -0.00000000000E+00 -0.44114832124E+03  0.44117335746E+03  0.47000000000E+01 0.  1.
         25    2    1    2    0    0  0.48596959123E+02 -0.12596465890E+03 -0.15982521456E+03  0.24371779058E+03  0.12500201001E+03 0.  0.
         25    2    1    2    0    0 -0.48596959123E+02  0.12596465890E+03 -0.20410980501E+03  0.27481178160E+03  0.12502776921E+03 0.  0.
          5    1    3    3  502    0  0.73547353233E+02 -0.22477391099E+02 -0.59295461437E+02  0.97223906655E+02  0.47000000000E+01 0.  1.
         -5    1    3    3    0  502 -0.24950394109E+02 -0.10348726780E+03 -0.10052975313E+03  0.14649388392E+03  0.47000000000E+01 0.  1.
          5    1    4    4  503    0 -0.62463628221E+02  0.87029460000E+02 -0.55998535683E+02  0.12097006967E+03  0.47000000000E+01 0. -1.
         -5    1    4    4    0  503  0.13866669097E+02  0.38935198902E+02 -0.14811126933E+03  0.15384171192E+03  0.47000000000E+01 0. -1.
<mgrwt>
<rscale>  0 0.18400840E+03</rscale>
<asrwt>0</asrwt>
<pdfrwt beam="1">  1        5 0.11891889E-01 0.18401278E+03</pdfrwt>
<pdfrwt beam="2">  1       -5 0.67881890E-01 0.18401278E+03</pdfrwt>
<totfact> 0.91591240E+01</totfact>
</mgrwt>
</event>
<event>
 8    1  0.3573290E-007  0.1274513E+03  0.7546771E-02  0.1231291E+00
          5   -1    0    0  501    0  0.00000000000E+00  0.00000000000E+00  0.68507695672E+03  0.68509307881E+03  0.47000000000E+01 0.  1.
         -5   -1    0    0    0  501 -0.00000000000E+00 -0.00000000000E+00 -0.24211825011E+02  0.24663788646E+02  0.47000000000E+01 0.  1.
         25    2    1    2    0    0 -0.13984918373E+02  0.20512905921E+02  0.26850412906E+03  0.29721760964E+03  0.12500993122E+03 0.  0.
         25    2    1    2    0    0  0.13984918373E+02 -0.20512905921E+02  0.39236100265E+03  0.41253925782E+03  0.12500050236E+03 0.  0.
          5    1    4    4  502    0 -0.82657729427E+01  0.15604521687E+02  0.35600346921E+03  0.35647213663E+03  0.47000000000E+01 0. -1.
         -5    1    4    4    0  502  0.22250691316E+02 -0.36117427608E+02  0.36357533436E+02  0.56067121190E+02  0.47000000000E+01 0. -1.
          5    1    3    3  503    0 -0.35259250898E+02  0.56218964980E+02  0.79610956082E+02  0.10374864397E+03  0.47000000000E+01 0. -1.
         -5    1    3    3    0  503  0.21274332525E+02 -0.35706059059E+02  0.18889317298E+03  0.19346896567E+03  0.47000000000E+01 0. -1.
<mgrwt>
<rscale>  0 0.12744901E+03</rscale>
<asrwt>0</asrwt>
<pdfrwt beam="1">  1        5 0.10543246E+00 0.12745132E+03</pdfrwt>
<pdfrwt beam="2">  1       -5 0.37609029E-02 0.12745132E+03</pdfrwt>
<totfact> 0.20510415E+02</totfact>
</mgrwt>
</event>
<event>
 8    1  0.3573290E-007  0.1517602E+03  0.7546771E-02  0.1198328E+00
         -5   -1    0    0    0  501 -0.00000000000E+00  0.00000000000E+00  0.30633231046E+03  0.30636836396E+03  0.47000000000E+01 0.  1.
          5   -1    0    0  501    0  0.00000000000E+00 -0.00000000000E+00 -0.79654603088E+02  0.79793143773E+02  0.47000000000E+01 0.  1.
         25    2    1    2    0    0 -0.73880543984E+02  0.44131318177E+02  0.15962706697E+03  0.22025428521E+03  0.12500096649E+03 0.  0.
         25    2    1    2    0    0  0.73880543984E+02 -0.44131318177E+02  0.67050640406E+02  0.16590722252E+03  0.12499404018E+03 0.  0.
          5    1    4    4  502    0 -0.24322524220E+02 -0.22157770031E+02 -0.14532792983E+02  0.36274564492E+02  0.47000000000E+01 0.  1.
         -5    1    4    4    0  502  0.98203068204E+02 -0.21973548146E+02  0.81583433389E+02  0.12963265802E+03  0.47000000000E+01 0.  1.
          5    1    3    3  503    0  0.11531917880E+02  0.50688089273E+02  0.10845057784E+03  0.12035732365E+03  0.47000000000E+01 0. -1.
         -5    1    3    3    0  503 -0.85412461863E+02 -0.65567710961E+01  0.51176489131E+02  0.99896961558E+02  0.47000000000E+01 0. -1.
<mgrwt>
<rscale>  0 0.15175875E+03</rscale>
<asrwt>0</asrwt>
<pdfrwt beam="2">  1        5 0.12267985E-01 0.15176017E+03</pdfrwt>
<pdfrwt beam="1">  1       -5 0.47141478E-01 0.15176017E+03</pdfrwt>
<totfact> 0.18065054E+02</totfact>
</mgrwt>
</event>
<event>
 8    1  0.3573290E-007  0.1290414E+03  0.7546771E-02  0.1228886E+00
         -5   -1    0    0    0  501 -0.00000000000E+00  0.00000000000E+00  0.36550979051E+03  0.36554000733E+03  0.47000000000E+01 0. -1.
          5   -1    0    0  501    0  0.00000000000E+00 -0.00000000000E+00 -0.51032974619E+02  0.51248946316E+02  0.47000000000E+01 0. -1.
         25    2    1    2    0    0 -0.22875816103E+02  0.22431705095E+02  0.22627835114E+03  0.26048591409E+03  0.12499813954E+03 0.  0.
         25    2    1    2    0    0  0.22875816103E+02 -0.22431705095E+02  0.88198464752E+02  0.15630303956E+03  0.12500074653E+03 0.  0.
          5    1    4    4  502    0  0.39457757857E+02  0.42611040190E+02  0.59106852567E+02  0.82995936175E+02  0.47000000000E+01 0.  1.
         -5    1    4    4    0  502 -0.16581941754E+02 -0.65042745285E+02  0.29091612184E+02  0.73307103380E+02  0.47000000000E+01 0.  1.
          5    1    3    3  503    0 -0.85294384484E+01 -0.52054301201E+02  0.97484973425E+02  0.11094057706E+03  0.47000000000E+01 0.  1.
         -5    1    3    3    0  503 -0.14346377655E+02  0.74486006296E+02  0.12879337771E+03  0.14954533703E+03  0.47000000000E+01 0.  1.
<mgrwt>
<rscale>  0 0.12904072E+03</rscale>
<asrwt>0</asrwt>
<pdfrwt beam="2">  1        5 0.78701645E-02 0.12904135E+03</pdfrwt>
<pdfrwt beam="1">  1       -5 0.56251212E-01 0.12904135E+03</pdfrwt>
<totfact> 0.25452350E+02</totfact>
</mgrwt>
</event>
<event>
 8    1  0.3573290E-007  0.1440724E+03  0.7546771E-02  0.1207954E+00
         -5   -1    0    0    0  501 -0.00000000000E+00  0.00000000000E+00  0.27161718007E+03  0.27165784087E+03  0.47000000000E+01 0.  1.
          5   -1    0    0  501    0  0.00000000000E+00 -0.00000000000E+00 -0.18793474267E+03  0.18799350389E+03  0.47000000000E+01 0.  1.
         25    2    1    2    0    0 -0.63099057872E+02 -0.33901988702E+02  0.21890682866E+03  0.26206305060E+03  0.12500402759E+03 0.  0.
         25    2    1    2    0    0  0.63099057872E+02  0.33901988702E+02 -0.13522439127E+03  0.19758829416E+03  0.12499864820E+03 0.  0.
          5    1    4    4  502    0  0.46944674837E+02  0.59431680075E+02 -0.14651209826E+03  0.16499640004E+03  0.47000000000E+01 0. -1.
         -5    1    4    4    0  502  0.16154383035E+02 -0.25529691373E+02  0.11287706990E+02  0.32591894114E+02  0.47000000000E+01 0. -1.
          5    1    3    3  503    0 -0.78069346452E+01 -0.42311776434E+02  0.19718787942E+03  0.20188210530E+03  0.47000000000E+01 0. -1.
         -5    1    3    3    0  503 -0.55292123227E+02  0.84097877319E+01  0.21718949243E+02  0.60180945298E+02  0.47000000000E+01 0. -1.
<mgrwt>
<rscale>  0 0.14407119E+03</rscale>
<asrwt>0</asrwt>
<pdfrwt beam="2">  1        5 0.28920685E-01 0.14407235E+03</pdfrwt>
<pdfrwt beam="1">  1       -5 0.41794906E-01 0.14407235E+03</pdfrwt>
<totfact> 0.46337309E+01</totfact>
</mgrwt>
</event>
<event>
 8    1  0.3573290E-007  0.1362572E+03  0.7546771E-02  0.1218456E+00
         -5   -1    0    0    0  501 -0.00000000000E+00  0.00000000000E+00  0.24576554387E+03  0.24581048097E+03  0.47000000000E+01 0. -1.
          5   -1    0    0  501    0  0.00000000000E+00 -0.00000000000E+00 -0.11717117259E+03  0.11726539850E+03  0.47000000000E+01 0. -1.
         25    2    1    2    0    0 -0.11776107658E+02  0.52931266110E+02  0.17258971712E+03  0.21989369709E+03  0.12500252766E+03 0.  0.
         25    2    1    2    0    0  0.11776107658E+02 -0.52931266110E+02 -0.43995345834E+02  0.14318218238E+03  0.12500060501E+03 0.  0.
          5    1    4    4  502    0 -0.18630444769E+02 -0.51628842180E+02  0.30218893011E+02  0.62832334924E+02  0.47000000000E+01 0.  1.
         -5    1    4    4    0  502  0.30406552426E+02 -0.13024239300E+01 -0.74214238845E+02  0.80349847454E+02  0.47000000000E+01 0.  1.
          5    1    3    3  503    0 -0.26726975036E+02 -0.33146392314E+02  0.28942537902E+02  0.51698887978E+02  0.47000000000E+01 0. -1.
         -5    1    3    3    0  503  0.14950867378E+02  0.86077658424E+02  0.14364717922E+03  0.16819480911E+03  0.47000000000E+01 0. -1.
<mgrwt>
<rscale>  0 0.13625677E+03</rscale>
<asrwt>0</asrwt>
<pdfrwt beam="2">  1        5 0.18037039E-01 0.13625721E+03</pdfrwt>
<pdfrwt beam="1">  1       -5 0.37820788E-01 0.13625721E+03</pdfrwt>
<totfact> 0.13674763E+02</totfact>
</mgrwt>
</event>
<event>
 8    1  0.3573290E-007  0.1332093E+03  0.7546771E-02  0.1222784E+00
          5   -1    0    0  501    0  0.00000000000E+00  0.00000000000E+00  0.84382573175E+03  0.84383882084E+03  0.47000000000E+01 0.  1.
         -5   -1    0    0    0  501 -0.00000000000E+00 -0.00000000000E+00 -0.21010798251E+02  0.21530063706E+02  0.47000000000E+01 0.  1.
         25    2    1    2    0    0  0.45097541289E+02  0.89478769124E+01  0.36357239614E+03  0.38720743251E+03  0.12502342111E+03 0.  0.
         25    2    1    2    0    0 -0.45097541289E+02 -0.89478769124E+01  0.45924253736E+03  0.47816145204E+03  0.12498325234E+03 0.  0.
          5    1    3    3  502    0  0.75920722918E+02  0.39493540099E+02  0.28138588851E+03  0.29414928885E+03  0.47000000000E+01 0.  1.
         -5    1    3    3    0  502 -0.30823181629E+02 -0.30545663187E+02  0.82186507631E+02  0.93058143663E+02  0.47000000000E+01 0.  1.
          5    1    4    4  503    0 -0.82629921254E+02  0.20359435621E+02  0.30246615991E+03  0.31424525198E+03  0.47000000000E+01 0.  1.
         -5    1    4    4    0  503  0.37532379965E+02 -0.29307312534E+02  0.15677637745E+03  0.16391620006E+03  0.47000000000E+01 0.  1.
<mgrwt>
<rscale>  0 0.13319984E+03</rscale>
<asrwt>0</asrwt>
<pdfrwt beam="1">  1        5 0.12986031E+00 0.13320927E+03</pdfrwt>
<pdfrwt beam="2">  1       -5 0.32733804E-02 0.13320927E+03</pdfrwt>
<totfact> 0.15417772E+02</totfact>
</mgrwt>
</event>
<event>
 8    1  0.3573290E-007  0.1382680E+03  0.7546771E-02  0.1215679E+00
          5   -1    0    0  501    0  0.00000000000E+00  0.00000000000E+00  0.85602836967E+02  0.85731765973E+02  0.47000000000E+01 0. -1.
         -5   -1    0    0    0  501 -0.00000000000E+00 -0.00000000000E+00 -0.24481194331E+03  0.24485705541E+03  0.47000000000E+01 0. -1.
         25    2    1    2    0    0 -0.31308386268E+02 -0.50130566357E+02 -0.12891513134E+03  0.18904275755E+03  0.12499905743E+03 0.  0.
         25    2    1    2    0    0  0.31308386268E+02  0.50130566357E+02 -0.30293975003E+02  0.14154606384E+03  0.12499709810E+03 0.  0.
          5    1    4    4  502    0  0.79085871083E+02  0.23705810834E+02 -0.25492293646E+02  0.86536047446E+02  0.47000000000E+01 0.  1.
         -5    1    4    4    0  502 -0.47777484815E+02  0.26424755523E+02 -0.48016813570E+01  0.55010016393E+02  0.47000000000E+01 0.  1.
          5    1    3    3  503    0 -0.68279140754E+02 -0.64195094637E+02 -0.66540735250E+02  0.11503395449E+03  0.47000000000E+01 0. -1.
         -5    1    3    3    0  503  0.36970754486E+02  0.14064528281E+02 -0.62374396085E+02  0.74008803058E+02  0.47000000000E+01 0. -1.
<mgrwt>
<rscale>  0 0.13826761E+03</rscale>
<asrwt>0</asrwt>
<pdfrwt beam="1">  1        5 0.13183055E-01 0.13826805E+03</pdfrwt>
<pdfrwt beam="2">  1       -5 0.37676763E-01 0.13826805E+03</pdfrwt>
<totfact> 0.24467062E+02</totfact>
</mgrwt>
</event>
<event>
 8    1  0.3573290E-007  0.1344708E+03  0.7546771E-02  0.1220970E+00
          5   -1    0    0  501    0  0.00000000000E+00  0.00000000000E+00  0.10032149067E+03  0.10043152638E+03  0.47000000000E+01 0.  1.
         -5   -1    0    0    0  501 -0.00000000000E+00 -0.00000000000E+00 -0.18000120192E+03  0.18006255217E+03  0.47000000000E+01 0.  1.
         25    2    1    2    0    0 -0.21699521491E+02 -0.44558504538E+02 -0.39567840338E+02  0.14016822202E+03  0.12500074766E+03 0.  0.
         25    2    1    2    0    0  0.21699521491E+02  0.44558504538E+02 -0.40111870914E+02  0.14032585653E+03  0.12500421698E+03 0.  0.
          5    1    3    3  502    0  0.50349557016E+01 -0.44999645293E+02 -0.79659350941E+02  0.91749774102E+02  0.47000000000E+01 0. -1.
         -5    1    3    3    0  502 -0.26734477193E+02  0.44114075470E+00  0.40091510603E+02  0.48418447914E+02  0.47000000000E+01 0. -1.
          5    1    4    4  503    0  0.47040071212E+02  0.68849844051E+02  0.41721448571E+01  0.83621564911E+02  0.47000000000E+01 0. -1.
         -5    1    4    4    0  503 -0.25340549721E+02 -0.24291339513E+02 -0.44284015771E+02  0.56704291622E+02  0.47000000000E+01 0. -1.
<mgrwt>
<rscale>  0 0.13446995E+03</rscale>
<asrwt>0</asrwt>
<pdfrwt beam="1">  1        5 0.15447259E-01 0.13447075E+03</pdfrwt>
<pdfrwt beam="2">  1       -5 0.27705676E-01 0.13447075E+03</pdfrwt>
<totfact> 0.33506146E+02</totfact>
</mgrwt>
</event>
<event>
 8    1  0.3573290E-007  0.1484764E+03  0.7546771E-02  0.1202358E+00
          5   -1    0    0  501    0  0.00000000000E+00  0.00000000000E+00  0.13682876827E+03  0.13690946580E+03  0.47000000000E+01 0.  1.
         -5   -1    0    0    0  501 -0.00000000000E+00 -0.00000000000E+00 -0.19429323690E+03  0.19435007565E+03  0.47000000000E+01 0.  1.
         25    2    1    2    0    0  0.37513989007E+02 -0.70795370549E+02 -0.97319332058E+02  0.17752710359E+03  0.12500214500E+03 0.  0.
         25    2    1    2    0    0 -0.37513989007E+02  0.70795370549E+02  0.39854863420E+02  0.15373243786E+03  0.12500387374E+03 0.  0.
          5    1    3    3  502    0 -0.43216677878E+02 -0.38925068959E+02 -0.57491698995E+02  0.81915979476E+02  0.47000000000E+01 0.  1.
         -5    1    3    3    0  502  0.80730666885E+02 -0.31870301591E+02 -0.39827633064E+02  0.95611124115E+02  0.47000000000E+01 0.  1.
          5    1    4    4  503    0  0.22417145310E+02 -0.22063492681E+02 -0.86319824173E+01  0.32953410045E+02  0.47000000000E+01 0.  1.
         -5    1    4    4    0  503 -0.59931134317E+02  0.92858863230E+02  0.48486845837E+02  0.12077902782E+03  0.47000000000E+01 0.  1.
<mgrwt>
<rscale>  0 0.14847607E+03</rscale>
<asrwt>0</asrwt>
<pdfrwt beam="1">  1        5 0.21061159E-01 0.14847644E+03</pdfrwt>
<pdfrwt beam="2">  1       -5 0.29901847E-01 0.14847644E+03</pdfrwt>
<totfact> 0.16840212E+02</totfact>
</mgrwt>
</event>
<event>
 8    1  0.3573290E-007  0.1404627E+03  0.7546771E-02  0.1212717E+00
          5   -1    0    0  501    0  0.00000000000E+00  0.00000000000E+00  0.84444828256E+02  0.84575522577E+02  0.47000000000E+01 0. -1.
         -5   -1    0    0    0  501 -0.00000000000E+00 -0.00000000000E+00 -0.23822475679E+03  0.23827111606E+03  0.47000000000E+01 0. -1.
         25    2    1    2    0    0  0.63882109303E+02  0.40553201074E+01 -0.10018311791E+03  0.17250568690E+03  0.12499674151E+03 0.  0.
         25    2    1    2    0    0 -0.63882109303E+02 -0.40553201074E+01 -0.53596810626E+02  0.15034095174E+03  0.12502965308E+03 0.  0.
          5    1    3    3  502    0  0.35899056126E+02 -0.23143724676E+02  0.19018339994E+02  0.46991078714E+02  0.47000000000E+01 0.  1.
         -5    1    3    3    0  502  0.27983053177E+02  0.27199044784E+02 -0.11920145790E+03  0.12551460819E+03  0.47000000000E+01 0.  1.
          5    1    4    4  503    0  0.11630615527E+02 -0.11595361920E+02  0.31740220442E+02  0.36045183164E+02  0.47000000000E+01 0.  1.
         -5    1    4    4    0  503 -0.75512724830E+02  0.75400418125E+01 -0.85337031069E+02  0.11429576857E+03  0.47000000000E+01 0.  1.
<mgrwt>
<rscale>  0 0.14045542E+03</rscale>
<asrwt>0</asrwt>
<pdfrwt beam="1">  1        5 0.13005132E-01 0.14046275E+03</pdfrwt>
<pdfrwt beam="2">  1       -5 0.36663582E-01 0.14046275E+03</pdfrwt>
<totfact> 0.26631245E+02</totfact>
</mgrwt>
</event>
<event>
 8    1  0.3573290E-007  0.1379046E+03  0.7546771E-02  0.1216194E+00
         -5   -1    0    0    0  501 -0.00000000000E+00  0.00000000000E+00  0.31021239469E+02  0.31375265707E+02  0.47000000000E+01 0. -1.
          5   -1    0    0  501    0  0.00000000000E+00 -0.00000000000E+00 -0.65793023366E+03  0.65794702094E+03  0.47000000000E+01 0. -1.
         25    2    1    2    0    0 -0.45085372119E+02 -0.36875895693E+02 -0.21943031311E+03  0.25914028889E+03  0.12494600655E+03 0.  0.
         25    2    1    2    0    0  0.45085372119E+02  0.36875895693E+02 -0.40747868108E+03  0.43018199776E+03  0.12500061278E+03 0.  0.
          5    1    4    4  502    0  0.69458931093E+02  0.41983926572E+02 -0.14301678283E+03  0.16450861184E+03  0.47000000000E+01 0. -1.
         -5    1    4    4    0  502 -0.24373558973E+02 -0.51080308787E+01 -0.26446189825E+03  0.26567338591E+03  0.47000000000E+01 0. -1.
          5    1    3    3  503    0 -0.52943528005E+02  0.34843788745E+02 -0.12479337619E+03  0.14004493390E+03  0.47000000000E+01 0. -1.
         -5    1    3    3    0  503  0.78581558856E+01 -0.71719684439E+02 -0.94636936924E+02  0.11909535499E+03  0.47000000000E+01 0. -1.
<mgrwt>
<rscale>  0 0.13789221E+03</rscale>
<asrwt>0</asrwt>
<pdfrwt beam="2">  1        5 0.10124855E+00 0.13790459E+03</pdfrwt>
<pdfrwt beam="1">  1       -5 0.48010230E-02 0.13790459E+03</pdfrwt>
<totfact> 0.15573069E+02</totfact>
</mgrwt>
</event>
<event>
 8    1  0.3573290E-007  0.1585918E+03  0.7546771E-02  0.1190298E+00
         -5   -1    0    0    0  501 -0.00000000000E+00  0.00000000000E+00  0.16540454228E+03  0.16547130448E+03  0.47000000000E+01 0.  1.
          5   -1    0    0  501    0  0.00000000000E+00 -0.00000000000E+00 -0.15249082559E+03  0.15256323898E+03  0.47000000000E+01 0.  1.
         25    2    1    2    0    0 -0.14529996957E+02 -0.96510544311E+02  0.16182731522E+02  0.15941535405E+03  0.12500387327E+03 0.  0.
         25    2    1    2    0    0  0.14529996957E+02  0.96510544311E+02 -0.32690148272E+01  0.15861918942E+03  0.12499581920E+03 0.  0.
          5    1    3    3  502    0  0.33946000301E+02 -0.12713687895E+02  0.45305685698E+02  0.58212231987E+02  0.47000000000E+01 0. -1.
         -5    1    3    3    0  502 -0.48475997258E+02 -0.83796856416E+02 -0.29122954175E+02  0.10120312206E+03  0.47000000000E+01 0. -1.
          5    1    4    4  503    0  0.66666098413E+02  0.56492951904E+02 -0.21775867720E+02  0.90178160923E+02  0.47000000000E+01 0. -1.
         -5    1    4    4    0  503 -0.52136101456E+02  0.40017592407E+02  0.18506852893E+02  0.68441028492E+02  0.47000000000E+01 0. -1.
<mgrwt>
<rscale>  0 0.15859026E+03</rscale>
<asrwt>0</asrwt>
<pdfrwt beam="2">  1        5 0.23470833E-01 0.15859185E+03</pdfrwt>
<pdfrwt beam="1">  1       -5 0.25457559E-01 0.15859185E+03</pdfrwt>
<totfact> 0.19165439E+02</totfact>
</mgrwt>
</event>
<event>
 8    1  0.3573290E-007  0.1379799E+03  0.7546771E-02  0.1216076E+00
         -5   -1    0    0    0  501 -0.00000000000E+00  0.00000000000E+00  0.30300435667E+03  0.30304080610E+03  0.47000000000E+01 0.  1.
          5   -1    0    0  501    0  0.00000000000E+00 -0.00000000000E+00 -0.69988051308E+02  0.70145686439E+02  0.47000000000E+01 0.  1.
         25    2    1    2    0    0 -0.40312570652E+02 -0.42278622199E+02  0.17663212316E+03  0.22413694867E+03  0.12500351826E+03 0.  0.
         25    2    1    2    0    0  0.40312570652E+02  0.42278622199E+02  0.56384182205E+02  0.14904954387E+03  0.12499602105E+03 0.  0.
          5    1    3    3  502    0  0.35811528469E+02  0.99994407724E+01  0.20603313000E+02  0.42767287658E+02  0.47000000000E+01 0.  1.
         -5    1    3    3    0  502 -0.76124099121E+02 -0.52278062971E+02  0.15602881016E+03  0.18136966101E+03  0.47000000000E+01 0.  1.
          5    1    4    4  503    0  0.53051101253E+02  0.17331412922E+02 -0.26115636973E+02  0.61797360078E+02  0.47000000000E+01 0.  1.
         -5    1    4    4    0  503 -0.12738530601E+02  0.24947209277E+02  0.82499819178E+02  0.87252183795E+02  0.47000000000E+01 0.  1.
<mgrwt>
<rscale>  0 0.13797825E+03</rscale>
<asrwt>0</asrwt>
<pdfrwt beam="2">  1        5 0.10782322E-01 0.13797994E+03</pdfrwt>
<pdfrwt beam="1">  1       -5 0.46630985E-01 0.13797994E+03</pdfrwt>
<totfact> 0.22498384E+02</totfact>
</mgrwt>
</event>
<event>
 8    1  0.3573290E-007  0.1532224E+03  0.7546771E-02  0.1196569E+00
         -5   -1    0    0    0  501 -0.00000000000E+00  0.00000000000E+00  0.12902691392E+03  0.12911248784E+03  0.47000000000E+01 0. -1.
          5   -1    0    0  501    0  0.00000000000E+00 -0.00000000000E+00 -0.23324556530E+03  0.23329291402E+03  0.47000000000E+01 0. -1.
         25    2    1    2    0    0  0.58978578324E+02  0.66132507015E+02  0.32985336794E+02  0.15673269723E+03  0.12500049901E+03 0.  0.
         25    2    1    2    0    0 -0.58978578324E+02 -0.66132507015E+02 -0.13720398816E+03  0.20567270463E+03  0.12499738348E+03 0.  0.
          5    1    3    3  502    0 -0.16175115596E+02 -0.15946689535E+02  0.38787839736E+02  0.45194222895E+02  0.47000000000E+01 0. -1.
         -5    1    3    3    0  502  0.75153693920E+02  0.82079196551E+02 -0.58025029419E+01  0.11153847433E+03  0.47000000000E+01 0. -1.
          5    1    4    4  503    0 -0.56742489076E+02  0.20111915683E+02 -0.86501754319E+02  0.10549333021E+03  0.47000000000E+01 0. -1.
         -5    1    4    4    0  503 -0.22360892482E+01 -0.86244422698E+02 -0.50702233846E+02  0.10017937442E+03  0.47000000000E+01 0. -1.
<mgrwt>
<rscale>  0 0.15322177E+03</rscale>
<asrwt>0</asrwt>
<pdfrwt beam="2">  1        5 0.35894158E-01 0.15322241E+03</pdfrwt>
<pdfrwt beam="1">  1       -5 0.19860519E-01 0.15322241E+03</pdfrwt>
<totfact> 0.13204373E+02</totfact>
</mgrwt>
</event>
<event>
 8    1  0.3573290E-007  0.1524194E+03  0.7546771E-02  0.1197532E+00
         -5   -1    0    0    0  501 -0.00000000000E+00  0.00000000000E+00  0.53062023847E+03  0.53064105332E+03  0.47000000000E+01 0. -1.
          5   -1    0    0  501    0  0.00000000000E+00 -0.00000000000E+00 -0.44333358600E+02  0.44581797684E+02  0.47000000000E+01 0. -1.
         25    2    1    2    0    0 -0.51037498905E+01  0.87058809943E+02  0.20711492805E+03  0.25715416478E+03  0.12500554544E+03 0.  0.
         25    2    1    2    0    0  0.51037498905E+01 -0.87058809943E+02  0.27917195182E+03  0.31806868623E+03  0.12500170329E+03 0.  0.
          5    1    3    3  502    0  0.36750584681E+02 -0.48190003886E+01  0.15366023325E+02  0.40398427097E+02  0.47000000000E+01 0. -1.
         -5    1    3    3    0  502 -0.41854334571E+02  0.91877810332E+02  0.19174890473E+03  0.21675573768E+03  0.47000000000E+01 0. -1.
          5    1    4    4  503    0 -0.40628035216E+01  0.27223186634E+02  0.11115189895E+03  0.11460559717E+03  0.47000000000E+01 0. -1.
         -5    1    4    4    0  503  0.91665534121E+01 -0.11428199658E+03  0.16802005287E+03  0.20346308906E+03  0.47000000000E+01 0. -1.
<mgrwt>
<rscale>  0 0.15241860E+03</rscale>
<asrwt>0</asrwt>
<pdfrwt beam="2">  1        5 0.68412288E-02 0.15241939E+03</pdfrwt>
<pdfrwt beam="1">  1       -5 0.81654592E-01 0.15241939E+03</pdfrwt>
<totfact> 0.14821052E+02</totfact>
</mgrwt>
</event>
<event>
 8    1  0.3573290E-007  0.1483208E+03  0.7546771E-02  0.1202552E+00
          5   -1    0    0  501    0  0.00000000000E+00  0.00000000000E+00  0.14828555731E+02  0.15555579869E+02  0.47000000000E+01 0. -1.
         -5   -1    0    0    0  501 -0.00000000000E+00 -0.00000000000E+00 -0.14552564998E+04  0.14552640895E+04  0.47000000000E+01 0. -1.
         25    2    1    2    0    0 -0.50634192800E+01 -0.79675733054E+02 -0.77451730687E+03  0.78859093195E+03  0.12499895464E+03 0.  0.
         25    2    1    2    0    0  0.50634192800E+01  0.79675733054E+02 -0.66591063715E+03  0.68222873737E+03  0.12500085112E+03 0.  0.
          5    1    4    4  502    0  0.41180405795E+02 -0.37177889774E+01 -0.89778077813E+02  0.98953731775E+02  0.47000000000E+01 0.  1.
         -5    1    4    4    0  502 -0.36116986515E+02  0.83393522032E+02 -0.57613255933E+03  0.58327500560E+03  0.47000000000E+01 0.  1.
          5    1    3    3  503    0  0.79820060900E+01  0.22862978957E+02 -0.41281896016E+02  0.48090676505E+02  0.47000000000E+01 0. -1.
         -5    1    3    3    0  503 -0.13045425370E+02 -0.10253871201E+03 -0.73323541086E+03  0.74050025545E+03  0.47000000000E+01 0. -1.
<mgrwt>
<rscale>  0 0.14832045E+03</rscale>
<asrwt>0</asrwt>
<pdfrwt beam="1">  1        5 0.23378262E-02 0.14832085E+03</pdfrwt>
<pdfrwt beam="2">  1       -5 0.22394201E+00 0.14832085E+03</pdfrwt>
<totfact> 0.56125343E+01</totfact>
</mgrwt>
</event>
<event>
 8    1  0.3573290E-007  0.1283470E+03  0.7546771E-02  0.1229932E+00
          5   -1    0    0  501    0  0.00000000000E+00  0.00000000000E+00  0.99175219319E+02  0.99286525405E+02  0.47000000000E+01 0. -1.
         -5   -1    0    0    0  501 -0.00000000000E+00 -0.00000000000E+00 -0.24721946521E+03  0.24726413807E+03  0.47000000000E+01 0. -1.
         25    2    1    2    0    0  0.60444541176E+01 -0.28484313897E+02 -0.17339688517E+03  0.21573001910E+03  0.12500027915E+03 0.  0.
         25    2    1    2    0    0 -0.60444541176E+01  0.28484313897E+02  0.25352639285E+02  0.13082064438E+03  0.12499357229E+03 0.  0.
          5    1    3    3  502    0 -0.17997983370E+02 -0.45997526147E+02 -0.11335872129E+02  0.50894909510E+02  0.47000000000E+01 0. -1.
         -5    1    3    3    0  502  0.24042437488E+02  0.17513212251E+02 -0.16206101304E+03  0.16483510959E+03  0.47000000000E+01 0. -1.
          5    1    4    4  503    0  0.19454032799E+02 -0.20064546876E+02  0.59601463151E+02  0.65995983538E+02  0.47000000000E+01 0. -1.
         -5    1    4    4    0  503 -0.25498486917E+02  0.48548860772E+02 -0.34248823866E+02  0.64824660844E+02  0.47000000000E+01 0. -1.
<mgrwt>
<rscale>  0 0.12834540E+03</rscale>
<asrwt>0</asrwt>
<pdfrwt beam="1">  1        5 0.15269724E-01 0.12834703E+03</pdfrwt>
<pdfrwt beam="2">  1       -5 0.38045762E-01 0.12834703E+03</pdfrwt>
<totfact> 0.17946907E+02</totfact>
</mgrwt>
</event>
<event>
 8    1  0.3573290E-007  0.2034729E+03  0.7546771E-02  0.1146843E+00
         -5   -1    0    0    0  501 -0.00000000000E+00  0.00000000000E+00  0.20912888466E+02  0.21434525980E+02  0.47000000000E+01 0.  1.
          5   -1    0    0  501    0  0.00000000000E+00 -0.00000000000E+00 -0.20731546575E+04  0.20731599852E+04  0.47000000000E+01 0.  1.
         25    2    1    2    0    0  0.12451135008E+03 -0.10135945440E+03 -0.77582375775E+03  0.80206051058E+03  0.12498697636E+03 0.  0.
         25    2    1    2    0    0 -0.12451135008E+03  0.10135945440E+03 -0.12764180113E+04  0.12925340006E+04  0.12499755064E+03 0.  0.
          5    1    4    4  502    0 -0.13970608423E+03  0.11247072356E+03 -0.12135319140E+04  0.12267229720E+04  0.47000000000E+01 0.  1.
         -5    1    4    4    0  502  0.15194734152E+02 -0.11111269165E+02 -0.62886097292E+02  0.65811028567E+02  0.47000000000E+01 0.  1.
          5    1    3    3  503    0  0.34650430906E+02 -0.80218719766E+02 -0.19247841590E+03  0.21143728610E+03  0.47000000000E+01 0. -1.
         -5    1    3    3    0  503  0.89860919171E+02 -0.21140734632E+02 -0.58334534184E+03  0.59062322449E+03  0.47000000000E+01 0. -1.
<mgrwt>
<rscale>  0 0.20347123E+03</rscale>
<asrwt>0</asrwt>
<pdfrwt beam="2">  1        5 0.31898725E+00 0.20347286E+03</pdfrwt>
<pdfrwt beam="1">  1       -5 0.32579049E-02 0.20347286E+03</pdfrwt>
<totfact> 0.86924516E+00</totfact>
</mgrwt>
</event>
<event>
 8    1  0.3573290E-007  0.1567719E+03  0.7546771E-02  0.1192391E+00
         -5   -1    0    0    0  501 -0.00000000000E+00  0.00000000000E+00  0.88210697847E+02  0.88335820677E+02  0.47000000000E+01 0.  1.
          5   -1    0    0  501    0  0.00000000000E+00 -0.00000000000E+00 -0.43625671405E+03  0.43628203098E+03  0.47000000000E+01 0.  1.
         25    2    1    2    0    0 -0.31050132194E+02 -0.89383651790E+02 -0.16201157584E+02  0.15760682346E+03  0.12499554143E+03 0.  0.
         25    2    1    2    0    0  0.31050132194E+02  0.89383651790E+02 -0.33184485862E+03  0.36701102819E+03  0.12499014644E+03 0.  0.
          5    1    4    4  502    0  0.10469145821E+02 -0.26697848000E+02 -0.13003337564E+03  0.13324093546E+03  0.47000000000E+01 0. -1.
         -5    1    4    4    0  502  0.20580986373E+02  0.11608149979E+03 -0.20181148297E+03  0.23377009273E+03  0.47000000000E+01 0. -1.
          5    1    3    3  503    0  0.36206976029E+01 -0.10642032366E+03  0.15119961944E+02  0.10765267293E+03  0.47000000000E+01 0. -1.
         -5    1    3    3    0  503 -0.34670829797E+02  0.17036671870E+02 -0.31321119528E+02  0.49954150535E+02  0.47000000000E+01 0. -1.
<mgrwt>
<rscale>  0 0.15677084E+03</rscale>
<asrwt>0</asrwt>
<pdfrwt beam="2">  1        5 0.67127989E-01 0.15677191E+03</pdfrwt>
<pdfrwt beam="1">  1       -5 0.13582449E-01 0.15677191E+03</pdfrwt>
<totfact> 0.70680998E+01</totfact>
</mgrwt>
</event>
<event>
 8    1  0.3573290E-007  0.2023781E+03  0.7546771E-02  0.1147749E+00
         -5   -1    0    0    0  501 -0.00000000000E+00  0.00000000000E+00  0.35182281494E+03  0.35185420719E+03  0.47000000000E+01 0.  1.
          5   -1    0    0  501    0  0.00000000000E+00 -0.00000000000E+00 -0.14720749030E+03  0.14728250134E+03  0.47000000000E+01 0.  1.
         25    2    1    2    0    0  0.11515418710E+03  0.10986494613E+03  0.21656581628E+03  0.29640609027E+03  0.12500009749E+03 0.  0.
         25    2    1    2    0    0 -0.11515418710E+03 -0.10986494613E+03 -0.11950491635E+02  0.20273061825E+03  0.12500438445E+03 0.  0.
          5    1    4    4  502    0 -0.53345944389E+02 -0.10817447053E+03 -0.49251959686E+02  0.13036622028E+03  0.47000000000E+01 0. -1.
         -5    1    4    4    0  502 -0.61808242712E+02 -0.16904755994E+01  0.37301468051E+02  0.72364397970E+02  0.47000000000E+01 0. -1.
          5    1    3    3  503    0  0.83568810698E+02  0.60104413976E+02  0.40570306803E+02  0.11074441970E+03  0.47000000000E+01 0. -1.
         -5    1    3    3    0  503  0.31585376403E+02  0.49760532157E+02  0.17599550947E+03  0.18566167057E+03  0.47000000000E+01 0. -1.
<mgrwt>
<rscale>  0 0.20237742E+03</rscale>
<asrwt>0</asrwt>
<pdfrwt beam="2">  1        5 0.22655491E-01 0.20237809E+03</pdfrwt>
<pdfrwt beam="1">  1       -5 0.54134772E-01 0.20237809E+03</pdfrwt>
<totfact> 0.47324107E+01</totfact>
</mgrwt>
</event>
<event>
 8    1  0.3573290E-007  0.1332708E+03  0.7546771E-02  0.1222693E+00
          5   -1    0    0  501    0  0.00000000000E+00  0.00000000000E+00  0.79713227975E+02  0.79851666947E+02  0.47000000000E+01 0. -1.
         -5   -1    0    0    0  501 -0.00000000000E+00 -0.00000000000E+00 -0.22451373998E+03  0.22456292980E+03  0.47000000000E+01 0. -1.
         25    2    1    2    0    0 -0.42743811093E+02 -0.17351350037E+02 -0.87136766530E+02  0.15920369212E+03  0.12499958707E+03 0.  0.
         25    2    1    2    0    0  0.42743811093E+02  0.17351350037E+02 -0.57663745479E+02  0.14521090463E+03  0.12503198209E+03 0.  0.
          5    1    3    3  502    0 -0.49971682864E+02 -0.52149884805E+02 -0.97919505749E+02  0.12176657661E+03  0.47000000000E+01 0. -1.
         -5    1    3    3    0  502  0.72278717712E+01  0.34798534768E+02  0.10782739219E+02  0.37437115506E+02  0.47000000000E+01 0. -1.
          5    1    4    4  503    0 -0.21417520769E+02  0.47075799101E+02  0.28664656821E+01  0.52011034237E+02  0.47000000000E+01 0. -1.
         -5    1    4    4    0  503  0.64161331862E+02 -0.29724449064E+02 -0.60530211161E+02  0.93199870396E+02  0.47000000000E+01 0. -1.
<mgrwt>
<rscale>  0 0.13326318E+03</rscale>
<asrwt>0</asrwt>
<pdfrwt beam="1">  1        5 0.12278007E-01 0.13327077E+03</pdfrwt>
<pdfrwt beam="2">  1       -5 0.34555008E-01 0.13327077E+03</pdfrwt>
<totfact> 0.32640328E+02</totfact>
</mgrwt>
</event>
<event>
 8    1  0.3573290E-007  0.1292265E+03  0.7546771E-02  0.1228609E+00
         -5   -1    0    0    0  501 -0.00000000000E+00  0.00000000000E+00  0.24169529531E+03  0.24174098903E+03  0.47000000000E+01 0. -1.
          5   -1    0    0  501    0  0.00000000000E+00 -0.00000000000E+00 -0.76574624598E+02  0.76718727390E+02  0.47000000000E+01 0. -1.
         25    2    1    2    0    0  0.22547534088E+02 -0.23781130496E+02  0.13270990337E+03  0.18523077505E+03  0.12499835244E+03 0.  0.
         25    2    1    2    0    0 -0.22547534088E+02  0.23781130496E+02  0.32410767349E+02  0.13322894137E+03  0.12500223805E+03 0.  0.
          5    1    4    4  502    0  0.29157757691E+02 -0.17983148859E+02 -0.27067410150E+02  0.43912448903E+02  0.47000000000E+01 0.  1.
         -5    1    4    4    0  502 -0.51705291779E+02  0.41764279355E+02  0.59478177499E+02  0.89316492467E+02  0.47000000000E+01 0.  1.
          5    1    3    3  503    0  0.48994999153E+02 -0.25298085751E+01  0.11638181023E+01  0.49298624179E+02  0.47000000000E+01 0.  1.
         -5    1    3    3    0  503 -0.26447465065E+02 -0.21251321921E+02  0.13154608526E+03  0.13593215087E+03  0.47000000000E+01 0.  1.
<mgrwt>
<rscale>  0 0.12922558E+03</rscale>
<asrwt>0</asrwt>
<pdfrwt beam="2">  1        5 0.11795311E-01 0.12922652E+03</pdfrwt>
<pdfrwt beam="1">  1       -5 0.37198492E-01 0.12922652E+03</pdfrwt>
<totfact> 0.29883478E+02</totfact>
</mgrwt>
</event>
<event>
 8    1  0.3573290E-007  0.1962565E+03  0.7546771E-02  0.1152937E+00
         -5   -1    0    0    0  501 -0.00000000000E+00  0.00000000000E+00  0.64565373148E+03  0.64567083795E+03  0.47000000000E+01 0. -1.
          5   -1    0    0  501    0  0.00000000000E+00 -0.00000000000E+00 -0.99791973786E+02  0.99902592719E+02  0.47000000000E+01 0. -1.
         25    2    1    2    0    0 -0.50141713474E+02  0.14274739827E+03  0.50948225677E+03  0.54597365227E+03  0.12499619143E+03 0.  0.
         25    2    1    2    0    0  0.50141713474E+02 -0.14274739827E+03  0.36379500928E+02  0.19959977839E+03  0.12500236919E+03 0.  0.
          5    1    4    4  502    0  0.73072587698E+02 -0.13984066082E+03  0.19476907578E+01  0.15786353914E+03  0.47000000000E+01 0. -1.
         -5    1    4    4    0  502 -0.22930874223E+02 -0.29067374520E+01  0.34431810171E+02  0.41736239252E+02  0.47000000000E+01 0. -1.
          5    1    3    3  503    0 -0.57458276319E+02  0.82647738887E+02  0.44936134338E+03  0.46052123641E+03  0.47000000000E+01 0.  1.
         -5    1    3    3    0  503  0.73165628451E+01  0.60099659385E+02  0.60120913387E+02  0.85452415861E+02  0.47000000000E+01 0.  1.
<mgrwt>
<rscale>  0 0.19625549E+03</rscale>
<asrwt>0</asrwt>
<pdfrwt beam="2">  1        5 0.15362436E-01 0.19625647E+03</pdfrwt>
<pdfrwt beam="1">  1       -5 0.99341170E-01 0.19625647E+03</pdfrwt>
<totfact> 0.24056285E+01</totfact>
</mgrwt>
</event>
<event>
 8    1  0.3573290E-007  0.1454560E+03  0.7546771E-02  0.1206173E+00
         -5   -1    0    0    0  501 -0.00000000000E+00  0.00000000000E+00  0.83664587179E+03  0.83665907321E+03  0.47000000000E+01 0. -1.
          5   -1    0    0  501    0  0.00000000000E+00 -0.00000000000E+00 -0.25306338464E+02  0.25739090242E+02  0.47000000000E+01 0. -1.
         25    2    1    2    0    0 -0.71760468508E+02 -0.19506061616E+02  0.36308550102E+03  0.39113483048E+03  0.12500129313E+03 0.  0.
         25    2    1    2    0    0  0.71760468508E+02  0.19506061616E+02  0.44825403230E+03  0.47126333297E+03  0.12500960061E+03 0.  0.
          5    1    3    3  502    0 -0.30749613754E+02 -0.38185079609E+02  0.36200026943E+02  0.61124225979E+02  0.47000000000E+01 0. -1.
         -5    1    3    3    0  502 -0.41010854754E+02  0.18679017994E+02  0.32688547408E+03  0.33001060450E+03  0.47000000000E+01 0. -1.
          5    1    4    4  503    0 -0.30253493642E+02 -0.18474291065E+02  0.91381286264E+02  0.98128501401E+02  0.47000000000E+01 0. -1.
         -5    1    4    4    0  503  0.10201396215E+03  0.37980352681E+02  0.35687274604E+03  0.37313483157E+03  0.47000000000E+01 0. -1.
<mgrwt>
<rscale>  0 0.14545423E+03</rscale>
<asrwt>0</asrwt>
<pdfrwt beam="2">  1        5 0.39275871E-02 0.14545601E+03</pdfrwt>
<pdfrwt beam="1">  1       -5 0.12874905E+00 0.14545601E+03</pdfrwt>
<totfact> 0.12045352E+02</totfact>
</mgrwt>
</event>
<event>
 8    1  0.3573290E-007  0.1372282E+03  0.7546771E-02  0.1217112E+00
         -5   -1    0    0    0  501 -0.00000000000E+00  0.00000000000E+00  0.66932616368E+03  0.66934266515E+03  0.47000000000E+01 0.  1.
          5   -1    0    0  501    0  0.00000000000E+00 -0.00000000000E+00 -0.35222893058E+02  0.35535084007E+02  0.47000000000E+01 0.  1.
         25    2    1    2    0    0 -0.10224908445E+02 -0.55698288274E+02  0.47670958884E+03  0.49606815879E+03  0.12499895199E+03 0.  0.
         25    2    1    2    0    0  0.10224908445E+02  0.55698288274E+02  0.15739368178E+03  0.20880959037E+03  0.12498730294E+03 0.  0.
          5    1    4    4  502    0 -0.30567128023E+02 -0.28803068903E+02  0.60960348062E+02  0.74176951472E+02  0.47000000000E+01 0. -1.
         -5    1    4    4    0  502  0.40792036468E+02  0.84501357178E+02  0.96433333718E+02  0.13463263890E+03  0.47000000000E+01 0. -1.
          5    1    3    3  503    0  0.91401783571E+01  0.59037507209E+01 -0.28231734282E+01  0.12184311272E+02  0.47000000000E+01 0. -1.
         -5    1    3    3    0  503 -0.19365086802E+02 -0.61602038995E+02  0.47953276227E+03  0.48388384752E+03  0.47000000000E+01 0. -1.
<mgrwt>
<rscale>  0 0.13722557E+03</rscale>
<asrwt>0</asrwt>
<pdfrwt beam="2">  1        5 0.54441906E-02 0.13722823E+03</pdfrwt>
<pdfrwt beam="1">  1       -5 0.10299854E+00 0.13722823E+03</pdfrwt>
<totfact> 0.12095273E+02</totfact>
</mgrwt>
</event>
<event>
 8    1  0.3573290E-007  0.1593272E+03  0.7546771E-02  0.1189464E+00
         -5   -1    0    0    0  501 -0.00000000000E+00  0.00000000000E+00  0.74809338107E+03  0.74810814513E+03  0.47000000000E+01 0. -1.
          5   -1    0    0  501    0  0.00000000000E+00 -0.00000000000E+00 -0.34899447189E+02  0.35214505734E+02  0.47000000000E+01 0. -1.
         25    2    1    2    0    0 -0.47250090957E+01  0.98655504983E+02  0.42732151015E+03  0.45605792710E+03  0.12501970029E+03 0.  0.
         25    2    1    2    0    0  0.47250090957E+01 -0.98655504983E+02  0.28587242374E+03  0.32726472376E+03  0.12499568949E+03 0.  0.
          5    1    4    4  502    0 -0.48315286933E+02 -0.53217105227E+02  0.21866767355E+03  0.23022612514E+03  0.47000000000E+01 0. -1.
         -5    1    4    4    0  502  0.53040296029E+02 -0.45438399756E+02  0.67204750185E+02  0.97038598623E+02  0.47000000000E+01 0. -1.
          5    1    3    3  503    0 -0.30604525623E+02  0.11112787187E+03  0.23769712939E+03  0.26421214244E+03  0.47000000000E+01 0. -1.
         -5    1    3    3    0  503  0.25879516528E+02 -0.12472366890E+02  0.18962438076E+03  0.19184578465E+03  0.47000000000E+01 0. -1.
<mgrwt>
<rscale>  0 0.15932250E+03</rscale>
<asrwt>0</asrwt>
<pdfrwt beam="2">  1        5 0.53945173E-02 0.15932721E+03</pdfrwt>
<pdfrwt beam="1">  1       -5 0.11511665E+00 0.15932721E+03</pdfrwt>
<totfact> 0.97586681E+01</totfact>
</mgrwt>
</event>
<event>
 8    1  0.3573290E-007  0.1360840E+03  0.7546771E-02  0.1218698E+00
         -5   -1    0    0    0  501 -0.00000000000E+00  0.00000000000E+00  0.19711191813E+03  0.19716794433E+03  0.47000000000E+01 0.  1.
          5   -1    0    0  501    0  0.00000000000E+00 -0.00000000000E+00 -0.10123286582E+03  0.10134191198E+03  0.47000000000E+01 0.  1.
         25    2    1    2    0    0  0.35411824079E+02 -0.40480556311E+02  0.88287827412E+02  0.16221432327E+03  0.12500429385E+03 0.  0.
         25    2    1    2    0    0 -0.35411824079E+02  0.40480556311E+02  0.75912248985E+01  0.13629553303E+03  0.12500469153E+03 0.  0.
          5    1    4    4  502    0  0.26610845477E+02 -0.31134768949E+02  0.26194229456E+01  0.41309348954E+02  0.47000000000E+01 0.  1.
         -5    1    4    4    0  502 -0.62022669556E+02  0.71615325260E+02  0.49718019529E+01  0.94986184077E+02  0.47000000000E+01 0.  1.
          5    1    3    3  503    0 -0.39600025003E+02 -0.20510646238E+02  0.37951876394E+00  0.44845095873E+02  0.47000000000E+01 0. -1.
         -5    1    3    3    0  503  0.75011849082E+02 -0.19969910073E+02  0.87908308648E+02  0.11736922740E+03  0.47000000000E+01 0. -1.
<mgrwt>
<rscale>  0 0.13608387E+03</rscale>
<asrwt>0</asrwt>
<pdfrwt beam="2">  1        5 0.15586985E-01 0.13608397E+03</pdfrwt>
<pdfrwt beam="1">  1       -5 0.30337608E-01 0.13608397E+03</pdfrwt>
<totfact> 0.27722878E+02</totfact>
</mgrwt>
</event>
<event>
 8    1  0.3573290E-007  0.1431727E+03  0.7546771E-02  0.1209140E+00
          5   -1    0    0  501    0  0.00000000000E+00  0.00000000000E+00  0.12221228462E+03  0.12230262676E+03  0.47000000000E+01 0. -1.
         -5   -1    0    0    0  501 -0.00000000000E+00 -0.00000000000E+00 -0.16748352189E+03  0.16754945570E+03  0.47000000000E+01 0. -1.
         25    2    1    2    0    0  0.31762237699E+02  0.62022963613E+02 -0.23427001634E+02  0.14502251513E+03  0.12500807066E+03 0.  0.
         25    2    1    2    0    0 -0.31762237699E+02 -0.62022963613E+02 -0.21844235635E+02  0.14482956732E+03  0.12507096058E+03 0.  0.
          5    1    4    4  502    0 -0.79420708967E+02 -0.34410928230E+02 -0.41293168348E+01  0.86780771212E+02  0.47000000000E+01 0. -1.
         -5    1    4    4    0  502  0.47658471269E+02 -0.27612035383E+02 -0.17714918801E+02  0.58048796110E+02  0.47000000000E+01 0. -1.
          5    1    3    3  503    0  0.53497387428E+02  0.46302997042E+02  0.36094757687E+02  0.79566698619E+02  0.47000000000E+01 0.  1.
         -5    1    3    3    0  503 -0.21735149729E+02  0.15719966571E+02 -0.59521759321E+02  0.65455816513E+02  0.47000000000E+01 0.  1.
<mgrwt>
<rscale>  0 0.14315900E+03</rscale>
<asrwt>0</asrwt>
<pdfrwt beam="1">  1        5 0.18813911E-01 0.14317274E+03</pdfrwt>
<pdfrwt beam="2">  1       -5 0.25778717E-01 0.14317274E+03</pdfrwt>
<totfact> 0.27408569E+02</totfact>
</mgrwt>
</event>
<event>
 8    1  0.3573290E-007  0.1285445E+03  0.7546771E-02  0.1229634E+00
         -5   -1    0    0    0  501 -0.00000000000E+00  0.00000000000E+00  0.31510073793E+02  0.31858668372E+02  0.47000000000E+01 0. -1.
          5   -1    0    0  501    0  0.00000000000E+00 -0.00000000000E+00 -0.52128954177E+03  0.52131072918E+03  0.47000000000E+01 0. -1.
         25    2    1    2    0    0  0.28755784288E+02 -0.83500063841E+01 -0.24983797884E+03  0.28096429914E+03  0.12500121594E+03 0.  0.
         25    2    1    2    0    0 -0.28755784288E+02  0.83500063841E+01 -0.23994148914E+03  0.27220509841E+03  0.12500831834E+03 0.  0.
          5    1    4    4  502    0 -0.13611013437E+02 -0.19954954719E+02  0.50113147707E+01  0.25113008190E+02  0.47000000000E+01 0. -1.
         -5    1    4    4    0  502 -0.15144770851E+02  0.28304961103E+02 -0.24495280391E+03  0.24709209022E+03  0.47000000000E+01 0. -1.
          5    1    3    3  503    0 -0.34347884376E+02 -0.13424913957E+02 -0.19383602941E+02  0.41926358521E+02  0.47000000000E+01 0. -1.
         -5    1    3    3    0  503  0.63103668664E+02  0.50749075726E+01 -0.23045437590E+03  0.23903794062E+03  0.47000000000E+01 0. -1.
<mgrwt>
<rscale>  0 0.12854281E+03</rscale>
<asrwt>0</asrwt>
<pdfrwt beam="2">  1        5 0.80226830E-01 0.12854453E+03</pdfrwt>
<pdfrwt beam="1">  1       -5 0.48761488E-02 0.12854453E+03</pdfrwt>
<totfact> 0.25739716E+02</totfact>
</mgrwt>
</event>
<event>
 8    1  0.3573290E-007  0.1402244E+03  0.7546771E-02  0.1213027E+00
          5   -1    0    0  501    0  0.00000000000E+00  0.00000000000E+00  0.58991738132E+02  0.59178671561E+02  0.47000000000E+01 0. -1.
         -5   -1    0    0    0  501 -0.00000000000E+00 -0.00000000000E+00 -0.35632290913E+03  0.35635390495E+03  0.47000000000E+01 0. -1.
         25    2    1    2    0    0 -0.60431976859E+02  0.19641551896E+02 -0.20227552380E+03  0.24612655274E+03  0.12500031219E+03 0.  0.
         25    2    1    2    0    0  0.60431976859E+02 -0.19641551896E+02 -0.95055647197E+02  0.16940602377E+03  0.12500004175E+03 0.  0.
          5    1    4    4  502    0  0.43488153268E+02  0.42395379535E+01  0.21651049252E+02  0.48990316292E+02  0.47000000000E+01 0.  1.
         -5    1    4    4    0  502  0.16943823591E+02 -0.23881089849E+02 -0.11670669645E+03  0.12041570747E+03  0.47000000000E+01 0.  1.
          5    1    3    3  503    0 -0.52442976858E+02  0.57489406403E+02 -0.59333739090E+02  0.97968771885E+02  0.47000000000E+01 0.  1.
         -5    1    3    3    0  503 -0.79890000004E+01 -0.37847854508E+02 -0.14294178471E+03  0.14815778086E+03  0.47000000000E+01 0.  1.
<mgrwt>
<rscale>  0 0.14022438E+03</rscale>
<asrwt>0</asrwt>
<pdfrwt beam="1">  1        5 0.90924161E-02 0.14022444E+03</pdfrwt>
<pdfrwt beam="2">  1       -5 0.54835671E-01 0.14022444E+03</pdfrwt>
<totfact> 0.21582792E+02</totfact>
</mgrwt>
</event>
<event>
 8    1  0.3573290E-007  0.1590219E+03  0.7546771E-02  0.1189806E+00
          5   -1    0    0  501    0  0.00000000000E+00  0.00000000000E+00  0.51817099344E+02  0.52029816302E+02  0.47000000000E+01 0. -1.
         -5   -1    0    0    0  501 -0.00000000000E+00 -0.00000000000E+00 -0.50383753606E+03  0.50385945734E+03  0.47000000000E+01 0. -1.
         25    2    1    2    0    0 -0.59522220882E+02 -0.78226555275E+02 -0.27711150574E+03  0.31949766857E+03  0.12500273950E+03 0.  0.
         25    2    1    2    0    0  0.59522220882E+02  0.78226555275E+02 -0.17490893098E+03  0.23639160506E+03  0.12500227229E+03 0.  0.
          5    1    3    3  502    0  0.55657255485E+01 -0.91753704538E+02 -0.15041043751E+03  0.17633805406E+03  0.47000000000E+01 0.  1.
         -5    1    3    3    0  502 -0.65087946430E+02  0.13527149263E+02 -0.12670106823E+03  0.14315961451E+03  0.47000000000E+01 0.  1.
          5    1    4    4  503    0  0.35077487265E+02  0.10092557195E+03 -0.17204995495E+03  0.20258252191E+03  0.47000000000E+01 0. -1.
         -5    1    4    4    0  503  0.24444733617E+02 -0.22699016673E+02 -0.28589760294E+01  0.33809083151E+02  0.47000000000E+01 0. -1.
<mgrwt>
<rscale>  0 0.15902184E+03</rscale>
<asrwt>0</asrwt>
<pdfrwt beam="1">  1        5 0.79899109E-02 0.15902193E+03</pdfrwt>
<pdfrwt beam="2">  1       -5 0.77531513E-01 0.15902193E+03</pdfrwt>
<totfact> 0.12992605E+02</totfact>
</mgrwt>
</event>
<event>
 8    1  0.3573290E-007  0.1272929E+03  0.7546771E-02  0.1231529E+00
          5   -1    0    0  501    0  0.00000000000E+00  0.00000000000E+00  0.65929412743E+02  0.66096728094E+02  0.47000000000E+01 0.  1.
         -5   -1    0    0    0  501 -0.00000000000E+00 -0.00000000000E+00 -0.25999756723E+03  0.26004004493E+03  0.47000000000E+01 0.  1.
         25    2    1    2    0    0 -0.24014537482E+02  0.13975480891E+01 -0.13583108282E+03  0.18615449272E+03  0.12499904379E+03 0.  0.
         25    2    1    2    0    0  0.24014537482E+02 -0.13975480891E+01 -0.58237071668E+02  0.13998228030E+03  0.12499932452E+03 0.  0.
          5    1    4    4  502    0  0.71537675047E+02 -0.22287951380E+02 -0.36982704124E+02  0.83691111428E+02  0.47000000000E+01 0.  1.
         -5    1    4    4    0  502 -0.47523137565E+02  0.20890403291E+02 -0.21254367544E+02  0.56291168875E+02  0.47000000000E+01 0.  1.
          5    1    3    3  503    0  0.40142238245E+02 -0.14263875119E+02 -0.10064687275E+02  0.44025508000E+02  0.47000000000E+01 0. -1.
         -5    1    3    3    0  503 -0.64156775727E+02  0.15661423208E+02 -0.12576639555E+03  0.14212898472E+03  0.47000000000E+01 0. -1.
<mgrwt>
<rscale>  0 0.12729283E+03</rscale>
<asrwt>0</asrwt>
<pdfrwt beam="1">  1        5 0.10159125E-01 0.12729290E+03</pdfrwt>
<pdfrwt beam="2">  1       -5 0.40015763E-01 0.12729290E+03</pdfrwt>
<totfact> 0.33306999E+02</totfact>
</mgrwt>
</event>
<event>
 8    1  0.3573290E-007  0.1340624E+03  0.7546771E-02  0.1221559E+00
          5   -1    0    0  501    0  0.00000000000E+00  0.00000000000E+00  0.19064526779E+02  0.19635329926E+02  0.47000000000E+01 0. -1.
         -5   -1    0    0    0  501 -0.00000000000E+00 -0.00000000000E+00 -0.94241354539E+03  0.94242526523E+03  0.47000000000E+01 0. -1.
         25    2    1    2    0    0 -0.48063259983E+02  0.60504001906E+01 -0.40239634405E+03  0.42414093775E+03  0.12500413220E+03 0.  0.
         25    2    1    2    0    0  0.48063259983E+02 -0.60504001906E+01 -0.52095267456E+03  0.53791965740E+03  0.12497673537E+03 0.  0.
          5    1    3    3  502    0 -0.27476683036E+02 -0.54599806616E+02 -0.12264848526E+03  0.13711618405E+03  0.47000000000E+01 0.  1.
         -5    1    3    3    0  502 -0.20586576947E+02  0.60650206807E+02 -0.27974785879E+03  0.28702475370E+03  0.47000000000E+01 0.  1.
          5    1    4    4  503    0  0.43380498218E+02 -0.30420308795E+02 -0.50554172786E+03  0.50833236315E+03  0.47000000000E+01 0.  1.
         -5    1    4    4    0  503  0.46827617649E+01  0.24369908604E+02 -0.15410946697E+02  0.29587294253E+02  0.47000000000E+01 0.  1.
<mgrwt>
<rscale>  0 0.13405598E+03</rscale>
<asrwt>0</asrwt>
<pdfrwt beam="1">  1        5 0.29778143E-02 0.13406236E+03</pdfrwt>
<pdfrwt beam="2">  1       -5 0.14503147E+00 0.13406236E+03</pdfrwt>
<totfact> 0.13439968E+02</totfact>
</mgrwt>
</event>
<event>
 8    1  0.3573290E-007  0.1448986E+03  0.7546771E-02  0.1206891E+00
          5   -1    0    0  501    0  0.00000000000E+00  0.00000000000E+00  0.13060802675E+03  0.13069256541E+03  0.47000000000E+01 0. -1.
         -5   -1    0    0    0  501 -0.00000000000E+00 -0.00000000000E+00 -0.23017050334E+03  0.23021848451E+03  0.47000000000E+01 0. -1.
         25    2    1    2    0    0 -0.72122919031E+02 -0.12770270461E+02 -0.14898968546E+03  0.20783053962E+03  0.12502324410E+03 0.  0.
         25    2    1    2    0    0  0.72122919031E+02  0.12770270461E+02  0.49427208876E+02  0.15308051030E+03  0.12500319355E+03 0.  0.
          5    1    4    4  502    0 -0.18743890649E+01 -0.38978758603E+02 -0.14983895139E+02  0.42064998159E+02  0.47000000000E+01 0. -1.
         -5    1    4    4    0  502  0.73997308096E+02  0.51749029064E+02  0.64411104016E+02  0.11101551214E+03  0.47000000000E+01 0. -1.
          5    1    3    3  503    0 -0.33040536513E+01  0.50664155344E+02 -0.47381753634E+02  0.69605272679E+02  0.47000000000E+01 0. -1.
         -5    1    3    3    0  503 -0.68818865380E+02 -0.63434425805E+02 -0.10160793183E+03  0.13822526694E+03  0.47000000000E+01 0. -1.
<mgrwt>
<rscale>  0 0.14489428E+03</rscale>
<asrwt>0</asrwt>
<pdfrwt beam="1">  1        5 0.20103736E-01 0.14489861E+03</pdfrwt>
<pdfrwt beam="2">  1       -5 0.35421041E-01 0.14489861E+03</pdfrwt>
<totfact> 0.13020240E+02</totfact>
</mgrwt>
</event>
<event>
 8    1  0.3573290E-007  0.2112958E+03  0.7546771E-02  0.1140545E+00
         -5   -1    0    0    0  501 -0.00000000000E+00  0.00000000000E+00  0.19694328754E+03  0.19699936169E+03  0.47000000000E+01 0. -1.
          5   -1    0    0  501    0  0.00000000000E+00 -0.00000000000E+00 -0.23333825744E+03  0.23338558736E+03  0.47000000000E+01 0. -1.
         25    2    1    2    0    0  0.17031895994E+03 -0.34957874175E+01  0.18432465012E+02  0.21209168805E+03  0.12498943847E+03 0.  0.
         25    2    1    2    0    0 -0.17031895994E+03  0.34957874175E+01 -0.54827434916E+02  0.21829326101E+03  0.12500052615E+03 0.  0.
          5    1    4    4  502    0 -0.17908629357E+03  0.25378388375E+02 -0.29412695503E+02  0.18331164665E+03  0.47000000000E+01 0.  1.
         -5    1    4    4    0  502  0.87673336307E+01 -0.21882600957E+02 -0.25414739413E+02  0.34981614358E+02  0.47000000000E+01 0.  1.
          5    1    3    3  503    0 -0.12364624031E+02  0.18577264804E+02  0.16256645066E+02  0.28006556443E+02  0.47000000000E+01 0.  1.
         -5    1    3    3    0  503  0.18268358397E+03 -0.22073052221E+02  0.21758199462E+01  0.18408513160E+03  0.47000000000E+01 0.  1.
<mgrwt>
<rscale>  0 0.21129412E+03</rscale>
<asrwt>0</asrwt>
<pdfrwt beam="2">  1        5 0.35906147E-01 0.21129576E+03</pdfrwt>
<pdfrwt beam="1">  1       -5 0.30306922E-01 0.21129576E+03</pdfrwt>
<totfact> 0.64235366E+01</totfact>
</mgrwt>
</event>
<event>
 8    1  0.3573290E-007  0.1250067E+03  0.7546771E-02  0.1235059E+00
          5   -1    0    0  501    0  0.00000000000E+00  0.00000000000E+00  0.97901624724E+03  0.97902752891E+03  0.47000000000E+01 0.  1.
         -5   -1    0    0    0  501 -0.00000000000E+00 -0.00000000000E+00 -0.15719908790E+02  0.16407484035E+02  0.47000000000E+01 0.  1.
         25    2    1    2    0    0 -0.92370032569E+00 -0.11242650587E+01  0.43982974755E+03  0.45724922481E+03  0.12499811825E+03 0.  0.
         25    2    1    2    0    0  0.92370032569E+00  0.11242650587E+01  0.52346659090E+03  0.53818578813E+03  0.12499821424E+03 0.  0.
          5    1    4    4  502    0 -0.50919825759E+01 -0.24289812163E+02  0.50552056902E+03  0.50615122144E+03  0.47000000000E+01 0.  1.
         -5    1    4    4    0  502  0.60156829015E+01  0.25414077222E+02  0.17946021878E+02  0.32034566690E+02  0.47000000000E+01 0.  1.
          5    1    3    3  503    0  0.41827095097E+01  0.59855978939E+01  0.44564987421E+03  0.44573447570E+03  0.47000000000E+01 0. -1.
         -5    1    3    3    0  503 -0.51064098354E+01 -0.71098629526E+01 -0.58201266672E+01  0.11514749109E+02  0.47000000000E+01 0. -1.
<mgrwt>
<rscale>  0 0.12500666E+03</rscale>
<asrwt>0</asrwt>
<pdfrwt beam="1">  1        5 0.15067169E+00 0.12500668E+03</pdfrwt>
<pdfrwt beam="2">  1       -5 0.24722050E-02 0.12500668E+03</pdfrwt>
<totfact> 0.15963253E+02</totfact>
</mgrwt>
</event>
<event>
 8    1  0.3573290E-007  0.1418060E+03  0.7546771E-02  0.1210921E+00
         -5   -1    0    0    0  501 -0.00000000000E+00  0.00000000000E+00  0.71672750959E+03  0.71674291975E+03  0.47000000000E+01 0. -1.
          5   -1    0    0  501    0  0.00000000000E+00 -0.00000000000E+00 -0.29179480356E+02  0.29555576019E+02  0.47000000000E+01 0. -1.
         25    2    1    2    0    0  0.57949990142E+02 -0.33533355654E+02  0.42309695847E+03  0.44622861106E+03  0.12500499896E+03 0.  0.
         25    2    1    2    0    0 -0.57949990142E+02  0.33533355654E+02  0.26445107077E+03  0.30006988470E+03  0.12499951831E+03 0.  0.
          5    1    3    3  502    0  0.64970427087E+02 -0.35257373014E+02  0.10768952378E+03  0.13070333691E+03  0.47000000000E+01 0. -1.
         -5    1    3    3    0  502 -0.70204369453E+01  0.17240173599E+01  0.31540743469E+03  0.31552527415E+03  0.47000000000E+01 0. -1.
          5    1    4    4  503    0 -0.25498577603E+01 -0.43463242457E+02  0.56715195935E+02  0.71653741490E+02  0.47000000000E+01 0. -1.
         -5    1    4    4    0  503 -0.55400132381E+02  0.76996598111E+02  0.20773587483E+03  0.22841614321E+03  0.47000000000E+01 0. -1.
<mgrwt>
<rscale>  0 0.14180478E+03</rscale>
<asrwt>0</asrwt>
<pdfrwt beam="2">  1        5 0.45192670E-02 0.14180598E+03</pdfrwt>
<pdfrwt beam="1">  1       -5 0.11029588E+00 0.14180598E+03</pdfrwt>
<totfact> 0.14058055E+02</totfact>
</mgrwt>
</event>
<event>
 8    1  0.3573290E-007  0.1724932E+03  0.7546771E-02  0.1175274E+00
         -5   -1    0    0    0  501 -0.00000000000E+00  0.00000000000E+00  0.50021592119E+02  0.50241911569E+02  0.47000000000E+01 0. -1.
          5   -1    0    0  501    0  0.00000000000E+00 -0.00000000000E+00 -0.60505816177E+03  0.60507641594E+03  0.47000000000E+01 0. -1.
         25    2    1    2    0    0 -0.10108516189E+03 -0.62531962732E+02 -0.23178928425E+03  0.28892936953E+03  0.12500180786E+03 0.  0.
         25    2    1    2    0    0  0.10108516189E+03  0.62531962732E+02 -0.32324728540E+03  0.36638895797E+03  0.12499441862E+03 0.  0.
          5    1    3    3  502    0 -0.26796907691E+02 -0.88653243390E+02 -0.13961527124E+03  0.16760664005E+03  0.47000000000E+01 0. -1.
         -5    1    3    3    0  502 -0.74288254201E+02  0.26121280657E+02 -0.92174013007E+02  0.12132272948E+03  0.47000000000E+01 0. -1.
          5    1    4    4  503    0  0.89892316166E+02  0.46531458825E+02 -0.10042800247E+03  0.14266631995E+03  0.47000000000E+01 0.  1.
         -5    1    4    4    0  503  0.11192845725E+02  0.16000503907E+02 -0.22281928293E+03  0.22372263803E+03  0.47000000000E+01 0.  1.
<mgrwt>
<rscale>  0 0.17249187E+03</rscale>
<asrwt>0</asrwt>
<pdfrwt beam="2">  1        5 0.93104218E-01 0.17249321E+03</pdfrwt>
<pdfrwt beam="1">  1       -5 0.77139818E-02 0.17249321E+03</pdfrwt>
<totfact> 0.91897122E+01</totfact>
</mgrwt>
</event>
<event>
 8    1  0.3573290E-007  0.1371401E+03  0.7546771E-02  0.1217237E+00
         -5   -1    0    0    0  501 -0.00000000000E+00  0.00000000000E+00  0.97111319506E+03  0.97112456854E+03  0.47000000000E+01 0. -1.
          5   -1    0    0  501    0  0.00000000000E+00 -0.00000000000E+00 -0.20640268524E+02  0.21168625008E+02  0.47000000000E+01 0. -1.
         25    2    1    2    0    0 -0.49064677830E+02  0.27739956571E+02  0.61042921689E+03  0.62564465642E+03  0.12502223592E+03 0.  0.
         25    2    1    2    0    0  0.49064677830E+02 -0.27739956571E+02  0.34004370964E+03  0.36664853712E+03  0.12499831001E+03 0.  0.
          5    1    4    4  502    0  0.31181729476E+02  0.39000677068E+02  0.60161084455E+02  0.78324958651E+02  0.47000000000E+01 0.  1.
         -5    1    4    4    0  502  0.17882948354E+02 -0.66740633639E+02  0.27988262519E+03  0.28832357847E+03  0.47000000000E+01 0.  1.
          5    1    3    3  503    0 -0.32695224114E+02  0.53951434949E+02  0.57470276093E+03  0.57817392577E+03  0.47000000000E+01 0.  1.
         -5    1    3    3    0  503 -0.16369453716E+02 -0.26211478378E+02  0.35726455959E+02  0.47470730657E+02  0.47000000000E+01 0.  1.
<mgrwt>
<rscale>  0 0.13713465E+03</rscale>
<asrwt>0</asrwt>
<pdfrwt beam="2">  1        5 0.32169435E-02 0.13714010E+03</pdfrwt>
<pdfrwt beam="1">  1       -5 0.14944355E+00 0.13714010E+03</pdfrwt>
<totfact> 0.11014414E+02</totfact>
</mgrwt>
</event>
<event>
 8    1  0.3573290E-007  0.1262605E+03  0.7546771E-02  0.1233114E+00
          5   -1    0    0  501    0  0.00000000000E+00  0.00000000000E+00  0.12264404690E+03  0.12273407123E+03  0.47000000000E+01 0. -1.
         -5   -1    0    0    0  501 -0.00000000000E+00 -0.00000000000E+00 -0.13856456905E+03  0.13864425627E+03  0.47000000000E+01 0. -1.
         25    2    1    2    0    0  0.49468553809E+01 -0.17041704293E+02 -0.40811519306E+02  0.13268774345E+03  0.12500226434E+03 0.  0.
         25    2    1    2    0    0 -0.49468553809E+01  0.17041704293E+02  0.24890997154E+02  0.12869058405E+03  0.12500725427E+03 0.  0.
          5    1    4    4  502    0 -0.14999121636E+02  0.64411063360E+02  0.40383512788E+02  0.77631674194E+02  0.47000000000E+01 0.  1.
         -5    1    4    4    0  502  0.10052266256E+02 -0.47369359067E+02 -0.15492515634E+02  0.51058909859E+02  0.47000000000E+01 0.  1.
          5    1    3    3  503    0  0.22778431723E+02  0.19272953422E+01 -0.81154888601E+02  0.84443930290E+02  0.47000000000E+01 0.  1.
         -5    1    3    3    0  503 -0.17831576342E+02 -0.18968999635E+02  0.40343369294E+02  0.48243813158E+02  0.47000000000E+01 0.  1.
<mgrwt>
<rscale>  0 0.12625923E+03</rscale>
<asrwt>0</asrwt>
<pdfrwt beam="1">  1        5 0.18881370E-01 0.12626046E+03</pdfrwt>
<pdfrwt beam="2">  1       -5 0.21330681E-01 0.12626046E+03</pdfrwt>
<totfact> 0.37333565E+02</totfact>
</mgrwt>
</event>
<event>
 8    1  0.3573290E-007  0.1324639E+03  0.7546771E-02  0.1223845E+00
         -5   -1    0    0    0  501 -0.00000000000E+00  0.00000000000E+00  0.11625004063E+02  0.12539167415E+02  0.47000000000E+01 0.  1.
          5   -1    0    0  501    0  0.00000000000E+00 -0.00000000000E+00 -0.15368657495E+04  0.15368729362E+04  0.47000000000E+01 0.  1.
         25    2    1    2    0    0  0.26502798434E-01 -0.43859258209E+02 -0.57995293514E+03  0.59488830477E+03  0.12499221150E+03 0.  0.
         25    2    1    2    0    0 -0.26502798434E-01  0.43859258209E+02 -0.94528781032E+03  0.95452379886E+03  0.12499201182E+03 0.  0.
          5    1    4    4  502    0 -0.42776025241E+02  0.48863477558E+02 -0.26583408333E+03  0.27369193929E+03  0.47000000000E+01 0.  1.
         -5    1    4    4    0  502  0.42749522443E+02 -0.50042193495E+01 -0.67945372699E+03  0.68083185956E+03  0.47000000000E+01 0.  1.
          5    1    3    3  503    0 -0.44244086702E+02  0.87552584009E+01 -0.97404208274E+02  0.10744237315E+03  0.47000000000E+01 0.  1.
         -5    1    3    3    0  503  0.44270589500E+02 -0.52614516610E+02 -0.48254872687E+03  0.48744593162E+03  0.47000000000E+01 0.  1.
<mgrwt>
<rscale>  0 0.13246387E+03</rscale>
<asrwt>0</asrwt>
<pdfrwt beam="2">  1        5 0.23651160E+00 0.13246391E+03</pdfrwt>
<pdfrwt beam="1">  1       -5 0.18593365E-02 0.13246391E+03</pdfrwt>
<totfact> 0.64968886E+01</totfact>
</mgrwt>
</event>
<event>
 8    1  0.3573290E-007  0.1448418E+03  0.7546771E-02  0.1206959E+00
          5   -1    0    0  501    0  0.00000000000E+00  0.00000000000E+00  0.90300305733E+02  0.90422537099E+02  0.47000000000E+01 0. -1.
         -5   -1    0    0    0  501 -0.00000000000E+00 -0.00000000000E+00 -0.24162265899E+03  0.24166836643E+03  0.47000000000E+01 0. -1.
         25    2    1    2    0    0  0.73020839220E+02  0.45315410405E+01 -0.10875110081E+03  0.18112246891E+03  0.12500387592E+03 0.  0.
         25    2    1    2    0    0 -0.73020839220E+02 -0.45315410405E+01 -0.42571252448E+02  0.15096843462E+03  0.12500631541E+03 0.  0.
          5    1    4    4  502    0  0.35540306332E+02  0.16374180444E+01 -0.13193254322E+02  0.38235408611E+02  0.47000000000E+01 0. -1.
         -5    1    4    4    0  502 -0.10856114555E+03 -0.61689590850E+01 -0.29377998126E+02  0.11273302601E+03  0.47000000000E+01 0. -1.
          5    1    3    3  503    0  0.69184591490E+02 -0.43024674885E+02 -0.10507074412E+03  0.13303977457E+03  0.47000000000E+01 0.  1.
         -5    1    3    3    0  503  0.38362477299E+01  0.47556215925E+02 -0.36803566877E+01  0.48082694341E+02  0.47000000000E+01 0.  1.
<mgrwt>
<rscale>  0 0.14484131E+03</rscale>
<asrwt>0</asrwt>
<pdfrwt beam="1">  1        5 0.13905273E-01 0.14484183E+03</pdfrwt>
<pdfrwt beam="2">  1       -5 0.37185635E-01 0.14484183E+03</pdfrwt>
<totfact> 0.23193219E+02</totfact>
</mgrwt>
</event>
<event>
 8    1  0.3573290E-007  0.2407744E+03  0.7546771E-02  0.1119279E+00
         -5   -1    0    0    0  501 -0.00000000000E+00  0.00000000000E+00  0.31084205554E+03  0.31087758602E+03  0.47000000000E+01 0.  1.
          5   -1    0    0  501    0  0.00000000000E+00 -0.00000000000E+00 -0.19486397996E+03  0.19492065228E+03  0.47000000000E+01 0.  1.
         25    2    1    2    0    0 -0.19073523605E+03  0.77235988246E+02  0.11061692495E+03  0.26496415693E+03  0.12499828887E+03 0.  0.
         25    2    1    2    0    0  0.19073523605E+03 -0.77235988246E+02  0.53611506266E+01  0.24083408138E+03  0.12500793841E+03 0.  0.
          5    1    4    4  502    0 -0.11047971243E+02 -0.30915631470E+02 -0.47448654063E+01  0.33502801159E+02  0.47000000000E+01 0. -1.
         -5    1    4    4    0  502  0.20178320729E+03 -0.46320356776E+02  0.10106016033E+02  0.20733128022E+03  0.47000000000E+01 0. -1.
          5    1    3    3  503    0 -0.79001465087E+02  0.66821324026E+02 -0.50983594253E+01  0.10370344304E+03  0.47000000000E+01 0. -1.
         -5    1    3    3    0  503 -0.11173377096E+03  0.10414664219E+02  0.11571528438E+03  0.16126071389E+03  0.47000000000E+01 0. -1.
<mgrwt>
<rscale>  0 0.24077315E+03</rscale>
<asrwt>0</asrwt>
<pdfrwt beam="2">  1        5 0.29986167E-01 0.24077440E+03</pdfrwt>
<pdfrwt beam="1">  1       -5 0.47828947E-01 0.24077440E+03</pdfrwt>
<totfact> 0.37381396E+01</totfact>
</mgrwt>
</event>
<event>
 8    1  0.3573290E-007  0.5264161E+03  0.7546771E-02  0.1007105E+00
         -5   -1    0    0    0  501 -0.00000000000E+00  0.00000000000E+00  0.94349246718E+03  0.94350417361E+03  0.47000000000E+01 0.  1.
          5   -1    0    0  501    0  0.00000000000E+00 -0.00000000000E+00 -0.31624831997E+03  0.31628324313E+03  0.47000000000E+01 0.  1.
         25    2    1    2    0    0  0.15565777157E+03  0.48709076093E+03  0.48188781764E+03  0.71367345062E+03  0.12500869607E+03 0.  0.
         25    2    1    2    0    0 -0.15565777157E+03 -0.48709076093E+03  0.14535632957E+03  0.54611396612E+03  0.12500100084E+03 0.  0.
          5    1    4    4  502    0 -0.14178568581E+03 -0.43639078011E+03  0.16804117626E+03  0.48867168998E+03  0.47000000000E+01 0. -1.
         -5    1    4    4    0  502 -0.13872085755E+02 -0.50699980823E+02 -0.22684846696E+02  0.57442276141E+02  0.47000000000E+01 0. -1.
          5    1    3    3  503    0  0.80564329211E+02  0.95708455047E+02  0.14717278427E+03  0.19321655710E+03  0.47000000000E+01 0.  1.
         -5    1    3    3    0  503  0.75093442356E+02  0.39138230589E+03  0.33471503337E+03  0.52045689352E+03  0.47000000000E+01 0.  1.
<mgrwt>
<rscale>  0 0.52641566E+03</rscale>
<asrwt>0</asrwt>
<pdfrwt beam="2">  1        5 0.48657174E-01 0.52641611E+03</pdfrwt>
<pdfrwt beam="1">  1       -5 0.14515628E+00 0.52641611E+03</pdfrwt>
<totfact> 0.10883646E+00</totfact>
</mgrwt>
</event>
<event>
 8    1  0.3573290E-007  0.1720427E+03  0.7546771E-02  0.1175739E+00
          5   -1    0    0  501    0  0.00000000000E+00  0.00000000000E+00  0.17568536829E+04  0.17568599697E+04  0.47000000000E+01 0.  1.
         -5   -1    0    0    0  501 -0.00000000000E+00 -0.00000000000E+00 -0.17129468571E+02  0.17762564385E+02  0.47000000000E+01 0.  1.
         25    2    1    2    0    0  0.15849083296E+02  0.11711652487E+03  0.70438259410E+03  0.72508407684E+03  0.12499842312E+03 0.  0.
         25    2    1    2    0    0 -0.15849083296E+02 -0.11711652487E+03  0.10353416202E+04  0.10495384572E+04  0.12502491273E+03 0.  0.
          5    1    4    4  502    0 -0.35747392478E+02 -0.79158359987E+02  0.28545462005E+03  0.29841305623E+03  0.47000000000E+01 0.  1.
         -5    1    4    4    0  502  0.19898309182E+02 -0.37958164881E+02  0.74988700019E+03  0.75112540101E+03  0.47000000000E+01 0.  1.
          5    1    3    3  503    0  0.39540082867E+02 -0.34807008953E+01  0.89476284229E+02  0.97998106468E+02  0.47000000000E+01 0. -1.
         -5    1    3    3    0  503 -0.23690999571E+02  0.12059722576E+03  0.61490630987E+03  0.62708597037E+03  0.47000000000E+01 0. -1.
<mgrwt>
<rscale>  0 0.17203792E+03</rscale>
<asrwt>0</asrwt>
<pdfrwt beam="1">  1        5 0.27033440E+00 0.17204273E+03</pdfrwt>
<pdfrwt beam="2">  1       -5 0.26844858E-02 0.17204273E+03</pdfrwt>
<totfact> 0.23559685E+01</totfact>
</mgrwt>
</event>
<event>
 8    1  0.3573290E-007  0.1319147E+03  0.7546771E-02  0.1224649E+00
          5   -1    0    0  501    0  0.00000000000E+00  0.00000000000E+00  0.54698707172E+01  0.72117602333E+01  0.47000000000E+01 0.  1.
         -5   -1    0    0    0  501 -0.00000000000E+00 -0.00000000000E+00 -0.27503542976E+04  0.27503583135E+04  0.47000000000E+01 0.  1.
         25    2    1    2    0    0 -0.38499928088E+02 -0.17157178284E+02 -0.14472219564E+04  0.14532198975E+04  0.12498026298E+03 0.  0.
         25    2    1    2    0    0  0.38499928088E+02  0.17157178284E+02 -0.12976624705E+04  0.13043501762E+04  0.12499952640E+03 0.  0.
          5    1    3    3  502    0  0.33608197369E+02 -0.20360694501E+02 -0.19860010603E+03  0.20250471828E+03  0.47000000000E+01 0.  1.
         -5    1    3    3    0  502 -0.72108125457E+02  0.32035162161E+01 -0.12486218504E+04  0.12507151792E+04  0.47000000000E+01 0.  1.
          5    1    4    4  503    0  0.64209655439E+02 -0.28500919467E+02 -0.96377673360E+03  0.96634510631E+03  0.47000000000E+01 0. -1.
         -5    1    4    4    0  503 -0.25709727351E+02  0.45658097751E+02 -0.33388573689E+03  0.33800506989E+03  0.47000000000E+01 0. -1.
<mgrwt>
<rscale>  0 0.13191016E+03</rscale>
<asrwt>0</asrwt>
<pdfrwt beam="1">  1        5 0.97582118E-03 0.13191473E+03</pdfrwt>
<pdfrwt beam="2">  1       -5 0.42326478E+00 0.13191473E+03</pdfrwt>
<totfact> 0.10553397E+01</totfact>
</mgrwt>
</event>
<event>
 8    1  0.3573290E-007  0.1310897E+03  0.7546771E-02  0.1225852E+00
          5   -1    0    0  501    0  0.00000000000E+00  0.00000000000E+00  0.14382363836E+03  0.14390041331E+03  0.47000000000E+01 0.  1.
         -5   -1    0    0    0  501 -0.00000000000E+00 -0.00000000000E+00 -0.12357873667E+03  0.12366808059E+03  0.47000000000E+01 0.  1.
         25    2    1    2    0    0  0.17817447665E+02 -0.35236989277E+02 -0.14700068572E+02  0.13191138833E+03  0.12500166199E+03 0.  0.
         25    2    1    2    0    0 -0.17817447665E+02  0.35236989277E+02  0.34944970261E+02  0.13565710557E+03  0.12499036959E+03 0.  0.
          5    1    4    4  502    0  0.59849441070E+00  0.58987233101E+02 -0.28210728834E+02  0.65557509759E+02  0.47000000000E+01 0.  1.
         -5    1    4    4    0  502 -0.18415942076E+02 -0.23750243824E+02  0.63155699094E+02  0.70099595807E+02  0.47000000000E+01 0.  1.
          5    1    3    3  503    0  0.26947206289E+02 -0.49992295006E+02 -0.60256966930E+02  0.82935960538E+02  0.47000000000E+01 0. -1.
         -5    1    3    3    0  503 -0.91297586236E+01  0.14755305729E+02  0.45556898358E+02  0.48975427795E+02  0.47000000000E+01 0. -1.
<mgrwt>
<rscale>  0 0.13108706E+03</rscale>
<asrwt>0</asrwt>
<pdfrwt beam="1">  1        5 0.22139492E-01 0.13108975E+03</pdfrwt>
<pdfrwt beam="2">  1       -5 0.19024892E-01 0.13108975E+03</pdfrwt>
<totfact> 0.34801430E+02</totfact>
</mgrwt>
</event>
<event>
 8    1  0.3573290E-007  0.1331227E+03  0.7546771E-02  0.1222895E+00
         -5   -1    0    0    0  501 -0.00000000000E+00  0.00000000000E+00  0.74387521335E+02  0.74535852650E+02  0.47000000000E+01 0.  1.
          5   -1    0    0  501    0  0.00000000000E+00 -0.00000000000E+00 -0.24555781845E+03  0.24560279355E+03  0.47000000000E+01 0.  1.
         25    2    1    2    0    0  0.42755921006E+02  0.16393375977E+02 -0.57181336275E+02  0.14488126798E+03  0.12499626009E+03 0.  0.
         25    2    1    2    0    0 -0.42755921006E+02 -0.16393375977E+02 -0.11398896084E+03  0.17525737822E+03  0.12499941548E+03 0.  0.
          5    1    4    4  502    0  0.34405638775E+02 -0.22820006733E+02 -0.55378283160E+01  0.41919663993E+02  0.47000000000E+01 0.  1.
         -5    1    4    4    0  502 -0.77161559781E+02  0.64266307553E+01 -0.10845113252E+03  0.13333771423E+03  0.47000000000E+01 0.  1.
          5    1    3    3  503    0  0.79506426285E+02 -0.18983988439E+02 -0.34082322029E+02  0.88686855354E+02  0.47000000000E+01 0. -1.
         -5    1    3    3    0  503 -0.36750505279E+02  0.35377364417E+02 -0.23099014246E+02  0.56194412627E+02  0.47000000000E+01 0. -1.
<mgrwt>
<rscale>  0 0.13312201E+03</rscale>
<asrwt>0</asrwt>
<pdfrwt beam="2">  1        5 0.37792995E-01 0.13312275E+03</pdfrwt>
<pdfrwt beam="1">  1       -5 0.11459104E-01 0.13312275E+03</pdfrwt>
<totfact> 0.30784632E+02</totfact>
</mgrwt>
</event>
<event>
 8    1  0.3573290E-007  0.1342274E+03  0.7546771E-02  0.1221316E+00
         -5   -1    0    0    0  501 -0.00000000000E+00  0.00000000000E+00  0.17971024538E+03  0.17977169492E+03  0.47000000000E+01 0.  1.
          5   -1    0    0  501    0  0.00000000000E+00 -0.00000000000E+00 -0.11556855342E+03  0.11566408492E+03  0.47000000000E+01 0.  1.
         25    2    1    2    0    0 -0.20162495684E+02 -0.44556864652E+02  0.86042608282E+02  0.15943753899E+03  0.12500063192E+03 0.  0.
         25    2    1    2    0    0  0.20162495684E+02  0.44556864652E+02 -0.21900916323E+02  0.13599824085E+03  0.12499612377E+03 0.  0.
          5    1    3    3  502    0  0.15511164757E+02 -0.80703451155E+02  0.61999801426E+02  0.10305197056E+03  0.47000000000E+01 0.  1.
         -5    1    3    3    0  502 -0.35673660442E+02  0.36146586503E+02  0.24042806857E+02  0.56385568425E+02  0.47000000000E+01 0.  1.
          5    1    4    4  503    0  0.54633389984E+02  0.24316439669E+02  0.32580449163E+02  0.68261791707E+02  0.47000000000E+01 0.  1.
         -5    1    4    4    0  503 -0.34470894300E+02  0.20240424983E+02 -0.54481365486E+02  0.67736449143E+02  0.47000000000E+01 0.  1.
<mgrwt>
<rscale>  0 0.13422636E+03</rscale>
<asrwt>0</asrwt>
<pdfrwt beam="2">  1        5 0.17791853E-01 0.13422741E+03</pdfrwt>
<pdfrwt beam="1">  1       -5 0.27659805E-01 0.13422741E+03</pdfrwt>
<totfact> 0.25946594E+02</totfact>
</mgrwt>
</event>
<event>
 8    1  0.3573290E-007  0.1511783E+03  0.7546771E-02  0.1199038E+00
          5   -1    0    0  501    0  0.00000000000E+00  0.00000000000E+00  0.53939914393E+02  0.54144292079E+02  0.47000000000E+01 0. -1.
         -5   -1    0    0    0  501 -0.00000000000E+00 -0.00000000000E+00 -0.42641597266E+03  0.42644187381E+03  0.47000000000E+01 0. -1.
         25    2    1    2    0    0 -0.75089408367E+02  0.39868016825E+02 -0.20885275449E+03  0.25782622068E+03  0.12500803573E+03 0.  0.
         25    2    1    2    0    0  0.75089408367E+02 -0.39868016825E+02 -0.16362330377E+03  0.22275994520E+03  0.12498611777E+03 0.  0.
          5    1    3    3  502    0 -0.37219623959E+02 -0.21682484148E+02 -0.17041536931E+03  0.17583776222E+03  0.47000000000E+01 0.  1.
         -5    1    3    3    0  502 -0.37869784407E+02  0.61550500973E+02 -0.38437385186E+02  0.81988458462E+02  0.47000000000E+01 0.  1.
          5    1    4    4  503    0 -0.18415744876E+02 -0.52985912050E+02 -0.68283651942E+02  0.88495161776E+02  0.47000000000E+01 0. -1.
         -5    1    4    4    0  503  0.93505153243E+02  0.13117895225E+02 -0.95339651827E+02  0.13426478343E+03  0.47000000000E+01 0. -1.
<mgrwt>
<rscale>  0 0.15117380E+03</rscale>
<asrwt>0</asrwt>
<pdfrwt beam="1">  1        5 0.83161624E-02 0.15117833E+03</pdfrwt>
<pdfrwt beam="2">  1       -5 0.65620169E-01 0.15117833E+03</pdfrwt>
<totfact> 0.17416696E+02</totfact>
</mgrwt>
</event>
<event>
 8    1  0.3573290E-007  0.1435927E+03  0.7546771E-02  0.1208575E+00
         -5   -1    0    0    0  501 -0.00000000000E+00  0.00000000000E+00  0.38509959187E+02  0.38795707966E+02  0.47000000000E+01 0. -1.
          5   -1    0    0  501    0  0.00000000000E+00 -0.00000000000E+00 -0.56630386531E+03  0.56632336864E+03  0.47000000000E+01 0. -1.
         25    2    1    2    0    0  0.56201904583E+02  0.42841464875E+02 -0.19070007808E+03  0.23871614157E+03  0.12499932511E+03 0.  0.
         25    2    1    2    0    0 -0.56201904583E+02 -0.42841464875E+02 -0.33709382805E+03  0.36640293503E+03  0.12499926680E+03 0.  0.
          5    1    3    3  502    0  0.46768257562E+02  0.76359051191E+02 -0.18143008770E+03  0.20237821359E+03  0.47000000000E+01 0.  1.
         -5    1    3    3    0  502  0.94336470210E+01 -0.33517586316E+02 -0.92699903804E+01  0.36337927985E+02  0.47000000000E+01 0.  1.
          5    1    4    4  503    0 -0.84680507484E+02 -0.61231453997E+02 -0.28920701717E+03  0.30754327839E+03  0.47000000000E+01 0.  1.
         -5    1    4    4    0  503  0.28478602901E+02  0.18389989122E+02 -0.47886810878E+02  0.58859656635E+02  0.47000000000E+01 0.  1.
<mgrwt>
<rscale>  0 0.14359273E+03</rscale>
<asrwt>0</asrwt>
<pdfrwt beam="2">  1        5 0.87147147E-01 0.14359275E+03</pdfrwt>
<pdfrwt beam="1">  1       -5 0.59480904E-02 0.14359275E+03</pdfrwt>
<totfact> 0.15811080E+02</totfact>
</mgrwt>
</event>
<event>
 8    1  0.3573290E-007  0.1420099E+03  0.7546771E-02  0.1210651E+00
         -5   -1    0    0    0  501 -0.00000000000E+00  0.00000000000E+00  0.12298391716E+04  0.12298481524E+04  0.47000000000E+01 0. -1.
          5   -1    0    0  501    0  0.00000000000E+00 -0.00000000000E+00 -0.17123221780E+02  0.17756540320E+02  0.47000000000E+01 0. -1.
         25    2    1    2    0    0  0.66402508132E+02 -0.11508106739E+02  0.75950217013E+03  0.77266445693E+03  0.12500034788E+03 0.  0.
         25    2    1    2    0    0 -0.66402508132E+02  0.11508106739E+02  0.45321377968E+03  0.47494023579E+03  0.12499507140E+03 0.  0.
          5    1    3    3  502    0  0.14106220638E+02 -0.58382693327E+02  0.20367800530E+03  0.21240137519E+03  0.47000000000E+01 0. -1.
         -5    1    3    3    0  502  0.52296287494E+02  0.46874586588E+02  0.55582416483E+03  0.56026308174E+03  0.47000000000E+01 0. -1.
          5    1    4    4  503    0 -0.64106602961E+02  0.12446830091E+02  0.87982890783E+02  0.10967068520E+03  0.47000000000E+01 0. -1.
         -5    1    4    4    0  503 -0.22959051713E+01 -0.93872335177E+00  0.36523088890E+03  0.36526955059E+03  0.47000000000E+01 0. -1.
<mgrwt>
<rscale>  0 0.14200876E+03</rscale>
<asrwt>0</asrwt>
<pdfrwt beam="2">  1        5 0.26837492E-02 0.14200992E+03</pdfrwt>
<pdfrwt beam="1">  1       -5 0.18925545E+00 0.14200992E+03</pdfrwt>
<totfact> 0.75842232E+01</totfact>
</mgrwt>
</event>
<event>
 8    1  0.3573290E-007  0.1262253E+03  0.7546771E-02  0.1233170E+00
          5   -1    0    0  501    0  0.00000000000E+00  0.00000000000E+00  0.19508281583E+02  0.20066465815E+02  0.47000000000E+01 0. -1.
         -5   -1    0    0    0  501 -0.00000000000E+00 -0.00000000000E+00 -0.81782583405E+03  0.81783933926E+03  0.47000000000E+01 0. -1.
         25    2    1    2    0    0  0.17336215871E+02 -0.26962771887E+01 -0.45247606973E+03  0.46975250156E+03  0.12500001902E+03 0.  0.
         25    2    1    2    0    0 -0.17336215871E+02  0.26962771887E+01 -0.34584148274E+03  0.36815330351E+03  0.12499083732E+03 0.  0.
          5    1    4    4  502    0 -0.35331528728E+02  0.42562805922E+02 -0.72601336160E+02  0.91394493173E+02  0.47000000000E+01 0. -1.
         -5    1    4    4    0  502  0.17995312857E+02 -0.39866528733E+02 -0.27324014658E+03  0.27675881034E+03  0.47000000000E+01 0. -1.
          5    1    3    3  503    0  0.25328992721E+02 -0.61423834613E+02 -0.25095128961E+03  0.25964029943E+03  0.47000000000E+01 0.  1.
         -5    1    3    3    0  503 -0.79927768503E+01  0.58727557425E+02 -0.20152478012E+03  0.21011220213E+03  0.47000000000E+01 0.  1.
<mgrwt>
<rscale>  0 0.12622300E+03</rscale>
<asrwt>0</asrwt>
<pdfrwt beam="1">  1        5 0.30452508E-02 0.12622527E+03</pdfrwt>
<pdfrwt beam="2">  1       -5 0.12586331E+00 0.12622527E+03</pdfrwt>
<totfact> 0.18447046E+02</totfact>
</mgrwt>
</event>
<event>
 8    1  0.3573290E-007  0.1384298E+03  0.7546771E-02  0.1215458E+00
          5   -1    0    0  501    0  0.00000000000E+00  0.00000000000E+00  0.61460009891E+02  0.61639458270E+02  0.47000000000E+01 0.  1.
         -5   -1    0    0    0  501 -0.00000000000E+00 -0.00000000000E+00 -0.32390210210E+03  0.32393620011E+03  0.47000000000E+01 0.  1.
         25    2    1    2    0    0 -0.39623577451E+02  0.44362723585E+02 -0.16947479899E+03  0.21882520243E+03  0.12499873037E+03 0.  0.
         25    2    1    2    0    0  0.39623577451E+02 -0.44362723585E+02 -0.92967293219E+02  0.16675045595E+03  0.12499887126E+03 0.  0.
          5    1    3    3  502    0 -0.80204537605E+02  0.22849881477E+02 -0.69340043841E+02  0.10855881639E+03  0.47000000000E+01 0.  1.
         -5    1    3    3    0  502  0.40580960154E+02  0.21512842108E+02 -0.10013475515E+03  0.11026638604E+03  0.47000000000E+01 0.  1.
          5    1    4    4  503    0  0.27277774765E+02 -0.10478222683E+02 -0.11861257415E+03  0.12224934721E+03  0.47000000000E+01 0. -1.
         -5    1    4    4    0  503  0.12345802686E+02 -0.33884500903E+02  0.25645280929E+02  0.44501108743E+02  0.47000000000E+01 0. -1.
<mgrwt>
<rscale>  0 0.13842972E+03</rscale>
<asrwt>0</asrwt>
<pdfrwt beam="1">  1        5 0.94718129E-02 0.13842975E+03</pdfrwt>
<pdfrwt beam="2">  1       -5 0.49847519E-01 0.13842975E+03</pdfrwt>
<totfact> 0.24541564E+02</totfact>
</mgrwt>
</event>
<event>
 8    1  0.3573290E-007  0.1267782E+03  0.7546771E-02  0.1232317E+00
         -5   -1    0    0    0  501 -0.00000000000E+00  0.00000000000E+00  0.87813587568E+02  0.87939275421E+02  0.47000000000E+01 0. -1.
          5   -1    0    0  501    0  0.00000000000E+00 -0.00000000000E+00 -0.26525655447E+03  0.26529819013E+03  0.47000000000E+01 0. -1.
         25    2    1    2    0    0  0.14149862138E+02  0.15700811238E+02  0.97545906109E+01  0.12714978204E+03  0.12500072384E+03 0.  0.
         25    2    1    2    0    0 -0.14149862138E+02 -0.15700811238E+02 -0.18719755751E+03  0.22608768352E+03  0.12500392405E+03 0.  0.
          5    1    3    3  502    0  0.58269092725E+02 -0.26574923470E+02  0.13979977188E+02  0.65719430054E+02  0.47000000000E+01 0. -1.
         -5    1    3    3    0  502 -0.44119230588E+02  0.42275734709E+02 -0.42253865775E+01  0.61430351981E+02  0.47000000000E+01 0. -1.
          5    1    4    4  503    0 -0.42642399614E+02 -0.59118542245E+02 -0.12643740674E+03  0.14602014965E+03  0.47000000000E+01 0.  1.
         -5    1    4    4    0  503  0.28492537476E+02  0.43417731006E+02 -0.60760150772E+02  0.80067533866E+02  0.47000000000E+01 0.  1.
<mgrwt>
<rscale>  0 0.12677742E+03</rscale>
<asrwt>0</asrwt>
<pdfrwt beam="2">  1        5 0.40821571E-01 0.12677821E+03</pdfrwt>
<pdfrwt beam="1">  1       -5 0.13522654E-01 0.12677821E+03</pdfrwt>
<totfact> 0.19265317E+02</totfact>
</mgrwt>
</event>
<event>
 8    1  0.3573290E-007  0.1303035E+03  0.7546771E-02  0.1227022E+00
         -5   -1    0    0    0  501 -0.00000000000E+00  0.00000000000E+00  0.17424713822E+02  0.18047455549E+02  0.47000000000E+01 0. -1.
          5   -1    0    0  501    0  0.00000000000E+00 -0.00000000000E+00 -0.95638437727E+03  0.95639592590E+03  0.47000000000E+01 0. -1.
         25    2    1    2    0    0 -0.21741271164E+02 -0.29487396952E+02 -0.46745103768E+03  0.48527258930E+03  0.12504728643E+03 0.  0.
         25    2    1    2    0    0  0.21741271164E+02  0.29487396952E+02 -0.47150862576E+03  0.48917079215E+03  0.12500196108E+03 0.  0.
          5    1    4    4  502    0  0.24420297410E+02  0.58431254338E+02 -0.11434424318E+03  0.13079471838E+03  0.47000000000E+01 0.  1.
         -5    1    4    4    0  502 -0.26790262458E+01 -0.28943857386E+02 -0.35716438259E+03  0.35837607377E+03  0.47000000000E+01 0.  1.
          5    1    3    3  503    0 -0.46087865060E+02  0.22739873610E+02 -0.92777699571E+02  0.10616489389E+03  0.47000000000E+01 0. -1.
         -5    1    3    3    0  503  0.24346593896E+02 -0.52227270562E+02 -0.37467333811E+03  0.37910769541E+03  0.47000000000E+01 0. -1.
<mgrwt>
<rscale>  0 0.13029267E+03</rscale>
<asrwt>0</asrwt>
<pdfrwt beam="2">  1        5 0.14718481E+00 0.13030354E+03</pdfrwt>
<pdfrwt beam="1">  1       -5 0.27295175E-02 0.13030354E+03</pdfrwt>
<totfact> 0.14720691E+02</totfact>
</mgrwt>
</event>
<event>
 8    1  0.3573290E-007  0.1524598E+03  0.7546771E-02  0.1197484E+00
          5   -1    0    0  501    0  0.00000000000E+00  0.00000000000E+00  0.72927661555E+02  0.73078956068E+02  0.47000000000E+01 0.  1.
         -5   -1    0    0    0  501 -0.00000000000E+00 -0.00000000000E+00 -0.38843359710E+03  0.38846203077E+03  0.47000000000E+01 0.  1.
         25    2    1    2    0    0  0.64258413067E+02 -0.59065368565E+02 -0.25584282754E+03  0.29782265589E+03  0.12499968219E+03 0.  0.
         25    2    1    2    0    0 -0.64258413067E+02  0.59065368565E+02 -0.59663108003E+02  0.16371833095E+03  0.12500457599E+03 0.  0.
          5    1    3    3  502    0  0.40100404738E+02  0.18034450745E+02 -0.18516844815E+03  0.19037522965E+03  0.47000000000E+01 0.  1.
         -5    1    3    3    0  502  0.24158008329E+02 -0.77099819311E+02 -0.70674379384E+02  0.10744742624E+03  0.47000000000E+01 0.  1.
          5    1    4    4  503    0 -0.50176695115E+02  0.35194484178E+02 -0.98300411522E+02  0.11593710948E+03  0.47000000000E+01 0. -1.
         -5    1    4    4    0  503 -0.14081717952E+02  0.23870884388E+02  0.38637303519E+02  0.47781221470E+02  0.47000000000E+01 0. -1.
<mgrwt>
<rscale>  0 0.15245885E+03</rscale>
<asrwt>0</asrwt>
<pdfrwt beam="1">  1        5 0.11233466E-01 0.15245985E+03</pdfrwt>
<pdfrwt beam="2">  1       -5 0.59772839E-01 0.15245985E+03</pdfrwt>
<totfact> 0.12706970E+02</totfact>
</mgrwt>
</event>
<event>
 8    1  0.3573290E-007  0.1303431E+03  0.7546771E-02  0.1226948E+00
          5   -1    0    0  501    0  0.00000000000E+00  0.00000000000E+00  0.25700475989E+03  0.25704773216E+03  0.47000000000E+01 0.  1.
         -5   -1    0    0    0  501 -0.00000000000E+00 -0.00000000000E+00 -0.68437722230E+02  0.68598919992E+02  0.47000000000E+01 0.  1.
         25    2    1    2    0    0  0.33793606120E+02  0.14881409634E+02  0.63427986436E+02  0.14495604770E+03  0.12500272851E+03 0.  0.
         25    2    1    2    0    0 -0.33793606120E+02 -0.14881409634E+02  0.12513905122E+03  0.18069060445E+03  0.12500339286E+03 0.  0.
          5    1    3    3  502    0 -0.30337858054E+02 -0.11774817576E+02  0.67651316817E+02  0.75218499236E+02  0.47000000000E+01 0.  1.
         -5    1    3    3    0  502  0.64131464174E+02  0.26656227209E+02 -0.42233303812E+01  0.69737548463E+02  0.47000000000E+01 0.  1.
          5    1    4    4  503    0  0.93797053289E+01  0.40295772216E+02  0.55453237442E+01  0.42006770239E+02  0.47000000000E+01 0. -1.
         -5    1    4    4    0  503 -0.43173311449E+02 -0.55177181849E+02  0.11959372748E+03  0.13868383421E+03  0.47000000000E+01 0. -1.
<mgrwt>
<rscale>  0 0.13034290E+03</rscale>
<asrwt>0</asrwt>
<pdfrwt beam="1">  1        5 0.39554899E-01 0.13034306E+03</pdfrwt>
<pdfrwt beam="2">  1       -5 0.10544586E-01 0.13034306E+03</pdfrwt>
<totfact> 0.32232688E+02</totfact>
</mgrwt>
</event>
<event>
 8    1  0.3573290E-007  0.1380886E+03  0.7546771E-02  0.1215925E+00
         -5   -1    0    0    0  501 -0.00000000000E+00  0.00000000000E+00  0.52422382493E+03  0.52424489375E+03  0.47000000000E+01 0. -1.
          5   -1    0    0  501    0  0.00000000000E+00 -0.00000000000E+00 -0.11360468091E+03  0.11370186245E+03  0.47000000000E+01 0.  1.
         25    2    1    2    0    0 -0.50793271322E+02 -0.29372726328E+02  0.46834558730E+03  0.48827781163E+03  0.12499967487E+03 0.  0.
         25    2    1    2    0    0  0.50793271322E+02  0.29372726328E+02 -0.57726443277E+02  0.14966894457E+03  0.12500294898E+03 0.  0.
          5    1    4    4  502    0  0.64551046518E+02  0.25064157504E+02  0.18596883599E+02  0.71853905096E+02  0.47000000000E+01 0. -1.
         -5    1    4    4    0  502 -0.13757775196E+02  0.43085688238E+01 -0.76323326876E+02  0.77815039478E+02  0.47000000000E+01 0. -1.
          5    1    3    3  503    0  0.25735490072E+02 -0.17847323316E+02  0.31359668564E+03  0.31519170936E+03  0.47000000000E+01 0. -1.
         -5    1    3    3    0  503 -0.76528761395E+02 -0.11525403012E+02  0.15474890166E+03  0.17308610227E+03  0.47000000000E+01 0. -1.
<mgrwt>
<rscale>  0 0.13808782E+03</rscale>
<asrwt>0</asrwt>
<pdfrwt beam="2">  1        5 0.17486740E-01 0.13808856E+03</pdfrwt>
<pdfrwt beam="1">  1       -5 0.80658914E-01 0.13808856E+03</pdfrwt>
<totfact> 0.28284694E+01</totfact>
</mgrwt>
</event>
<event>
 8    1  0.3573290E-007  0.1323602E+03  0.7546771E-02  0.1223996E+00
         -5   -1    0    0    0  501 -0.00000000000E+00  0.00000000000E+00  0.14254671395E+04  0.14254748879E+04  0.47000000000E+01 0.  1.
          5   -1    0    0  501    0  0.00000000000E+00 -0.00000000000E+00 -0.12042305649E+02  0.12926992123E+02  0.47000000000E+01 0.  1.
         25    2    1    2    0    0 -0.42542304790E+02  0.91385114727E+01  0.79829669937E+03  0.80919457339E+03  0.12499950916E+03 0.  0.
         25    2    1    2    0    0  0.42542304790E+02 -0.91385114727E+01  0.61512813453E+03  0.62920730660E+03  0.12500341074E+03 0.  0.
          5    1    3    3  502    0 -0.74696925748E+02  0.30611839636E+02  0.67664113291E+03  0.68145581528E+03  0.47000000000E+01 0. -1.
         -5    1    3    3    0  502  0.32154620958E+02 -0.21473328163E+02  0.12165556646E+03  0.12773875810E+03  0.47000000000E+01 0. -1.
          5    1    4    4  503    0  0.84299889515E+02 -0.20414065998E+02  0.45813030690E+03  0.46629247642E+03  0.47000000000E+01 0.  1.
         -5    1    4    4    0  503 -0.41757584725E+02  0.11275554525E+02  0.15699782763E+03  0.16291483018E+03  0.47000000000E+01 0.  1.
<mgrwt>
<rscale>  0 0.13235924E+03</rscale>
<asrwt>0</asrwt>
<pdfrwt beam="2">  1        5 0.19213113E-02 0.13236016E+03</pdfrwt>
<pdfrwt beam="1">  1       -5 0.21937128E+00 0.13236016E+03</pdfrwt>
<totfact> 0.79528263E+01</totfact>
</mgrwt>
</event>
<event>
 8    1  0.3573290E-007  0.1283717E+03  0.7546771E-02  0.1229898E+00
         -5   -1    0    0    0  501 -0.00000000000E+00  0.00000000000E+00  0.95014368978E+02  0.95130543530E+02  0.47000000000E+01 0. -1.
          5   -1    0    0  501    0  0.00000000000E+00 -0.00000000000E+00 -0.20108976011E+03  0.20114467833E+03  0.47000000000E+01 0. -1.
         25    2    1    2    0    0  0.28592206733E+02  0.57546717663E+01  0.21463602237E+01  0.12837273718E+03  0.12499728899E+03 0.  0.
         25    2    1    2    0    0 -0.28592206733E+02 -0.57546717663E+01 -0.10822175135E+03  0.16790248469E+03  0.12501466460E+03 0.  0.
          5    1    3    3  502    0 -0.10549706644E+02  0.11394649811E+01  0.58390808067E+02  0.59532941784E+02  0.47000000000E+01 0. -1.
         -5    1    3    3    0  502  0.39141913377E+02  0.46152067852E+01 -0.56244447843E+02  0.68839795392E+02  0.47000000000E+01 0. -1.
          5    1    4    4  503    0 -0.31136978618E+02 -0.62718096967E+02 -0.49241224466E+02  0.85731320481E+02  0.47000000000E+01 0.  1.
         -5    1    4    4    0  503  0.25447718851E+01  0.56963425201E+02 -0.58980526889E+02  0.82171164204E+02  0.47000000000E+01 0.  1.
<mgrwt>
<rscale>  0 0.12836748E+03</rscale>
<asrwt>0</asrwt>
<pdfrwt beam="2">  1        5 0.30950047E-01 0.12837171E+03</pdfrwt>
<pdfrwt beam="1">  1       -5 0.14630756E-01 0.12837171E+03</pdfrwt>
<totfact> 0.29279914E+02</totfact>
</mgrwt>
</event>
<event>
 8    1  0.3573290E-007  0.1355769E+03  0.7546771E-02  0.1219411E+00
          5   -1    0    0  501    0  0.00000000000E+00  0.00000000000E+00  0.22729385407E+03  0.22734244236E+03  0.47000000000E+01 0.  1.
         -5   -1    0    0    0  501 -0.00000000000E+00 -0.00000000000E+00 -0.92449740684E+02  0.92569133908E+02  0.47000000000E+01 0.  1.
         25    2    1    2    0    0 -0.40771058857E+02 -0.33015771748E+02  0.10540331289E+02  0.13597536076E+03  0.12500351886E+03 0.  0.
         25    2    1    2    0    0  0.40771058857E+02  0.33015771748E+02  0.12430378210E+03  0.18393621550E+03  0.12501512191E+03 0.  0.
          5    1    4    4  502    0 -0.40522016365E+02  0.29189401425E+02  0.26891703413E+02  0.56914924917E+02  0.47000000000E+01 0. -1.
         -5    1    4    4    0  502  0.81293075221E+02  0.38263703228E+01  0.97412078683E+02  0.12702129059E+03  0.47000000000E+01 0. -1.
          5    1    3    3  503    0 -0.43472044013E+02 -0.74082365988E+02 -0.14985319721E+02  0.87319329865E+02  0.47000000000E+01 0. -1.
         -5    1    3    3    0  503  0.27009851560E+01  0.41066594240E+02  0.25525651010E+02  0.48656030899E+02  0.47000000000E+01 0. -1.
<mgrwt>
<rscale>  0 0.13557424E+03</rscale>
<asrwt>0</asrwt>
<pdfrwt beam="1">  1        5 0.34981206E-01 0.13557692E+03</pdfrwt>
<pdfrwt beam="2">  1       -5 0.14235959E-01 0.13557692E+03</pdfrwt>
<totfact> 0.24590896E+02</totfact>
</mgrwt>
</event>
<event>
 8    1  0.3573290E-007  0.1378063E+03  0.7546771E-02  0.1216312E+00
         -5   -1    0    0    0  501 -0.00000000000E+00  0.00000000000E+00  0.32993663720E+03  0.32997011163E+03  0.47000000000E+01 0.  1.
          5   -1    0    0  501    0  0.00000000000E+00 -0.00000000000E+00 -0.60184776384E+02  0.60368015607E+02  0.47000000000E+01 0.  1.
         25    2    1    2    0    0  0.35306027922E+02  0.46026279493E+02  0.17658795357E+03  0.22399484431E+03  0.12500180366E+03 0.  0.
         25    2    1    2    0    0 -0.35306027922E+02 -0.46026279493E+02  0.93163907246E+02  0.16634328293E+03  0.12500256057E+03 0.  0.
          5    1    4    4  502    0  0.16785554827E+02 -0.68496927428E+02  0.19640662463E+02  0.73358227486E+02  0.47000000000E+01 0. -1.
         -5    1    4    4    0  502 -0.52091582749E+02  0.22470647935E+02  0.73523244782E+02  0.92985055440E+02  0.47000000000E+01 0. -1.
          5    1    3    3  503    0  0.36945647476E+01 -0.24267550195E+02 -0.60406552452E+01  0.25712707305E+02  0.47000000000E+01 0. -1.
         -5    1    3    3    0  503  0.31611463174E+02  0.70293829688E+02  0.18262860882E+03  0.19828213701E+03  0.47000000000E+01 0. -1.
<mgrwt>
<rscale>  0 0.13780612E+03</rscale>
<asrwt>0</asrwt>
<pdfrwt beam="2">  1        5 0.92758665E-02 0.13780629E+03</pdfrwt>
<pdfrwt beam="1">  1       -5 0.50776154E-01 0.13780629E+03</pdfrwt>
<totfact> 0.24433941E+02</totfact>
</mgrwt>
</event>
<event>
 8    1  0.3573290E-007  0.1955482E+03  0.7546771E-02  0.1153551E+00
          5   -1    0    0  501    0  0.00000000000E+00  0.00000000000E+00  0.21499743095E+03  0.21504879752E+03  0.47000000000E+01 0. -1.
         -5   -1    0    0    0  501 -0.00000000000E+00 -0.00000000000E+00 -0.24479832057E+03  0.24484343519E+03  0.47000000000E+01 0. -1.
         25    2    1    2    0    0 -0.55709898025E+02 -0.13967962171E+03 -0.13521447077E+03  0.23774109876E+03  0.12499554983E+03 0.  0.
         25    2    1    2    0    0  0.55709898025E+02  0.13967962171E+03  0.10541358115E+03  0.22215113395E+03  0.12500045507E+03 0.  0.
          5    1    4    4  502    0  0.20437109320E+02 -0.21743855847E+02  0.17936784636E+02  0.35132448641E+02  0.47000000000E+01 0.  1.
         -5    1    4    4    0  502  0.35272788705E+02  0.16142347755E+03  0.87476796510E+02  0.18701868531E+03  0.47000000000E+01 0.  1.
          5    1    3    3  503    0 -0.70499153701E+02 -0.32270005476E+02 -0.93303239661E+02  0.12140456522E+03  0.47000000000E+01 0.  1.
         -5    1    3    3    0  503  0.14789255676E+02 -0.10740961623E+03 -0.41911231107E+02  0.11633653354E+03  0.47000000000E+01 0.  1.
<mgrwt>
<rscale>  0 0.19554743E+03</rscale>
<asrwt>0</asrwt>
<pdfrwt beam="1">  1        5 0.33083949E-01 0.19554821E+03</pdfrwt>
<pdfrwt beam="2">  1       -5 0.37668702E-01 0.19554821E+03</pdfrwt>
<totfact> 0.47964289E+01</totfact>
</mgrwt>
</event>
<event>
 8    1  0.3573290E-007  0.2233921E+03  0.7546771E-02  0.1131380E+00
         -5   -1    0    0    0  501 -0.00000000000E+00  0.00000000000E+00  0.50945283232E+03  0.50947451198E+03  0.47000000000E+01 0.  1.
          5   -1    0    0  501    0  0.00000000000E+00 -0.00000000000E+00 -0.10282320837E+03  0.10293056970E+03  0.47000000000E+01 0.  1.
         25    2    1    2    0    0 -0.12255908406E+03 -0.13876786216E+03  0.27045765871E+03  0.35078678706E+03  0.12500710445E+03 0.  0.
         25    2    1    2    0    0  0.12255908406E+03  0.13876786216E+03  0.13617196524E+03  0.26161829463E+03  0.12499631719E+03 0.  0.
          5    1    4    4  502    0  0.44394361505E+02 -0.17773964885E+02  0.35016479376E+02  0.59456008856E+02  0.47000000000E+01 0.  1.
         -5    1    4    4    0  502  0.78164722552E+02  0.15654182705E+03  0.10115548586E+03  0.20216228577E+03  0.47000000000E+01 0.  1.
          5    1    3    3  503    0 -0.14134143322E+02 -0.92784465076E+02  0.17686752492E+03  0.20028215681E+03  0.47000000000E+01 0.  1.
         -5    1    3    3    0  503 -0.10842494074E+03 -0.45983397087E+02  0.93590133797E+02  0.15050463025E+03  0.47000000000E+01 0.  1.
<mgrwt>
<rscale>  0 0.22339058E+03</rscale>
<asrwt>0</asrwt>
<pdfrwt beam="2">  1        5 0.15828881E-01 0.22339209E+03</pdfrwt>
<pdfrwt beam="1">  1       -5 0.78387285E-01 0.22339209E+03</pdfrwt>
<totfact> 0.41358878E+01</totfact>
</mgrwt>
</event>
<event>
 8    1  0.3573290E-007  0.1482775E+03  0.7546771E-02  0.1202618E+00
          5   -1    0    0  501    0  0.00000000000E+00  0.00000000000E+00  0.84611419471E+03  0.84612724841E+03  0.47000000000E+01 0. -1.
         -5   -1    0    0    0  501 -0.00000000000E+00 -0.00000000000E+00 -0.25767693637E+02  0.26192824120E+02  0.47000000000E+01 0. -1.
         25    2    1    2    0    0  0.79554788917E+02  0.56450920339E+01  0.39947233534E+03  0.42609000304E+03  0.12495484177E+03 0.  0.
         25    2    1    2    0    0 -0.79554788917E+02 -0.56450920339E+01  0.42087416573E+03  0.44623006948E+03  0.12500152010E+03 0.  0.
          5    1    3    3  502    0 -0.12082040971E+02  0.70958519823E+01  0.25175205880E+03  0.25218547924E+03  0.47000000000E+01 0.  1.
         -5    1    3    3    0  502  0.91636829888E+02 -0.14507599484E+01  0.14772027654E+03  0.17390452380E+03  0.47000000000E+01 0.  1.
          5    1    4    4  503    0  0.29654835499E+02  0.19759367006E+02  0.10962965225E+03  0.11537154115E+03  0.47000000000E+01 0.  1.
         -5    1    4    4    0  503 -0.10920962442E+03 -0.25404459040E+02  0.31124451348E+03  0.33085852834E+03  0.47000000000E+01 0.  1.
<mgrwt>
<rscale>  0 0.14826764E+03</rscale>
<asrwt>0</asrwt>
<pdfrwt beam="1">  1        5 0.13020511E+00 0.14827748E+03</pdfrwt>
<pdfrwt beam="2">  1       -5 0.39979673E-02 0.14827748E+03</pdfrwt>
<totfact> 0.11429824E+02</totfact>
</mgrwt>
</event>
<event>
 8    1  0.3573290E-007  0.1470373E+03  0.7546771E-02  0.1204162E+00
          5   -1    0    0  501    0  0.00000000000E+00  0.00000000000E+00  0.12443205751E+03  0.12452078918E+03  0.47000000000E+01 0. -1.
         -5   -1    0    0    0  501 -0.00000000000E+00 -0.00000000000E+00 -0.17712579990E+03  0.17718814574E+03  0.47000000000E+01 0. -1.
         25    2    1    2    0    0 -0.48957796650E+01  0.77272917412E+02 -0.47727353422E+02  0.15458781987E+03  0.12499768544E+03 0.  0.
         25    2    1    2    0    0  0.48957796650E+01 -0.77272917412E+02 -0.49663889674E+01  0.14712111504E+03  0.12499954019E+03 0.  0.
          5    1    3    3  502    0 -0.90583617014E+01 -0.30165349501E+02  0.87805027018E+01  0.33033156903E+02  0.47000000000E+01 0.  1.
         -5    1    3    3    0  502  0.41625820364E+01  0.10743826691E+03 -0.56507856124E+02  0.12155466297E+03  0.47000000000E+01 0.  1.
          5    1    4    4  503    0 -0.25236458186E+02 -0.81787239638E+02  0.38387118731E+02  0.93923864240E+02  0.47000000000E+01 0.  1.
         -5    1    4    4    0  503  0.30132237851E+02  0.45143222260E+01 -0.43353507698E+02  0.53197250801E+02  0.47000000000E+01 0.  1.
<mgrwt>
<rscale>  0 0.14703687E+03</rscale>
<asrwt>0</asrwt>
<pdfrwt beam="1">  1        5 0.19155015E-01 0.14703727E+03</pdfrwt>
<pdfrwt beam="2">  1       -5 0.27261744E-01 0.14703727E+03</pdfrwt>
<totfact> 0.24007589E+02</totfact>
</mgrwt>
</event>
<event>
 8    1  0.3573290E-007  0.1286920E+03  0.7546771E-02  0.1229412E+00
          5   -1    0    0  501    0  0.00000000000E+00  0.00000000000E+00  0.28768832036E+02  0.29150226358E+02  0.47000000000E+01 0. -1.
         -5   -1    0    0    0  501 -0.00000000000E+00 -0.00000000000E+00 -0.58754546078E+03  0.58756425903E+03  0.47000000000E+01 0. -1.
         25    2    1    2    0    0 -0.20115493356E+02  0.23021764426E+02 -0.33037837588E+03  0.35455816896E+03  0.12500795662E+03 0.  0.
         25    2    1    2    0    0  0.20115493356E+02 -0.23021764426E+02 -0.22839825287E+03  0.26215631643E+03  0.12500215045E+03 0.  0.
          5    1    3    3  502    0  0.37875783856E+02 -0.20945183946E+02 -0.20448621816E+03  0.20906931661E+03  0.47000000000E+01 0.  1.
         -5    1    3    3    0  502 -0.57991277212E+02  0.43966948372E+02 -0.12589215772E+03  0.14548885235E+03  0.47000000000E+01 0.  1.
          5    1    4    4  503    0  0.72562213278E+02 -0.82275693975E+01 -0.11594447623E+03  0.13710645230E+03  0.47000000000E+01 0. -1.
         -5    1    4    4    0  503 -0.52446719922E+02 -0.14794195028E+02 -0.11245377664E+03  0.12504986412E+03  0.47000000000E+01 0. -1.
<mgrwt>
<rscale>  0 0.12869056E+03</rscale>
<asrwt>0</asrwt>
<pdfrwt beam="1">  1        5 0.44567586E-02 0.12869197E+03</pdfrwt>
<pdfrwt beam="2">  1       -5 0.90422385E-01 0.12869197E+03</pdfrwt>
<totfact> 0.22579516E+02</totfact>
</mgrwt>
</event>
<event>
 8    1  0.3573290E-007  0.1268852E+03  0.7546771E-02  0.1232155E+00
          5   -1    0    0  501    0  0.00000000000E+00  0.00000000000E+00  0.59230048846E+03  0.59231913580E+03  0.47000000000E+01 0. -1.
         -5   -1    0    0    0  501 -0.00000000000E+00 -0.00000000000E+00 -0.26979981771E+02  0.27386299794E+02  0.47000000000E+01 0. -1.
         25    2    1    2    0    0 -0.64722120923E+01  0.20781359702E+02  0.27383988397E+03  0.30180480296E+03  0.12499641033E+03 0.  0.
         25    2    1    2    0    0  0.64722120923E+01 -0.20781359702E+02  0.29148062272E+03  0.31790063264E+03  0.12500441739E+03 0.  0.
          5    1    3    3  502    0 -0.56660685431E+02  0.43327677135E+02  0.14661397322E+03  0.16311182675E+03  0.47000000000E+01 0.  1.
         -5    1    3    3    0  502  0.50188473338E+02 -0.22546317433E+02  0.12722591074E+03  0.13869297621E+03  0.47000000000E+01 0.  1.
          5    1    4    4  503    0 -0.45554288985E+02 -0.48823701873E+02  0.13837798376E+03  0.15371891068E+03  0.47000000000E+01 0. -1.
         -5    1    4    4    0  503  0.52026501077E+02  0.28042342171E+02  0.15310263896E+03  0.16418172196E+03  0.47000000000E+01 0. -1.
<mgrwt>
<rscale>  0 0.12688325E+03</rscale>
<asrwt>0</asrwt>
<pdfrwt beam="1">  1        5 0.91155830E-01 0.12688522E+03</pdfrwt>
<pdfrwt beam="2">  1       -5 0.41834566E-02 0.12688522E+03</pdfrwt>
<totfact> 0.24457296E+02</totfact>
</mgrwt>
</event>
<event>
 8    1  0.3573290E-007  0.1451077E+03  0.7546771E-02  0.1206623E+00
         -5   -1    0    0    0  501 -0.00000000000E+00  0.00000000000E+00  0.72006118563E+01  0.85987679993E+01  0.47000000000E+01 0.  1.
          5   -1    0    0  501    0  0.00000000000E+00 -0.00000000000E+00 -0.28628323353E+04  0.28628361934E+04  0.47000000000E+01 0.  1.
         25    2    1    2    0    0 -0.27290486483E+02 -0.68460381018E+02 -0.10491407696E+04  0.10591254409E+04  0.12497500006E+03 0.  0.
         25    2    1    2    0    0  0.27290486483E+02  0.68460381018E+02 -0.18064909538E+04  0.18123095204E+04  0.12499854933E+03 0.  0.
          5    1    3    3  502    0  0.12935688247E+02  0.27303609286E+02 -0.10757139182E+03  0.11183252411E+03  0.47000000000E+01 0.  1.
         -5    1    3    3    0  502 -0.40226174730E+02 -0.95763990304E+02 -0.94156937783E+03  0.94729291681E+03  0.47000000000E+01 0.  1.
          5    1    4    4  503    0  0.58714896203E+02 -0.99964526983E+01 -0.83758151708E+03  0.83970962592E+03  0.47000000000E+01 0.  1.
         -5    1    4    4    0  503 -0.31424409720E+02  0.78456833716E+02 -0.96890943670E+03  0.97259989451E+03  0.47000000000E+01 0.  1.
<mgrwt>
<rscale>  0 0.14510258E+03</rscale>
<asrwt>0</asrwt>
<pdfrwt beam="2">  1        5 0.44054276E+00 0.14510766E+03</pdfrwt>
<pdfrwt beam="1">  1       -5 0.12156360E-02 0.14510766E+03</pdfrwt>
<totfact> 0.57148568E+00</totfact>
</mgrwt>
</event>
<event>
 8    1  0.3573290E-007  0.1432597E+03  0.7546771E-02  0.1209033E+00
         -5   -1    0    0    0  501 -0.00000000000E+00  0.00000000000E+00  0.16024665549E+04  0.16024734474E+04  0.47000000000E+01 0. -1.
          5   -1    0    0  501    0  0.00000000000E+00 -0.00000000000E+00 -0.12891217410E+02  0.13721278596E+02  0.47000000000E+01 0. -1.
         25    2    1    2    0    0  0.39562873811E+01 -0.69870239121E+02  0.95351875000E+03  0.96422059782E+03  0.12500340848E+03 0.  0.
         25    2    1    2    0    0 -0.39562873811E+01  0.69870239121E+02  0.63605658745E+03  0.65197412813E+03  0.12491908892E+03 0.  0.
          5    1    4    4  502    0 -0.15636513168E+02  0.84185968461E+02  0.22994172660E+03  0.24541203203E+03  0.47000000000E+01 0.  1.
         -5    1    4    4    0  502  0.11680225787E+02 -0.14315729340E+02  0.40611486085E+03  0.40656209610E+03  0.47000000000E+01 0.  1.
          5    1    3    3  503    0 -0.55717064139E+02 -0.17348951983E+02  0.28318498077E+03  0.28917330565E+03  0.47000000000E+01 0.  1.
         -5    1    3    3    0  503  0.59673351520E+02 -0.52521287138E+02  0.67033376924E+03  0.67504729217E+03  0.47000000000E+01 0.  1.
<mgrwt>
<rscale>  0 0.14324135E+03</rscale>
<asrwt>0</asrwt>
<pdfrwt beam="2">  1        5 0.20476452E-02 0.14325975E+03</pdfrwt>
<pdfrwt beam="1">  1       -5 0.24659771E+00 0.14325975E+03</pdfrwt>
<totfact> 0.49139243E+01</totfact>
</mgrwt>
</event>
<event>
 8    1  0.3573290E-007  0.1344152E+03  0.7546771E-02  0.1221051E+00
         -5   -1    0    0    0  501 -0.00000000000E+00  0.00000000000E+00  0.22079845355E+03  0.22084847088E+03  0.47000000000E+01 0.  1.
          5   -1    0    0  501    0  0.00000000000E+00 -0.00000000000E+00 -0.12828755652E+03  0.12837362329E+03  0.47000000000E+01 0.  1.
         25    2    1    2    0    0 -0.53666953150E+01  0.49110676192E+02  0.15142083810E+03  0.20247402022E+03  0.12500719467E+03 0.  0.
         25    2    1    2    0    0  0.53666953150E+01 -0.49110676192E+02 -0.58909941071E+02  0.14674807395E+03  0.12499582440E+03 0.  0.
          5    1    3    3  502    0  0.70524689033E+01 -0.39550954177E+02  0.72568927652E+02  0.83080410173E+02  0.47000000000E+01 0. -1.
         -5    1    3    3    0  502 -0.12419164218E+02  0.88661630370E+02  0.78851910449E+02  0.11939361005E+03  0.47000000000E+01 0. -1.
          5    1    4    4  503    0 -0.43114978654E+02  0.11311026860E+02 -0.52268238943E+02  0.68854190251E+02  0.47000000000E+01 0.  1.
         -5    1    4    4    0  503  0.48481673969E+02 -0.60421703052E+02 -0.66417021284E+01  0.77893883699E+02  0.47000000000E+01 0.  1.
<mgrwt>
<rscale>  0 0.13441260E+03</rscale>
<asrwt>0</asrwt>
<pdfrwt beam="2">  1        5 0.19747016E-01 0.13441525E+03</pdfrwt>
<pdfrwt beam="1">  1       -5 0.33979460E-01 0.13441525E+03</pdfrwt>
<totfact> 0.14275917E+02</totfact>
</mgrwt>
</event>
<event>
 8    1  0.3573290E-007  0.1417706E+03  0.7546771E-02  0.1210968E+00
         -5   -1    0    0    0  501 -0.00000000000E+00  0.00000000000E+00  0.14021232185E+03  0.14029107312E+03  0.47000000000E+01 0.  1.
          5   -1    0    0  501    0  0.00000000000E+00 -0.00000000000E+00 -0.14474610881E+03  0.14482239474E+03  0.47000000000E+01 0.  1.
         25    2    1    2    0    0  0.29472656080E+02 -0.60026577995E+02  0.12537778770E+02  0.14231874204E+03  0.12500240364E+03 0.  0.
         25    2    1    2    0    0 -0.29472656080E+02  0.60026577995E+02 -0.17071565739E+02  0.14279472582E+03  0.12500827110E+03 0.  0.
          5    1    4    4  502    0 -0.21029129653E+02  0.34153481119E+02  0.53489100043E+02  0.67021327873E+02  0.47000000000E+01 0. -1.
         -5    1    4    4    0  502 -0.84435264268E+01  0.25873096876E+02 -0.70560665782E+02  0.75773397944E+02  0.47000000000E+01 0. -1.
          5    1    3    3  503    0  0.78747202041E+02 -0.35639067599E+02  0.88602535755E+01  0.87016429839E+02  0.47000000000E+01 0.  1.
         -5    1    3    3    0  503 -0.49274545961E+02 -0.24387510397E+02  0.36775251950E+01  0.55302312199E+02  0.47000000000E+01 0.  1.
<mgrwt>
<rscale>  0 0.14176928E+03</rscale>
<asrwt>0</asrwt>
<pdfrwt beam="2">  1        5 0.22280558E-01 0.14177057E+03</pdfrwt>
<pdfrwt beam="1">  1       -5 0.21583052E-01 0.14177057E+03</pdfrwt>
<totfact> 0.27911048E+02</totfact>
</mgrwt>
</event>
<event>
 8    1  0.3573290E-007  0.1288560E+03  0.7546771E-02  0.1229177E+00
         -5   -1    0    0    0  501 -0.00000000000E+00  0.00000000000E+00  0.41409826737E+03  0.41412493892E+03  0.47000000000E+01 0.  1.
          5   -1    0    0  501    0  0.00000000000E+00 -0.00000000000E+00 -0.42492335700E+02  0.42751474749E+02  0.47000000000E+01 0.  1.
         25    2    1    2    0    0  0.14386276576E+01  0.31150325558E+02  0.24184531950E+03  0.27403109153E+03  0.12502586985E+03 0.  0.
         25    2    1    2    0    0 -0.14386276576E+01 -0.31150325558E+02  0.12976061217E+03  0.18284532214E+03  0.12498873119E+03 0.  0.
          5    1    4    4  502    0 -0.54133056025E+02  0.85442447303E+01  0.28635722639E+02  0.62011986613E+02  0.47000000000E+01 0.  1.
         -5    1    4    4    0  502  0.52694428368E+02 -0.39694570289E+02  0.10112488953E+03  0.12083333553E+03  0.47000000000E+01 0.  1.
          5    1    3    3  503    0  0.17436306529E+02  0.68365846819E+02  0.78409118648E+02  0.10558405980E+03  0.47000000000E+01 0.  1.
         -5    1    3    3    0  503 -0.15997678872E+02 -0.37215521260E+02  0.16343620085E+03  0.16844703173E+03  0.47000000000E+01 0.  1.
<mgrwt>
<rscale>  0 0.12884704E+03</rscale>
<asrwt>0</asrwt>
<pdfrwt beam="2">  1        5 0.65592681E-02 0.12885605E+03</pdfrwt>
<pdfrwt beam="1">  1       -5 0.63729409E-01 0.12885605E+03</pdfrwt>
<totfact> 0.26396409E+02</totfact>
</mgrwt>
</event>
<event>
 8    1  0.3573290E-007  0.1542539E+03  0.7546771E-02  0.1195342E+00
          5   -1    0    0  501    0  0.00000000000E+00  0.00000000000E+00  0.57296466740E+02  0.57488912852E+02  0.47000000000E+01 0.  1.
         -5   -1    0    0    0  501 -0.00000000000E+00 -0.00000000000E+00 -0.49788142561E+03  0.49790360912E+03  0.47000000000E+01 0.  1.
         25    2    1    2    0    0 -0.33876050193E+02  0.83790520093E+02 -0.33400088040E+03  0.36790060311E+03  0.12500331048E+03 0.  0.
         25    2    1    2    0    0  0.33876050193E+02 -0.83790520093E+02 -0.10658407848E+03  0.18749191886E+03  0.12499846326E+03 0.  0.
          5    1    4    4  502    0  0.68882602830E+02 -0.78424377919E+02 -0.39908172882E+02  0.11184788012E+03  0.47000000000E+01 0.  1.
         -5    1    4    4    0  502 -0.35006552637E+02 -0.53661421743E+01 -0.66675905594E+02  0.75644038735E+02  0.47000000000E+01 0.  1.
          5    1    3    3  503    0 -0.26987587057E+02  0.76792638135E+02 -0.81898802447E+02  0.11556358842E+03  0.47000000000E+01 0.  1.
         -5    1    3    3    0  503 -0.68884631360E+01  0.69978819583E+01 -0.25210207795E+03  0.25233701469E+03  0.47000000000E+01 0.  1.
<mgrwt>
<rscale>  0 0.15425292E+03</rscale>
<asrwt>0</asrwt>
<pdfrwt beam="1">  1        5 0.88313514E-02 0.15425390E+03</pdfrwt>
<pdfrwt beam="2">  1       -5 0.76613649E-01 0.15425390E+03</pdfrwt>
<totfact> 0.11128480E+02</totfact>
</mgrwt>
</event>
<event>
 8    1  0.3573290E-007  0.1610075E+03  0.7546771E-02  0.1187565E+00
         -5   -1    0    0    0  501 -0.00000000000E+00  0.00000000000E+00  0.34737170719E+03  0.34740350164E+03  0.47000000000E+01 0.  1.
          5   -1    0    0  501    0  0.00000000000E+00 -0.00000000000E+00 -0.89654577058E+02  0.89777687581E+02  0.47000000000E+01 0.  1.
         25    2    1    2    0    0  0.87014485749E+02 -0.52218298143E+02  0.21859837927E+03  0.27149341757E+03  0.12500061188E+03 0.  0.
         25    2    1    2    0    0 -0.87014485749E+02  0.52218298143E+02  0.39118750856E+02  0.16568777166E+03  0.12499555839E+03 0.  0.
          5    1    3    3  502    0  0.81661679458E+02 -0.60258904851E+02  0.72048966733E+02  0.12455082944E+03  0.47000000000E+01 0. -1.
         -5    1    3    3    0  502  0.53528062909E+01  0.80406067085E+01  0.14654941254E+03  0.14694258813E+03  0.47000000000E+01 0. -1.
          5    1    4    4  503    0 -0.28079604546E+02 -0.75132444007E+01 -0.40397393715E+02  0.49989523421E+02  0.47000000000E+01 0.  1.
         -5    1    4    4    0  503 -0.58934881203E+02  0.59731542544E+02  0.79516144571E+02  0.11569824823E+03  0.47000000000E+01 0.  1.
<mgrwt>
<rscale>  0 0.16100655E+03</rscale>
<asrwt>0</asrwt>
<pdfrwt beam="2">  1        5 0.13804928E-01 0.16100753E+03</pdfrwt>
<pdfrwt beam="1">  1       -5 0.53453716E-01 0.16100753E+03</pdfrwt>
<totfact> 0.11408755E+02</totfact>
</mgrwt>
</event>
<event>
 8    1  0.3573290E-007  0.1255699E+03  0.7546771E-02  0.1234192E+00
         -5   -1    0    0    0  501 -0.00000000000E+00  0.00000000000E+00  0.10090548761E+04  0.10090658219E+04  0.47000000000E+01 0.  1.
          5   -1    0    0  501    0  0.00000000000E+00 -0.00000000000E+00 -0.21102246310E+02  0.21619315422E+02  0.47000000000E+01 0.  1.
         25    2    1    2    0    0 -0.11697256221E+02 -0.62897890749E+00  0.76122059465E+03  0.77150330292E+03  0.12499332493E+03 0.  0.
         25    2    1    2    0    0  0.11697256221E+02  0.62897890749E+00  0.22673203516E+03  0.25918183445E+03  0.12502234250E+03 0.  0.
          5    1    4    4  502    0  0.29752142819E+02 -0.56094658938E+02  0.14094408638E+03  0.15465809467E+03  0.47000000000E+01 0.  1.
         -5    1    4    4    0  502 -0.18054886598E+02  0.56723637846E+02  0.85787948783E+02  0.10452373978E+03  0.47000000000E+01 0.  1.
          5    1    3    3  503    0 -0.63985009937E+02  0.16180604380E+02  0.51209770605E+03  0.51635457198E+03  0.47000000000E+01 0. -1.
         -5    1    3    3    0  503  0.52287753716E+02 -0.16809583288E+02  0.24912288860E+03  0.25514873094E+03  0.47000000000E+01 0. -1.
<mgrwt>
<rscale>  0 0.12556271E+03</rscale>
<asrwt>0</asrwt>
<pdfrwt beam="2">  1        5 0.32871154E-02 0.12556993E+03</pdfrwt>
<pdfrwt beam="1">  1       -5 0.15527985E+00 0.12556993E+03</pdfrwt>
<totfact> 0.93106219E+01</totfact>
</mgrwt>
</event>
<event>
 8    1  0.3573290E-007  0.1311784E+03  0.7546771E-02  0.1225718E+00
         -5   -1    0    0    0  501 -0.00000000000E+00  0.00000000000E+00  0.78158974422E+03  0.78160387554E+03  0.47000000000E+01 0.  1.
          5   -1    0    0  501    0  0.00000000000E+00 -0.00000000000E+00 -0.22338148443E+02  0.22827239777E+02  0.47000000000E+01 0.  1.
         25    2    1    2    0    0  0.38034883954E+02 -0.11680608722E+02  0.44410070428E+03  0.46306933555E+03  0.12499873983E+03 0.  0.
         25    2    1    2    0    0 -0.38034883954E+02  0.11680608722E+02  0.31515089149E+03  0.34136177978E+03  0.12499876506E+03 0.  0.
          5    1    3    3  502    0  0.33387098701E+02 -0.67007776918E+02  0.23573474114E+03  0.24738168628E+03  0.47000000000E+01 0.  1.
         -5    1    3    3    0  502  0.46477852531E+01  0.55327168196E+02  0.20836596314E+03  0.21568764926E+03  0.47000000000E+01 0.  1.
          5    1    4    4  503    0 -0.22234703881E+02  0.30654050357E+02  0.31388467890E+03  0.31619572184E+03  0.47000000000E+01 0.  1.
         -5    1    4    4    0  503 -0.15800180073E+02 -0.18973441635E+02  0.12662125909E+01  0.25166057938E+02  0.47000000000E+01 0.  1.
<mgrwt>
<rscale>  0 0.13117842E+03</rscale>
<asrwt>0</asrwt>
<pdfrwt beam="2">  1        5 0.34753479E-02 0.13117843E+03</pdfrwt>
<pdfrwt beam="1">  1       -5 0.12028328E+00 0.13117843E+03</pdfrwt>
<totfact> 0.16953525E+02</totfact>
</mgrwt>
</event>
<event>
 8    1  0.3573290E-007  0.1299068E+03  0.7546771E-02  0.1227596E+00
         -5   -1    0    0    0  501 -0.00000000000E+00  0.00000000000E+00  0.67737158299E+03  0.67738788847E+03  0.47000000000E+01 0. -1.
          5   -1    0    0  501    0  0.00000000000E+00 -0.00000000000E+00 -0.29687650688E+02  0.30057388499E+02  0.47000000000E+01 0. -1.
         25    2    1    2    0    0 -0.34636925054E+02 -0.70119754680E+01  0.46818021836E+03  0.48586879093E+03  0.12500752278E+03 0.  0.
         25    2    1    2    0    0  0.34636925054E+02  0.70119754680E+01  0.17950371394E+03  0.22157648604E+03  0.12500268585E+03 0.  0.
          5    1    3    3  502    0  0.37584363726E+02  0.18200175790E+02  0.27240058924E+03  0.27562293412E+03  0.47000000000E+01 0. -1.
         -5    1    3    3    0  502 -0.72221288780E+02 -0.25212151258E+02  0.19577962913E+03  0.21024585681E+03  0.47000000000E+01 0. -1.
          5    1    4    4  503    0 -0.11382605946E+02  0.12381764922E+02 -0.14103582964E+02  0.22447112802E+02  0.47000000000E+01 0. -1.
         -5    1    4    4    0  503  0.46019531000E+02 -0.53697894544E+01  0.19360729690E+03  0.19912937324E+03  0.47000000000E+01 0. -1.
<mgrwt>
<rscale>  0 0.12990559E+03</rscale>
<asrwt>0</asrwt>
<pdfrwt beam="2">  1        5 0.45970269E-02 0.12990676E+03</pdfrwt>
<pdfrwt beam="1">  1       -5 0.10424070E+00 0.12990676E+03</pdfrwt>
<totfact> 0.15272820E+02</totfact>
</mgrwt>
</event>
<event>
 8    1  0.3573290E-007  0.1252136E+03  0.7546771E-02  0.1234738E+00
         -5   -1    0    0    0  501 -0.00000000000E+00  0.00000000000E+00  0.40933653908E+03  0.40936352088E+03  0.47000000000E+01 0.  1.
          5   -1    0    0  501    0  0.00000000000E+00 -0.00000000000E+00 -0.46011200893E+02  0.46250628187E+02  0.47000000000E+01 0.  1.
         25    2    1    2    0    0 -0.53426932435E+01 -0.49072087436E+01  0.27566158143E+03  0.30276681227E+03  0.12500324024E+03 0.  0.
         25    2    1    2    0    0  0.53426932435E+01  0.49072087436E+01  0.87663756761E+02  0.15284733679E+03  0.12499899618E+03 0.  0.
          5    1    4    4  502    0  0.53040248351E+02  0.31475517228E+02  0.18413946856E+02  0.64537892503E+02  0.47000000000E+01 0.  1.
         -5    1    4    4    0  502 -0.47697555107E+02 -0.26568308484E+02  0.69249809905E+02  0.88309444290E+02  0.47000000000E+01 0.  1.
          5    1    3    3  503    0 -0.38214942646E+02 -0.18629007975E+02  0.26013084753E+03  0.26362391700E+03  0.47000000000E+01 0. -1.
         -5    1    3    3    0  503  0.32872249403E+02  0.13721799232E+02  0.15530733901E+02  0.39142895274E+02  0.47000000000E+01 0. -1.
<mgrwt>
<rscale>  0 0.12521250E+03</rscale>
<asrwt>0</asrwt>
<pdfrwt beam="2">  1        5 0.70991392E-02 0.12521356E+03</pdfrwt>
<pdfrwt beam="1">  1       -5 0.62995346E-01 0.12521356E+03</pdfrwt>
<totfact> 0.23442856E+02</totfact>
</mgrwt>
</event>
<event>
 8    1  0.3573290E-007  0.1585558E+03  0.7546771E-02  0.1190340E+00
         -5   -1    0    0    0  501 -0.00000000000E+00  0.00000000000E+00  0.76997400732E+03  0.76998835182E+03  0.47000000000E+01 0.  1.
          5   -1    0    0  501    0  0.00000000000E+00 -0.00000000000E+00 -0.32514893019E+02  0.32852827398E+02  0.47000000000E+01 0.  1.
         25    2    1    2    0    0  0.44310802236E+02  0.86901430113E+02  0.35302192018E+03  0.38699035996E+03  0.12498702661E+03 0.  0.
         25    2    1    2    0    0 -0.44310802236E+02 -0.86901430113E+02  0.38443719412E+03  0.41585081926E+03  0.12499856764E+03 0.  0.
          5    1    3    3  502    0  0.68539491010E+02  0.21852975863E+02  0.92146021983E+02  0.11699655443E+03  0.47000000000E+01 0.  1.
         -5    1    3    3    0  502 -0.24228688774E+02  0.65048454251E+02  0.26087589820E+03  0.26999380553E+03  0.47000000000E+01 0.  1.
          5    1    4    4  503    0 -0.39800463866E+02  0.46609553424E+01  0.31543984550E+02  0.51214396316E+02  0.47000000000E+01 0.  1.
         -5    1    4    4    0  503 -0.45103383699E+01 -0.91562385456E+02  0.35289320957E+03  0.36463642295E+03  0.47000000000E+01 0.  1.
<mgrwt>
<rscale>  0 0.15855354E+03</rscale>
<asrwt>0</asrwt>
<pdfrwt beam="2">  1        5 0.50293896E-02 0.15855582E+03</pdfrwt>
<pdfrwt beam="1">  1       -5 0.11848464E+00 0.15855582E+03</pdfrwt>
<totfact> 0.10184517E+02</totfact>
</mgrwt>
</event>
<event>
 8    1  0.3573290E-007  0.1377940E+03  0.7546771E-02  0.1216331E+00
         -5   -1    0    0    0  501 -0.00000000000E+00  0.00000000000E+00  0.28887098496E+03  0.28890921749E+03  0.47000000000E+01 0.  1.
          5   -1    0    0  501    0  0.00000000000E+00 -0.00000000000E+00 -0.66018981772E+02  0.66186070696E+02  0.47000000000E+01 0.  1.
         25    2    1    2    0    0  0.47177075578E+02 -0.33676965096E+02  0.97293486395E+02  0.16868075382E+03  0.12500943874E+03 0.  0.
         25    2    1    2    0    0 -0.47177075578E+02  0.33676965096E+02  0.12555851679E+03  0.18641453437E+03  0.12500249216E+03 0.  0.
          5    1    4    4  502    0  0.40881329868E+02  0.17746861322E+02  0.23513717504E+02  0.50608488709E+02  0.47000000000E+01 0. -1.
         -5    1    4    4    0  502 -0.88058405447E+02  0.15930103774E+02  0.10204479929E+03  0.13580604566E+03  0.47000000000E+01 0. -1.
          5    1    3    3  503    0  0.66806392311E+02  0.21242333448E+02  0.82432195383E+02  0.10831199204E+03  0.47000000000E+01 0. -1.
         -5    1    3    3    0  503 -0.19629316733E+02 -0.54919298544E+02  0.14861291012E+02  0.60368761777E+02  0.47000000000E+01 0. -1.
<mgrwt>
<rscale>  0 0.13779238E+03</rscale>
<asrwt>0</asrwt>
<pdfrwt beam="2">  1        5 0.10172560E-01 0.13779396E+03</pdfrwt>
<pdfrwt beam="1">  1       -5 0.44457484E-01 0.13779396E+03</pdfrwt>
<totfact> 0.27511454E+02</totfact>
</mgrwt>
</event>
<event>
 8    1  0.3573290E-007  0.1517359E+03  0.7546771E-02  0.1198356E+00
         -5   -1    0    0    0  501 -0.00000000000E+00  0.00000000000E+00  0.76703560744E+03  0.76705000690E+03  0.47000000000E+01 0. -1.
          5   -1    0    0  501    0  0.00000000000E+00 -0.00000000000E+00 -0.30281040865E+02  0.30643619823E+02  0.47000000000E+01 0. -1.
         25    2    1    2    0    0 -0.82052545396E+02 -0.25814335720E+02  0.41741811779E+03  0.44414149584E+03  0.12499913253E+03 0.  0.
         25    2    1    2    0    0  0.82052545396E+02  0.25814335720E+02  0.31933644879E+03  0.35355213088E+03  0.12499736634E+03 0.  0.
          5    1    3    3  502    0  0.45444454484E+01 -0.41338131811E+02  0.26340677971E+03  0.26671091977E+03  0.47000000000E+01 0.  1.
         -5    1    3    3    0  502 -0.86596990845E+02  0.15523796091E+02  0.15401133808E+03  0.17743057607E+03  0.47000000000E+01 0.  1.
          5    1    4    4  503    0  0.41047521747E+02  0.71039841503E+02  0.12330700717E+03  0.14818321815E+03  0.47000000000E+01 0.  1.
         -5    1    4    4    0  503  0.41005023649E+02 -0.45225505784E+02  0.19602944162E+03  0.20536891274E+03  0.47000000000E+01 0.  1.
<mgrwt>
<rscale>  0 0.15173554E+03</rscale>
<asrwt>0</asrwt>
<pdfrwt beam="2">  1        5 0.46876207E-02 0.15173590E+03</pdfrwt>
<pdfrwt beam="1">  1       -5 0.11803446E+00 0.15173590E+03</pdfrwt>
<totfact> 0.11403486E+02</totfact>
</mgrwt>
</event>
<event>
 8    1  0.3573290E-007  0.1431040E+03  0.7546771E-02  0.1209213E+00
          5   -1    0    0  501    0  0.00000000000E+00  0.00000000000E+00  0.16341008545E+04  0.16341076135E+04  0.47000000000E+01 0.  1.
         -5   -1    0    0    0  501 -0.00000000000E+00 -0.00000000000E+00 -0.12105024331E+02  0.12985438539E+02  0.47000000000E+01 0.  1.
         25    2    1    2    0    0 -0.58938538213E+02 -0.37144561896E+02  0.77800139473E+03  0.79105253003E+03  0.12499786115E+03 0.  0.
         25    2    1    2    0    0  0.58938538213E+02  0.37144561896E+02  0.84399443542E+03  0.85604052205E+03  0.12500119442E+03 0.  0.
          5    1    4    4  502    0  0.81080873572E+02 -0.13156725118E+02  0.61590550940E+03  0.62137661204E+03  0.47000000000E+01 0.  1.
         -5    1    4    4    0  502 -0.22142335359E+02  0.50301287013E+02  0.22808892602E+03  0.23466391001E+03  0.47000000000E+01 0.  1.
          5    1    3    3  503    0  0.34188707965E+02 -0.71979466061E+01  0.10038104768E+03  0.10639136676E+03  0.47000000000E+01 0.  1.
         -5    1    3    3    0  503 -0.93127246178E+02 -0.29946615289E+02  0.67762034705E+03  0.68466116326E+03  0.47000000000E+01 0.  1.
<mgrwt>
<rscale>  0 0.14310332E+03</rscale>
<asrwt>0</asrwt>
<pdfrwt beam="1">  1        5 0.25146824E+00 0.14310405E+03</pdfrwt>
<pdfrwt beam="2">  1       -5 0.19305566E-02 0.14310405E+03</pdfrwt>
<totfact> 0.50228556E+01</totfact>
</mgrwt>
</event>
<event>
 8    1  0.3573290E-007  0.1275775E+03  0.7546771E-02  0.1231096E+00
         -5   -1    0    0    0  501 -0.00000000000E+00  0.00000000000E+00  0.19994269244E+03  0.19999792564E+03  0.47000000000E+01 0.  1.
          5   -1    0    0  501    0  0.00000000000E+00 -0.00000000000E+00 -0.88031974042E+02  0.88157350537E+02  0.47000000000E+01 0.  1.
         25    2    1    2    0    0 -0.10479527939E+02 -0.23271748555E+02  0.95852027797E+02  0.15957103930E+03  0.12499564218E+03 0.  0.
         25    2    1    2    0    0  0.10479527939E+02  0.23271748555E+02  0.16058690603E+02  0.12858423688E+03  0.12499851856E+03 0.  0.
          5    1    4    4  502    0 -0.97764579528E+01  0.55531635912E+02  0.51376566606E+02  0.76426326049E+02  0.47000000000E+01 0. -1.
         -5    1    4    4    0  502  0.20255985892E+02 -0.32259887357E+02 -0.35317876003E+02  0.52157910830E+02  0.47000000000E+01 0. -1.
          5    1    3    3  503    0  0.38916384109E+02 -0.18859569399E+02  0.10052924681E+03  0.10953715249E+03  0.47000000000E+01 0.  1.
         -5    1    3    3    0  503 -0.49395912049E+02 -0.44121791562E+01 -0.46772190152E+01  0.50033886814E+02  0.47000000000E+01 0.  1.
<mgrwt>
<rscale>  0 0.12757682E+03</rscale>
<asrwt>0</asrwt>
<pdfrwt beam="2">  1        5 0.13557274E-01 0.12757752E+03</pdfrwt>
<pdfrwt beam="1">  1       -5 0.30774307E-01 0.12757752E+03</pdfrwt>
<totfact> 0.33877890E+02</totfact>
</mgrwt>
</event>
<event>
 8    1  0.3573290E-007  0.1255866E+03  0.7546771E-02  0.1234157E+00
         -5   -1    0    0    0  501 -0.00000000000E+00  0.00000000000E+00  0.98974477336E+02  0.99086008921E+02  0.47000000000E+01 0. -1.
          5   -1    0    0  501    0  0.00000000000E+00 -0.00000000000E+00 -0.16370505584E+03  0.16377251084E+03  0.47000000000E+01 0. -1.
         25    2    1    2    0    0  0.35394777106E+00 -0.12055147463E+02 -0.10364223347E+02  0.12601353197E+03  0.12500616487E+03 0.  0.
         25    2    1    2    0    0 -0.35394777106E+00  0.12055147463E+02 -0.54366355152E+02  0.13684498779E+03  0.12500159299E+03 0.  0.
          5    1    3    3  502    0  0.18403475626E+02 -0.54342255258E+02  0.29764531374E+02  0.64805755528E+02  0.47000000000E+01 0. -1.
         -5    1    3    3    0  502 -0.18049527855E+02  0.42287107795E+02 -0.40128754721E+02  0.61207776441E+02  0.47000000000E+01 0. -1.
          5    1    4    4  503    0 -0.45725262081E+02  0.48111971587E+02 -0.20841172294E+02  0.69728085195E+02  0.47000000000E+01 0.  1.
         -5    1    4    4    0  503  0.45371314310E+02 -0.36056824124E+02 -0.33525182858E+02  0.67116902594E+02  0.47000000000E+01 0.  1.
<mgrwt>
<rscale>  0 0.12558546E+03</rscale>
<asrwt>0</asrwt>
<pdfrwt beam="2">  1        5 0.25199161E-01 0.12558660E+03</pdfrwt>
<pdfrwt beam="1">  1       -5 0.15240611E-01 0.12558660E+03</pdfrwt>
<totfact> 0.40205705E+02</totfact>
</mgrwt>
</event>
<event>
 8    1  0.3573290E-007  0.1432511E+03  0.7546771E-02  0.1209021E+00
         -5   -1    0    0    0  501 -0.00000000000E+00  0.00000000000E+00  0.79354215481E+01  0.92228474532E+01  0.47000000000E+01 0. -1.
          5   -1    0    0  501    0  0.00000000000E+00 -0.00000000000E+00 -0.27135051935E+04  0.27135092639E+04  0.47000000000E+01 0. -1.
         25    2    1    2    0    0  0.69904358593E+02 -0.30067064930E+01 -0.88328432747E+03  0.89482480529E+03  0.12499827749E+03 0.  0.
         25    2    1    2    0    0 -0.69904358593E+02  0.30067064930E+01 -0.18222854445E+04  0.18279073060E+04  0.12500087469E+03 0.  0.
          5    1    3    3  502    0 -0.18563296029E+02 -0.33251813352E+02 -0.44518045085E+03  0.44683106749E+03  0.47000000000E+01 0.  1.
         -5    1    3    3    0  502  0.88467654623E+02  0.30245106858E+02 -0.43810387661E+03  0.44799373780E+03  0.47000000000E+01 0.  1.
          5    1    4    4  503    0 -0.27442145710E+02  0.53714940482E+02 -0.45365131253E+03  0.45766796867E+03  0.47000000000E+01 0.  1.
         -5    1    4    4    0  503 -0.42462212883E+02 -0.50708233989E+02 -0.13686341319E+04  0.13702393373E+04  0.47000000000E+01 0.  1.
<mgrwt>
<rscale>  0 0.14325054E+03</rscale>
<asrwt>0</asrwt>
<pdfrwt beam="2">  1        5 0.41756100E+00 0.14325110E+03</pdfrwt>
<pdfrwt beam="1">  1       -5 0.13201821E-02 0.14325110E+03</pdfrwt>
<totfact> 0.73761561E+00</totfact>
</mgrwt>
</event>
<event>
 8    1  0.3573290E-007  0.1308794E+03  0.7546771E-02  0.1226157E+00
          5   -1    0    0  501    0  0.00000000000E+00  0.00000000000E+00  0.52679343639E+02  0.52888592780E+02  0.47000000000E+01 0.  1.
         -5   -1    0    0    0  501 -0.00000000000E+00 -0.00000000000E+00 -0.57556726984E+03  0.57558645928E+03  0.47000000000E+01 0.  1.
         25    2    1    2    0    0 -0.18077736744E+02  0.34312227149E+02 -0.46903171081E+03  0.48694985823E+03  0.12500114075E+03 0.  0.
         25    2    1    2    0    0  0.18077736744E+02 -0.34312227149E+02 -0.53856215393E+02  0.14152519383E+03  0.12499902022E+03 0.  0.
          5    1    4    4  502    0  0.74005797483E+01 -0.16601545735E+02  0.40593005488E+02  0.44724288658E+02  0.47000000000E+01 0. -1.
         -5    1    4    4    0  502  0.10677156996E+02 -0.17710681414E+02 -0.94449220881E+02  0.96800905175E+02  0.47000000000E+01 0. -1.
          5    1    3    3  503    0  0.14872233148E+02  0.20645149591E+02 -0.43988496662E+03  0.44064529882E+03  0.47000000000E+01 0.  1.
         -5    1    3    3    0  503 -0.32949969893E+02  0.13667077558E+02 -0.29146744191E+02  0.46304559407E+02  0.47000000000E+01 0.  1.
<mgrwt>
<rscale>  0 0.13087890E+03</rscale>
<asrwt>0</asrwt>
<pdfrwt beam="1">  1        5 0.81220870E-02 0.13087941E+03</pdfrwt>
<pdfrwt beam="2">  1       -5 0.88566378E-01 0.13087941E+03</pdfrwt>
<totfact> 0.87039819E+01</totfact>
</mgrwt>
</event>
<event>
 8    1  0.3573290E-007  0.1781702E+03  0.7546771E-02  0.1169586E+00
          5   -1    0    0  501    0  0.00000000000E+00  0.00000000000E+00  0.71943545652E+02  0.72096905350E+02  0.47000000000E+01 0. -1.
         -5   -1    0    0    0  501 -0.00000000000E+00 -0.00000000000E+00 -0.44066395911E+03  0.44068902285E+03  0.47000000000E+01 0. -1.
         25    2    1    2    0    0 -0.10275293030E+03  0.74582745176E+02 -0.18725937155E+03  0.25847764753E+03  0.12499548583E+03 0.  0.
         25    2    1    2    0    0  0.10275293030E+03 -0.74582745176E+02 -0.18146104191E+03  0.25430828067E+03  0.12499536521E+03 0.  0.
          5    1    4    4  502    0  0.55372029420E+02 -0.41686747813E+01 -0.20327397063E+01  0.55764339163E+02  0.47000000000E+01 0.  1.
         -5    1    4    4    0  502  0.47380900877E+02 -0.70414070395E+02 -0.17942830220E+03  0.19854394150E+03  0.47000000000E+01 0.  1.
          5    1    3    3  503    0 -0.32839208273E+02 -0.33869790080E+02 -0.35535966748E+02  0.59249229639E+02  0.47000000000E+01 0.  1.
         -5    1    3    3    0  503 -0.69913722024E+02  0.10845253526E+03 -0.15172340480E+03  0.19922841789E+03  0.47000000000E+01 0.  1.
<mgrwt>
<rscale>  0 0.17817018E+03</rscale>
<asrwt>0</asrwt>
<pdfrwt beam="1">  1        5 0.11081963E-01 0.17817021E+03</pdfrwt>
<pdfrwt beam="2">  1       -5 0.67808178E-01 0.17817021E+03</pdfrwt>
<totfact> 0.10309112E+02</totfact>
</mgrwt>
</event>
<event>
 8    1  0.3573290E-007  0.1594879E+03  0.7546771E-02  0.1189282E+00
         -5   -1    0    0    0  501 -0.00000000000E+00  0.00000000000E+00  0.61982029774E+03  0.61983811716E+03  0.47000000000E+01 0.  1.
          5   -1    0    0  501    0  0.00000000000E+00 -0.00000000000E+00 -0.41085985332E+02  0.41353938031E+02  0.47000000000E+01 0.  1.
         25    2    1    2    0    0 -0.98767570750E+02  0.74430175457E+01  0.31269869271E+03  0.35102260547E+03  0.12500386230E+03 0.  0.
         25    2    1    2    0    0  0.98767570750E+02 -0.74430175457E+01  0.26603561970E+03  0.31016944972E+03  0.12497881841E+03 0.  0.
          5    1    4    4  502    0  0.90733521857E+02 -0.41343392789E+01  0.27924053566E+03  0.29367844917E+03  0.47000000000E+01 0. -1.
         -5    1    4    4    0  502  0.80340488927E+01 -0.33086782668E+01 -0.13204915966E+02  0.16491000551E+02  0.47000000000E+01 0. -1.
          5    1    3    3  503    0 -0.41511634734E+02  0.62138050934E+02  0.19694865694E+03  0.21070172439E+03  0.47000000000E+01 0.  1.
         -5    1    3    3    0  503 -0.57255936016E+02 -0.54695033388E+02  0.11575003577E+03  0.14032088108E+03  0.47000000000E+01 0.  1.
<mgrwt>
<rscale>  0 0.15948301E+03</rscale>
<asrwt>0</asrwt>
<pdfrwt beam="2">  1        5 0.63429042E-02 0.15948792E+03</pdfrwt>
<pdfrwt beam="1">  1       -5 0.95378938E-01 0.15948792E+03</pdfrwt>
<totfact> 0.11828909E+02</totfact>
</mgrwt>
</event>
<event>
 8    1  0.3573290E-007  0.1422807E+03  0.7546771E-02  0.1210295E+00
          5   -1    0    0  501    0  0.00000000000E+00  0.00000000000E+00  0.29171413949E+03  0.29175199945E+03  0.47000000000E+01 0.  1.
         -5   -1    0    0    0  501 -0.00000000000E+00 -0.00000000000E+00 -0.76381156658E+02  0.76525623764E+02  0.47000000000E+01 0.  1.
         25    2    1    2    0    0 -0.45028340719E+02  0.50894473087E+02  0.51553067699E+02  0.15133251234E+03  0.12500404651E+03 0.  0.
         25    2    1    2    0    0  0.45028340719E+02 -0.50894473087E+02  0.16377991514E+03  0.21694511087E+03  0.12499408654E+03 0.  0.
          5    1    4    4  502    0 -0.64344901211E+01 -0.79229953367E+02  0.69153191000E+02  0.10546583333E+03  0.47000000000E+01 0.  1.
         -5    1    4    4    0  502  0.51462830840E+02  0.28335480280E+02  0.94626724136E+02  0.11147927754E+03  0.47000000000E+01 0.  1.
          5    1    3    3  503    0  0.31637905315E+02  0.56688060103E+02  0.27227875426E+02  0.70554520841E+02  0.47000000000E+01 0. -1.
         -5    1    3    3    0  503 -0.76666246035E+02 -0.57935870156E+01  0.24325192274E+02  0.80777991500E+02  0.47000000000E+01 0. -1.
<mgrwt>
<rscale>  0 0.14227856E+03</rscale>
<asrwt>0</asrwt>
<pdfrwt beam="1">  1        5 0.44893123E-01 0.14228075E+03</pdfrwt>
<pdfrwt beam="2">  1       -5 0.11764973E-01 0.14228075E+03</pdfrwt>
<totfact> 0.21100567E+02</totfact>
</mgrwt>
</event>
<event>
 8    1  0.3573290E-007  0.1659733E+03  0.7546771E-02  0.1182113E+00
          5   -1    0    0  501    0  0.00000000000E+00  0.00000000000E+00  0.35493719453E+03  0.35496831135E+03  0.47000000000E+01 0. -1.
         -5   -1    0    0    0  501 -0.00000000000E+00 -0.00000000000E+00 -0.83930447993E+02  0.84061942044E+02  0.47000000000E+01 0. -1.
         25    2    1    2    0    0 -0.78171959726E+02  0.76223776744E+02  0.74828067259E+02  0.18206149583E+03  0.12500491664E+03 0.  0.
         25    2    1    2    0    0  0.78171959726E+02 -0.76223776744E+02  0.19617867928E+03  0.25696875757E+03  0.12500379488E+03 0.  0.
          5    1    3    3  502    0 -0.76019421700E+02  0.10840667266E+03  0.67329601697E+02  0.14861468439E+03  0.47000000000E+01 0. -1.
         -5    1    3    3    0  502 -0.21525380258E+01 -0.32182895913E+02  0.74984655615E+01  0.33446811434E+02  0.47000000000E+01 0. -1.
          5    1    4    4  503    0  0.97188161237E+02 -0.15339240924E+02  0.92361506299E+02  0.13503173272E+03  0.47000000000E+01 0.  1.
         -5    1    4    4    0  503 -0.19016201511E+02 -0.60884535820E+02  0.10381717298E+03  0.12193702485E+03  0.47000000000E+01 0.  1.
<mgrwt>
<rscale>  0 0.16597313E+03</rscale>
<asrwt>0</asrwt>
<pdfrwt beam="1">  1        5 0.54618230E-01 0.16597334E+03</pdfrwt>
<pdfrwt beam="2">  1       -5 0.12924885E-01 0.16597334E+03</pdfrwt>
<totfact> 0.12370153E+02</totfact>
</mgrwt>
</event>
<event>
 8    1  0.3573290E-007  0.1488772E+03  0.7546771E-02  0.1201861E+00
          5   -1    0    0  501    0  0.00000000000E+00  0.00000000000E+00  0.39267570506E+03  0.39270383159E+03  0.47000000000E+01 0. -1.
         -5   -1    0    0    0  501 -0.00000000000E+00 -0.00000000000E+00 -0.59752334912E+02  0.59936896211E+02  0.47000000000E+01 0. -1.
         25    2    1    2    0    0 -0.71631085446E+02  0.37518430877E+02  0.11227290795E+03  0.18646211618E+03  0.12499707938E+03 0.  0.
         25    2    1    2    0    0  0.71631085446E+02 -0.37518430877E+02  0.22065046220E+03  0.26617861162E+03  0.12500312700E+03 0.  0.
          5    1    4    4  502    0  0.32679338068E+02  0.10893274973E+02  0.19617259987E+03  0.19922946950E+03  0.47000000000E+01 0.  1.
         -5    1    4    4    0  502  0.38951747378E+02 -0.48411705850E+02  0.24477862329E+02  0.66949142125E+02  0.47000000000E+01 0.  1.
          5    1    3    3  503    0 -0.10213156852E+03  0.10769790789E+02  0.56415526821E+02  0.11726741811E+03  0.47000000000E+01 0. -1.
         -5    1    3    3    0  503  0.30500483079E+02  0.26748640088E+02  0.55857381127E+02  0.69194698070E+02  0.47000000000E+01 0. -1.
<mgrwt>
<rscale>  0 0.14887595E+03</rscale>
<asrwt>0</asrwt>
<pdfrwt beam="1">  1        5 0.60428009E-01 0.14887722E+03</pdfrwt>
<pdfrwt beam="2">  1       -5 0.92090273E-02 0.14887722E+03</pdfrwt>
<totfact> 0.17434013E+02</totfact>
</mgrwt>
</event>
<event>
 8    1  0.3573290E-007  0.1281910E+03  0.7546771E-02  0.1230180E+00
          5   -1    0    0  501    0  0.00000000000E+00  0.00000000000E+00  0.56538881923E+03  0.56540835412E+03  0.47000000000E+01 0. -1.
         -5   -1    0    0    0  501 -0.00000000000E+00 -0.00000000000E+00 -0.29063434987E+02  0.29441013115E+02  0.47000000000E+01 0. -1.
         25    2    1    2    0    0 -0.27736816372E+02  0.53358906618E+01  0.24253878344E+03  0.27431308066E+03  0.12499920816E+03 0.  0.
         25    2    1    2    0    0  0.27736816372E+02 -0.53358906618E+01  0.29378660080E+03  0.32053628657E+03  0.12504055936E+03 0.  0.
          5    1    3    3  502    0  0.15935247282E+02  0.57296419498E+02  0.10183413059E+03  0.11802157407E+03  0.47000000000E+01 0. -1.
         -5    1    3    3    0  502 -0.43672063653E+02 -0.51960528836E+02  0.14070465284E+03  0.15629150659E+03  0.47000000000E+01 0. -1.
          5    1    4    4  503    0  0.13741484484E+02  0.24462068382E+02  0.38603750992E+01  0.28709121917E+02  0.47000000000E+01 0. -1.
         -5    1    4    4    0  503  0.13995331888E+02 -0.29797959044E+02  0.28992622571E+03  0.29182716465E+03  0.47000000000E+01 0. -1.
<mgrwt>
<rscale>  0 0.12818096E+03</rscale>
<asrwt>0</asrwt>
<pdfrwt beam="1">  1        5 0.87013443E-01 0.12819105E+03</pdfrwt>
<pdfrwt beam="2">  1       -5 0.45018448E-02 0.12819105E+03</pdfrwt>
<totfact> 0.24283063E+02</totfact>
</mgrwt>
</event>
<event>
 8    1  0.3573290E-007  0.1334033E+03  0.7546771E-02  0.1222492E+00
          5   -1    0    0  501    0  0.00000000000E+00  0.00000000000E+00  0.69108701806E+02  0.69268338115E+02  0.47000000000E+01 0.  1.
         -5   -1    0    0    0  501 -0.00000000000E+00 -0.00000000000E+00 -0.33844679546E+03  0.33847942826E+03  0.47000000000E+01 0.  1.
         25    2    1    2    0    0  0.31289934470E+02 -0.34526534821E+02 -0.23463206798E+03  0.26990489177E+03  0.12500120668E+03 0.  0.
         25    2    1    2    0    0 -0.31289934470E+02  0.34526534821E+02 -0.34706025673E+02  0.13784287460E+03  0.12500003302E+03 0.  0.
          5    1    4    4  502    0  0.19929359023E+02 -0.20865436213E+02 -0.52587506104E+02  0.60167113756E+02  0.47000000000E+01 0.  1.
         -5    1    4    4    0  502 -0.51219293493E+02  0.55391971035E+02  0.17881480431E+02  0.77675760849E+02  0.47000000000E+01 0.  1.
          5    1    3    3  503    0  0.35309568268E+01 -0.66940985130E+02 -0.20981685856E+03  0.22031515446E+03  0.47000000000E+01 0.  1.
         -5    1    3    3    0  503  0.27758977643E+02  0.32414450309E+02 -0.24815209417E+02  0.49589737316E+02  0.47000000000E+01 0.  1.
<mgrwt>
<rscale>  0 0.13340304E+03</rscale>
<asrwt>0</asrwt>
<pdfrwt beam="1">  1        5 0.10646898E-01 0.13340331E+03</pdfrwt>
<pdfrwt beam="2">  1       -5 0.52083527E-01 0.13340331E+03</pdfrwt>
<totfact> 0.18003248E+02</totfact>
</mgrwt>
</event>
<event>
 8    1  0.3573290E-007  0.1315202E+03  0.7546771E-02  0.1225218E+00
          5   -1    0    0  501    0  0.00000000000E+00  0.00000000000E+00  0.74532974434E+02  0.74681016851E+02  0.47000000000E+01 0.  1.
         -5   -1    0    0    0  501 -0.00000000000E+00 -0.00000000000E+00 -0.23729280561E+03  0.23733934691E+03  0.47000000000E+01 0.  1.
         25    2    1    2    0    0  0.13430938853E+02 -0.38624189873E+02 -0.10537192050E+03  0.16852495362E+03  0.12500080081E+03 0.  0.
         25    2    1    2    0    0 -0.13430938853E+02  0.38624189873E+02 -0.57387910677E+02  0.14349541014E+03  0.12500136910E+03 0.  0.
          5    1    3    3  502    0  0.52478982684E+02 -0.56167564038E+02 -0.98312422719E+02  0.12488499243E+03  0.47000000000E+01 0.  1.
         -5    1    3    3    0  502 -0.39048043831E+02  0.17543374165E+02 -0.70594977774E+01  0.43639961193E+02  0.47000000000E+01 0.  1.
          5    1    4    4  503    0 -0.25968061645E+02 -0.37907910945E+02  0.11713053905E+01  0.46204024653E+02  0.47000000000E+01 0.  1.
         -5    1    4    4    0  503  0.12537122792E+02  0.76532100818E+02 -0.58559216067E+02  0.97291385487E+02  0.47000000000E+01 0.  1.
<mgrwt>
<rscale>  0 0.13152006E+03</rscale>
<asrwt>0</asrwt>
<pdfrwt beam="1">  1        5 0.11481579E-01 0.13152019E+03</pdfrwt>
<pdfrwt beam="2">  1       -5 0.36521553E-01 0.13152019E+03</pdfrwt>
<totfact> 0.32732809E+02</totfact>
</mgrwt>
</event>
<event>
 8    1  0.3573290E-007  0.1700129E+03  0.7546771E-02  0.1177836E+00
         -5   -1    0    0    0  501 -0.00000000000E+00  0.00000000000E+00  0.54433266554E+03  0.54435295606E+03  0.47000000000E+01 0. -1.
          5   -1    0    0  501    0  0.00000000000E+00 -0.00000000000E+00 -0.60910658353E+02  0.61091720396E+02  0.47000000000E+01 0. -1.
         25    2    1    2    0    0  0.11473637817E+02 -0.11465340207E+03  0.35079572326E+03  0.38981975459E+03  0.12499901854E+03 0.  0.
         25    2    1    2    0    0 -0.11473637817E+02  0.11465340207E+03  0.13262628393E+03  0.21562492187E+03  0.12500931474E+03 0.  0.
          5    1    4    4  502    0 -0.30389123509E+01  0.10913468060E+03  0.15557740638E+03  0.19012110055E+03  0.47000000000E+01 0. -1.
         -5    1    4    4    0  502 -0.84347254660E+01  0.55187214702E+01 -0.22951122451E+02  0.25503821324E+02  0.47000000000E+01 0. -1.
          5    1    3    3  503    0  0.39418344662E+02 -0.82730559019E+02  0.10123046736E+03  0.13663033636E+03  0.47000000000E+01 0. -1.
         -5    1    3    3    0  503 -0.27944706845E+02 -0.31922843055E+02  0.24956525590E+03  0.25318941823E+03  0.47000000000E+01 0. -1.
<mgrwt>
<rscale>  0 0.17001098E+03</rscale>
<asrwt>0</asrwt>
<pdfrwt beam="2">  1        5 0.93863591E-02 0.17001287E+03</pdfrwt>
<pdfrwt beam="1">  1       -5 0.83758977E-01 0.17001287E+03</pdfrwt>
<totfact> 0.83783332E+01</totfact>
</mgrwt>
</event>
<event>
 8    1  0.3573290E-007  0.1380270E+03  0.7546771E-02  0.1216011E+00
          5   -1    0    0  501    0  0.00000000000E+00  0.00000000000E+00  0.22347567493E+03  0.22352509319E+03  0.47000000000E+01 0. -1.
         -5   -1    0    0    0  501 -0.00000000000E+00 -0.00000000000E+00 -0.12432949577E+03  0.12441830058E+03  0.47000000000E+01 0. -1.
         25    2    1    2    0    0 -0.14691583433E+02  0.56649624275E+02 -0.48059499610E+02  0.14614900486E+03  0.12499917425E+03 0.  0.
         25    2    1    2    0    0  0.14691583433E+02 -0.56649624275E+02  0.14720567877E+03  0.20179438891E+03  0.12500576379E+03 0.  0.
          5    1    3    3  502    0 -0.41912021117E+02  0.86927704071E+02 -0.28490751686E+02  0.10073160468E+03  0.47000000000E+01 0. -1.
         -5    1    3    3    0  502  0.27220437684E+02 -0.30278079796E+02 -0.19568747924E+02  0.45417400180E+02  0.47000000000E+01 0. -1.
          5    1    4    4  503    0  0.41986881135E+02 -0.61977005127E+01  0.13679640286E+03  0.14330616007E+03  0.47000000000E+01 0. -1.
         -5    1    4    4    0  503 -0.27295297702E+02 -0.50451923763E+02  0.10409275910E+02  0.58488228841E+02  0.47000000000E+01 0. -1.
<mgrwt>
<rscale>  0 0.13802555E+03</rscale>
<asrwt>0</asrwt>
<pdfrwt beam="1">  1        5 0.34391505E-01 0.13802704E+03</pdfrwt>
<pdfrwt beam="2">  1       -5 0.19138247E-01 0.13802704E+03</pdfrwt>
<totfact> 0.14901848E+02</totfact>
</mgrwt>
</event>
<event>
 8    1  0.3573290E-007  0.1441775E+03  0.7546771E-02  0.1207816E+00
          5   -1    0    0  501    0  0.00000000000E+00  0.00000000000E+00  0.34163380315E+02  0.34485164267E+02  0.47000000000E+01 0. -1.
         -5   -1    0    0    0  501 -0.00000000000E+00 -0.00000000000E+00 -0.83838526769E+03  0.83839844173E+03  0.47000000000E+01 0. -1.
         25    2    1    2    0    0  0.59276635441E+02 -0.40591555007E+02 -0.63220079438E+03  0.64843271329E+03  0.12500298158E+03 0.  0.
         25    2    1    2    0    0 -0.59276635441E+02  0.40591555007E+02 -0.17202109300E+03  0.22445089271E+03  0.12500221178E+03 0.  0.
          5    1    4    4  502    0 -0.36217024817E+02 -0.39519413260E+02 -0.10264197274E+03  0.11589185251E+03  0.47000000000E+01 0. -1.
         -5    1    4    4    0  502 -0.23059610624E+02  0.80110968267E+02 -0.69379120262E+02  0.10855904019E+03  0.47000000000E+01 0. -1.
          5    1    3    3  503    0  0.84594299441E+02 -0.60661124479E+02 -0.55359864637E+03  0.56332008555E+03  0.47000000000E+01 0. -1.
         -5    1    3    3    0  503 -0.25317664000E+02  0.20069569472E+02 -0.78602148007E+02  0.85112627739E+02  0.47000000000E+01 0. -1.
<mgrwt>
<rscale>  0 0.14417729E+03</rscale>
<asrwt>0</asrwt>
<pdfrwt beam="1">  1        5 0.52816713E-02 0.14417746E+03</pdfrwt>
<pdfrwt beam="2">  1       -5 0.12900810E+00 0.14417746E+03</pdfrwt>
<totfact> 0.73224743E+01</totfact>
</mgrwt>
</event>
<event>
 8    1  0.3573290E-007  0.1250817E+03  0.7546771E-02  0.1234943E+00
          5   -1    0    0  501    0  0.00000000000E+00  0.00000000000E+00  0.25409272709E+03  0.25413619176E+03  0.47000000000E+01 0. -1.
         -5   -1    0    0    0  501 -0.00000000000E+00 -0.00000000000E+00 -0.66414503928E+02  0.66580600268E+02  0.47000000000E+01 0. -1.
         25    2    1    2    0    0  0.87843080874E-01 -0.46163173670E+01  0.49995747989E+02  0.13470341518E+03  0.12499646852E+03 0.  0.
         25    2    1    2    0    0 -0.87843080874E-01  0.46163173670E+01  0.13768247517E+03  0.18601337684E+03  0.12499277696E+03 0.  0.
          5    1    3    3  502    0  0.48177063373E+02  0.19919719325E+02 -0.10604121054E+02  0.53407509178E+02  0.47000000000E+01 0.  1.
         -5    1    3    3    0  502 -0.48089220292E+02 -0.24536036692E+02  0.60599869044E+02  0.81295906004E+02  0.47000000000E+01 0.  1.
          5    1    4    4  503    0 -0.51682321883E+02 -0.29490572066E+02  0.46176050072E+02  0.75465712984E+02  0.47000000000E+01 0.  1.
         -5    1    4    4    0  503  0.51594478802E+02  0.34106889433E+02  0.91506425100E+02  0.11054766386E+03  0.47000000000E+01 0.  1.
<mgrwt>
<rscale>  0 0.12508079E+03</rscale>
<asrwt>0</asrwt>
<pdfrwt beam="1">  1        5 0.39107309E-01 0.12508171E+03</pdfrwt>
<pdfrwt beam="2">  1       -5 0.10233736E-01 0.12508171E+03</pdfrwt>
<totfact> 0.34238561E+02</totfact>
</mgrwt>
</event>
<event>
 8    1  0.3573290E-007  0.1978325E+03  0.7546771E-02  0.1151581E+00
          5   -1    0    0  501    0  0.00000000000E+00  0.00000000000E+00  0.47110150426E+03  0.47112494873E+03  0.47000000000E+01 0.  1.
         -5   -1    0    0    0  501 -0.00000000000E+00 -0.00000000000E+00 -0.84826212742E+02  0.84956320355E+02  0.47000000000E+01 0.  1.
         25    2    1    2    0    0  0.13566828507E+01  0.15333305857E+03  0.15220810733E+03  0.24960917423E+03  0.12499825792E+03 0.  0.
         25    2    1    2    0    0 -0.13566828507E+01 -0.15333305857E+03  0.23406718419E+03  0.30647209485E+03  0.12499932309E+03 0.  0.
          5    1    4    4  502    0  0.16278455102E+02  0.18423621951E+02  0.32572321618E+02  0.41078754629E+02  0.47000000000E+01 0.  1.
         -5    1    4    4    0  502 -0.17635137953E+02 -0.17175668052E+03  0.20149486257E+03  0.26539334023E+03  0.47000000000E+01 0.  1.
          5    1    3    3  503    0 -0.55438571901E+02  0.36914180349E+02  0.66369670824E+02  0.94144119150E+02  0.47000000000E+01 0.  1.
         -5    1    3    3    0  503  0.56795254752E+02  0.11641887822E+03  0.85838436511E+02  0.15546505508E+03  0.47000000000E+01 0.  1.
<mgrwt>
<rscale>  0 0.19783233E+03</rscale>
<asrwt>0</asrwt>
<pdfrwt beam="1">  1        5 0.72488968E-01 0.19783250E+03</pdfrwt>
<pdfrwt beam="2">  1       -5 0.13061998E-01 0.19783250E+03</pdfrwt>
<totfact> 0.68072501E+01</totfact>
</mgrwt>
</event>
<event>
 8    1  0.3573290E-007  0.2048088E+03  0.7546771E-02  0.1145744E+00
          5   -1    0    0  501    0  0.00000000000E+00  0.00000000000E+00  0.67112661789E+03  0.67114307509E+03  0.47000000000E+01 0. -1.
         -5   -1    0    0    0  501 -0.00000000000E+00 -0.00000000000E+00 -0.62611953424E+02  0.62788109635E+02  0.47000000000E+01 0. -1.
         25    2    1    2    0    0 -0.54402899424E+02 -0.15284415347E+03  0.32577033306E+03  0.38480227652E+03  0.12500188557E+03 0.  0.
         25    2    1    2    0    0  0.54402899424E+02  0.15284415347E+03  0.28274433141E+03  0.34912890821E+03  0.12500250753E+03 0.  0.
          5    1    3    3  502    0  0.34153476747E+02 -0.40751332294E+02  0.14395100117E+03  0.15352886307E+03  0.47000000000E+01 0.  1.
         -5    1    3    3    0  502 -0.88556376171E+02 -0.11209282117E+03  0.18181933189E+03  0.23127341345E+03  0.47000000000E+01 0.  1.
          5    1    4    4  503    0  0.18880612955E+02  0.19734477558E+02 -0.67210679106E+01  0.28516484775E+02  0.47000000000E+01 0.  1.
         -5    1    4    4    0  503  0.35522286469E+02  0.13310967591E+03  0.28946539932E+03  0.32061242343E+03  0.47000000000E+01 0.  1.
<mgrwt>
<rscale>  0 0.20480869E+03</rscale>
<asrwt>0</asrwt>
<pdfrwt beam="1">  1        5 0.10326506E+00 0.20480878E+03</pdfrwt>
<pdfrwt beam="2">  1       -5 0.96474248E-02 0.20480878E+03</pdfrwt>
<totfact> 0.50748790E+01</totfact>
</mgrwt>
</event>
<event>
 8    1  0.3573290E-007  0.1366288E+03  0.7546771E-02  0.1217939E+00
          5   -1    0    0  501    0  0.00000000000E+00  0.00000000000E+00  0.20559917448E+03  0.20565288849E+03  0.47000000000E+01 0.  1.
         -5   -1    0    0    0  501 -0.00000000000E+00 -0.00000000000E+00 -0.94610068116E+02  0.94726738511E+02  0.47000000000E+01 0.  1.
         25    2    1    2    0    0  0.52818279653E+02  0.15916237339E+02  0.24865637694E+02  0.13887310409E+03  0.12499736727E+03 0.  0.
         25    2    1    2    0    0 -0.52818279653E+02 -0.15916237339E+02  0.86123468669E+02  0.16150652292E+03  0.12499603119E+03 0.  0.
          5    1    4    4  502    0 -0.80617496000E+02 -0.15066581856E+02  0.13049821507E+02  0.83177944141E+02  0.47000000000E+01 0. -1.
         -5    1    4    4    0  502  0.27799216347E+02 -0.84965548348E+00  0.73073647161E+02  0.78328578778E+02  0.47000000000E+01 0. -1.
          5    1    3    3  503    0  0.26713547224E+02  0.10327530511E+02  0.75804586862E+02  0.81170788348E+02  0.47000000000E+01 0. -1.
         -5    1    3    3    0  503  0.26104732429E+02  0.55887068286E+01 -0.50938949168E+02  0.57702315738E+02  0.47000000000E+01 0. -1.
<mgrwt>
<rscale>  0 0.13662853E+03</rscale>
<asrwt>0</asrwt>
<pdfrwt beam="1">  1        5 0.31643749E-01 0.13662884E+03</pdfrwt>
<pdfrwt beam="2">  1       -5 0.14568502E-01 0.13662884E+03</pdfrwt>
<totfact> 0.28873513E+02</totfact>
</mgrwt>
</event>
<event>
 8    1  0.3573290E-007  0.1416326E+03  0.7546771E-02  0.1211156E+00
          5   -1    0    0  501    0  0.00000000000E+00  0.00000000000E+00  0.23720413542E+03  0.23725069412E+03  0.47000000000E+01 0.  1.
         -5   -1    0    0    0  501 -0.00000000000E+00 -0.00000000000E+00 -0.85901714519E+02  0.86030195613E+02  0.47000000000E+01 0.  1.
         25    2    1    2    0    0 -0.34183083555E+02 -0.57133731803E+02  0.54552493002E+02  0.15177541180E+03  0.12500821822E+03 0.  0.
         25    2    1    2    0    0  0.34183083555E+02  0.57133731803E+02  0.96749927902E+02  0.17150547794E+03  0.12498333450E+03 0.  0.
          5    1    4    4  502    0  0.24310251595E+02 -0.37814077372E+02  0.39963045045E+02  0.60332642487E+02  0.47000000000E+01 0.  1.
         -5    1    4    4    0  502  0.98728319601E+01  0.94947809175E+02  0.56786882857E+02  0.11117283545E+03  0.47000000000E+01 0.  1.
          5    1    3    3  503    0 -0.78592173143E+02 -0.14828154837E+02  0.30513094004E+02  0.85730640735E+02  0.47000000000E+01 0.  1.
         -5    1    3    3    0  503  0.44409089588E+02 -0.42305576965E+02  0.24039398998E+02  0.66044771061E+02  0.47000000000E+01 0.  1.
<mgrwt>
<rscale>  0 0.14162714E+03</rscale>
<asrwt>0</asrwt>
<pdfrwt beam="1">  1        5 0.36506408E-01 0.14163263E+03</pdfrwt>
<pdfrwt beam="2">  1       -5 0.13229113E-01 0.14163263E+03</pdfrwt>
<totfact> 0.26128567E+02</totfact>
</mgrwt>
</event>
<event>
 8    1  0.3573290E-007  0.1317949E+03  0.7546771E-02  0.1224817E+00
         -5   -1    0    0    0  501 -0.00000000000E+00  0.00000000000E+00  0.91611685470E+02  0.91732169464E+02  0.47000000000E+01 0.  1.
          5   -1    0    0  501    0  0.00000000000E+00 -0.00000000000E+00 -0.20048503911E+03  0.20054012294E+03  0.47000000000E+01 0.  1.
         25    2    1    2    0    0 -0.36495965340E+02 -0.20335847300E+02 -0.19975606562E+02  0.13330010772E+03  0.12499756674E+03 0.  0.
         25    2    1    2    0    0  0.36495965340E+02  0.20335847300E+02 -0.88897747081E+02  0.15897218468E+03  0.12499537549E+03 0.  0.
          5    1    3    3  502    0 -0.73973025114E+02 -0.21996541595E-01  0.17709691165E+02  0.76208477806E+02  0.47000000000E+01 0. -1.
         -5    1    3    3    0  502  0.37477059774E+02 -0.20313850758E+02 -0.37685297727E+02  0.57091629918E+02  0.47000000000E+01 0. -1.
          5    1    4    4  503    0  0.72186579462E+02  0.25785154514E+02 -0.17409116134E+02  0.78746071472E+02  0.47000000000E+01 0.  1.
         -5    1    4    4    0  503 -0.35690614122E+02 -0.54493072147E+01 -0.71488630947E+02  0.80226113206E+02  0.47000000000E+01 0.  1.
<mgrwt>
<rscale>  0 0.13179437E+03</rscale>
<asrwt>0</asrwt>
<pdfrwt beam="2">  1        5 0.30857357E-01 0.13179489E+03</pdfrwt>
<pdfrwt beam="1">  1       -5 0.14107611E-01 0.13179489E+03</pdfrwt>
<totfact> 0.31752372E+02</totfact>
</mgrwt>
</event>
<event>
 8    1  0.3573290E-007  0.2027478E+03  0.7546771E-02  0.1147442E+00
         -5   -1    0    0    0  501 -0.00000000000E+00  0.00000000000E+00  0.68361433572E+03  0.68363049230E+03  0.47000000000E+01 0. -1.
          5   -1    0    0  501    0  0.00000000000E+00 -0.00000000000E+00 -0.60125267730E+02  0.60308687762E+02  0.47000000000E+01 0. -1.
         25    2    1    2    0    0 -0.14070304552E+03  0.75398283523E+02  0.32720424690E+03  0.38492474629E+03  0.12498877126E+03 0.  0.
         25    2    1    2    0    0  0.14070304552E+03 -0.75398283523E+02  0.29628482109E+03  0.35901443378E+03  0.12499768106E+03 0.  0.
          5    1    4    4  502    0 -0.18790774699E+02 -0.29507341201E+02  0.69496305139E+02  0.77946153379E+02  0.47000000000E+01 0. -1.
         -5    1    4    4    0  502  0.15949382022E+03 -0.45890942322E+02  0.22678851596E+03  0.28106828040E+03  0.47000000000E+01 0. -1.
          5    1    3    3  503    0  0.13996093525E+02 -0.16741511916E+02  0.29890075040E+02  0.37305166413E+02  0.47000000000E+01 0.  1.
         -5    1    3    3    0  503 -0.15469913905E+03  0.92139795439E+02  0.29731417186E+03  0.34761957987E+03  0.47000000000E+01 0.  1.
<mgrwt>
<rscale>  0 0.20274642E+03</rscale>
<asrwt>0</asrwt>
<pdfrwt beam="2">  1        5 0.92653930E-02 0.20274780E+03</pdfrwt>
<pdfrwt beam="1">  1       -5 0.10518679E+00 0.20274780E+03</pdfrwt>
<totfact> 0.51892406E+01</totfact>
</mgrwt>
</event>
<event>
 8    1  0.3573290E-007  0.1251631E+03  0.7546771E-02  0.1234820E+00
         -5   -1    0    0    0  501 -0.00000000000E+00  0.00000000000E+00  0.61671181414E+03  0.61672972337E+03  0.47000000000E+01 0.  1.
          5   -1    0    0  501    0  0.00000000000E+00 -0.00000000000E+00 -0.25647042234E+02  0.26074139973E+02  0.47000000000E+01 0.  1.
         25    2    1    2    0    0  0.50548009053E+01  0.39099615954E+01  0.33926496298E+03  0.36161185512E+03  0.12498631862E+03 0.  0.
         25    2    1    2    0    0 -0.50548009053E+01 -0.39099615954E+01  0.25179980892E+03  0.28119200823E+03  0.12499985164E+03 0.  0.
          5    1    4    4  502    0 -0.25812675310E+02 -0.38594014998E+02  0.23066286347E+03  0.23533643743E+03  0.47000000000E+01 0.  1.
         -5    1    4    4    0  502  0.20757874405E+02  0.34684053403E+02  0.21136945453E+02  0.45855570799E+02  0.47000000000E+01 0.  1.
          5    1    3    3  503    0  0.56450538870E+02 -0.17701463950E+02  0.10358844001E+03  0.11938450515E+03  0.47000000000E+01 0.  1.
         -5    1    3    3    0  503 -0.51395737965E+02  0.21611425546E+02  0.23567652297E+03  0.24222734997E+03  0.47000000000E+01 0.  1.
<mgrwt>
<rscale>  0 0.12515972E+03</rscale>
<asrwt>0</asrwt>
<pdfrwt beam="2">  1        5 0.39799302E-02 0.12516310E+03</pdfrwt>
<pdfrwt beam="1">  1       -5 0.94912971E-01 0.12516310E+03</pdfrwt>
<totfact> 0.23985883E+02</totfact>
</mgrwt>
</event>
<event>
 8    1  0.3573290E-007  0.1410948E+03  0.7546771E-02  0.1211864E+00
         -5   -1    0    0    0  501 -0.00000000000E+00  0.00000000000E+00  0.87045611656E+02  0.87172406808E+02  0.47000000000E+01 0. -1.
          5   -1    0    0  501    0  0.00000000000E+00 -0.00000000000E+00 -0.28893799299E+03  0.28897621666E+03  0.47000000000E+01 0. -1.
         25    2    1    2    0    0  0.58444185104E+02 -0.29436709976E+02 -0.14871499552E+02  0.14187407500E+03  0.12499939596E+03 0.  0.
         25    2    1    2    0    0 -0.58444185104E+02  0.29436709976E+02 -0.18702088178E+03  0.23427454847E+03  0.12500204466E+03 0.  0.
          5    1    4    4  502    0 -0.94800070947E+02  0.35759260033E+02 -0.11592005905E+03  0.15403028345E+03  0.47000000000E+01 0. -1.
         -5    1    4    4    0  502  0.36355885842E+02 -0.63225500573E+01 -0.71100822734E+02  0.80244265016E+02  0.47000000000E+01 0. -1.
          5    1    3    3  503    0  0.62170150334E+02 -0.68765015430E+02  0.12392687186E+02  0.93645200813E+02  0.47000000000E+01 0.  1.
         -5    1    3    3    0  503 -0.37259652296E+01  0.39328305454E+02 -0.27264186738E+02  0.48228874186E+02  0.47000000000E+01 0.  1.
<mgrwt>
<rscale>  0 0.14109425E+03</rscale>
<asrwt>0</asrwt>
<pdfrwt beam="2">  1        5 0.44464692E-01 0.14109484E+03</pdfrwt>
<pdfrwt beam="1">  1       -5 0.13404326E-01 0.14109484E+03</pdfrwt>
<totfact> 0.17016586E+02</totfact>
</mgrwt>
</event>
<event>
 8    1  0.3573290E-007  0.1476625E+03  0.7546771E-02  0.1203378E+00
         -5   -1    0    0    0  501 -0.00000000000E+00  0.00000000000E+00  0.19156658662E+03  0.19162423414E+03  0.47000000000E+01 0.  1.
          5   -1    0    0  501    0  0.00000000000E+00 -0.00000000000E+00 -0.12666568368E+03  0.12675285173E+03  0.47000000000E+01 0.  1.
         25    2    1    2    0    0 -0.61671567087E+02 -0.48741322711E+02  0.83371643000E+02  0.16956385136E+03  0.12498787983E+03 0.  0.
         25    2    1    2    0    0  0.61671567087E+02  0.48741322711E+02 -0.18470740064E+02  0.14881323451E+03  0.12500044720E+03 0.  0.
          5    1    3    3  502    0 -0.42619483615E+02 -0.19161511710E+02  0.11360928738E+03  0.12293390132E+03  0.47000000000E+01 0. -1.
         -5    1    3    3    0  502 -0.19052083472E+02 -0.29579811001E+02 -0.30237644377E+02  0.46629950042E+02  0.47000000000E+01 0. -1.
          5    1    4    4  503    0 -0.28904091176E+02  0.83217519729E+01 -0.36883073281E+02  0.47824148056E+02  0.47000000000E+01 0. -1.
         -5    1    4    4    0  503  0.90575658263E+02  0.40419570738E+02  0.18412333217E+02  0.10098908645E+03  0.47000000000E+01 0. -1.
<mgrwt>
<rscale>  0 0.14765983E+03</rscale>
<asrwt>0</asrwt>
<pdfrwt beam="2">  1        5 0.19498168E-01 0.14766249E+03</pdfrwt>
<pdfrwt beam="1">  1       -5 0.29482922E-01 0.14766249E+03</pdfrwt>
<totfact> 0.19964876E+02</totfact>
</mgrwt>
</event>
<event>
 8    1  0.3573290E-007  0.1277584E+03  0.7546771E-02  0.1230833E+00
          5   -1    0    0  501    0  0.00000000000E+00  0.00000000000E+00  0.82787478104E+02  0.82920784673E+02  0.47000000000E+01 0.  1.
         -5   -1    0    0    0  501 -0.00000000000E+00 -0.00000000000E+00 -0.28936857035E+03  0.28940673715E+03  0.47000000000E+01 0.  1.
         25    2    1    2    0    0 -0.87661370394E+01 -0.24886762017E+02 -0.20854919488E+03  0.24455397413E+03  0.12497073056E+03 0.  0.
         25    2    1    2    0    0  0.87661370394E+01  0.24886762017E+02  0.19681026344E+01  0.12777354769E+03  0.12500403985E+03 0.  0.
          5    1    3    3  502    0  0.29086870822E+02 -0.24791533054E+02 -0.20226283425E+03  0.20589562959E+03  0.47000000000E+01 0. -1.
         -5    1    3    3    0  502 -0.37853007861E+02 -0.95228962749E-01 -0.62863606294E+01  0.38658344541E+02  0.47000000000E+01 0. -1.
          5    1    4    4  503    0 -0.25434598966E+02  0.62843438067E+02 -0.21604729705E+02  0.71309682921E+02  0.47000000000E+01 0.  1.
         -5    1    4    4    0  503  0.34200736005E+02 -0.37956676050E+02  0.23572832340E+02  0.56463864768E+02  0.47000000000E+01 0.  1.
<mgrwt>
<rscale>  0 0.12775024E+03</rscale>
<asrwt>0</asrwt>
<pdfrwt beam="1">  1        5 0.12749726E-01 0.12775839E+03</pdfrwt>
<pdfrwt beam="2">  1       -5 0.44531431E-01 0.12775839E+03</pdfrwt>
<totfact> 0.17933896E+02</totfact>
</mgrwt>
</event>
<event>
 8    1  0.3573290E-007  0.1364766E+03  0.7546771E-02  0.1218151E+00
         -5   -1    0    0    0  501 -0.00000000000E+00  0.00000000000E+00  0.16344904230E+03  0.16351660291E+03  0.47000000000E+01 0. -1.
          5   -1    0    0  501    0  0.00000000000E+00 -0.00000000000E+00 -0.11703879449E+03  0.11713312690E+03  0.47000000000E+01 0. -1.
         25    2    1    2    0    0  0.28282605334E+02 -0.46916576688E+02  0.46481786282E+02  0.14417306287E+03  0.12499697864E+03 0.  0.
         25    2    1    2    0    0 -0.28282605334E+02  0.46916576688E+02 -0.71538477424E-01  0.13647666694E+03  0.12499921827E+03 0.  0.
          5    1    4    4  502    0  0.26118511586E+02  0.46283287115E+02 -0.41779072156E+02  0.67763560885E+02  0.47000000000E+01 0. -1.
         -5    1    4    4    0  502 -0.54401116920E+02  0.63328957330E+00  0.41707533679E+02  0.68713106052E+02  0.47000000000E+01 0. -1.
          5    1    3    3  503    0 -0.20655807284E+02 -0.47202944576E+02  0.72093514317E+02  0.88737507052E+02  0.47000000000E+01 0. -1.
         -5    1    3    3    0  503  0.48938412618E+02  0.28636788798E+00 -0.25611728036E+02  0.55435555820E+02  0.47000000000E+01 0. -1.
<mgrwt>
<rscale>  0 0.13647614E+03</rscale>
<asrwt>0</asrwt>
<pdfrwt beam="2">  1        5 0.18018422E-01 0.13647665E+03</pdfrwt>
<pdfrwt beam="1">  1       -5 0.25158460E-01 0.13647665E+03</pdfrwt>
<totfact> 0.30606324E+02</totfact>
</mgrwt>
</event>
<event>
 8    1  0.3573290E-007  0.1606053E+03  0.7546771E-02  0.1188018E+00
          5   -1    0    0  501    0  0.00000000000E+00  0.00000000000E+00  0.31899559877E+02  0.32243943933E+02  0.47000000000E+01 0. -1.
         -5   -1    0    0    0  501 -0.00000000000E+00 -0.00000000000E+00 -0.80440235037E+03  0.80441608094E+03  0.47000000000E+01 0. -1.
         25    2    1    2    0    0 -0.97487865269E+02 -0.25726663510E+02 -0.39720222268E+03  0.42843880220E+03  0.12499782574E+03 0.  0.
         25    2    1    2    0    0  0.97487865269E+02  0.25726663510E+02 -0.37530056782E+03  0.40822122268E+03  0.12501322070E+03 0.  0.
          5    1    4    4  502    0  0.62641059144E+02 -0.46925520962E+02 -0.15731873232E+03  0.17577593791E+03  0.47000000000E+01 0.  1.
         -5    1    4    4    0  502  0.34846806125E+02  0.72652184471E+02 -0.21798183549E+03  0.23244528477E+03  0.47000000000E+01 0.  1.
          5    1    3    3  503    0 -0.10186396066E+03  0.13328384806E+02 -0.17699415715E+03  0.20470206151E+03  0.47000000000E+01 0.  1.
         -5    1    3    3    0  503  0.43760953893E+01 -0.39055048315E+02 -0.22020806553E+03  0.22373674069E+03  0.47000000000E+01 0.  1.
<mgrwt>
<rscale>  0 0.16060227E+03</rscale>
<asrwt>0</asrwt>
<pdfrwt beam="1">  1        5 0.49351725E-02 0.16060526E+03</pdfrwt>
<pdfrwt beam="2">  1       -5 0.12378174E+00 0.16060526E+03</pdfrwt>
<totfact> 0.94293429E+01</totfact>
</mgrwt>
</event>
<event>
 8    1  0.3573290E-007  0.1305624E+03  0.7546771E-02  0.1226642E+00
          5   -1    0    0  501    0  0.00000000000E+00  0.00000000000E+00  0.68951867453E+02  0.69111866023E+02  0.47000000000E+01 0.  1.
         -5   -1    0    0    0  501 -0.00000000000E+00 -0.00000000000E+00 -0.27133585017E+03  0.27137655313E+03  0.47000000000E+01 0.  1.
         25    2    1    2    0    0  0.66991568961E+01 -0.36898965891E+02 -0.15253215049E+03  0.20077996886E+03  0.12506049166E+03 0.  0.
         25    2    1    2    0    0 -0.66991568961E+01  0.36898965891E+02 -0.49851832228E+02  0.13970845029E+03  0.12500733387E+03 0.  0.
          5    1    3    3  502    0  0.65496175170E+02 -0.14385871692E+02 -0.73022064655E+02  0.99252275503E+02  0.47000000000E+01 0. -1.
         -5    1    3    3    0  502 -0.58797018273E+02 -0.22513094199E+02 -0.79510085839E+02  0.10152769336E+03  0.47000000000E+01 0. -1.
          5    1    4    4  503    0  0.19209066012E+02 -0.40067079358E+02 -0.74147526700E+00  0.44687793086E+02  0.47000000000E+01 0. -1.
         -5    1    4    4    0  503 -0.25908222908E+02  0.76966045249E+02 -0.49110356961E+02  0.95020657208E+02  0.47000000000E+01 0. -1.
<mgrwt>
<rscale>  0 0.13054966E+03</rscale>
<asrwt>0</asrwt>
<pdfrwt beam="1">  1        5 0.10623418E-01 0.13056239E+03</pdfrwt>
<pdfrwt beam="2">  1       -5 0.41759415E-01 0.13056239E+03</pdfrwt>
<totfact> 0.28487369E+02</totfact>
</mgrwt>
</event>
<event>
 8    1  0.3573290E-007  0.1453334E+03  0.7546771E-02  0.1206327E+00
          5   -1    0    0  501    0  0.00000000000E+00  0.00000000000E+00  0.81683654360E+02  0.81818759399E+02  0.47000000000E+01 0. -1.
         -5   -1    0    0    0  501 -0.00000000000E+00 -0.00000000000E+00 -0.25996187642E+03  0.26000435995E+03  0.47000000000E+01 0. -1.
         25    2    1    2    0    0  0.31354241533E+02  0.67183596527E+02 -0.10316390246E+03  0.17822614600E+03  0.12500017696E+03 0.  0.
         25    2    1    2    0    0 -0.31354241533E+02 -0.67183596527E+02 -0.75114319599E+02  0.16359697335E+03  0.12500033831E+03 0.  0.
          5    1    3    3  502    0 -0.31682090620E+01 -0.16497156410E+02 -0.83722690245E+02  0.85520597403E+02  0.47000000000E+01 0. -1.
         -5    1    3    3    0  502  0.34522450595E+02  0.83680752938E+02 -0.19441212218E+02  0.92705548592E+02  0.47000000000E+01 0. -1.
          5    1    4    4  503    0  0.59655254066E+00 -0.97440870303E+02 -0.34343245978E+02  0.10342450205E+03  0.47000000000E+01 0.  1.
         -5    1    4    4    0  503 -0.31950794074E+02  0.30257273775E+02 -0.40771073620E+02  0.60172471301E+02  0.47000000000E+01 0.  1.
<mgrwt>
<rscale>  0 0.14533340E+03</rscale>
<asrwt>0</asrwt>
<pdfrwt beam="1">  1        5 0.12580377E-01 0.14533344E+03</pdfrwt>
<pdfrwt beam="2">  1       -5 0.40007795E-01 0.14533344E+03</pdfrwt>
<totfact> 0.23935032E+02</totfact>
</mgrwt>
</event>
<event>
 8    1  0.3573290E-007  0.1460966E+03  0.7546771E-02  0.1205354E+00
         -5   -1    0    0    0  501 -0.00000000000E+00  0.00000000000E+00  0.11824322140E+03  0.11833659369E+03  0.47000000000E+01 0.  1.
          5   -1    0    0  501    0  0.00000000000E+00 -0.00000000000E+00 -0.27392228951E+03  0.27396260820E+03  0.47000000000E+01 0.  1.
         25    2    1    2    0    0  0.58810645782E+02 -0.47545371152E+02  0.36795423853E+02  0.15065898075E+03  0.12499988355E+03 0.  0.
         25    2    1    2    0    0 -0.58810645782E+02  0.47545371152E+02 -0.19247449196E+03  0.24164022114E+03  0.12499724813E+03 0.  0.
          5    1    4    4  502    0 -0.68183131173E+02  0.52908823574E+02 -0.20618383029E+03  0.22356686889E+03  0.47000000000E+01 0. -1.
         -5    1    4    4    0  502  0.93724853902E+01 -0.53634524220E+01  0.13709338331E+02  0.18073352255E+02  0.47000000000E+01 0. -1.
          5    1    3    3  503    0  0.29093515323E+02 -0.81829198293E+02 -0.72177608314E+01  0.87273343001E+02  0.47000000000E+01 0.  1.
         -5    1    3    3    0  503  0.29717130459E+02  0.34283827141E+02  0.44013184685E+02  0.63385637745E+02  0.47000000000E+01 0.  1.
<mgrwt>
<rscale>  0 0.14609607E+03</rscale>
<asrwt>0</asrwt>
<pdfrwt beam="2">  1        5 0.42152174E-01 0.14609663E+03</pdfrwt>
<pdfrwt beam="1">  1       -5 0.18201549E-01 0.14609663E+03</pdfrwt>
<totfact> 0.11018773E+02</totfact>
</mgrwt>
</event>
<event>
 8    1  0.3573290E-007  0.1273909E+03  0.7546771E-02  0.1231395E+00
         -5   -1    0    0    0  501 -0.00000000000E+00  0.00000000000E+00  0.32602633117E+03  0.32606020705E+03  0.47000000000E+01 0. -1.
          5   -1    0    0  501    0  0.00000000000E+00 -0.00000000000E+00 -0.61429375331E+02  0.61608912939E+02  0.47000000000E+01 0. -1.
         25    2    1    2    0    0 -0.22531868305E+02 -0.97431812018E+01  0.21716577918E+03  0.25177256060E+03  0.12500332778E+03 0.  0.
         25    2    1    2    0    0  0.22531868305E+02  0.97431812018E+01  0.47431176666E+02  0.13589655939E+03  0.12496216893E+03 0.  0.
          5    1    3    3  502    0  0.97600401553E+01 -0.61057471201E+02  0.76159374069E+02  0.98212083940E+02  0.47000000000E+01 0.  1.
         -5    1    3    3    0  502 -0.32291908460E+02  0.51314289999E+02  0.14100640511E+03  0.15356047666E+03  0.47000000000E+01 0.  1.
          5    1    4    4  503    0  0.53951107891E+02  0.78223276386E+01 -0.22422928186E+02  0.59133649987E+02  0.47000000000E+01 0. -1.
         -5    1    4    4    0  503 -0.31419239586E+02  0.19208535632E+01  0.69854104852E+02  0.76762909398E+02  0.47000000000E+01 0. -1.
<mgrwt>
<rscale>  0 0.12738082E+03</rscale>
<asrwt>0</asrwt>
<pdfrwt beam="2">  1        5 0.94670897E-02 0.12739092E+03</pdfrwt>
<pdfrwt beam="1">  1       -5 0.50174313E-01 0.12739092E+03</pdfrwt>
<totfact> 0.23533866E+02</totfact>
</mgrwt>
</event>
<event>
 8    1  0.3573290E-007  0.1361208E+03  0.7546771E-02  0.1218653E+00
         -5   -1    0    0    0  501 -0.00000000000E+00  0.00000000000E+00  0.28552546926E+02  0.28936792082E+02  0.47000000000E+01 0. -1.
          5   -1    0    0  501    0  0.00000000000E+00 -0.00000000000E+00 -0.69338857581E+03  0.69340450465E+03  0.47000000000E+01 0. -1.
         25    2    1    2    0    0 -0.44153292517E+02 -0.30888119146E+02 -0.23614659939E+03  0.27255966889E+03  0.12497986862E+03 0.  0.
         25    2    1    2    0    0  0.44153292517E+02  0.30888119146E+02 -0.42868942950E+03  0.44978162784E+03  0.12500118653E+03 0.  0.
          5    1    3    3  502    0  0.43307372574E+02 -0.14964989396E+02 -0.65292302755E+02  0.79904031350E+02  0.47000000000E+01 0. -1.
         -5    1    3    3    0  502 -0.87460665090E+02 -0.15923129750E+02 -0.17085429663E+03  0.19265563754E+03  0.47000000000E+01 0. -1.
          5    1    4    4  503    0  0.29003029042E+02  0.62356211131E+01 -0.12454366898E+02  0.32515533505E+02  0.47000000000E+01 0. -1.
         -5    1    4    4    0  503  0.15150263475E+02  0.24652498033E+02 -0.41623506260E+03  0.41726609433E+03  0.47000000000E+01 0. -1.
<mgrwt>
<rscale>  0 0.13611596E+03</rscale>
<asrwt>0</asrwt>
<pdfrwt beam="2">  1        5 0.10670594E+00 0.13612085E+03</pdfrwt>
<pdfrwt beam="1">  1       -5 0.44234827E-02 0.13612085E+03</pdfrwt>
<totfact> 0.15603658E+02</totfact>
</mgrwt>
</event>
<event>
 8    1  0.3573290E-007  0.1655724E+03  0.7546771E-02  0.1182547E+00
          5   -1    0    0  501    0  0.00000000000E+00  0.00000000000E+00  0.17402768975E+04  0.17402832442E+04  0.47000000000E+01 0.  1.
         -5   -1    0    0    0  501 -0.00000000000E+00 -0.00000000000E+00 -0.16102387966E+02  0.16774292778E+02  0.47000000000E+01 0.  1.
         25    2    1    2    0    0  0.10846224935E+03  0.45626984259E+01  0.68180585221E+03  0.70162200118E+03  0.12501733755E+03 0.  0.
         25    2    1    2    0    0 -0.10846224935E+03 -0.45626984259E+01  0.10423686574E+04  0.10554355358E+04  0.12500749837E+03 0.  0.
          5    1    3    3  502    0  0.53118397340E+02 -0.43422114202E+01  0.74525070234E+02  0.91741457528E+02  0.47000000000E+01 0. -1.
         -5    1    3    3    0  502  0.55343852014E+02  0.89049098462E+01  0.60728078197E+03  0.60988054366E+03  0.47000000000E+01 0. -1.
          5    1    4    4  503    0 -0.83026180510E+02  0.12367182757E+02  0.99698177887E+03  0.10005203902E+04  0.47000000000E+01 0. -1.
         -5    1    4    4    0  503 -0.25436068844E+02 -0.16929881183E+02  0.45386878482E+02  0.54915145574E+02  0.47000000000E+01 0. -1.
<mgrwt>
<rscale>  0 0.16557052E+03</rscale>
<asrwt>0</asrwt>
<pdfrwt beam="1">  1        5 0.26778694E+00 0.16557238E+03</pdfrwt>
<pdfrwt beam="2">  1       -5 0.25294650E-02 0.16557238E+03</pdfrwt>
<totfact> 0.26679897E+01</totfact>
</mgrwt>
</event>
<event>
 8    1  0.3573290E-007  0.1347169E+03  0.7546771E-02  0.1220621E+00
          5   -1    0    0  501    0  0.00000000000E+00  0.00000000000E+00  0.81643247183E+02  0.81778418978E+02  0.47000000000E+01 0.  1.
         -5   -1    0    0    0  501 -0.00000000000E+00 -0.00000000000E+00 -0.24347412368E+03  0.24351948362E+03  0.47000000000E+01 0.  1.
         25    2    1    2    0    0 -0.36733779883E+02  0.34265766132E+02 -0.12926245167E+03  0.18670015634E+03  0.12499861460E+03 0.  0.
         25    2    1    2    0    0  0.36733779883E+02 -0.34265766132E+02 -0.32568424829E+02  0.13859774626E+03  0.12500047863E+03 0.  0.
          5    1    3    3  502    0 -0.37639335669E+02  0.79887386437E+02 -0.78103450116E+02  0.11798708837E+03  0.47000000000E+01 0. -1.
         -5    1    3    3    0  502  0.90555578510E+00 -0.45621620305E+02 -0.51159001553E+02  0.68713067974E+02  0.47000000000E+01 0. -1.
          5    1    4    4  503    0  0.72560770088E+02  0.40494526898E+01  0.63651661914E+01  0.73103137850E+02  0.47000000000E+01 0. -1.
         -5    1    4    4    0  503 -0.35826990205E+02 -0.38315218822E+02 -0.38933591020E+02  0.65494608406E+02  0.47000000000E+01 0. -1.
<mgrwt>
<rscale>  0 0.13471643E+03</rscale>
<asrwt>0</asrwt>
<pdfrwt beam="1">  1        5 0.12574387E-01 0.13471686E+03</pdfrwt>
<pdfrwt beam="2">  1       -5 0.37471444E-01 0.13471686E+03</pdfrwt>
<totfact> 0.26678713E+02</totfact>
</mgrwt>
</event>
<event>
 8    1  0.3573290E-007  0.1462764E+03  0.7546771E-02  0.1205125E+00
         -5   -1    0    0    0  501 -0.00000000000E+00  0.00000000000E+00  0.16716205767E+03  0.16722811822E+03  0.47000000000E+01 0.  1.
          5   -1    0    0  501    0  0.00000000000E+00 -0.00000000000E+00 -0.13216206694E+03  0.13224561217E+03  0.47000000000E+01 0.  1.
         25    2    1    2    0    0 -0.75845464947E+02 -0.44520945153E+01  0.44482467045E+02  0.15289027515E+03  0.12499756263E+03 0.  0.
         25    2    1    2    0    0  0.75845464947E+02  0.44520945153E+01 -0.94824763201E+01  0.14658345525E+03  0.12499774516E+03 0.  0.
          5    1    4    4  502    0  0.14634226643E+02  0.42289454200E+02  0.39116083516E+02  0.59621443421E+02  0.47000000000E+01 0.  1.
         -5    1    4    4    0  502  0.61211238304E+02 -0.37837359685E+02 -0.48598559836E+02  0.86962011825E+02  0.47000000000E+01 0.  1.
          5    1    3    3  503    0 -0.49232872240E+02 -0.15102614875E+02 -0.38824943473E+02  0.64663984727E+02  0.47000000000E+01 0. -1.
         -5    1    3    3    0  503 -0.26612592707E+02  0.10650520360E+02  0.83307410518E+02  0.88226290422E+02  0.47000000000E+01 0. -1.
<mgrwt>
<rscale>  0 0.14627638E+03</rscale>
<asrwt>0</asrwt>
<pdfrwt beam="2">  1        5 0.20344134E-01 0.14627642E+03</pdfrwt>
<pdfrwt beam="1">  1       -5 0.25728748E-01 0.14627642E+03</pdfrwt>
<totfact> 0.23952733E+02</totfact>
</mgrwt>
</event>
<event>
 8    1  0.3573290E-007  0.1404997E+03  0.7546771E-02  0.1212668E+00
          5   -1    0    0  501    0  0.00000000000E+00  0.00000000000E+00  0.14433314239E+03  0.14440964646E+03  0.47000000000E+01 0.  1.
         -5   -1    0    0    0  501 -0.00000000000E+00 -0.00000000000E+00 -0.13673254106E+03  0.13681329535E+03  0.47000000000E+01 0.  1.
         25    2    1    2    0    0 -0.44383948760E+02 -0.46227467076E+02  0.84154673819E+01  0.14075152464E+03  0.12503302755E+03 0.  0.
         25    2    1    2    0    0  0.44383948760E+02  0.46227467076E+02 -0.81486605546E+00  0.14047141717E+03  0.12499856565E+03 0.  0.
          5    1    4    4  502    0  0.74644509724E+02  0.10208555106E+02 -0.33918973027E+02  0.82756293782E+02  0.47000000000E+01 0. -1.
         -5    1    4    4    0  502 -0.30260560964E+02  0.36018911970E+02  0.33104106972E+02  0.57715123389E+02  0.47000000000E+01 0. -1.
          5    1    3    3  503    0  0.23786491381E+02 -0.42161859636E+02 -0.34794767562E+02  0.59801215956E+02  0.47000000000E+01 0. -1.
         -5    1    3    3    0  503 -0.68170440141E+02 -0.40656074405E+01  0.43210234944E+02  0.80950308689E+02  0.47000000000E+01 0. -1.
<mgrwt>
<rscale>  0 0.14049205E+03</rscale>
<asrwt>0</asrwt>
<pdfrwt beam="1">  1        5 0.22217196E-01 0.14049972E+03</pdfrwt>
<pdfrwt beam="2">  1       -5 0.21047872E-01 0.14049972E+03</pdfrwt>
<totfact> 0.29328762E+02</totfact>
</mgrwt>
</event>
<event>
 8    1  0.3573290E-007  0.2318352E+03  0.7546771E-02  0.1125355E+00
          5   -1    0    0  501    0  0.00000000000E+00  0.00000000000E+00  0.17823161118E+03  0.17829357034E+03  0.47000000000E+01 0.  1.
         -5   -1    0    0    0  501 -0.00000000000E+00 -0.00000000000E+00 -0.30142532573E+03  0.30146196608E+03  0.47000000000E+01 0.  1.
         25    2    1    2    0    0 -0.17755896742E+03  0.81202080901E+02 -0.62149252374E+02  0.24002106608E+03  0.12500647078E+03 0.  0.
         25    2    1    2    0    0  0.17755896742E+03 -0.81202080901E+02 -0.61044462175E+02  0.23973447034E+03  0.12500090021E+03 0.  0.
          5    1    3    3  502    0 -0.14652233059E+02 -0.91780959268E+01  0.27813570795E+02  0.33084892305E+02  0.47000000000E+01 0.  1.
         -5    1    3    3    0  502 -0.16290673437E+03  0.90380176827E+02 -0.89962823169E+02  0.20693617378E+03  0.47000000000E+01 0.  1.
          5    1    4    4  503    0  0.35142274616E+02 -0.27703870597E+02 -0.74395519397E+02  0.86944046476E+02  0.47000000000E+01 0. -1.
         -5    1    4    4    0  503  0.14241669281E+03 -0.53498210304E+02  0.13351057222E+02  0.15279042387E+03  0.47000000000E+01 0. -1.
<mgrwt>
<rscale>  0 0.23183450E+03</rscale>
<asrwt>0</asrwt>
<pdfrwt beam="1">  1        5 0.27427832E-01 0.23183525E+03</pdfrwt>
<pdfrwt beam="2">  1       -5 0.46380712E-01 0.23183525E+03</pdfrwt>
<totfact> 0.47135767E+01</totfact>
</mgrwt>
</event>
<event>
 8    1  0.3573290E-007  0.1283672E+03  0.7546771E-02  0.1229908E+00
         -5   -1    0    0    0  501 -0.00000000000E+00  0.00000000000E+00  0.21500650134E+03  0.21505786574E+03  0.47000000000E+01 0.  1.
          5   -1    0    0  501    0  0.00000000000E+00 -0.00000000000E+00 -0.77057333257E+02  0.77200535029E+02  0.47000000000E+01 0.  1.
         25    2    1    2    0    0 -0.88899222828E-01  0.29234150323E+02  0.81454481384E+02  0.15200934670E+03  0.12496945826E+03 0.  0.
         25    2    1    2    0    0  0.88899222828E-01 -0.29234150323E+02  0.56494686694E+02  0.14024905407E+03  0.12499401624E+03 0.  0.
          5    1    4    4  502    0  0.61747646936E+02 -0.22253405212E+02  0.23981717220E+02  0.70037123773E+02  0.47000000000E+01 0.  1.
         -5    1    4    4    0  502 -0.61658747713E+02 -0.69807451110E+01  0.32512969474E+02  0.70211930296E+02  0.47000000000E+01 0.  1.
          5    1    3    3  503    0 -0.28918343453E+02 -0.34941465743E+02  0.65344768082E+02  0.79681900906E+02  0.47000000000E+01 0. -1.
         -5    1    3    3    0  503  0.28829444230E+02  0.64175616066E+02  0.16109713302E+02  0.72327445792E+02  0.47000000000E+01 0. -1.
<mgrwt>
<rscale>  0 0.12836126E+03</rscale>
<asrwt>0</asrwt>
<pdfrwt beam="2">  1        5 0.11869941E-01 0.12836724E+03</pdfrwt>
<pdfrwt beam="1">  1       -5 0.33092889E-01 0.12836724E+03</pdfrwt>
<totfact> 0.37261464E+02</totfact>
</mgrwt>
</event>
<event>
 8    1  0.3573290E-007  0.1351563E+03  0.7546771E-02  0.1220007E+00
         -5   -1    0    0    0  501 -0.00000000000E+00  0.00000000000E+00  0.10997487680E+03  0.11007526301E+03  0.47000000000E+01 0. -1.
          5   -1    0    0  501    0  0.00000000000E+00 -0.00000000000E+00 -0.25527119609E+03  0.25531446014E+03  0.47000000000E+01 0. -1.
         25    2    1    2    0    0  0.11666785984E+02 -0.50011434153E+02  0.35443236728E+02  0.13970405377E+03  0.12499496858E+03 0.  0.
         25    2    1    2    0    0 -0.11666785984E+02  0.50011434153E+02 -0.18073955602E+03  0.22568566937E+03  0.12501990564E+03 0.  0.
          5    1    4    4  502    0  0.24739595301E+02  0.80168063519E+02 -0.89163055413E+02  0.12251982058E+03  0.47000000000E+01 0. -1.
         -5    1    4    4    0  502 -0.36406381284E+02 -0.30156629366E+02 -0.91576500611E+02  0.10316584879E+03  0.47000000000E+01 0. -1.
          5    1    3    3  503    0  0.28911705729E+02  0.36128889165E+02  0.58116647669E+01  0.46872687226E+02  0.47000000000E+01 0. -1.
         -5    1    3    3    0  503 -0.17244919745E+02 -0.86140323318E+02  0.29631571961E+02  0.92831366548E+02  0.47000000000E+01 0. -1.
<mgrwt>
<rscale>  0 0.13515057E+03</rscale>
<asrwt>0</asrwt>
<pdfrwt beam="2">  1        5 0.39283542E-01 0.13515633E+03</pdfrwt>
<pdfrwt beam="1">  1       -5 0.16930262E-01 0.13515633E+03</pdfrwt>
<totfact> 0.14184419E+02</totfact>
</mgrwt>
</event>
<event>
 8    1  0.3573290E-007  0.1287288E+03  0.7546771E-02  0.1229357E+00
          5   -1    0    0  501    0  0.00000000000E+00  0.00000000000E+00  0.18818037771E+02  0.19396096142E+02  0.47000000000E+01 0. -1.
         -5   -1    0    0    0  501 -0.00000000000E+00 -0.00000000000E+00 -0.97126525782E+03  0.97127662952E+03  0.47000000000E+01 0. -1.
         25    2    1    2    0    0 -0.60575580594E+01 -0.30143458095E+02 -0.63875502923E+03  0.65159734180E+03  0.12500314559E+03 0.  0.
         25    2    1    2    0    0  0.60575580594E+01  0.30143458095E+02 -0.31369219083E+03  0.33907538386E+03  0.12499601305E+03 0.  0.
          5    1    3    3  502    0 -0.71808365168E+01 -0.59083031904E+01 -0.62119296282E+03  0.62128033892E+03  0.47000000000E+01 0.  1.
         -5    1    3    3    0  502  0.11232784574E+01 -0.24235154904E+02 -0.17562066400E+02  0.30317002886E+02  0.47000000000E+01 0.  1.
          5    1    4    4  503    0 -0.78771747591E+01 -0.92393665089E+01 -0.29102252942E+03  0.29131360834E+03  0.47000000000E+01 0. -1.
         -5    1    4    4    0  503  0.13934732818E+02  0.39382824603E+02 -0.22669661408E+02  0.47761775520E+02  0.47000000000E+01 0. -1.
<mgrwt>
<rscale>  0 0.12872709E+03</rscale>
<asrwt>0</asrwt>
<pdfrwt beam="1">  1        5 0.29404243E-02 0.12872882E+03</pdfrwt>
<pdfrwt beam="2">  1       -5 0.14947073E+00 0.12872882E+03</pdfrwt>
<totfact> 0.12474348E+02</totfact>
</mgrwt>
</event>
<event>
 8    1  0.3573290E-007  0.1298952E+03  0.7546771E-02  0.1227611E+00
         -5   -1    0    0    0  501 -0.00000000000E+00  0.00000000000E+00  0.51208503451E+03  0.51210660274E+03  0.47000000000E+01 0. -1.
          5   -1    0    0  501    0  0.00000000000E+00 -0.00000000000E+00 -0.32830210864E+02  0.33164932464E+02  0.47000000000E+01 0. -1.
         25    2    1    2    0    0  0.34763400410E+02 -0.63473801166E+01  0.25224548803E+03  0.28372617056E+03  0.12499588147E+03 0.  0.
         25    2    1    2    0    0 -0.34763400410E+02  0.63473801166E+01  0.22700933561E+03  0.26154536464E+03  0.12499582421E+03 0.  0.
          5    1    3    3  502    0  0.79095439287E+02 -0.15379136690E+02  0.12701602579E+03  0.15049175117E+03  0.47000000000E+01 0.  1.
         -5    1    3    3    0  502 -0.44332038877E+02  0.90317565738E+01  0.12522946224E+03  0.13323441939E+03  0.47000000000E+01 0.  1.
          5    1    4    4  503    0 -0.35404556588E+02  0.50003167925E+01  0.16176649058E+01  0.36099759486E+02  0.47000000000E+01 0.  1.
         -5    1    4    4    0  503  0.64115617788E+00  0.13470633241E+01  0.22539167071E+03  0.22544560516E+03  0.47000000000E+01 0.  1.
<mgrwt>
<rscale>  0 0.12989515E+03</rscale>
<asrwt>0</asrwt>
<pdfrwt beam="2">  1        5 0.50782088E-02 0.12989516E+03</pdfrwt>
<pdfrwt beam="1">  1       -5 0.78809717E-01 0.12989516E+03</pdfrwt>
<totfact> 0.25167337E+02</totfact>
</mgrwt>
</event>
<event>
 8    1  0.3573290E-007  0.1351613E+03  0.7546771E-02  0.1219996E+00
         -5   -1    0    0    0  501 -0.00000000000E+00  0.00000000000E+00  0.14817852065E+03  0.14825304038E+03  0.47000000000E+01 0. -1.
          5   -1    0    0  501    0  0.00000000000E+00 -0.00000000000E+00 -0.13910952828E+03  0.13918890350E+03  0.47000000000E+01 0. -1.
         25    2    1    2    0    0  0.24761875677E+02  0.45062719415E+02  0.53222849284E+02  0.14525142747E+03  0.12498602453E+03 0.  0.
         25    2    1    2    0    0 -0.24761875677E+02 -0.45062719415E+02 -0.44153856919E+02  0.14219051641E+03  0.12499912283E+03 0.  0.
          5    1    4    4  502    0 -0.41578930717E+02 -0.55285035829E+02 -0.76997592378E+02  0.10361448691E+03  0.47000000000E+01 0.  1.
         -5    1    4    4    0  502  0.16817055040E+02  0.10222316414E+02  0.32843735460E+02  0.38576029500E+02  0.47000000000E+01 0.  1.
          5    1    3    3  503    0  0.10957783924E+02 -0.23859415451E+02  0.68198940926E+02  0.73229299311E+02  0.47000000000E+01 0.  1.
         -5    1    3    3    0  503  0.13804091753E+02  0.68922134865E+02 -0.14976091642E+02  0.72022128158E+02  0.47000000000E+01 0.  1.
<mgrwt>
<rscale>  0 0.13515828E+03</rscale>
<asrwt>0</asrwt>
<pdfrwt beam="2">  1        5 0.21413304E-01 0.13516131E+03</pdfrwt>
<pdfrwt beam="1">  1       -5 0.22808534E-01 0.13516131E+03</pdfrwt>
<totfact> 0.26663837E+02</totfact>
</mgrwt>
</event>
<event>
 8    1  0.3573290E-007  0.1274671E+03  0.7546771E-02  0.1231271E+00
         -5   -1    0    0    0  501 -0.00000000000E+00  0.00000000000E+00  0.44462307240E+03  0.44464791297E+03  0.47000000000E+01 0. -1.
          5   -1    0    0  501    0  0.00000000000E+00 -0.00000000000E+00 -0.39660041708E+02  0.39937562624E+02  0.47000000000E+01 0. -1.
         25    2    1    2    0    0 -0.66142870067E+01 -0.24035944292E+02  0.27211157441E+03  0.30048720294E+03  0.12500549905E+03 0.  0.
         25    2    1    2    0    0  0.66142870067E+01  0.24035944292E+02  0.13285145628E+03  0.18409827265E+03  0.12498475566E+03 0.  0.
          5    1    4    4  502    0  0.21606663179E+02  0.46351500819E+02  0.14529463688E+03  0.15410363730E+03  0.47000000000E+01 0.  1.
         -5    1    4    4    0  502 -0.14992376173E+02 -0.22315556527E+02 -0.12443180604E+02  0.29994635353E+02  0.47000000000E+01 0.  1.
          5    1    3    3  503    0  0.88318125975E+01 -0.20678603954E+01 -0.11606571850E+02  0.15462194879E+02  0.47000000000E+01 0.  1.
         -5    1    3    3    0  503 -0.15446099604E+02 -0.21968083896E+02  0.28371814626E+03  0.28502500806E+03  0.47000000000E+01 0.  1.
<mgrwt>
<rscale>  0 0.12746197E+03</rscale>
<asrwt>0</asrwt>
<pdfrwt beam="2">  1        5 0.61248027E-02 0.12746706E+03</pdfrwt>
<pdfrwt beam="1">  1       -5 0.68426817E-01 0.12746706E+03</pdfrwt>
<totfact> 0.25193327E+02</totfact>
</mgrwt>
</event>
<event>
 8    1  0.3573290E-007  0.2311912E+03  0.7546771E-02  0.1125804E+00
         -5   -1    0    0    0  501 -0.00000000000E+00  0.00000000000E+00  0.13935072137E+03  0.13942995928E+03  0.47000000000E+01 0. -1.
          5   -1    0    0  501    0  0.00000000000E+00 -0.00000000000E+00 -0.40378826939E+03  0.40381562191E+03  0.47000000000E+01 0. -1.
         25    2    1    2    0    0 -0.19013526311E+03  0.40901971569E+02 -0.71125007983E+02  0.24188459546E+03  0.12500000482E+03 0.  0.
         25    2    1    2    0    0  0.19013526311E+03 -0.40901971569E+02 -0.19331254004E+03  0.30136098573E+03  0.12499726408E+03 0.  0.
          5    1    4    4  502    0  0.11100907689E+03 -0.22962952357E+02 -0.27558950336E+02  0.11675571967E+03  0.47000000000E+01 0. -1.
         -5    1    4    4    0  502  0.79126186217E+02 -0.17939019212E+02 -0.16575358971E+03  0.18460526606E+03  0.47000000000E+01 0. -1.
          5    1    3    3  503    0  0.31437900973E+01  0.36266248247E+02 -0.29292856117E+01  0.36821120193E+02  0.47000000000E+01 0. -1.
         -5    1    3    3    0  503 -0.19327905320E+03  0.46357233220E+01 -0.68195722371E+02  0.20506347527E+03  0.47000000000E+01 0. -1.
<mgrwt>
<rscale>  0 0.23119087E+03</rscale>
<asrwt>0</asrwt>
<pdfrwt beam="2">  1        5 0.62129471E-01 0.23119124E+03</pdfrwt>
<pdfrwt beam="1">  1       -5 0.21446772E-01 0.23119124E+03</pdfrwt>
<totfact> 0.40154258E+01</totfact>
</mgrwt>
</event>
<event>
 8    1  0.3573290E-007  0.1337722E+03  0.7546771E-02  0.1221967E+00
          5   -1    0    0  501    0  0.00000000000E+00  0.00000000000E+00  0.41318818181E+02  0.41585270660E+02  0.47000000000E+01 0. -1.
         -5   -1    0    0    0  501 -0.00000000000E+00 -0.00000000000E+00 -0.44770952766E+03  0.44773419700E+03  0.47000000000E+01 0. -1.
         25    2    1    2    0    0  0.21643668472E+02  0.42447673410E+02 -0.24989398447E+03  0.28344665383E+03  0.12499899492E+03 0.  0.
         25    2    1    2    0    0 -0.21643668472E+02 -0.42447673410E+02 -0.15649672501E+03  0.20587281382E+03  0.12498854815E+03 0.  0.
          5    1    3    3  502    0  0.26465275460E+02 -0.78151431651E+01  0.47200476233E+00  0.27996429350E+02  0.47000000000E+01 0. -1.
         -5    1    3    3    0  502 -0.48216069879E+01  0.50262816575E+02 -0.25036598923E+03  0.25545022448E+03  0.47000000000E+01 0. -1.
          5    1    4    4  503    0  0.38771130586E+02 -0.57676032915E+02 -0.98371602859E+02  0.12053542047E+03  0.47000000000E+01 0. -1.
         -5    1    4    4    0  503 -0.60414799058E+02  0.15228359505E+02 -0.58125122152E+02  0.85337393349E+02  0.47000000000E+01 0. -1.
<mgrwt>
<rscale>  0 0.13376976E+03</rscale>
<asrwt>0</asrwt>
<pdfrwt beam="1">  1        5 0.63791355E-02 0.13377220E+03</pdfrwt>
<pdfrwt beam="2">  1       -5 0.68900780E-01 0.13377220E+03</pdfrwt>
<totfact> 0.23563631E+02</totfact>
</mgrwt>
</event>
<event>
 8    1  0.3573290E-007  0.1437021E+03  0.7546771E-02  0.1208433E+00
          5   -1    0    0  501    0  0.00000000000E+00  0.00000000000E+00  0.30049584554E+03  0.30053259921E+03  0.47000000000E+01 0.  1.
         -5   -1    0    0    0  501 -0.00000000000E+00 -0.00000000000E+00 -0.87505642575E+02  0.87631772106E+02  0.47000000000E+01 0.  1.
         25    2    1    2    0    0 -0.67898079841E+02 -0.20364552509E+02  0.16374126807E+02  0.14463167754E+03  0.12500138349E+03 0.  0.
         25    2    1    2    0    0  0.67898079841E+02  0.20364552509E+02  0.19661607616E+03  0.24353269377E+03  0.12500170913E+03 0.  0.
          5    1    4    4  502    0  0.63636201723E+01 -0.18882641288E+02 -0.11120232754E+02  0.23298055288E+02  0.47000000000E+01 0. -1.
         -5    1    4    4    0  502  0.61534459668E+02  0.39247193797E+02  0.20773630891E+03  0.22023463848E+03  0.47000000000E+01 0. -1.
          5    1    3    3  503    0 -0.87416586632E+02 -0.55192686357E+02  0.10936002851E+02  0.10406526031E+03  0.47000000000E+01 0.  1.
         -5    1    3    3    0  503  0.19518506792E+02  0.34828133848E+02  0.54381239565E+01  0.40566417230E+02  0.47000000000E+01 0.  1.
<mgrwt>
<rscale>  0 0.14370202E+03</rscale>
<asrwt>0</asrwt>
<pdfrwt beam="1">  1        5 0.46242659E-01 0.14370209E+03</pdfrwt>
<pdfrwt beam="2">  1       -5 0.13474936E-01 0.14370209E+03</pdfrwt>
<totfact> 0.15626261E+02</totfact>
</mgrwt>
</event>
<event>
 8    1  0.3573290E-007  0.1524848E+03  0.7546771E-02  0.1197457E+00
          5   -1    0    0  501    0  0.00000000000E+00  0.00000000000E+00  0.97070952108E+02  0.97184668251E+02  0.47000000000E+01 0. -1.
         -5   -1    0    0    0  501 -0.00000000000E+00 -0.00000000000E+00 -0.24376030081E+03  0.24380560751E+03  0.47000000000E+01 0. -1.
         25    2    1    2    0    0 -0.75103219704E+02 -0.44613782591E+02 -0.50108350795E+02  0.16049232226E+03  0.12496421679E+03 0.  0.
         25    2    1    2    0    0  0.75103219704E+02  0.44613782591E+02 -0.96580997909E+02  0.18049795350E+03  0.12498295425E+03 0.  0.
          5    1    3    3  502    0  0.47327638474E+01 -0.24825506116E+02  0.34087844279E+02  0.42693980081E+02  0.47000000000E+01 0.  1.
         -5    1    3    3    0  502 -0.79835983551E+02 -0.19788276475E+02 -0.84196195073E+02  0.11779834218E+03  0.47000000000E+01 0.  1.
          5    1    4    4  503    0  0.97354219724E+02  0.70944210945E+01 -0.32797958784E+02  0.10308235062E+03  0.47000000000E+01 0. -1.
         -5    1    4    4    0  503 -0.22251000021E+02  0.37519361497E+02 -0.63783039125E+02  0.77415602878E+02  0.47000000000E+01 0. -1.
<mgrwt>
<rscale>  0 0.15248099E+03</rscale>
<asrwt>0</asrwt>
<pdfrwt beam="1">  1        5 0.14946225E-01 0.15248483E+03</pdfrwt>
<pdfrwt beam="2">  1       -5 0.37513817E-01 0.15248483E+03</pdfrwt>
<totfact> 0.20342895E+02</totfact>
</mgrwt>
</event>
<event>
 8    1  0.3573290E-007  0.1637974E+03  0.7546771E-02  0.1184475E+00
         -5   -1    0    0    0  501 -0.00000000000E+00  0.00000000000E+00  0.13676102397E+03  0.13684176146E+03  0.47000000000E+01 0. -1.
          5   -1    0    0  501    0  0.00000000000E+00 -0.00000000000E+00 -0.26933482662E+03  0.26937583193E+03  0.47000000000E+01 0. -1.
         25    2    1    2    0    0  0.16491209144E+02 -0.10455247046E+03  0.39663276201E+02  0.16853123740E+03  0.12500569363E+03 0.  0.
         25    2    1    2    0    0 -0.16491209144E+02  0.10455247046E+03 -0.17223707885E+03  0.23768635599E+03  0.12500405368E+03 0.  0.
          5    1    3    3  502    0 -0.20747905701E+02 -0.98919585331E+02  0.67353658710E+02  0.12154902424E+03  0.47000000000E+01 0.  1.
         -5    1    3    3    0  502  0.37239114845E+02 -0.56328851336E+01 -0.27690382509E+02  0.46982213154E+02  0.47000000000E+01 0.  1.
          5    1    4    4  503    0 -0.39219406008E+02 -0.13304970188E+02 -0.61611651303E+02  0.74385950391E+02  0.47000000000E+01 0. -1.
         -5    1    4    4    0  503  0.22728196863E+02  0.11785744065E+03 -0.11062542754E+03  0.16330040560E+03  0.47000000000E+01 0. -1.
<mgrwt>
<rscale>  0 0.16379713E+03</rscale>
<asrwt>0</asrwt>
<pdfrwt beam="2">  1        5 0.41445492E-01 0.16379744E+03</pdfrwt>
<pdfrwt beam="1">  1       -5 0.21049522E-01 0.16379744E+03</pdfrwt>
<totfact> 0.90150876E+01</totfact>
</mgrwt>
</event>
<event>
 8    1  0.3573290E-007  0.1361723E+03  0.7546771E-02  0.1218580E+00
          5   -1    0    0  501    0  0.00000000000E+00  0.00000000000E+00  0.40571625759E+03  0.40574348014E+03  0.47000000000E+01 0. -1.
         -5   -1    0    0    0  501 -0.00000000000E+00 -0.00000000000E+00 -0.45589030889E+02  0.45830663724E+02  0.47000000000E+01 0. -1.
         25    2    1    2    0    0  0.53423491135E+02  0.79503361103E+01  0.18673268559E+03  0.23111035823E+03  0.12500249823E+03 0.  0.
         25    2    1    2    0    0 -0.53423491135E+02 -0.79503361103E+01  0.17339454111E+03  0.22046378563E+03  0.12498534569E+03 0.  0.
          5    1    3    3  502    0  0.84696173645E+02  0.36852751034E+02  0.13915907343E+03  0.16708951136E+03  0.47000000000E+01 0. -1.
         -5    1    3    3    0  502 -0.31272682511E+02 -0.28902414924E+02  0.47573612162E+02  0.64020846870E+02  0.47000000000E+01 0. -1.
          5    1    4    4  503    0 -0.63635779702E+02  0.17957080489E+02  0.17969202116E+03  0.19152880114E+03  0.47000000000E+01 0.  1.
         -5    1    4    4    0  503  0.10212288568E+02 -0.25907416599E+02 -0.62974800463E+01  0.28934984492E+02  0.47000000000E+01 0.  1.
<mgrwt>
<rscale>  0 0.13616839E+03</rscale>
<asrwt>0</asrwt>
<pdfrwt beam="1">  1        5 0.62438567E-01 0.13617232E+03</pdfrwt>
<pdfrwt beam="2">  1       -5 0.70343782E-02 0.13617232E+03</pdfrwt>
<totfact> 0.25009340E+02</totfact>
</mgrwt>
</event>
<event>
 8    1  0.3573290E-007  0.1361962E+03  0.7546771E-02  0.1218541E+00
          5   -1    0    0  501    0  0.00000000000E+00  0.00000000000E+00  0.22903926593E+03  0.22908748402E+03  0.47000000000E+01 0.  1.
         -5   -1    0    0    0  501 -0.00000000000E+00 -0.00000000000E+00 -0.88261039369E+02  0.88386090934E+02  0.47000000000E+01 0.  1.
         25    2    1    2    0    0  0.53348113749E+02  0.88251409423E+01  0.24475994674E+02  0.13837800966E+03  0.12500197954E+03 0.  0.
         25    2    1    2    0    0 -0.53348113749E+02 -0.88251409423E+01  0.11630223188E+03  0.17909556530E+03  0.12500043206E+03 0.  0.
          5    1    4    4  502    0 -0.10911774268E+02 -0.39965127808E+02 -0.93970822266E+01  0.42739600054E+02  0.47000000000E+01 0. -1.
         -5    1    4    4    0  502 -0.42436339481E+02  0.31139986866E+02  0.12569931411E+03  0.13635596525E+03  0.47000000000E+01 0. -1.
          5    1    3    3  503    0 -0.20425447845E+01 -0.41152441336E+02 -0.25291297027E+02  0.48574016948E+02  0.47000000000E+01 0. -1.
         -5    1    3    3    0  503  0.55390658534E+02  0.49977582279E+02  0.49767291702E+02  0.89803992709E+02  0.47000000000E+01 0. -1.
<mgrwt>
<rscale>  0 0.13619582E+03</rscale>
<asrwt>0</asrwt>
<pdfrwt beam="1">  1        5 0.35250138E-01 0.13619618E+03</pdfrwt>
<pdfrwt beam="2">  1       -5 0.13591950E-01 0.13619618E+03</pdfrwt>
<totfact> 0.26357377E+02</totfact>
</mgrwt>
</event>
<event>
 8    1  0.3573290E-007  0.1282775E+03  0.7546771E-02  0.1230040E+00
          5   -1    0    0  501    0  0.00000000000E+00  0.00000000000E+00  0.58664963223E+02  0.58852934591E+02  0.47000000000E+01 0. -1.
         -5   -1    0    0    0  501 -0.00000000000E+00 -0.00000000000E+00 -0.39250471861E+03  0.39253285739E+03  0.47000000000E+01 0. -1.
         25    2    1    2    0    0  0.42226395426E+01  0.28442511648E+02 -0.28781511450E+03  0.31510159097E+03  0.12499866138E+03 0.  0.
         25    2    1    2    0    0 -0.42226395426E+01 -0.28442511648E+02 -0.46024640884E+02  0.13628420100E+03  0.12501323418E+03 0.  0.
          5    1    4    4  502    0 -0.30210078074E+02 -0.66841064644E+02 -0.50931547970E+02  0.89423091641E+02  0.47000000000E+01 0.  1.
         -5    1    4    4    0  502  0.25987438531E+02  0.38398552996E+02  0.49069070864E+01  0.46861109363E+02  0.47000000000E+01 0.  1.
          5    1    3    3  503    0 -0.18077461781E+02  0.72297184338E+02 -0.21037885740E+03  0.22323761137E+03  0.47000000000E+01 0. -1.
         -5    1    3    3    0  503  0.22300101324E+02 -0.43854672689E+02 -0.77436257095E+02  0.91863979604E+02  0.47000000000E+01 0. -1.
<mgrwt>
<rscale>  0 0.12827394E+03</rscale>
<asrwt>0</asrwt>
<pdfrwt beam="1">  1        5 0.90420030E-02 0.12827750E+03</pdfrwt>
<pdfrwt beam="2">  1       -5 0.60401964E-01 0.12827750E+03</pdfrwt>
<totfact> 0.17137259E+02</totfact>
</mgrwt>
</event>
<event>
 8    1  0.3573290E-007  0.1365473E+03  0.7546771E-02  0.1218052E+00
          5   -1    0    0  501    0  0.00000000000E+00  0.00000000000E+00  0.14902543730E+03  0.14909953374E+03  0.47000000000E+01 0. -1.
         -5   -1    0    0    0  501 -0.00000000000E+00 -0.00000000000E+00 -0.12777328499E+03  0.12785969794E+03  0.47000000000E+01 0. -1.
         25    2    1    2    0    0  0.12076445424E+01  0.54935893992E+02 -0.98961525832E+01  0.13690425951E+03  0.12500172631E+03 0.  0.
         25    2    1    2    0    0 -0.12076445424E+01 -0.54935893992E+02  0.31148304889E+02  0.14005497218E+03  0.12500306988E+03 0.  0.
          5    1    4    4  502    0 -0.45307514531E+01  0.19063147252E+02  0.57785022797E+02  0.61197468506E+02  0.47000000000E+01 0.  1.
         -5    1    4    4    0  502  0.33231069108E+01 -0.73999041244E+02 -0.26636717907E+02  0.78857503673E+02  0.47000000000E+01 0.  1.
          5    1    3    3  503    0  0.49421351294E+02 -0.81733742471E+01 -0.24591119152E+02  0.56000778132E+02  0.47000000000E+01 0.  1.
         -5    1    3    3    0  503 -0.48213706751E+02  0.63109268239E+02  0.14694966569E+02  0.80903481377E+02  0.47000000000E+01 0.  1.
<mgrwt>
<rscale>  0 0.13654704E+03</rscale>
<asrwt>0</asrwt>
<pdfrwt beam="1">  1        5 0.22939337E-01 0.13654735E+03</pdfrwt>
<pdfrwt beam="2">  1       -5 0.19669775E-01 0.13654735E+03</pdfrwt>
<totfact> 0.31028486E+02</totfact>
</mgrwt>
</event>
<event>
 8    1  0.3573290E-007  0.1333118E+03  0.7546771E-02  0.1222644E+00
          5   -1    0    0  501    0  0.00000000000E+00  0.00000000000E+00  0.39704981385E+02  0.39982190370E+02  0.47000000000E+01 0.  1.
         -5   -1    0    0    0  501 -0.00000000000E+00 -0.00000000000E+00 -0.61988230080E+03  0.61990011844E+03  0.47000000000E+01 0.  1.
         25    2    1    2    0    0 -0.41002794687E+02 -0.21581556242E+02 -0.46496825278E+03  0.48368588953E+03  0.12493826835E+03 0.  0.
         25    2    1    2    0    0  0.41002794687E+02  0.21581556242E+02 -0.11520906664E+03  0.17619641928E+03  0.12500022556E+03 0.  0.
          5    1    4    4  502    0 -0.66669068516E+00 -0.18210617548E+02  0.21017430388E+02  0.28211583579E+02  0.47000000000E+01 0. -1.
         -5    1    4    4    0  502  0.41669485372E+02  0.39792173790E+02 -0.13622649703E+03  0.14798483570E+03  0.47000000000E+01 0. -1.
          5    1    3    3  503    0 -0.40565577549E+02 -0.25018769804E+02 -0.52065545868E+02  0.70741896999E+02  0.47000000000E+01 0. -1.
         -5    1    3    3    0  503 -0.43721713762E+00  0.34372135615E+01 -0.41290270691E+03  0.41294399253E+03  0.47000000000E+01 0. -1.
<mgrwt>
<rscale>  0 0.13329732E+03</rscale>
<asrwt>0</asrwt>
<pdfrwt beam="1">  1        5 0.61311535E-02 0.13331185E+03</pdfrwt>
<pdfrwt beam="2">  1       -5 0.95389195E-01 0.13331185E+03</pdfrwt>
<totfact> 0.11831352E+02</totfact>
</mgrwt>
</event>
<event>
 8    1  0.3573290E-007  0.1601799E+03  0.7546771E-02  0.1188494E+00
         -5   -1    0    0    0  501 -0.00000000000E+00  0.00000000000E+00  0.45077636729E+03  0.45080086880E+03  0.47000000000E+01 0. -1.
          5   -1    0    0  501    0  0.00000000000E+00 -0.00000000000E+00 -0.58324725232E+02  0.58513789600E+02  0.47000000000E+01 0. -1.
         25    2    1    2    0    0  0.17888263093E+02  0.98551422726E+02  0.23739199584E+03  0.28637721650E+03  0.12499831025E+03 0.  0.
         25    2    1    2    0    0 -0.17888263093E+02 -0.98551422726E+02  0.15505964622E+03  0.22293744190E+03  0.12500094494E+03 0.  0.
          5    1    4    4  502    0 -0.19723597264E+02 -0.11223410659E+03  0.16825748599E+03  0.20326875451E+03  0.47000000000E+01 0. -1.
         -5    1    4    4    0  502  0.18353341711E+01  0.13682683864E+02 -0.13197839760E+02  0.19668687388E+02  0.47000000000E+01 0. -1.
          5    1    3    3  503    0  0.49015418421E+02  0.11447941086E+03  0.19177995490E+03  0.22871311256E+03  0.47000000000E+01 0.  1.
         -5    1    3    3    0  503 -0.31127155328E+02 -0.15927988137E+02  0.45612040938E+02  0.57664103942E+02  0.47000000000E+01 0.  1.
<mgrwt>
<rscale>  0 0.16017941E+03</rscale>
<asrwt>0</asrwt>
<pdfrwt beam="2">  1        5 0.89894624E-02 0.16017993E+03</pdfrwt>
<pdfrwt beam="1">  1       -5 0.69366641E-01 0.16017993E+03</pdfrwt>
<totfact> 0.13693154E+02</totfact>
</mgrwt>
</event>
<event>
 8    1  0.3573290E-007  0.1450974E+03  0.7546771E-02  0.1206631E+00
         -5   -1    0    0    0  501 -0.00000000000E+00  0.00000000000E+00  0.32659308730E+03  0.32662690439E+03  0.47000000000E+01 0.  1.
          5   -1    0    0  501    0  0.00000000000E+00 -0.00000000000E+00 -0.77452499050E+02  0.77594971545E+02  0.47000000000E+01 0.  1.
         25    2    1    2    0    0  0.30076353884E+02 -0.67251171567E+02  0.20762946309E+03  0.25330328830E+03  0.12500101912E+03 0.  0.
         25    2    1    2    0    0 -0.30076353884E+02  0.67251171567E+02  0.41511125156E+02  0.15091858763E+03  0.12500375771E+03 0.  0.
          5    1    4    4  502    0 -0.65945110771E+02  0.79978700620E+02  0.16335568489E+02  0.10504423347E+03  0.47000000000E+01 0.  1.
         -5    1    4    4    0  502  0.35868756887E+02 -0.12727529053E+02  0.25175556667E+02  0.45874354163E+02  0.47000000000E+01 0.  1.
          5    1    3    3  503    0  0.52622693225E+02 -0.43071442815E+02  0.20904771283E+03  0.21988027030E+03  0.47000000000E+01 0. -1.
         -5    1    3    3    0  503 -0.22546339341E+02 -0.24179728752E+02 -0.14182497335E+01  0.33423018004E+02  0.47000000000E+01 0. -1.
<mgrwt>
<rscale>  0 0.14509678E+03</rscale>
<asrwt>0</asrwt>
<pdfrwt beam="2">  1        5 0.11929330E-01 0.14509737E+03</pdfrwt>
<pdfrwt beam="1">  1       -5 0.50258651E-01 0.14509737E+03</pdfrwt>
<totfact> 0.16341664E+02</totfact>
</mgrwt>
</event>
<event>
 8    1  0.3573290E-007  0.1274067E+03  0.7546771E-02  0.1231361E+00
         -5   -1    0    0    0  501 -0.00000000000E+00  0.00000000000E+00  0.12301189115E+03  0.12310164647E+03  0.47000000000E+01 0. -1.
          5   -1    0    0  501    0  0.00000000000E+00 -0.00000000000E+00 -0.13589808002E+03  0.13597932988E+03  0.47000000000E+01 0. -1.
         25    2    1    2    0    0 -0.24287837165E+02 -0.43477915060E+01  0.16135681631E+02  0.12841065820E+03  0.12498053685E+03 0.  0.
         25    2    1    2    0    0  0.24287837165E+02  0.43477915060E+01 -0.29021870506E+02  0.13067031815E+03  0.12499464290E+03 0.  0.
          5    1    4    4  502    0 -0.42957905128E+02 -0.22974376735E+02 -0.30952852693E+02  0.57908312781E+02  0.47000000000E+01 0.  1.
         -5    1    4    4    0  502  0.67245742293E+02  0.27322168241E+02  0.19309821870E+01  0.72762005374E+02  0.47000000000E+01 0.  1.
          5    1    3    3  503    0 -0.38577124597E+02  0.53095954936E+02 -0.34345539901E+01  0.65888247312E+02  0.47000000000E+01 0.  1.
         -5    1    3    3    0  503  0.14289287432E+02 -0.57443746442E+02  0.19570235621E+02  0.62522410885E+02  0.47000000000E+01 0.  1.
<mgrwt>
<rscale>  0 0.12740322E+03</rscale>
<asrwt>0</asrwt>
<pdfrwt beam="2">  1        5 0.20920551E-01 0.12740668E+03</pdfrwt>
<pdfrwt beam="1">  1       -5 0.18938060E-01 0.12740668E+03</pdfrwt>
<totfact> 0.38632523E+02</totfact>
</mgrwt>
</event>
<event>
 8    1  0.3573290E-007  0.1266926E+03  0.7546771E-02  0.1232461E+00
         -5   -1    0    0    0  501 -0.00000000000E+00  0.00000000000E+00  0.63713651965E+03  0.63715385479E+03  0.47000000000E+01 0.  1.
          5   -1    0    0  501    0  0.00000000000E+00 -0.00000000000E+00 -0.25153312834E+02  0.25588652691E+02  0.47000000000E+01 0.  1.
         25    2    1    2    0    0 -0.12398385533E+02  0.16484679394E+02  0.27638522225E+03  0.30403916609E+03  0.12500223526E+03 0.  0.
         25    2    1    2    0    0  0.12398385533E+02 -0.16484679394E+02  0.33559798457E+03  0.35870334139E+03  0.12496645655E+03 0.  0.
          5    1    3    3  502    0 -0.12477696017E+02  0.69247940526E+02  0.19047590218E+03  0.20311112593E+03  0.47000000000E+01 0. -1.
         -5    1    3    3    0  502  0.79310483533E-01 -0.52763261133E+02  0.85909320068E+02  0.10092804016E+03  0.47000000000E+01 0. -1.
          5    1    4    4  503    0  0.45986568242E+02  0.30619308638E+02  0.24432579250E+03  0.25053839905E+03  0.47000000000E+01 0.  1.
         -5    1    4    4    0  503 -0.33588182709E+02 -0.47103988032E+02  0.91272192071E+02  0.10816494234E+03  0.47000000000E+01 0.  1.
<mgrwt>
<rscale>  0 0.12668381E+03</rscale>
<asrwt>0</asrwt>
<pdfrwt beam="2">  1        5 0.39045615E-02 0.12669263E+03</pdfrwt>
<pdfrwt beam="1">  1       -5 0.98055826E-01 0.12669263E+03</pdfrwt>
<totfact> 0.22982431E+02</totfact>
</mgrwt>
</event>
<event>
 8    1  0.3573290E-007  0.2082830E+03  0.7546771E-02  0.1142933E+00
          5   -1    0    0  501    0  0.00000000000E+00  0.00000000000E+00  0.10835565164E+03  0.10845753658E+03  0.47000000000E+01 0. -1.
         -5   -1    0    0    0  501 -0.00000000000E+00 -0.00000000000E+00 -0.49676749445E+03  0.49678972769E+03  0.47000000000E+01 0. -1.
         25    2    1    2    0    0  0.15578207788E+03  0.59071902712E+02 -0.32771414440E+03  0.38830192749E+03  0.12499712388E+03 0.  0.
         25    2    1    2    0    0 -0.15578207788E+03 -0.59071902712E+02 -0.60697698413E+02  0.21694533678E+03  0.12499409219E+03 0.  0.
          5    1    4    4  502    0 -0.12843409578E+03  0.68894836803E+01 -0.67015133791E+02  0.14510651295E+03  0.47000000000E+01 0.  1.
         -5    1    4    4    0  502 -0.27347982096E+02 -0.65961386392E+02  0.63174353784E+01  0.71838823830E+02  0.47000000000E+01 0.  1.
          5    1    3    3  503    0  0.21112409275E+02  0.54580162064E+02 -0.41423620842E+02  0.71852169626E+02  0.47000000000E+01 0. -1.
         -5    1    3    3    0  503  0.13466966860E+03  0.44917406475E+01 -0.28629052356E+03  0.31644975787E+03  0.47000000000E+01 0. -1.
<mgrwt>
<rscale>  0 0.20828259E+03</rscale>
<asrwt>0</asrwt>
<pdfrwt beam="1">  1        5 0.16679648E-01 0.20828304E+03</pdfrwt>
<pdfrwt beam="2">  1       -5 0.76435314E-01 0.20828304E+03</pdfrwt>
<totfact> 0.39134015E+01</totfact>
</mgrwt>
</event>
<event>
 8    1  0.3573290E-007  0.1508897E+03  0.7546771E-02  0.1199386E+00
         -5   -1    0    0    0  501 -0.00000000000E+00  0.00000000000E+00  0.62433900390E+02  0.62610557560E+02  0.47000000000E+01 0. -1.
          5   -1    0    0  501    0  0.00000000000E+00 -0.00000000000E+00 -0.36459611549E+03  0.36462640803E+03  0.47000000000E+01 0. -1.
         25    2    1    2    0    0  0.49911828605E+02  0.68202220094E+02 -0.16010771504E+03  0.22000495764E+03  0.12499987005E+03 0.  0.
         25    2    1    2    0    0 -0.49911828605E+02 -0.68202220094E+02 -0.14205450007E+03  0.20723200795E+03  0.12499156239E+03 0.  0.
          5    1    4    4  502    0 -0.41962751493E+02 -0.41881020538E+01  0.85876017113E+01  0.43292604620E+02  0.47000000000E+01 0.  1.
         -5    1    4    4    0  502 -0.79490771130E+01 -0.64014118041E+02 -0.15064210178E+03  0.16393940333E+03  0.47000000000E+01 0.  1.
          5    1    3    3  503    0 -0.28071047930E+02  0.60148887680E+02 -0.43803354608E+02  0.79666155272E+02  0.47000000000E+01 0. -1.
         -5    1    3    3    0  503  0.77982876536E+02  0.80533324147E+01 -0.11630436043E+03  0.14033880237E+03  0.47000000000E+01 0. -1.
<mgrwt>
<rscale>  0 0.15088798E+03</rscale>
<asrwt>0</asrwt>
<pdfrwt beam="2">  1        5 0.56107628E-01 0.15088970E+03</pdfrwt>
<pdfrwt beam="1">  1       -5 0.96211348E-02 0.15088970E+03</pdfrwt>
<totfact> 0.19075329E+02</totfact>
</mgrwt>
</event>
<event>
 8    1  0.3573290E-007  0.1377096E+03  0.7546771E-02  0.1216445E+00
         -5   -1    0    0    0  501 -0.00000000000E+00  0.00000000000E+00  0.82762550661E+03  0.82763885191E+03  0.47000000000E+01 0. -1.
          5   -1    0    0  501    0  0.00000000000E+00 -0.00000000000E+00 -0.23705194349E+02  0.24166634833E+02  0.47000000000E+01 0. -1.
         25    2    1    2    0    0  0.24138864054E+02 -0.52499713751E+02  0.49054305711E+03  0.50950555034E+03  0.12499804101E+03 0.  0.
         25    2    1    2    0    0 -0.24138864054E+02  0.52499713751E+02  0.31337725515E+03  0.34229993639E+03  0.12500015083E+03 0.  0.
          5    1    3    3  502    0 -0.12277829522E+02 -0.41870142008E+02  0.46944425768E+02  0.64262920881E+02  0.47000000000E+01 0. -1.
         -5    1    3    3    0  502  0.36416693576E+02 -0.10629571743E+02  0.44359863134E+03  0.44524262946E+03  0.47000000000E+01 0. -1.
          5    1    4    4  503    0  0.19284747158E+02  0.74443738556E+02  0.11818084917E+03  0.14107648561E+03  0.47000000000E+01 0. -1.
         -5    1    4    4    0  503 -0.43423611212E+02 -0.21944024805E+02  0.19519640598E+03  0.20122345078E+03  0.47000000000E+01 0. -1.
<mgrwt>
<rscale>  0 0.13770915E+03</rscale>
<asrwt>0</asrwt>
<pdfrwt beam="2">  1        5 0.36834747E-02 0.13770963E+03</pdfrwt>
<pdfrwt beam="1">  1       -5 0.12736353E+00 0.13770963E+03</pdfrwt>
<totfact> 0.13524475E+02</totfact>
</mgrwt>
</event>
<event>
 8    1  0.3573290E-007  0.1526847E+03  0.7546771E-02  0.1197214E+00
          5   -1    0    0  501    0  0.00000000000E+00  0.00000000000E+00  0.98528273597E+02  0.98640309701E+02  0.47000000000E+01 0.  1.
         -5   -1    0    0    0  501 -0.00000000000E+00 -0.00000000000E+00 -0.25142266967E+03  0.25146659584E+03  0.47000000000E+01 0.  1.
         25    2    1    2    0    0  0.20346781295E+02  0.85281645778E+02 -0.11932058540E+03  0.19377826730E+03  0.12500265663E+03 0.  0.
         25    2    1    2    0    0 -0.20346781295E+02 -0.85281645778E+02 -0.33573810677E+02  0.15632863824E+03  0.12499796700E+03 0.  0.
          5    1    3    3  502    0 -0.80789337217E+01  0.11130491201E+03 -0.73447916282E+02  0.13368148344E+03  0.47000000000E+01 0. -1.
         -5    1    3    3    0  502  0.28425715017E+02 -0.26023266231E+02 -0.45872669114E+02  0.60096783867E+02  0.47000000000E+01 0. -1.
          5    1    4    4  503    0 -0.35611819211E+02 -0.71637639523E+02 -0.75076728821E+02  0.10981237760E+03  0.47000000000E+01 0.  1.
         -5    1    4    4    0  503  0.15265037916E+02 -0.13644006256E+02  0.41502918144E+02  0.46516260638E+02  0.47000000000E+01 0.  1.
<mgrwt>
<rscale>  0 0.15268373E+03</rscale>
<asrwt>0</asrwt>
<pdfrwt beam="1">  1        5 0.15170193E-01 0.15268469E+03</pdfrwt>
<pdfrwt beam="2">  1       -5 0.38692408E-01 0.15268469E+03</pdfrwt>
<totfact> 0.18601957E+02</totfact>
</mgrwt>
</event>
<event>
 8    1  0.3573290E-007  0.1315069E+03  0.7546771E-02  0.1225239E+00
          5   -1    0    0  501    0  0.00000000000E+00  0.00000000000E+00  0.91349191074E+02  0.91470020826E+02  0.47000000000E+01 0. -1.
         -5   -1    0    0    0  501 -0.00000000000E+00 -0.00000000000E+00 -0.19205054655E+03  0.19210804884E+03  0.47000000000E+01 0. -1.
         25    2    1    2    0    0  0.40115171646E+02  0.77133919331E+01 -0.68111458339E+02  0.14809315723E+03  0.12499475609E+03 0.  0.
         25    2    1    2    0    0 -0.40115171646E+02 -0.77133919331E+01 -0.32589897134E+02  0.13548491243E+03  0.12500134676E+03 0.  0.
          5    1    3    3  502    0 -0.38207188083E+02  0.12461135826E+02  0.49654370884E+01  0.40765361433E+02  0.47000000000E+01 0.  1.
         -5    1    3    3    0  502  0.78322359729E+02 -0.47477438927E+01 -0.73076895428E+02  0.10732779580E+03  0.47000000000E+01 0.  1.
          5    1    4    4  503    0 -0.24520169701E+02  0.54340647140E+02 -0.38395838439E+02  0.71066694472E+02  0.47000000000E+01 0.  1.
         -5    1    4    4    0  503 -0.15595001945E+02 -0.62054039073E+02  0.58059413052E+01  0.64418217962E+02  0.47000000000E+01 0.  1.
<mgrwt>
<rscale>  0 0.13150532E+03</rscale>
<asrwt>0</asrwt>
<pdfrwt beam="1">  1        5 0.14067440E-01 0.13150688E+03</pdfrwt>
<pdfrwt beam="2">  1       -5 0.29559956E-01 0.13150688E+03</pdfrwt>
<totfact> 0.34694912E+02</totfact>
</mgrwt>
</event>
<event>
 8    1  0.3573290E-007  0.1619320E+03  0.7546771E-02  0.1186534E+00
          5   -1    0    0  501    0  0.00000000000E+00  0.00000000000E+00  0.49281929337E+03  0.49284170473E+03  0.47000000000E+01 0.  1.
         -5   -1    0    0    0  501 -0.00000000000E+00 -0.00000000000E+00 -0.66338131631E+02  0.66504418712E+02  0.47000000000E+01 0.  1.
         25    2    1    2    0    0  0.44583501947E+02  0.92777178118E+02  0.88402260166E+02  0.18448707828E+03  0.12500091609E+03 0.  0.
         25    2    1    2    0    0 -0.44583501947E+02 -0.92777178118E+02  0.33807890157E+03  0.37485904516E+03  0.12500666631E+03 0.  0.
          5    1    4    4  502    0  0.41912323454E+02 -0.20447295775E+02  0.12929343846E+03  0.13752679008E+03  0.47000000000E+01 0.  1.
         -5    1    4    4    0  502 -0.86495825401E+02 -0.72329882344E+02  0.20878546311E+03  0.23733225507E+03  0.47000000000E+01 0.  1.
          5    1    3    3  503    0  0.87928278516E+02  0.56367077269E+02  0.64607657703E+02  0.12290186734E+03  0.47000000000E+01 0.  1.
         -5    1    3    3    0  503 -0.43344776569E+02  0.36410100849E+02  0.23794602463E+02  0.61585210936E+02  0.47000000000E+01 0.  1.
<mgrwt>
<rscale>  0 0.16193085E+03</rscale>
<asrwt>0</asrwt>
<pdfrwt beam="1">  1        5 0.75832867E-01 0.16193196E+03</pdfrwt>
<pdfrwt beam="2">  1       -5 0.10220382E-01 0.16193196E+03</pdfrwt>
<totfact> 0.89663219E+01</totfact>
</mgrwt>
</event>
<event>
 8    1  0.3573290E-007  0.1502889E+03  0.7546771E-02  0.1200119E+00
          5   -1    0    0  501    0  0.00000000000E+00  0.00000000000E+00  0.31711730472E+03  0.31715213219E+03  0.47000000000E+01 0. -1.
         -5   -1    0    0    0  501 -0.00000000000E+00 -0.00000000000E+00 -0.73254661890E+02  0.73405282430E+02  0.47000000000E+01 0. -1.
         25    2    1    2    0    0  0.38014306252E+02  0.74272476508E+02  0.88549340107E+02  0.17443483417E+03  0.12500014998E+03 0.  0.
         25    2    1    2    0    0 -0.38014306252E+02 -0.74272476508E+02  0.15531330272E+03  0.21612258045E+03  0.12500103811E+03 0.  0.
          5    1    4    4  502    0  0.32314382768E+02  0.86455123116E+01  0.11311840453E+02  0.35623194006E+02  0.47000000000E+01 0. -1.
         -5    1    4    4    0  502 -0.70328689019E+02 -0.82917988820E+02  0.14400146227E+03  0.18049938644E+03  0.47000000000E+01 0. -1.
          5    1    3    3  503    0  0.45604133644E+02  0.73146256776E+02  0.11654182746E+03  0.14503171871E+03  0.47000000000E+01 0.  1.
         -5    1    3    3    0  503 -0.75898273927E+01  0.11262197320E+01 -0.27992487351E+02  0.29403115461E+02  0.47000000000E+01 0.  1.
<mgrwt>
<rscale>  0 0.15028870E+03</rscale>
<asrwt>0</asrwt>
<pdfrwt beam="1">  1        5 0.48801543E-01 0.15028888E+03</pdfrwt>
<pdfrwt beam="2">  1       -5 0.11284213E-01 0.15028888E+03</pdfrwt>
<totfact> 0.19413131E+02</totfact>
</mgrwt>
</event>
<event>
 8    1  0.3573290E-007  0.1281834E+03  0.7546771E-02  0.1230179E+00
         -5   -1    0    0    0  501 -0.00000000000E+00  0.00000000000E+00  0.23273877453E+03  0.23278622633E+03  0.47000000000E+01 0. -1.
          5   -1    0    0  501    0  0.00000000000E+00 -0.00000000000E+00 -0.71101096662E+02  0.71256269525E+02  0.47000000000E+01 0. -1.
         25    2    1    2    0    0  0.22066475904E+02 -0.17863471934E+02  0.95206839972E+02  0.15966785153E+03  0.12499378963E+03 0.  0.
         25    2    1    2    0    0 -0.22066475904E+02  0.17863471934E+02  0.66430837895E+02  0.14437464433E+03  0.12499979485E+03 0.  0.
          5    1    3    3  502    0  0.33439188297E+02  0.10101515043E+02 -0.19967903673E+02  0.40509592656E+02  0.47000000000E+01 0. -1.
         -5    1    3    3    0  502 -0.11372712392E+02 -0.27964986977E+02  0.11517474365E+03  0.11915825887E+03  0.47000000000E+01 0. -1.
          5    1    4    4  503    0 -0.48751711201E+02  0.20319666804E+02 -0.17741189605E+02  0.55914738779E+02  0.47000000000E+01 0. -1.
         -5    1    4    4    0  503  0.26685235297E+02 -0.24561948698E+01  0.84172027500E+02  0.88459905548E+02  0.47000000000E+01 0. -1.
<mgrwt>
<rscale>  0 0.12818193E+03</rscale>
<asrwt>0</asrwt>
<pdfrwt beam="2">  1        5 0.10954217E-01 0.12818339E+03</pdfrwt>
<pdfrwt beam="1">  1       -5 0.35821553E-01 0.12818339E+03</pdfrwt>
<totfact> 0.36622191E+02</totfact>
</mgrwt>
</event>
<event>
 8    1  0.3573290E-007  0.1338168E+03  0.7546771E-02  0.1221900E+00
          5   -1    0    0  501    0  0.00000000000E+00  0.00000000000E+00  0.98843841401E+02  0.98955520224E+02  0.47000000000E+01 0. -1.
         -5   -1    0    0    0  501 -0.00000000000E+00 -0.00000000000E+00 -0.24018876705E+03  0.24023474731E+03  0.47000000000E+01 0. -1.
         25    2    1    2    0    0  0.12893113159E+02  0.45996429278E+02 -0.15489265001E+03  0.20469165612E+03  0.12500014874E+03 0.  0.
         25    2    1    2    0    0 -0.12893113159E+02 -0.45996429278E+02  0.13547724358E+02  0.13449861142E+03  0.12499772704E+03 0.  0.
          5    1    3    3  502    0  0.55163350012E+01  0.67293211741E+02 -0.16589818859E+03  0.17917339444E+03  0.47000000000E+01 0.  1.
         -5    1    3    3    0  502  0.73767781575E+01 -0.21296782463E+02  0.11005538587E+02  0.25518261674E+02  0.47000000000E+01 0.  1.
          5    1    4    4  503    0  0.56682808658E+01 -0.71244139378E+02  0.49128409252E+02  0.86853597504E+02  0.47000000000E+01 0. -1.
         -5    1    4    4    0  503 -0.18561394025E+02  0.25247710100E+02 -0.35580684894E+02  0.47645013915E+02  0.47000000000E+01 0. -1.
<mgrwt>
<rscale>  0 0.13381625E+03</rscale>
<asrwt>0</asrwt>
<pdfrwt beam="1">  1        5 0.15218873E-01 0.13381682E+03</pdfrwt>
<pdfrwt beam="2">  1       -5 0.36964245E-01 0.13381682E+03</pdfrwt>
<totfact> 0.19422630E+02</totfact>
</mgrwt>
</event>
<event>
 8    1  0.3573290E-007  0.1394210E+03  0.7546771E-02  0.1214110E+00
         -5   -1    0    0    0  501 -0.00000000000E+00  0.00000000000E+00  0.18401828361E+03  0.18407829503E+03  0.47000000000E+01 0. -1.
          5   -1    0    0  501    0  0.00000000000E+00 -0.00000000000E+00 -0.11370583861E+03  0.11380293376E+03  0.47000000000E+01 0. -1.
         25    2    1    2    0    0  0.15547411571E+01  0.61726423912E+02 -0.48209080645E+01  0.13950434983E+03  0.12500261532E+03 0.  0.
         25    2    1    2    0    0 -0.15547411571E+01 -0.61726423912E+02  0.75133353066E+02  0.15837687897E+03  0.12500258565E+03 0.  0.
          5    1    3    3  502    0 -0.45984593728E+02  0.78222018829E+01 -0.37862288355E+02  0.60261202960E+02  0.47000000000E+01 0. -1.
         -5    1    3    3    0  502  0.47539334886E+02  0.53904222029E+02  0.33041380290E+02  0.79243146867E+02  0.47000000000E+01 0. -1.
          5    1    4    4  503    0  0.52581005153E+02 -0.12676606848E+02  0.11564339978E+01  0.54303644479E+02  0.47000000000E+01 0.  1.
         -5    1    4    4    0  503 -0.54135746310E+02 -0.49049817064E+02  0.73976919069E+02  0.10407323449E+03  0.47000000000E+01 0.  1.
<mgrwt>
<rscale>  0 0.13942102E+03</rscale>
<asrwt>0</asrwt>
<pdfrwt beam="2">  1        5 0.17505291E-01 0.13942103E+03</pdfrwt>
<pdfrwt beam="1">  1       -5 0.28322590E-01 0.13942103E+03</pdfrwt>
<totfact> 0.25862602E+02</totfact>
</mgrwt>
</event>
<event>
 8    1  0.3573290E-007  0.1747336E+03  0.7546771E-02  0.1173006E+00
          5   -1    0    0  501    0  0.00000000000E+00  0.00000000000E+00  0.76748684127E+03  0.76750123226E+03  0.47000000000E+01 0. -1.
         -5   -1    0    0    0  501 -0.00000000000E+00 -0.00000000000E+00 -0.41689311502E+02  0.41953410988E+02  0.47000000000E+01 0. -1.
         25    2    1    2    0    0 -0.16841220094E+02 -0.12091248000E+03  0.27305789196E+03  0.32416604771E+03  0.12497823657E+03 0.  0.
         25    2    1    2    0    0  0.16841220094E+02  0.12091248000E+03  0.45273963781E+03  0.48528859553E+03  0.12501354645E+03 0.  0.
          5    1    4    4  502    0 -0.17087214956E+02  0.13390302435E+03  0.31451413868E+03  0.34229114256E+03  0.47000000000E+01 0. -1.
         -5    1    4    4    0  502  0.33928435050E+02 -0.12990544347E+02  0.13822549913E+03  0.14299745297E+03  0.47000000000E+01 0. -1.
          5    1    3    3  503    0 -0.53054139311E+02 -0.55154486169E+01  0.89472796616E+02  0.10427191955E+03  0.47000000000E+01 0.  1.
         -5    1    3    3    0  503  0.36212919217E+02 -0.11539703139E+03  0.18358509534E+03  0.21989412817E+03  0.47000000000E+01 0.  1.
<mgrwt>
<rscale>  0 0.17472731E+03</rscale>
<asrwt>0</asrwt>
<pdfrwt beam="1">  1        5 0.11809633E+00 0.17473363E+03</pdfrwt>
<pdfrwt beam="2">  1       -5 0.64351623E-02 0.17473363E+03</pdfrwt>
<totfact> 0.69782272E+01</totfact>
</mgrwt>
</event>
<event>
 8    1  0.3573290E-007  0.1577913E+03  0.7546771E-02  0.1191213E+00
          5   -1    0    0  501    0  0.00000000000E+00  0.00000000000E+00  0.93244119636E+02  0.93362497004E+02  0.47000000000E+01 0.  1.
         -5   -1    0    0    0  501 -0.00000000000E+00 -0.00000000000E+00 -0.26889056442E+03  0.26893163748E+03  0.47000000000E+01 0.  1.
         25    2    1    2    0    0 -0.93507698579E+02 -0.23001021121E+02 -0.10412944035E+03  0.18905303471E+03  0.12500149166E+03 0.  0.
         25    2    1    2    0    0  0.93507698579E+02  0.23001021121E+02 -0.71517004437E+02  0.17324109977E+03  0.12500024024E+03 0.  0.
          5    1    4    4  502    0  0.24166332486E+02  0.49630207468E+02  0.16660452093E+02  0.57851791528E+02  0.47000000000E+01 0.  1.
         -5    1    4    4    0  502  0.69341366093E+02 -0.26629186347E+02 -0.88177456531E+02  0.11538930825E+03  0.47000000000E+01 0.  1.
          5    1    3    3  503    0 -0.46239298068E+02 -0.20999188211E+02 -0.12658503227E+03  0.13647307055E+03  0.47000000000E+01 0.  1.
         -5    1    3    3    0  503 -0.47268400511E+02 -0.20018329095E+01  0.22455591920E+02  0.52579964153E+02  0.47000000000E+01 0.  1.
<mgrwt>
<rscale>  0 0.15779110E+03</rscale>
<asrwt>0</asrwt>
<pdfrwt beam="1">  1        5 0.14357515E-01 0.15779135E+03</pdfrwt>
<pdfrwt beam="2">  1       -5 0.41380044E-01 0.15779135E+03</pdfrwt>
<totfact> 0.18102578E+02</totfact>
</mgrwt>
</event>
<event>
 8    1  0.3573290E-007  0.1257393E+03  0.7546771E-02  0.1233920E+00
         -5   -1    0    0    0  501 -0.00000000000E+00  0.00000000000E+00  0.57818938626E+02  0.58009651471E+02  0.47000000000E+01 0.  1.
          5   -1    0    0  501    0  0.00000000000E+00 -0.00000000000E+00 -0.27467489196E+03  0.27471510019E+03  0.47000000000E+01 0.  1.
         25    2    1    2    0    0 -0.94722068552E+01 -0.97240532694E+01 -0.94593539648E+02  0.15734773902E+03  0.12500437320E+03 0.  0.
         25    2    1    2    0    0  0.94722068552E+01  0.97240532694E+01 -0.12226241369E+03  0.17537701264E+03  0.12499887538E+03 0.  0.
          5    1    3    3  502    0 -0.42193907796E+01 -0.65520325664E+02 -0.31968384913E+02  0.73176389413E+02  0.47000000000E+01 0. -1.
         -5    1    3    3    0  502 -0.52528160756E+01  0.55796272394E+02 -0.62625154735E+02  0.84171349612E+02  0.47000000000E+01 0. -1.
          5    1    4    4  503    0 -0.22062930325E+02  0.23217308838E+02  0.13644670791E+02  0.35129522701E+02  0.47000000000E+01 0.  1.
         -5    1    4    4    0  503  0.31535137180E+02 -0.13493255568E+02 -0.13590708448E+03  0.14024748994E+03  0.47000000000E+01 0.  1.
<mgrwt>
<rscale>  0 0.12573794E+03</rscale>
<asrwt>0</asrwt>
<pdfrwt beam="2">  1        5 0.42275438E-01 0.12573931E+03</pdfrwt>
<pdfrwt beam="1">  1       -5 0.89129847E-02 0.12573931E+03</pdfrwt>
<totfact> 0.37177759E+02</totfact>
</mgrwt>
</event>
<event>
 8    1  0.3573290E-007  0.1323516E+03  0.7546771E-02  0.1224008E+00
          5   -1    0    0  501    0  0.00000000000E+00  0.00000000000E+00  0.15992358989E+03  0.15999263922E+03  0.47000000000E+01 0. -1.
         -5   -1    0    0    0  501 -0.00000000000E+00 -0.00000000000E+00 -0.10942047210E+03  0.10952136648E+03  0.47000000000E+01 0. -1.
         25    2    1    2    0    0  0.40571878676E+02 -0.15700410571E+02  0.22998540018E+02  0.13433464820E+03  0.12499713850E+03 0.  0.
         25    2    1    2    0    0 -0.40571878676E+02  0.15700410571E+02  0.27504577775E+02  0.13517935749E+03  0.12499750663E+03 0.  0.
          5    1    3    3  502    0 -0.13366237055E+02  0.32139650214E+02 -0.28810709760E+02  0.45428629803E+02  0.47000000000E+01 0. -1.
         -5    1    3    3    0  502  0.53938115732E+02 -0.47840060786E+02  0.51809249778E+02  0.88906018397E+02  0.47000000000E+01 0. -1.
          5    1    4    4  503    0 -0.16939266813E+02 -0.52894346922E+02  0.28212302739E+02  0.62472191592E+02  0.47000000000E+01 0.  1.
         -5    1    4    4    0  503 -0.23632611863E+02  0.68594757493E+02 -0.70772496324E+00  0.72707165903E+02  0.47000000000E+01 0.  1.
<mgrwt>
<rscale>  0 0.13235155E+03</rscale>
<asrwt>0</asrwt>
<pdfrwt beam="1">  1        5 0.24616702E-01 0.13235164E+03</pdfrwt>
<pdfrwt beam="2">  1       -5 0.16846991E-01 0.13235164E+03</pdfrwt>
<totfact> 0.35720522E+02</totfact>
</mgrwt>
</event>
<event>
 8    1  0.3573290E-007  0.1450778E+03  0.7546771E-02  0.1206656E+00
          5   -1    0    0  501    0  0.00000000000E+00  0.00000000000E+00  0.10570797070E+04  0.10570901555E+04  0.47000000000E+01 0. -1.
         -5   -1    0    0    0  501 -0.00000000000E+00 -0.00000000000E+00 -0.20336999579E+02  0.20873034084E+02  0.47000000000E+01 0. -1.
         25    2    1    2    0    0 -0.30392502417E+02  0.67061948216E+02  0.41868922255E+03  0.44311070739E+03  0.12500169931E+03 0.  0.
         25    2    1    2    0    0  0.30392502417E+02 -0.67061948216E+02  0.61805348484E+03  0.63485248220E+03  0.12500621957E+03 0.  0.
          5    1    4    4  502    0  0.20761579330E+02 -0.88820807963E+02  0.25278677192E+03  0.26878136312E+03  0.47000000000E+01 0. -1.
         -5    1    4    4    0  502  0.96309230870E+01  0.21758859747E+02  0.36526671292E+03  0.36607111908E+03  0.47000000000E+01 0. -1.
          5    1    3    3  503    0 -0.49673246574E+01 -0.37002578958E+02  0.11966965049E+03  0.12544632482E+03  0.47000000000E+01 0.  1.
         -5    1    3    3    0  503 -0.25425177760E+02  0.10406452717E+03  0.29901957206E+03  0.31766438257E+03  0.47000000000E+01 0.  1.
<mgrwt>
<rscale>  0 0.14507681E+03</rscale>
<asrwt>0</asrwt>
<pdfrwt beam="1">  1        5 0.16266969E+00 0.14507779E+03</pdfrwt>
<pdfrwt beam="2">  1       -5 0.31708063E-02 0.14507779E+03</pdfrwt>
<totfact> 0.90671677E+01</totfact>
</mgrwt>
</event>
<event>
 8    1  0.3573290E-007  0.2393156E+03  0.7546771E-02  0.1120250E+00
          5   -1    0    0  501    0  0.00000000000E+00  0.00000000000E+00  0.12467456746E+03  0.12476312665E+03  0.47000000000E+01 0.  1.
         -5   -1    0    0    0  501 -0.00000000000E+00 -0.00000000000E+00 -0.48853670495E+03  0.48855931276E+03  0.47000000000E+01 0.  1.
         25    2    1    2    0    0  0.20305066173E+03 -0.20436303956E+02 -0.25719657683E+03  0.35131474860E+03  0.12499903881E+03 0.  0.
         25    2    1    2    0    0 -0.20305066173E+03  0.20436303956E+02 -0.10666556066E+03  0.26200769081E+03  0.12499309766E+03 0.  0.
          5    1    4    4  502    0 -0.24295482941E+02 -0.37943090488E+02 -0.45506332564E+02  0.64209539093E+02  0.47000000000E+01 0.  1.
         -5    1    4    4    0  502 -0.17875517879E+03  0.58379394444E+02 -0.61159228091E+02  0.19779815171E+03  0.47000000000E+01 0.  1.
          5    1    3    3  503    0  0.16985497971E+03 -0.47524489388E+02 -0.25238579214E+03  0.30794475040E+03  0.47000000000E+01 0. -1.
         -5    1    3    3    0  503  0.33195682021E+02  0.27088185432E+02 -0.48107846925E+01  0.43369998204E+02  0.47000000000E+01 0. -1.
<mgrwt>
<rscale>  0 0.23931486E+03</rscale>
<asrwt>0</asrwt>
<pdfrwt beam="1">  1        5 0.19189254E-01 0.23931564E+03</pdfrwt>
<pdfrwt beam="2">  1       -5 0.75168043E-01 0.23931564E+03</pdfrwt>
<totfact> 0.32425682E+01</totfact>
</mgrwt>
</event>
<event>
 8    1  0.3573290E-007  0.1344002E+03  0.7546771E-02  0.1221071E+00
         -5   -1    0    0    0  501 -0.00000000000E+00  0.00000000000E+00  0.10203966681E+02  0.11234364069E+02  0.47000000000E+01 0. -1.
          5   -1    0    0  501    0  0.00000000000E+00 -0.00000000000E+00 -0.17870413627E+04  0.17870475433E+04  0.47000000000E+01 0. -1.
         25    2    1    2    0    0  0.23780241997E+02 -0.43274574746E+02 -0.67259901954E+03  0.68589447379E+03  0.12499439734E+03 0.  0.
         25    2    1    2    0    0 -0.23780241997E+02  0.43274574746E+02 -0.11042383765E+04  0.11123874336E+04  0.12500088619E+03 0.  0.
          5    1    3    3  502    0 -0.50691512065E+02 -0.28265684886E+02 -0.28226118744E+03  0.28820486858E+03  0.47000000000E+01 0.  1.
         -5    1    3    3    0  502  0.74471754062E+02 -0.15008889860E+02 -0.39033783210E+03  0.39768960522E+03  0.47000000000E+01 0.  1.
          5    1    4    4  503    0 -0.70343170569E+01 -0.42270793712E+02 -0.50312230854E+03  0.50496578990E+03  0.47000000000E+01 0. -1.
         -5    1    4    4    0  503 -0.16745924940E+02  0.85545368458E+02 -0.60111606795E+03  0.60742164369E+03  0.47000000000E+01 0. -1.
<mgrwt>
<rscale>  0 0.13439868E+03</rscale>
<asrwt>0</asrwt>
<pdfrwt beam="2">  1        5 0.27500894E+00 0.13440019E+03</pdfrwt>
<pdfrwt beam="1">  1       -5 0.16495792E-02 0.13440019E+03</pdfrwt>
<totfact> 0.45010486E+01</totfact>
</mgrwt>
</event>
<event>
 8    1  0.3573290E-007  0.1323144E+03  0.7546771E-02  0.1224065E+00
          5   -1    0    0  501    0  0.00000000000E+00  0.00000000000E+00  0.26907521648E+03  0.26911626135E+03  0.47000000000E+01 0. -1.
         -5   -1    0    0    0  501 -0.00000000000E+00 -0.00000000000E+00 -0.65970634658E+02  0.66137845726E+02  0.47000000000E+01 0. -1.
         25    2    1    2    0    0  0.24730178236E+02  0.35616545314E+02  0.80517098899E+02  0.15488736857E+03  0.12500789460E+03 0.  0.
         25    2    1    2    0    0 -0.24730178236E+02 -0.35616545314E+02  0.12258748292E+03  0.18036673850E+03  0.12499739747E+03 0.  0.
          5    1    4    4  502    0 -0.90320659414E+01 -0.10573907369E+02 -0.25425388383E+02  0.29358578076E+02  0.47000000000E+01 0.  1.
         -5    1    4    4    0  502 -0.15698112294E+02 -0.25042637945E+02  0.14801287130E+03  0.15100816043E+03  0.47000000000E+01 0.  1.
          5    1    3    3  503    0  0.28090766632E+02 -0.44006645987E+02  0.29589713904E+02  0.60193996627E+02  0.47000000000E+01 0.  1.
         -5    1    3    3    0  503 -0.33605883962E+01  0.79623191302E+02  0.50927384995E+02  0.94693371942E+02  0.47000000000E+01 0.  1.
<mgrwt>
<rscale>  0 0.13231190E+03</rscale>
<asrwt>0</asrwt>
<pdfrwt beam="1">  1        5 0.41412206E-01 0.13231437E+03</pdfrwt>
<pdfrwt beam="2">  1       -5 0.10165348E-01 0.13231437E+03</pdfrwt>
<totfact> 0.31455031E+02</totfact>
</mgrwt>
</event>
<event>
 8    1  0.3573290E-007  0.1722367E+03  0.7546771E-02  0.1175537E+00
          5   -1    0    0  501    0  0.00000000000E+00  0.00000000000E+00  0.20423689401E+03  0.20429096621E+03  0.47000000000E+01 0.  1.
         -5   -1    0    0    0  501 -0.00000000000E+00 -0.00000000000E+00 -0.16358366565E+03  0.16365117069E+03  0.47000000000E+01 0.  1.
         25    2    1    2    0    0  0.21110961111E+02  0.11659635958E+03 -0.41434932159E+02  0.17714398041E+03  0.12499100946E+03 0.  0.
         25    2    1    2    0    0 -0.21110961111E+02 -0.11659635958E+03  0.82088160516E+02  0.19079815649E+03  0.12500034670E+03 0.  0.
          5    1    3    3  502    0 -0.18463055913E+02  0.10915936030E+03 -0.66738452053E+02  0.12935517523E+03  0.47000000000E+01 0. -1.
         -5    1    3    3    0  502  0.39574017024E+02  0.74369992710E+01  0.25303519894E+02  0.47788805181E+02  0.47000000000E+01 0. -1.
          5    1    4    4  503    0  0.44489095762E+02 -0.92816204297E+01  0.14504109622E+02  0.47936283914E+02  0.47000000000E+01 0. -1.
         -5    1    4    4    0  503 -0.65600056873E+02 -0.10731473915E+03  0.67584050894E+02  0.14286187257E+03  0.47000000000E+01 0. -1.
<mgrwt>
<rscale>  0 0.17223498E+03</rscale>
<asrwt>0</asrwt>
<pdfrwt beam="1">  1        5 0.31430412E-01 0.17223667E+03</pdfrwt>
<pdfrwt beam="2">  1       -5 0.25176070E-01 0.17223667E+03</pdfrwt>
<totfact> 0.11382458E+02</totfact>
</mgrwt>
</event>
<event>
 8    1  0.3573290E-007  0.1251989E+03  0.7546771E-02  0.1234759E+00
          5   -1    0    0  501    0  0.00000000000E+00  0.00000000000E+00  0.61603708548E+02  0.61782739554E+02  0.47000000000E+01 0.  1.
         -5   -1    0    0    0  501 -0.00000000000E+00 -0.00000000000E+00 -0.31600367668E+03  0.31603862688E+03  0.47000000000E+01 0.  1.
         25    2    1    2    0    0  0.21524568019E+01  0.66627143760E+01 -0.21093762801E+03  0.24529461987E+03  0.12500297115E+03 0.  0.
         25    2    1    2    0    0 -0.21524568019E+01 -0.66627143760E+01 -0.43462340127E+02  0.13252674655E+03  0.12500135483E+03 0.  0.
          5    1    4    4  502    0 -0.61297674748E+02 -0.11667652210E+01 -0.38913810460E+02  0.72767718909E+02  0.47000000000E+01 0.  1.
         -5    1    4    4    0  502  0.59145217947E+02 -0.54959491550E+01 -0.45485296669E+01  0.59759027646E+02  0.47000000000E+01 0.  1.
          5    1    3    3  503    0  0.55919061233E+02 -0.13058786268E+02 -0.15389718467E+03  0.16432865470E+03  0.47000000000E+01 0. -1.
         -5    1    3    3    0  503 -0.53766604431E+02  0.19721500644E+02 -0.57040443341E+02  0.80965965172E+02  0.47000000000E+01 0. -1.
<mgrwt>
<rscale>  0 0.12519851E+03</rscale>
<asrwt>0</asrwt>
<pdfrwt beam="1">  1        5 0.94939539E-02 0.12519891E+03</pdfrwt>
<pdfrwt beam="2">  1       -5 0.48632409E-01 0.12519891E+03</pdfrwt>
<totfact> 0.24857601E+02</totfact>
</mgrwt>
</event>
<event>
 8    1  0.3573290E-007  0.1582402E+03  0.7546771E-02  0.1190699E+00
         -5   -1    0    0    0  501 -0.00000000000E+00  0.00000000000E+00  0.33695888085E+03  0.33699165773E+03  0.47000000000E+01 0.  1.
          5   -1    0    0  501    0  0.00000000000E+00 -0.00000000000E+00 -0.74469178105E+02  0.74617347096E+02  0.47000000000E+01 0.  1.
         25    2    1    2    0    0 -0.76305960672E+02  0.59938008293E+02  0.14362646449E+03  0.21370191344E+03  0.12499912814E+03 0.  0.
         25    2    1    2    0    0  0.76305960672E+02 -0.59938008293E+02  0.11886323826E+03  0.19790709139E+03  0.12499433164E+03 0.  0.
          5    1    4    4  502    0  0.95601633025E+02 -0.13797417325E+01  0.81025354072E+02  0.12541440877E+03  0.47000000000E+01 0.  1.
         -5    1    4    4    0  502 -0.19295672353E+02 -0.58558266560E+02  0.37837884183E+02  0.72492682621E+02  0.47000000000E+01 0.  1.
          5    1    3    3  503    0 -0.31380837315E+02 -0.27194603002E+02  0.95812301805E+02  0.10452937654E+03  0.47000000000E+01 0. -1.
         -5    1    3    3    0  503 -0.44925123356E+02  0.87132611295E+02  0.47814162681E+02  0.10917253690E+03  0.47000000000E+01 0. -1.
<mgrwt>
<rscale>  0 0.15823921E+03</rscale>
<asrwt>0</asrwt>
<pdfrwt beam="2">  1        5 0.11470716E-01 0.15824015E+03</pdfrwt>
<pdfrwt beam="1">  1       -5 0.51853746E-01 0.15824015E+03</pdfrwt>
<totfact> 0.16856712E+02</totfact>
</mgrwt>
</event>
<event>
 8    1  0.3573290E-007  0.1262888E+03  0.7546771E-02  0.1233069E+00
         -5   -1    0    0    0  501 -0.00000000000E+00  0.00000000000E+00  0.13037461278E+02  0.13858766055E+02  0.47000000000E+01 0.  1.
          5   -1    0    0  501    0  0.00000000000E+00 -0.00000000000E+00 -0.12696227622E+04  0.12696314616E+04  0.47000000000E+01 0.  1.
         25    2    1    2    0    0  0.14998681948E+02 -0.10063252948E+02 -0.46279261000E+03  0.47971435691E+03  0.12499053899E+03 0.  0.
         25    2    1    2    0    0 -0.14998681948E+02  0.10063252948E+02 -0.79379269095E+03  0.80377587078E+03  0.12499033849E+03 0.  0.
          5    1    3    3  502    0  0.63174125715E+02 -0.33570859096E+02 -0.23754345379E+03  0.24812689330E+03  0.47000000000E+01 0. -1.
         -5    1    3    3    0  502 -0.48175443767E+02  0.23507606148E+02 -0.22524915621E+03  0.23158746361E+03  0.47000000000E+01 0. -1.
          5    1    4    4  503    0  0.59360027040E+01  0.62532514347E+02 -0.54384873589E+03  0.54748432764E+03  0.47000000000E+01 0.  1.
         -5    1    4    4    0  503 -0.20934684652E+02 -0.52469261399E+02 -0.24994395506E+03  0.25629154314E+03  0.47000000000E+01 0.  1.
<mgrwt>
<rscale>  0 0.12628876E+03</rscale>
<asrwt>0</asrwt>
<pdfrwt beam="2">  1        5 0.19539033E+00 0.12628881E+03</pdfrwt>
<pdfrwt beam="1">  1       -5 0.20696108E-02 0.12628881E+03</pdfrwt>
<totfact> 0.10056697E+02</totfact>
</mgrwt>
</event>
<event>
 8    1  0.3573290E-007  0.1294445E+03  0.7546771E-02  0.1228283E+00
          5   -1    0    0  501    0  0.00000000000E+00  0.00000000000E+00  0.20389674672E+02  0.20924359804E+02  0.47000000000E+01 0.  1.
         -5   -1    0    0    0  501 -0.00000000000E+00 -0.00000000000E+00 -0.84198260194E+03  0.84199571969E+03  0.47000000000E+01 0.  1.
         25    2    1    2    0    0  0.20085930291E+01 -0.33569338154E+02 -0.49408951738E+03  0.51076444529E+03  0.12499972993E+03 0.  0.
         25    2    1    2    0    0 -0.20085930291E+01  0.33569338154E+02 -0.32750340989E+03  0.35215563420E+03  0.12499668915E+03 0.  0.
          5    1    3    3  502    0  0.36312888802E+02 -0.20817524807E+02 -0.51014181186E+02  0.66155361947E+02  0.47000000000E+01 0. -1.
         -5    1    3    3    0  502 -0.34304295773E+02 -0.12751813347E+02 -0.44307533619E+03  0.44460908335E+03  0.47000000000E+01 0. -1.
          5    1    4    4  503    0  0.32963921495E+02 -0.36792642485E+02 -0.14962673308E+03  0.15764062900E+03  0.47000000000E+01 0. -1.
         -5    1    4    4    0  503 -0.34972514524E+02  0.70361980639E+02 -0.17787667682E+03  0.19451500520E+03  0.47000000000E+01 0. -1.
<mgrwt>
<rscale>  0 0.12944372E+03</rscale>
<asrwt>0</asrwt>
<pdfrwt beam="1">  1        5 0.31790124E-02 0.12944446E+03</pdfrwt>
<pdfrwt beam="2">  1       -5 0.12957790E+00 0.12944446E+03</pdfrwt>
<totfact> 0.16101113E+02</totfact>
</mgrwt>
</event>
<event>
 8    1  0.3573290E-007  0.1309509E+03  0.7546771E-02  0.1226052E+00
          5   -1    0    0  501    0  0.00000000000E+00  0.00000000000E+00  0.27231644788E+02  0.27634262753E+02  0.47000000000E+01 0.  1.
         -5   -1    0    0    0  501 -0.00000000000E+00 -0.00000000000E+00 -0.82407453853E+03  0.82408794134E+03  0.47000000000E+01 0.  1.
         25    2    1    2    0    0  0.37440984992E+02 -0.11017785927E+02 -0.60785548658E+03  0.62180094703E+03  0.12499962475E+03 0.  0.
         25    2    1    2    0    0 -0.37440984992E+02  0.11017785927E+02 -0.18898740716E+03  0.22992125706E+03  0.12499730165E+03 0.  0.
          5    1    4    4  502    0  0.46139180371E+02 -0.81934218165E+00 -0.65113645903E+02  0.79946057875E+02  0.47000000000E+01 0. -1.
         -5    1    4    4    0  502 -0.83580165363E+02  0.11837128108E+02 -0.12387376126E+03  0.14997519919E+03  0.47000000000E+01 0. -1.
          5    1    3    3  503    0 -0.24453918766E+02 -0.51071737370E+02 -0.28374899781E+03  0.28938192801E+03  0.47000000000E+01 0.  1.
         -5    1    3    3    0  503  0.61894903759E+02  0.40053951444E+02 -0.32410648877E+03  0.33241901901E+03  0.47000000000E+01 0.  1.
<mgrwt>
<rscale>  0 0.13095030E+03</rscale>
<asrwt>0</asrwt>
<pdfrwt beam="1">  1        5 0.42214860E-02 0.13095085E+03</pdfrwt>
<pdfrwt beam="2">  1       -5 0.12681268E+00 0.13095085E+03</pdfrwt>
<totfact> 0.10765071E+02</totfact>
</mgrwt>
</event>
<event>
 8    1  0.3573290E-007  0.1724272E+03  0.7546771E-02  0.1175342E+00
          5   -1    0    0  501    0  0.00000000000E+00  0.00000000000E+00  0.21287656706E+02  0.21800328622E+02  0.47000000000E+01 0. -1.
         -5   -1    0    0    0  501 -0.00000000000E+00 -0.00000000000E+00 -0.14070122889E+04  0.14070201388E+04  0.47000000000E+01 0. -1.
         25    2    1    2    0    0  0.85560670555E+02  0.82366692690E+02 -0.79280967537E+03  0.81134230474E+03  0.12499701472E+03 0.  0.
         25    2    1    2    0    0 -0.85560670555E+02 -0.82366692690E+02 -0.59291495678E+03  0.61747816268E+03  0.12500493993E+03 0.  0.
          5    1    3    3  502    0  0.47839141903E+02  0.46681690682E+02 -0.12787949874E+03  0.14437111879E+03  0.47000000000E+01 0.  1.
         -5    1    3    3    0  502  0.37721528652E+02  0.35685002008E+02 -0.66493017663E+03  0.66697118595E+03  0.47000000000E+01 0.  1.
          5    1    4    4  503    0 -0.61011294377E+02 -0.95068290963E+02 -0.26168892715E+03  0.28506761054E+03  0.47000000000E+01 0. -1.
         -5    1    4    4    0  503 -0.24549376178E+02  0.12701598273E+02 -0.33122602963E+03  0.33241055214E+03  0.47000000000E+01 0. -1.
<mgrwt>
<rscale>  0 0.17242575E+03</rscale>
<asrwt>0</asrwt>
<pdfrwt beam="1">  1        5 0.33150654E-02 0.17242719E+03</pdfrwt>
<pdfrwt beam="2">  1       -5 0.21650340E+00 0.17242719E+03</pdfrwt>
<totfact> 0.37159651E+01</totfact>
</mgrwt>
</event>
<event>
 8    1  0.3573290E-007  0.1293019E+03  0.7546771E-02  0.1228503E+00
          5   -1    0    0  501    0  0.00000000000E+00  0.00000000000E+00  0.11470603457E+03  0.11480228381E+03  0.47000000000E+01 0. -1.
         -5   -1    0    0    0  501 -0.00000000000E+00 -0.00000000000E+00 -0.20130897192E+03  0.20136383036E+03  0.47000000000E+01 0. -1.
         25    2    1    2    0    0  0.28758627497E+02  0.16298802890E+02 -0.12647395361E+03  0.18085654626E+03  0.12498287785E+03 0.  0.
         25    2    1    2    0    0 -0.28758627497E+02 -0.16298802890E+02  0.39871016257E+02  0.13530956790E+03  0.12500508629E+03 0.  0.
          5    1    3    3  502    0  0.51747811703E+02 -0.39249197949E+02 -0.87443428032E+02  0.10902650440E+03  0.47000000000E+01 0.  1.
         -5    1    3    3    0  502 -0.22989184205E+02  0.55548000839E+02 -0.39030525575E+02  0.71830041865E+02  0.47000000000E+01 0.  1.
          5    1    4    4  503    0 -0.63140557898E+02 -0.83809344558E+01  0.65473170930E+02  0.91464726675E+02  0.47000000000E+01 0. -1.
         -5    1    4    4    0  503  0.34381930400E+02 -0.79178684337E+01 -0.25602154674E+02  0.43844841230E+02  0.47000000000E+01 0. -1.
<mgrwt>
<rscale>  0 0.12929653E+03</rscale>
<asrwt>0</asrwt>
<pdfrwt beam="1">  1        5 0.17658706E-01 0.12930190E+03</pdfrwt>
<pdfrwt beam="2">  1       -5 0.30982235E-01 0.12930190E+03</pdfrwt>
<totfact> 0.20800597E+02</totfact>
</mgrwt>
</event>
<event>
 8    1  0.3573290E-007  0.1675444E+03  0.7546771E-02  0.1180436E+00
         -5   -1    0    0    0  501 -0.00000000000E+00  0.00000000000E+00  0.11338720462E+03  0.11348457239E+03  0.47000000000E+01 0. -1.
          5   -1    0    0  501    0  0.00000000000E+00 -0.00000000000E+00 -0.25918917613E+03  0.25923178629E+03  0.47000000000E+01 0. -1.
         25    2    1    2    0    0  0.11059514559E+03 -0.14696561479E+02 -0.33048281865E+02  0.17077274626E+03  0.12499546705E+03 0.  0.
         25    2    1    2    0    0 -0.11059514559E+03  0.14696561479E+02 -0.11275368965E+03  0.20194361242E+03  0.12498221042E+03 0.  0.
          5    1    3    3  502    0 -0.54750391209E+01 -0.45977361535E+02 -0.22734382202E+01  0.46595625851E+02  0.47000000000E+01 0. -1.
         -5    1    3    3    0  502  0.11607018471E+03  0.31280800056E+02 -0.30774843645E+02  0.12417712041E+03  0.47000000000E+01 0. -1.
          5    1    4    4  503    0 -0.91047626732E+02 -0.35277895837E+02 -0.28294360465E+02  0.10176866464E+03  0.47000000000E+01 0.  1.
         -5    1    4    4    0  503 -0.19547518861E+02  0.49974457316E+02 -0.84459329184E+02  0.10017494779E+03  0.47000000000E+01 0.  1.
<mgrwt>
<rscale>  0 0.16754198E+03</rscale>
<asrwt>0</asrwt>
<pdfrwt beam="2">  1        5 0.39886025E-01 0.16754445E+03</pdfrwt>
<pdfrwt beam="1">  1       -5 0.17454953E-01 0.16754445E+03</pdfrwt>
<totfact> 0.13922649E+02</totfact>
</mgrwt>
</event>
<event>
 8    1  0.3573290E-007  0.1260504E+03  0.7546771E-02  0.1233439E+00
          5   -1    0    0  501    0  0.00000000000E+00  0.00000000000E+00  0.20293135874E+04  0.20293190301E+04  0.47000000000E+01 0.  1.
         -5   -1    0    0    0  501 -0.00000000000E+00 -0.00000000000E+00 -0.95531248066E+01  0.10646698717E+02  0.47000000000E+01 0.  1.
         25    2    1    2    0    0  0.16127568911E+02 -0.14777349895E+01  0.52579032775E+03  0.54068740950E+03  0.12500049540E+03 0.  0.
         25    2    1    2    0    0 -0.16127568911E+02  0.14777349895E+01  0.14939701348E+04  0.14992783193E+04  0.12500573133E+03 0.  0.
          5    1    3    3  502    0  0.16922252019E+02 -0.21364836351E+02  0.19162135633E+02  0.33646638580E+02  0.47000000000E+01 0. -1.
         -5    1    3    3    0  502 -0.79468310813E+00  0.19887101362E+02  0.50662819212E+03  0.50704077092E+03  0.47000000000E+01 0. -1.
          5    1    4    4  503    0 -0.52609360478E+02 -0.60948608951E+01  0.13300062718E+04  0.13310686177E+04  0.47000000000E+01 0. -1.
         -5    1    4    4    0  503  0.36481791567E+02  0.75725958846E+01  0.16396386300E+03  0.16820970155E+03  0.47000000000E+01 0. -1.
<mgrwt>
<rscale>  0 0.12604915E+03</rscale>
<asrwt>0</asrwt>
<pdfrwt beam="1">  1        5 0.31228644E+00 0.12605045E+03</pdfrwt>
<pdfrwt beam="2">  1       -5 0.15542522E-02 0.12605045E+03</pdfrwt>
<totfact> 0.28298189E+01</totfact>
</mgrwt>
</event>
<event>
 8    1  0.3573290E-007  0.1431348E+03  0.7546771E-02  0.1209173E+00
          5   -1    0    0  501    0  0.00000000000E+00  0.00000000000E+00  0.68373560972E+03  0.68375176344E+03  0.47000000000E+01 0.  1.
         -5   -1    0    0    0  501 -0.00000000000E+00 -0.00000000000E+00 -0.30204970473E+02  0.30568451732E+02  0.47000000000E+01 0.  1.
         25    2    1    2    0    0  0.46221971095E+02  0.52209812807E+02  0.28381194085E+03  0.31786151849E+03  0.12499756798E+03 0.  0.
         25    2    1    2    0    0 -0.46221971095E+02 -0.52209812807E+02  0.36971869840E+03  0.39645869668E+03  0.12500098825E+03 0.  0.
          5    1    3    3  502    0  0.76007184148E+02  0.57051589119E+02  0.26600007898E+03  0.28250682803E+03  0.47000000000E+01 0. -1.
         -5    1    3    3    0  502 -0.29785213053E+02 -0.48417763114E+01  0.17811861871E+02  0.35354690464E+02  0.47000000000E+01 0. -1.
          5    1    4    4  503    0  0.49367371880E+01 -0.79123771099E+02  0.15655921849E+03  0.17555005389E+03  0.47000000000E+01 0. -1.
         -5    1    4    4    0  503 -0.51158708283E+02  0.26913958292E+02  0.21315947991E+03  0.22090864279E+03  0.47000000000E+01 0. -1.
<mgrwt>
<rscale>  0 0.14313409E+03</rscale>
<asrwt>0</asrwt>
<pdfrwt beam="1">  1        5 0.10521929E+00 0.14313484E+03</pdfrwt>
<pdfrwt beam="2">  1       -5 0.46761213E-02 0.14313484E+03</pdfrwt>
<totfact> 0.14978450E+02</totfact>
</mgrwt>
</event>
<event>
 8    1  0.3573290E-007  0.1346527E+03  0.7546771E-02  0.1220711E+00
          5   -1    0    0  501    0  0.00000000000E+00  0.00000000000E+00  0.11025772154E+04  0.11025872328E+04  0.47000000000E+01 0. -1.
         -5   -1    0    0    0  501 -0.00000000000E+00 -0.00000000000E+00 -0.16157395238E+02  0.16827103758E+02  0.47000000000E+01 0. -1.
         25    2    1    2    0    0 -0.49536853336E+02 -0.72144591993E+01  0.51005296114E+03  0.52752761570E+03  0.12500165560E+03 0.  0.
         25    2    1    2    0    0  0.49536853336E+02  0.72144591993E+01  0.57636685901E+03  0.59188672083E+03  0.12500074351E+03 0.  0.
          5    1    4    4  502    0  0.70766857336E+02  0.46987218102E+01  0.16157826929E+03  0.17652097097E+03  0.47000000000E+01 0. -1.
         -5    1    4    4    0  502 -0.21230004000E+02  0.25157373891E+01  0.41478858971E+03  0.41536574986E+03  0.47000000000E+01 0. -1.
          5    1    3    3  503    0 -0.70704472884E+02 -0.85092151921E+01  0.14288512138E+03  0.15971780471E+03  0.47000000000E+01 0. -1.
         -5    1    3    3    0  503  0.21167619548E+02  0.12947559928E+01  0.36716783976E+03  0.36780981099E+03  0.47000000000E+01 0. -1.
<mgrwt>
<rscale>  0 0.13465253E+03</rscale>
<asrwt>0</asrwt>
<pdfrwt beam="1">  1        5 0.16967962E+00 0.13465275E+03</pdfrwt>
<pdfrwt beam="2">  1       -5 0.25380387E-02 0.13465275E+03</pdfrwt>
<totfact> 0.11254693E+02</totfact>
</mgrwt>
</event>
<event>
 8    1  0.3573290E-007  0.1314984E+03  0.7546771E-02  0.1225255E+00
          5   -1    0    0  501    0  0.00000000000E+00  0.00000000000E+00  0.22504032025E+02  0.22989594546E+02  0.47000000000E+01 0. -1.
         -5   -1    0    0    0  501 -0.00000000000E+00 -0.00000000000E+00 -0.79077843148E+03  0.79079239861E+03  0.47000000000E+01 0. -1.
         25    2    1    2    0    0 -0.28095740747E+02  0.29529735507E+02 -0.46488661847E+03  0.48312210378E+03  0.12500409274E+03 0.  0.
         25    2    1    2    0    0  0.28095740747E+02 -0.29529735507E+02 -0.30338778099E+03  0.33065988937E+03  0.12502176155E+03 0.  0.
          5    1    3    3  502    0 -0.35868192963E+02  0.24594247895E+02 -0.43779471218E+02  0.61888095755E+02  0.47000000000E+01 0.  1.
         -5    1    3    3    0  502  0.77724522157E+01  0.49354876123E+01 -0.42110714725E+03  0.42123400802E+03  0.47000000000E+01 0.  1.
          5    1    4    4  503    0  0.66010559737E+02 -0.42166884384E+02 -0.12345968002E+03  0.14628678247E+03  0.47000000000E+01 0.  1.
         -5    1    4    4    0  503 -0.37914818989E+02  0.12637148877E+02 -0.17992810097E+03  0.18437310690E+03  0.47000000000E+01 0.  1.
<mgrwt>
<rscale>  0 0.13149415E+03</rscale>
<asrwt>0</asrwt>
<pdfrwt beam="1">  1        5 0.35005847E-02 0.13149835E+03</pdfrwt>
<pdfrwt beam="2">  1       -5 0.12169662E+00 0.13149835E+03</pdfrwt>
<totfact> 0.16275975E+02</totfact>
</mgrwt>
</event>
<event>
 8    1  0.3573290E-007  0.1421813E+03  0.7546771E-02  0.1210425E+00
         -5   -1    0    0    0  501 -0.00000000000E+00  0.00000000000E+00  0.63822333722E+03  0.63824064284E+03  0.47000000000E+01 0. -1.
          5   -1    0    0  501    0  0.00000000000E+00 -0.00000000000E+00 -0.51283543287E+02  0.51498464172E+02  0.47000000000E+01 0. -1.
         25    2    1    2    0    0  0.46942813757E+02 -0.48855503349E+02  0.50714447946E+03  0.52669671217E+03  0.12499366222E+03 0.  0.
         25    2    1    2    0    0 -0.46942813757E+02  0.48855503349E+02  0.79795314472E+02  0.16304239484E+03  0.12500016933E+03 0.  0.
          5    1    3    3  502    0  0.81648267771E+02 -0.36999120805E+02  0.22668602709E+03  0.24381144241E+03  0.47000000000E+01 0. -1.
         -5    1    3    3    0  502 -0.34705454014E+02 -0.11856382544E+02  0.28045845236E+03  0.28288526976E+03  0.47000000000E+01 0. -1.
          5    1    4    4  503    0  0.12345236946E+02 -0.34763314891E+02  0.35035688384E+02  0.51092880111E+02  0.47000000000E+01 0. -1.
         -5    1    4    4    0  503 -0.59288050704E+02  0.83618818240E+02  0.44759626088E+02  0.11194951473E+03  0.47000000000E+01 0. -1.
<mgrwt>
<rscale>  0 0.14217990E+03</rscale>
<asrwt>0</asrwt>
<pdfrwt beam="2">  1        5 0.79076398E-02 0.14218133E+03</pdfrwt>
<pdfrwt beam="1">  1       -5 0.98206066E-01 0.14218133E+03</pdfrwt>
<totfact> 0.73076580E+01</totfact>
</mgrwt>
</event>
<event>
 8    1  0.3573290E-007  0.1315033E+03  0.7546771E-02  0.1225245E+00
          5   -1    0    0  501    0  0.00000000000E+00  0.00000000000E+00  0.18026324902E+03  0.18032451011E+03  0.47000000000E+01 0. -1.
         -5   -1    0    0    0  501 -0.00000000000E+00 -0.00000000000E+00 -0.13053097979E+03  0.13061556831E+03  0.47000000000E+01 0. -1.
         25    2    1    2    0    0 -0.36368336847E+02  0.18607778626E+02 -0.55288995812E+02  0.14265337783E+03  0.12499683116E+03 0.  0.
         25    2    1    2    0    0  0.36368336847E+02 -0.18607778626E+02  0.10502126504E+03  0.16828670059E+03  0.12498816798E+03 0.  0.
          5    1    3    3  502    0  0.98667100410E+01 -0.40591293089E+02 -0.52613287630E+02  0.67344287633E+02  0.47000000000E+01 0.  1.
         -5    1    3    3    0  502 -0.46235046888E+02  0.59199071714E+02 -0.26757081822E+01  0.75309090201E+02  0.47000000000E+01 0.  1.
          5    1    4    4  503    0  0.58828600972E+02 -0.57822263299E+02  0.85308777673E+02  0.11875982474E+03  0.47000000000E+01 0.  1.
         -5    1    4    4    0  503 -0.22460264125E+02  0.39214484673E+02  0.19712487368E+02  0.49526875845E+02  0.47000000000E+01 0.  1.
<mgrwt>
<rscale>  0 0.13150122E+03</rscale>
<asrwt>0</asrwt>
<pdfrwt beam="1">  1        5 0.27744027E-01 0.13150328E+03</pdfrwt>
<pdfrwt beam="2">  1       -5 0.20092908E-01 0.13150328E+03</pdfrwt>
<totfact> 0.20442315E+02</totfact>
</mgrwt>
</event>
<event>
 8    1  0.3573290E-007  0.1375590E+03  0.7546771E-02  0.1216654E+00
          5   -1    0    0  501    0  0.00000000000E+00  0.00000000000E+00  0.61059000507E+02  0.61239623961E+02  0.47000000000E+01 0.  1.
         -5   -1    0    0    0  501 -0.00000000000E+00 -0.00000000000E+00 -0.31492131941E+03  0.31495638971E+03  0.47000000000E+01 0.  1.
         25    2    1    2    0    0  0.53523337514E+02  0.20802741723E+02 -0.15220051742E+03  0.20515231097E+03  0.12499988589E+03 0.  0.
         25    2    1    2    0    0 -0.53523337514E+02 -0.20802741723E+02 -0.10166180148E+03  0.17104370270E+03  0.12499329834E+03 0.  0.
          5    1    4    4  502    0 -0.38195539781E+02 -0.68483622425E+02 -0.31328033877E+02  0.84572108323E+02  0.47000000000E+01 0. -1.
         -5    1    4    4    0  502 -0.15327797733E+02  0.47680880702E+02 -0.70333767606E+02  0.86471594374E+02  0.47000000000E+01 0. -1.
          5    1    3    3  503    0 -0.64187479907E+00  0.53632412335E+02 -0.18152404652E+02  0.56819428462E+02  0.47000000000E+01 0.  1.
         -5    1    3    3    0  503  0.54165212313E+02 -0.32829670612E+02 -0.13404811277E+03  0.14833288251E+03  0.47000000000E+01 0.  1.
<mgrwt>
<rscale>  0 0.13755748E+03</rscale>
<asrwt>0</asrwt>
<pdfrwt beam="1">  1        5 0.94102844E-02 0.13755898E+03</pdfrwt>
<pdfrwt beam="2">  1       -5 0.48466025E-01 0.13755898E+03</pdfrwt>
<totfact> 0.26283940E+02</totfact>
</mgrwt>
</event>
<event>
 8    1  0.3573290E-007  0.1552108E+03  0.7546771E-02  0.1194220E+00
         -5   -1    0    0    0  501 -0.00000000000E+00  0.00000000000E+00  0.61168699689E+02  0.61349000168E+02  0.47000000000E+01 0.  1.
          5   -1    0    0  501    0  0.00000000000E+00 -0.00000000000E+00 -0.39323708147E+03  0.39326516785E+03  0.47000000000E+01 0.  1.
         25    2    1    2    0    0 -0.12859644645E+02  0.91079575863E+02 -0.16040881031E+03  0.22320705179E+03  0.12501816646E+03 0.  0.
         25    2    1    2    0    0  0.12859644645E+02 -0.91079575863E+02 -0.17165957147E+03  0.23140711622E+03  0.12498554061E+03 0.  0.
          5    1    3    3  502    0 -0.50629159807E+02  0.11493691943E+02 -0.10969178283E+03  0.12144872991E+03  0.47000000000E+01 0. -1.
         -5    1    3    3    0  502  0.37769515162E+02  0.79585883920E+02 -0.50717027484E+02  0.10175832188E+03  0.47000000000E+01 0. -1.
          5    1    4    4  503    0  0.11425191286E+02  0.64787651187E+01  0.15153632199E+02  0.20596892052E+02  0.47000000000E+01 0.  1.
         -5    1    4    4    0  503  0.14344533593E+01 -0.97558340982E+02 -0.18681320367E+03  0.21081022417E+03  0.47000000000E+01 0.  1.
<mgrwt>
<rscale>  0 0.15520426E+03</rscale>
<asrwt>0</asrwt>
<pdfrwt beam="2">  1        5 0.60514041E-01 0.15521083E+03</pdfrwt>
<pdfrwt beam="1">  1       -5 0.94265992E-02 0.15521083E+03</pdfrwt>
<totfact> 0.16915470E+02</totfact>
</mgrwt>
</event>
<event>
 8    1  0.3573290E-007  0.1322787E+03  0.7546771E-02  0.1224115E+00
          5   -1    0    0  501    0  0.00000000000E+00  0.00000000000E+00  0.17878680899E+03  0.17884857581E+03  0.47000000000E+01 0. -1.
         -5   -1    0    0    0  501 -0.00000000000E+00 -0.00000000000E+00 -0.10189745891E+03  0.10200579460E+03  0.47000000000E+01 0. -1.
         25    2    1    2    0    0  0.36107289557E+02 -0.23843133347E+02  0.10069083041E+02  0.13265647770E+03  0.12499649305E+03 0.  0.
         25    2    1    2    0    0 -0.36107289557E+02  0.23843133347E+02  0.66820267045E+02  0.14819789271E+03  0.12500174378E+03 0.  0.
          5    1    3    3  502    0  0.50927070179E+02 -0.56270487473E+02 -0.27302255972E+02  0.80792557941E+02  0.47000000000E+01 0. -1.
         -5    1    3    3    0  502 -0.14819780622E+02  0.32427354126E+02  0.37371339014E+02  0.51863919761E+02  0.47000000000E+01 0. -1.
          5    1    4    4  503    0 -0.81565463485E+02  0.57907175924E+01  0.51401123800E+02  0.96698618251E+02  0.47000000000E+01 0. -1.
         -5    1    4    4    0  503  0.45458173927E+02  0.18052415755E+02  0.15419143245E+02  0.51499274459E+02  0.47000000000E+01 0. -1.
<mgrwt>
<rscale>  0 0.13227751E+03</rscale>
<asrwt>0</asrwt>
<pdfrwt beam="1">  1        5 0.27518748E-01 0.13227875E+03</pdfrwt>
<pdfrwt beam="2">  1       -5 0.15689617E-01 0.13227875E+03</pdfrwt>
<totfact> 0.32814119E+02</totfact>
</mgrwt>
</event>
<event>
 8    1  0.3573290E-007  0.1924296E+03  0.7546771E-02  0.1156293E+00
         -5   -1    0    0    0  501 -0.00000000000E+00  0.00000000000E+00  0.96686274265E+02  0.96800442309E+02  0.47000000000E+01 0.  1.
          5   -1    0    0  501    0  0.00000000000E+00 -0.00000000000E+00 -0.38297489078E+03  0.38300372971E+03  0.47000000000E+01 0.  1.
         25    2    1    2    0    0 -0.14581786010E+03 -0.11550722824E+02 -0.13550984838E+03  0.23533866485E+03  0.12500040257E+03 0.  0.
         25    2    1    2    0    0  0.14581786010E+03  0.11550722824E+02 -0.15077876814E+03  0.24446550717E+03  0.12503151504E+03 0.  0.
          5    1    4    4  502    0  0.11360598725E+03 -0.25484772726E+02 -0.39983089618E+02  0.12319306569E+03  0.47000000000E+01 0. -1.
         -5    1    4    4    0  502  0.32211872854E+02  0.37035495550E+02 -0.11079567852E+03  0.12127244148E+03  0.47000000000E+01 0. -1.
          5    1    3    3  503    0  0.86948346197E+01 -0.42976777135E+00 -0.63811652621E+02  0.64574002971E+02  0.47000000000E+01 0. -1.
         -5    1    3    3    0  503 -0.15451269472E+03 -0.11120955052E+02 -0.71698195755E+02  0.17076466187E+03  0.47000000000E+01 0. -1.
<mgrwt>
<rscale>  0 0.19242454E+03</rscale>
<asrwt>0</asrwt>
<pdfrwt beam="2">  1        5 0.58930214E-01 0.19242959E+03</pdfrwt>
<pdfrwt beam="1">  1       -5 0.14885812E-01 0.19242959E+03</pdfrwt>
<totfact> 0.84813834E+01</totfact>
</mgrwt>
</event>
<event>
 8    1  0.3573290E-007  0.1588819E+03  0.7546771E-02  0.1189966E+00
         -5   -1    0    0    0  501 -0.00000000000E+00  0.00000000000E+00  0.59839421084E+03  0.59841266828E+03  0.47000000000E+01 0. -1.
          5   -1    0    0  501    0  0.00000000000E+00 -0.00000000000E+00 -0.45206802529E+02  0.45450467488E+02  0.47000000000E+01 0. -1.
         25    2    1    2    0    0  0.82468129854E+01 -0.97723013804E+02  0.36162142430E+03  0.39498544051E+03  0.12500258539E+03 0.  0.
         25    2    1    2    0    0 -0.82468129854E+01  0.97723013804E+02  0.19156598401E+03  0.24887769526E+03  0.12499913447E+03 0.  0.
          5    1    3    3  502    0 -0.50222537081E+02 -0.84979522427E+02  0.22885376565E+03  0.24927887699E+03  0.47000000000E+01 0. -1.
         -5    1    3    3    0  502  0.58469350066E+02 -0.12743491378E+02  0.13276765865E+03  0.14570656352E+03  0.47000000000E+01 0. -1.
          5    1    4    4  503    0 -0.48630920179E+02  0.39971468395E+02  0.24889185064E+02  0.67854596132E+02  0.47000000000E+01 0. -1.
         -5    1    4    4    0  503  0.40384107194E+02  0.57751545409E+02  0.16667679895E+03  0.18102309913E+03  0.47000000000E+01 0. -1.
<mgrwt>
<rscale>  0 0.15888118E+03</rscale>
<asrwt>0</asrwt>
<pdfrwt beam="2">  1        5 0.69750559E-02 0.15888185E+03</pdfrwt>
<pdfrwt beam="1">  1       -5 0.92080812E-01 0.15888185E+03</pdfrwt>
<totfact> 0.10942837E+02</totfact>
</mgrwt>
</event>
<event>
 8    1  0.3573290E-007  0.1851198E+03  0.7546771E-02  0.1162942E+00
          5   -1    0    0  501    0  0.00000000000E+00  0.00000000000E+00  0.36745523324E+03  0.36748529009E+03  0.47000000000E+01 0.  1.
         -5   -1    0    0    0  501 -0.00000000000E+00 -0.00000000000E+00 -0.97761991847E+02  0.97874905108E+02  0.47000000000E+01 0.  1.
         25    2    1    2    0    0  0.13607801747E+03 -0.11260499419E+02  0.84392206812E+02  0.20343304551E+03  0.12497573264E+03 0.  0.
         25    2    1    2    0    0 -0.13607801747E+03  0.11260499419E+02  0.18530103458E+03  0.26192714969E+03  0.12500133057E+03 0.  0.
          5    1    3    3  502    0  0.34136044615E+02  0.46757959858E+02  0.60052780537E+02  0.83546411067E+02  0.47000000000E+01 0. -1.
         -5    1    3    3    0  502  0.10194197285E+03 -0.58018459277E+02  0.24339426276E+02  0.11988663444E+03  0.47000000000E+01 0. -1.
          5    1    4    4  503    0 -0.15610249428E+03 -0.61214102327E+01  0.14335486380E+03  0.21208056808E+03  0.47000000000E+01 0.  1.
         -5    1    4    4    0  503  0.20024476815E+02  0.17381909652E+02  0.41946170783E+02  0.49846581610E+02  0.47000000000E+01 0.  1.
<mgrwt>
<rscale>  0 0.18511553E+03</rscale>
<asrwt>0</asrwt>
<pdfrwt beam="1">  1        5 0.56542571E-01 0.18511985E+03</pdfrwt>
<pdfrwt beam="2">  1       -5 0.15051304E-01 0.18511985E+03</pdfrwt>
<totfact> 0.89991493E+01</totfact>
</mgrwt>
</event>
<event>
 8    1  0.3573290E-007  0.1588403E+03  0.7546771E-02  0.1190013E+00
         -5   -1    0    0    0  501 -0.00000000000E+00  0.00000000000E+00  0.12494942497E+02  0.13349666214E+02  0.47000000000E+01 0.  1.
          5   -1    0    0  501    0  0.00000000000E+00 -0.00000000000E+00 -0.22573925565E+04  0.22573974493E+04  0.47000000000E+01 0.  1.
         25    2    1    2    0    0  0.94918188641E+02  0.24398046833E+02 -0.70463341401E+03  0.72231466652E+03  0.12500200843E+03 0.  0.
         25    2    1    2    0    0 -0.94918188641E+02 -0.24398046833E+02 -0.15402642000E+04  0.15484324490E+04  0.12499806441E+03 0.  0.
          5    1    4    4  502    0 -0.11155504059E+03 -0.27726062549E+02 -0.15009942534E+04  0.15053966588E+04  0.47000000000E+01 0.  1.
         -5    1    4    4    0  502  0.16636851951E+02  0.33280157167E+01 -0.39269946592E+02  0.43035790184E+02  0.47000000000E+01 0.  1.
          5    1    3    3  503    0 -0.54223111108E+01 -0.20724418026E+02 -0.22762146790E+02  0.31608674233E+02  0.47000000000E+01 0.  1.
         -5    1    3    3    0  503  0.10034049975E+03  0.45122464859E+02 -0.68187126722E+03  0.69070599229E+03  0.47000000000E+01 0.  1.
<mgrwt>
<rscale>  0 0.15883949E+03</rscale>
<asrwt>0</asrwt>
<pdfrwt beam="2">  1        5 0.34735697E+00 0.15884026E+03</pdfrwt>
<pdfrwt beam="1">  1       -5 0.19884250E-02 0.15884026E+03</pdfrwt>
<totfact> 0.11995940E+01</totfact>
</mgrwt>
</event>
<event>
 8    1  0.3573290E-007  0.1256354E+03  0.7546771E-02  0.1234080E+00
         -5   -1    0    0    0  501 -0.00000000000E+00  0.00000000000E+00  0.14204373159E+02  0.14961758481E+02  0.47000000000E+01 0.  1.
          5   -1    0    0  501    0  0.00000000000E+00 -0.00000000000E+00 -0.10829966101E+04  0.10830068086E+04  0.47000000000E+01 0.  1.
         25    2    1    2    0    0 -0.99339796018E+01 -0.77462594050E+01 -0.55411239160E+03  0.56817652863E+03  0.12500134672E+03 0.  0.
         25    2    1    2    0    0  0.99339796018E+01  0.77462594050E+01 -0.51467984535E+03  0.52979203846E+03  0.12500228926E+03 0.  0.
          5    1    3    3  502    0 -0.56368110504E+02  0.63673173719E+01 -0.44550018859E+03  0.44912182606E+03  0.47000000000E+01 0.  1.
         -5    1    3    3    0  502  0.46434130902E+02 -0.14113576777E+02 -0.10861220301E+03  0.11905470258E+03  0.47000000000E+01 0.  1.
          5    1    4    4  503    0  0.14252324307E+02 -0.22340129213E+02 -0.18495792246E+02  0.32655695556E+02  0.47000000000E+01 0. -1.
         -5    1    4    4    0  503 -0.43183447056E+01  0.30086388618E+02 -0.49618405310E+03  0.49713634290E+03  0.47000000000E+01 0. -1.
<mgrwt>
<rscale>  0 0.12563519E+03</rscale>
<asrwt>0</asrwt>
<pdfrwt beam="2">  1        5 0.16667384E+00 0.12563543E+03</pdfrwt>
<pdfrwt beam="1">  1       -5 0.22443339E-02 0.12563543E+03</pdfrwt>
<totfact> 0.14090776E+02</totfact>
</mgrwt>
</event>
<event>
 8    1  0.3573290E-007  0.1372871E+03  0.7546771E-02  0.1217032E+00
         -5   -1    0    0    0  501 -0.00000000000E+00  0.00000000000E+00  0.98034605939E+02  0.98147205572E+02  0.47000000000E+01 0. -1.
          5   -1    0    0  501    0  0.00000000000E+00 -0.00000000000E+00 -0.22787301133E+03  0.22792147616E+03  0.47000000000E+01 0. -1.
         25    2    1    2    0    0  0.56722492199E+02 -0.14217095283E+01 -0.24293844674E+00  0.13728734263E+03  0.12501317149E+03 0.  0.
         25    2    1    2    0    0 -0.56722492199E+02  0.14217095283E+01 -0.12959546695E+03  0.18878133910E+03  0.12499578617E+03 0.  0.
          5    1    4    4  502    0 -0.80346753050E+02 -0.10789216389E+02 -0.31604992082E+02  0.87137669468E+02  0.47000000000E+01 0. -1.
         -5    1    4    4    0  502  0.23624260851E+02  0.12210925917E+02 -0.97990474865E+02  0.10164366963E+03  0.47000000000E+01 0. -1.
          5    1    3    3  503    0  0.88287306520E+02  0.33115748624E+00  0.29922347505E+02  0.93339139905E+02  0.47000000000E+01 0. -1.
         -5    1    3    3    0  503 -0.31564814321E+02 -0.17528670146E+01 -0.30165285952E+02  0.43948202722E+02  0.47000000000E+01 0. -1.
<mgrwt>
<rscale>  0 0.13728317E+03</rscale>
<asrwt>0</asrwt>
<pdfrwt beam="2">  1        5 0.35069776E-01 0.13728713E+03</pdfrwt>
<pdfrwt beam="1">  1       -5 0.15094637E-01 0.13728713E+03</pdfrwt>
<totfact> 0.22104339E+02</totfact>
</mgrwt>
</event>
<event>
 8    1  0.3573290E-007  0.1384684E+03  0.7546771E-02  0.1215406E+00
         -5   -1    0    0    0  501 -0.00000000000E+00  0.00000000000E+00  0.65913609130E+03  0.65915284787E+03  0.47000000000E+01 0. -1.
          5   -1    0    0  501    0  0.00000000000E+00 -0.00000000000E+00 -0.29636207188E+02  0.30006578887E+02  0.47000000000E+01 0. -1.
         25    2    1    2    0    0  0.58517416495E+02 -0.11129949942E+02  0.36939764211E+03  0.39449727860E+03  0.12500128403E+03 0.  0.
         25    2    1    2    0    0 -0.58517416495E+02  0.11129949942E+02  0.26010224200E+03  0.29466214816E+03  0.12499776575E+03 0.  0.
          5    1    3    3  502    0  0.31956393385E+02  0.28460048681E+02  0.31808912448E+02  0.53526464111E+02  0.47000000000E+01 0. -1.
         -5    1    3    3    0  502  0.26561023110E+02 -0.39589998623E+02  0.33758872966E+03  0.34097081449E+03  0.47000000000E+01 0. -1.
          5    1    4    4  503    0 -0.75325272834E+02  0.52807670107E+02  0.19172662830E+03  0.21270575156E+03  0.47000000000E+01 0. -1.
         -5    1    4    4    0  503  0.16807856340E+02 -0.41677720165E+02  0.68375613710E+02  0.81956396596E+02  0.47000000000E+01 0. -1.
<mgrwt>
<rscale>  0 0.13846756E+03</rscale>
<asrwt>0</asrwt>
<pdfrwt beam="2">  1        5 0.45891957E-02 0.13846835E+03</pdfrwt>
<pdfrwt beam="1">  1       -5 0.10143533E+00 0.13846835E+03</pdfrwt>
<totfact> 0.16727187E+02</totfact>
</mgrwt>
</event>
<event>
 8    1  0.3573290E-007  0.1294526E+03  0.7546771E-02  0.1228270E+00
          5   -1    0    0  501    0  0.00000000000E+00  0.00000000000E+00  0.47254733495E+03  0.47257070769E+03  0.47000000000E+01 0. -1.
         -5   -1    0    0    0  501 -0.00000000000E+00 -0.00000000000E+00 -0.40027946125E+02  0.40302933776E+02  0.47000000000E+01 0. -1.
         25    2    1    2    0    0 -0.73763409982E+01  0.32844657773E+02  0.12831522463E+03  0.18227093130E+03  0.12499885429E+03 0.  0.
         25    2    1    2    0    0  0.73763409982E+01 -0.32844657773E+02  0.30420416419E+03  0.33060271017E+03  0.12499918603E+03 0.  0.
          5    1    4    4  502    0  0.43788964893E+02  0.16914675810E-01  0.33192007234E+02  0.55147738636E+02  0.47000000000E+01 0. -1.
         -5    1    4    4    0  502 -0.36412623895E+02 -0.32861572449E+02  0.27101215696E+03  0.27545497153E+03  0.47000000000E+01 0. -1.
          5    1    3    3  503    0 -0.98908392647E+01 -0.11758091493E+02  0.13578638726E+03  0.13673373535E+03  0.47000000000E+01 0.  1.
         -5    1    3    3    0  503  0.25144982665E+01  0.44602749266E+02 -0.74711626319E+01  0.45537195947E+02  0.47000000000E+01 0.  1.
<mgrwt>
<rscale>  0 0.12945253E+03</rscale>
<asrwt>0</asrwt>
<pdfrwt beam="1">  1        5 0.72722542E-01 0.12945261E+03</pdfrwt>
<pdfrwt beam="2">  1       -5 0.61810962E-02 0.12945261E+03</pdfrwt>
<totfact> 0.21748849E+02</totfact>
</mgrwt>
</event>
<event>
 8    1  0.3573290E-007  0.1305815E+03  0.7546771E-02  0.1226601E+00
          5   -1    0    0  501    0  0.00000000000E+00  0.00000000000E+00  0.63395858723E+02  0.63569842718E+02  0.47000000000E+01 0.  1.
         -5   -1    0    0    0  501 -0.00000000000E+00 -0.00000000000E+00 -0.32381213628E+03  0.32384624377E+03  0.47000000000E+01 0.  1.
         25    2    1    2    0    0 -0.28506852663E+02  0.24777549172E+02 -0.21033884552E+03  0.24757615622E+03  0.12499982240E+03 0.  0.
         25    2    1    2    0    0  0.28506852663E+02 -0.24777549172E+02 -0.50077432044E+02  0.13983993028E+03  0.12498355615E+03 0.  0.
          5    1    4    4  502    0 -0.53393186858E+01 -0.68983915722E+02 -0.47208175509E+02  0.83892733817E+02  0.47000000000E+01 0.  1.
         -5    1    4    4    0  502  0.33846171349E+02  0.44206366550E+02 -0.28692565347E+01  0.55947196459E+02  0.47000000000E+01 0.  1.
          5    1    3    3  503    0 -0.67745769633E+02 -0.16763547777E+02 -0.14258607087E+03  0.15881871251E+03  0.47000000000E+01 0. -1.
         -5    1    3    3    0  503  0.39238916970E+02  0.41541096949E+02 -0.67752774651E+02  0.88757443708E+02  0.47000000000E+01 0. -1.
<mgrwt>
<rscale>  0 0.13057759E+03</rscale>
<asrwt>0</asrwt>
<pdfrwt beam="1">  1        5 0.97692162E-02 0.13058148E+03</pdfrwt>
<pdfrwt beam="2">  1       -5 0.49833258E-01 0.13058148E+03</pdfrwt>
<totfact> 0.22809416E+02</totfact>
</mgrwt>
</event>
<event>
 8    1  0.3573290E-007  0.1270000E+03  0.7546771E-02  0.1231984E+00
          5   -1    0    0  501    0  0.00000000000E+00  0.00000000000E+00  0.55660725229E+03  0.55662709537E+03  0.47000000000E+01 0. -1.
         -5   -1    0    0    0  501 -0.00000000000E+00 -0.00000000000E+00 -0.31287553110E+02  0.31638599520E+02  0.47000000000E+01 0. -1.
         25    2    1    2    0    0  0.10954673568E+02  0.19566992895E+02  0.17961921111E+03  0.21998193071E+03  0.12500446694E+03 0.  0.
         25    2    1    2    0    0 -0.10954673568E+02 -0.19566992895E+02  0.34570048807E+03  0.36828376418E+03  0.12498492479E+03 0.  0.
          5    1    4    4  502    0  0.37078611856E+02 -0.54294391325E+02  0.15235885431E+03  0.16600606879E+03  0.47000000000E+01 0.  1.
         -5    1    4    4    0  502 -0.48033285423E+02  0.34727398430E+02  0.19334163376E+03  0.20227769540E+03  0.47000000000E+01 0.  1.
          5    1    3    3  503    0  0.14478608741E+02 -0.34271288965E+02  0.58309187821E+01  0.37950506877E+02  0.47000000000E+01 0.  1.
         -5    1    3    3    0  503 -0.35239351736E+01  0.53838281859E+02  0.17378829233E+03  0.18203142383E+03  0.47000000000E+01 0.  1.
<mgrwt>
<rscale>  0 0.12699515E+03</rscale>
<asrwt>0</asrwt>
<pdfrwt beam="1">  1        5 0.85660410E-01 0.12699996E+03</pdfrwt>
<pdfrwt beam="2">  1       -5 0.48419999E-02 0.12699996E+03</pdfrwt>
<totfact> 0.22262010E+02</totfact>
</mgrwt>
</event>
<event>
 8    1  0.3573290E-007  0.1273806E+03  0.7546771E-02  0.1231396E+00
         -5   -1    0    0    0  501 -0.00000000000E+00  0.00000000000E+00  0.16973700194E+02  0.17612396153E+02  0.47000000000E+01 0. -1.
          5   -1    0    0  501    0  0.00000000000E+00 -0.00000000000E+00 -0.95204218352E+03  0.95205378482E+03  0.47000000000E+01 0. -1.
         25    2    1    2    0    0  0.15090885165E+01 -0.24473304391E+02 -0.40787793870E+03  0.42730495462E+03  0.12499556548E+03 0.  0.
         25    2    1    2    0    0 -0.15090885165E+01  0.24473304391E+02 -0.52719054462E+03  0.54236122635E+03  0.12499843814E+03 0.  0.
          5    1    3    3  502    0 -0.45712023921E+02 -0.51619733343E+02 -0.17631706204E+03  0.18937788247E+03  0.47000000000E+01 0.  1.
         -5    1    3    3    0  502  0.47221112437E+02  0.27146428951E+02 -0.23156087666E+03  0.23792707215E+03  0.47000000000E+01 0.  1.
          5    1    4    4  503    0  0.53361578951E+02 -0.44310581540E+01 -0.13564541364E+03  0.14590702733E+03  0.47000000000E+01 0.  1.
         -5    1    4    4    0  503 -0.54870667467E+02  0.28904362545E+02 -0.39154513098E+03  0.39645419902E+03  0.47000000000E+01 0.  1.
<mgrwt>
<rscale>  0 0.12737994E+03</rscale>
<asrwt>0</asrwt>
<pdfrwt beam="2">  1        5 0.14651801E+00 0.12738065E+03</pdfrwt>
<pdfrwt beam="1">  1       -5 0.26613621E-02 0.12738065E+03</pdfrwt>
<totfact> 0.15401510E+02</totfact>
</mgrwt>
</event>
<event>
 8    1  0.3573290E-007  0.1265750E+03  0.7546771E-02  0.1232644E+00
         -5   -1    0    0    0  501 -0.00000000000E+00  0.00000000000E+00  0.12256265227E+04  0.12256355344E+04  0.47000000000E+01 0.  1.
          5   -1    0    0  501    0  0.00000000000E+00 -0.00000000000E+00 -0.12663297406E+02  0.13507372105E+02  0.47000000000E+01 0.  1.
         25    2    1    2    0    0 -0.13226553669E+02  0.14873482694E+02  0.63442684947E+03  0.64692203833E+03  0.12495812951E+03 0.  0.
         25    2    1    2    0    0  0.13226553669E+02 -0.14873482694E+02  0.57853637582E+03  0.59222086816E+03  0.12500022532E+03 0.  0.
          5    1    3    3  502    0 -0.82488409048E+01 -0.55254132160E+02  0.28486366925E+03  0.29032819800E+03  0.47000000000E+01 0.  1.
         -5    1    3    3    0  502 -0.49777127638E+01  0.70127614854E+02  0.34956318022E+03  0.35659384033E+03  0.47000000000E+01 0.  1.
          5    1    4    4  503    0 -0.31544547547E+02 -0.94838319713E+01  0.50316456609E+03  0.50426349473E+03  0.47000000000E+01 0.  1.
         -5    1    4    4    0  503  0.44771101216E+02 -0.53896507230E+01  0.75371809727E+02  0.87957373429E+02  0.47000000000E+01 0.  1.
<mgrwt>
<rscale>  0 0.12656456E+03</rscale>
<asrwt>0</asrwt>
<pdfrwt beam="2">  1        5 0.20138213E-02 0.12657495E+03</pdfrwt>
<pdfrwt beam="1">  1       -5 0.18862358E+00 0.12657495E+03</pdfrwt>
<totfact> 0.11694548E+02</totfact>
</mgrwt>
</event>
<event>
 8    1  0.3573290E-007  0.1427346E+03  0.7546771E-02  0.1209698E+00
          5   -1    0    0  501    0  0.00000000000E+00  0.00000000000E+00  0.26496511638E+03  0.26500679783E+03  0.47000000000E+01 0.  1.
         -5   -1    0    0    0  501 -0.00000000000E+00 -0.00000000000E+00 -0.77337399561E+02  0.77480083705E+02  0.47000000000E+01 0.  1.
         25    2    1    2    0    0 -0.66118027373E+02 -0.19365151925E+02  0.79138080880E+02  0.16320539936E+03  0.12500625537E+03 0.  0.
         25    2    1    2    0    0  0.66118027373E+02  0.19365151925E+02  0.10848963593E+03  0.17928148218E+03  0.12500098437E+03 0.  0.
          5    1    3    3  502    0 -0.44040106776E+02 -0.61039434671E+02  0.54763974084E+01  0.75613652989E+02  0.47000000000E+01 0. -1.
         -5    1    3    3    0  502 -0.22077920597E+02  0.41674282746E+02  0.73661683471E+02  0.87591746370E+02  0.47000000000E+01 0. -1.
          5    1    4    4  503    0  0.81414243759E+02 -0.24744054154E+02  0.35083708914E+02  0.92160207975E+02  0.47000000000E+01 0. -1.
         -5    1    4    4    0  503 -0.15296216386E+02  0.44109206079E+02  0.73405927020E+02  0.87121274201E+02  0.47000000000E+01 0. -1.
<mgrwt>
<rscale>  0 0.14273345E+03</rscale>
<asrwt>0</asrwt>
<pdfrwt beam="1">  1        5 0.40778046E-01 0.14273460E+03</pdfrwt>
<pdfrwt beam="2">  1       -5 0.11912243E-01 0.14273460E+03</pdfrwt>
<totfact> 0.25208116E+02</totfact>
</mgrwt>
</event>
<event>
 8    1  0.3573290E-007  0.1261574E+03  0.7546771E-02  0.1233273E+00
         -5   -1    0    0    0  501 -0.00000000000E+00  0.00000000000E+00  0.70745251976E+02  0.70901203637E+02  0.47000000000E+01 0.  1.
          5   -1    0    0  501    0  0.00000000000E+00 -0.00000000000E+00 -0.25429605391E+03  0.25433948383E+03  0.47000000000E+01 0.  1.
         25    2    1    2    0    0  0.16947110282E+02  0.16918990501E+01 -0.36167873733E+02  0.13123950293E+03  0.12500249985E+03 0.  0.
         25    2    1    2    0    0 -0.16947110282E+02 -0.16918990501E+01 -0.14738292820E+03  0.19400118454E+03  0.12499866003E+03 0.  0.
          5    1    3    3  502    0 -0.27342711686E+02 -0.38506472684E+02 -0.50762711636E+02  0.69493274592E+02  0.47000000000E+01 0.  1.
         -5    1    3    3    0  502  0.44289821968E+02  0.40198371734E+02  0.14594837903E+02  0.61746228333E+02  0.47000000000E+01 0.  1.
          5    1    4    4  503    0 -0.47482173887E+02 -0.48492774459E+02 -0.97873439192E+02  0.11919482418E+03  0.47000000000E+01 0. -1.
         -5    1    4    4    0  503  0.30535063605E+02  0.46800875409E+02 -0.49509489006E+02  0.74806360358E+02  0.47000000000E+01 0. -1.
<mgrwt>
<rscale>  0 0.12615646E+03</rscale>
<asrwt>0</asrwt>
<pdfrwt beam="2">  1        5 0.39137807E-01 0.12615741E+03</pdfrwt>
<pdfrwt beam="1">  1       -5 0.10899222E-01 0.12615741E+03</pdfrwt>
<totfact> 0.30711996E+02</totfact>
</mgrwt>
</event>
<event>
 8    1  0.3573290E-007  0.1279987E+03  0.7546771E-02  0.1230457E+00
         -5   -1    0    0    0  501 -0.00000000000E+00  0.00000000000E+00  0.64348350867E+02  0.64519766423E+02  0.47000000000E+01 0. -1.
          5   -1    0    0  501    0  0.00000000000E+00 -0.00000000000E+00 -0.27513940237E+03  0.27517954273E+03  0.47000000000E+01 0. -1.
         25    2    1    2    0    0 -0.21088562322E+02  0.17701495017E+02 -0.58410340828E+02  0.14069291684E+03  0.12499863417E+03 0.  0.
         25    2    1    2    0    0  0.21088562322E+02 -0.17701495017E+02 -0.15238071068E+03  0.19900639232E+03  0.12500237122E+03 0.  0.
          5    1    3    3  502    0 -0.39525508943E+02  0.40488348274E+02 -0.84075138848E+02  0.10145092989E+03  0.47000000000E+01 0.  1.
         -5    1    3    3    0  502  0.18436946621E+02 -0.22786853257E+02  0.25664798020E+02  0.39241986946E+02  0.47000000000E+01 0.  1.
          5    1    4    4  503    0  0.66777568572E+02 -0.11876941569E+02 -0.13187792325E+03  0.14837176971E+03  0.47000000000E+01 0. -1.
         -5    1    4    4    0  503 -0.45689006250E+02 -0.58245534477E+01 -0.20502787430E+02  0.50634622615E+02  0.47000000000E+01 0. -1.
<mgrwt>
<rscale>  0 0.12799777E+03</rscale>
<asrwt>0</asrwt>
<pdfrwt beam="2">  1        5 0.42345412E-01 0.12799868E+03</pdfrwt>
<pdfrwt beam="1">  1       -5 0.99160199E-02 0.12799868E+03</pdfrwt>
<totfact> 0.30998423E+02</totfact>
</mgrwt>
</event>
<event>
 8    1  0.3573290E-007  0.1985694E+03  0.7546771E-02  0.1150953E+00
          5   -1    0    0  501    0  0.00000000000E+00  0.00000000000E+00  0.28425684167E+03  0.28429569472E+03  0.47000000000E+01 0. -1.
         -5   -1    0    0    0  501 -0.00000000000E+00 -0.00000000000E+00 -0.17660310412E+03  0.17666563442E+03  0.47000000000E+01 0. -1.
         25    2    1    2    0    0 -0.97524899763E+02 -0.11955564286E+03 -0.53032208562E+02  0.20552099454E+03  0.12498722429E+03 0.  0.
         25    2    1    2    0    0  0.97524899763E+02  0.11955564286E+03  0.16068594611E+03  0.25544033461E+03  0.12500053381E+03 0.  0.
          5    1    4    4  502    0  0.11700490791E+03  0.13077897960E+03  0.14403997154E+03  0.22707464275E+03  0.47000000000E+01 0. -1.
         -5    1    4    4    0  502 -0.19480008150E+02 -0.11223336736E+02  0.16645974571E+02  0.28365691855E+02  0.47000000000E+01 0. -1.
          5    1    3    3  503    0 -0.12556004507E+02 -0.91107931092E+02  0.14494232494E+02  0.93222750081E+02  0.47000000000E+01 0. -1.
         -5    1    3    3    0  503 -0.84968895256E+02 -0.28447711772E+02 -0.67526441056E+02  0.11229824445E+03  0.47000000000E+01 0. -1.
<mgrwt>
<rscale>  0 0.19856727E+03</rscale>
<asrwt>0</asrwt>
<pdfrwt beam="1">  1        5 0.43739620E-01 0.19856936E+03</pdfrwt>
<pdfrwt beam="2">  1       -5 0.27177507E-01 0.19856936E+03</pdfrwt>
<totfact> 0.52171434E+01</totfact>
</mgrwt>
</event>
<event>
 8    1  0.3573290E-007  0.1407692E+03  0.7546771E-02  0.1212299E+00
          5   -1    0    0  501    0  0.00000000000E+00  0.00000000000E+00  0.19821296066E+03  0.19826867572E+03  0.47000000000E+01 0.  1.
         -5   -1    0    0    0  501 -0.00000000000E+00 -0.00000000000E+00 -0.12343067254E+03  0.12352012356E+03  0.47000000000E+01 0.  1.
         25    2    1    2    0    0  0.29930921405E+02 -0.57399805007E+02 -0.32896390704E+02  0.14456188488E+03  0.12500147346E+03 0.  0.
         25    2    1    2    0    0 -0.29930921405E+02  0.57399805007E+02  0.10767867882E+03  0.17722691440E+03  0.12499633453E+03 0.  0.
          5    1    3    3  502    0  0.70056164696E+02 -0.14163592656E+02  0.88099704877E+01  0.72167715419E+02  0.47000000000E+01 0. -1.
         -5    1    3    3    0  502 -0.40125243290E+02 -0.43236212351E+02 -0.41706361192E+02  0.72394169457E+02  0.47000000000E+01 0. -1.
          5    1    4    4  503    0  0.47376710115E+02  0.14444982778E+02  0.55068154080E+02  0.74214565838E+02  0.47000000000E+01 0. -1.
         -5    1    4    4    0  503 -0.77307631520E+02  0.42954822229E+02  0.52610524736E+02  0.10301234857E+03  0.47000000000E+01 0. -1.
<mgrwt>
<rscale>  0 0.14076805E+03</rscale>
<asrwt>0</asrwt>
<pdfrwt beam="1">  1        5 0.30505468E-01 0.14076919E+03</pdfrwt>
<pdfrwt beam="2">  1       -5 0.19000501E-01 0.14076919E+03</pdfrwt>
<totfact> 0.19283410E+02</totfact>
</mgrwt>
</event>
<event>
 8    1  0.3573290E-007  0.1272434E+03  0.7546771E-02  0.1231613E+00
         -5   -1    0    0    0  501 -0.00000000000E+00  0.00000000000E+00  0.19783771918E+02  0.20334395277E+02  0.47000000000E+01 0. -1.
          5   -1    0    0  501    0  0.00000000000E+00 -0.00000000000E+00 -0.88514008852E+03  0.88515256669E+03  0.47000000000E+01 0. -1.
         25    2    1    2    0    0 -0.10138729638E+02 -0.21525611285E+02 -0.29777632262E+03  0.32382343625E+03  0.12499893508E+03 0.  0.
         25    2    1    2    0    0  0.10138729638E+02  0.21525611285E+02 -0.56757999398E+03  0.58166352572E+03  0.12497704508E+03 0.  0.
          5    1    3    3  502    0 -0.48303965933E+02  0.31241115419E+02 -0.98976191936E+02  0.11457598783E+03  0.47000000000E+01 0. -1.
         -5    1    3    3    0  502  0.38165236294E+02 -0.52766726704E+02 -0.19880013069E+03  0.20924744842E+03  0.47000000000E+01 0. -1.
          5    1    4    4  503    0 -0.45157403464E+01 -0.51137545376E+02 -0.27592618555E+03  0.28070053496E+03  0.47000000000E+01 0. -1.
         -5    1    4    4    0  503  0.14654469985E+02  0.72663156661E+02 -0.29165380844E+03  0.30096299075E+03  0.47000000000E+01 0. -1.
<mgrwt>
<rscale>  0 0.12723801E+03</rscale>
<asrwt>0</asrwt>
<pdfrwt beam="2">  1        5 0.13621868E+00 0.12724339E+03</pdfrwt>
<pdfrwt beam="1">  1       -5 0.30869734E-02 0.12724339E+03</pdfrwt>
<totfact> 0.14732976E+02</totfact>
</mgrwt>
</event>
<event>
 8    1  0.3573290E-007  0.1290096E+03  0.7546771E-02  0.1228938E+00
          5   -1    0    0  501    0  0.00000000000E+00  0.00000000000E+00  0.13524046262E+03  0.13532210732E+03  0.47000000000E+01 0. -1.
         -5   -1    0    0    0  501 -0.00000000000E+00 -0.00000000000E+00 -0.12302066394E+03  0.12311041287E+03  0.47000000000E+01 0. -1.
         25    2    1    2    0    0  0.22978353177E+02 -0.22131836432E+02  0.10330061039E+02  0.12942256095E+03  0.12500266487E+03 0.  0.
         25    2    1    2    0    0 -0.22978353177E+02  0.22131836432E+02  0.18897376417E+01  0.12900995924E+03  0.12498870179E+03 0.  0.
          5    1    4    4  502    0  0.40398429683E+02 -0.25697620741E+02  0.97394596728E+01  0.49085108815E+02  0.47000000000E+01 0. -1.
         -5    1    4    4    0  502 -0.63376782860E+02  0.47829457174E+02 -0.78497220312E+01  0.79924850423E+02  0.47000000000E+01 0. -1.
          5    1    3    3  503    0 -0.31567543516E+01 -0.72150062751E+02  0.65007966342E+01  0.72663243872E+02  0.47000000000E+01 0.  1.
         -5    1    3    3    0  503  0.26135107529E+02  0.50018226319E+02  0.38292644053E+01  0.56759317081E+02  0.47000000000E+01 0.  1.
<mgrwt>
<rscale>  0 0.12900626E+03</rscale>
<asrwt>0</asrwt>
<pdfrwt beam="1">  1        5 0.20819409E-01 0.12900965E+03</pdfrwt>
<pdfrwt beam="2">  1       -5 0.18939440E-01 0.12900965E+03</pdfrwt>
<totfact> 0.39160341E+02</totfact>
</mgrwt>
</event>
<event>
 8    1  0.3573290E-007  0.1956937E+03  0.7546771E-02  0.1153426E+00
         -5   -1    0    0    0  501 -0.00000000000E+00  0.00000000000E+00  0.16912370918E+03  0.16918900380E+03  0.47000000000E+01 0.  1.
          5   -1    0    0  501    0  0.00000000000E+00 -0.00000000000E+00 -0.23736102238E+03  0.23740755031E+03  0.47000000000E+01 0.  1.
         25    2    1    2    0    0  0.14030808414E+03  0.54603032300E+02  0.97654885134E+01  0.19592980754E+03  0.12500110042E+03 0.  0.
         25    2    1    2    0    0 -0.14030808414E+03 -0.54603032300E+02 -0.78002801716E+02  0.21066674657E+03  0.12501276505E+03 0.  0.
          5    1    4    4  502    0 -0.41144441995E+02 -0.77938606652E+02 -0.11705322379E+02  0.89030309928E+02  0.47000000000E+01 0.  1.
         -5    1    4    4    0  502 -0.99163642142E+02  0.23335574352E+02 -0.66297479336E+02  0.12163643664E+03  0.47000000000E+01 0.  1.
          5    1    3    3  503    0 -0.81815400955E+01 -0.17763654296E+02  0.22509813868E+02  0.30187194846E+02  0.47000000000E+01 0.  1.
         -5    1    3    3    0  503  0.14848962423E+03  0.72366686596E+02 -0.12744325355E+02  0.16574261269E+03  0.47000000000E+01 0.  1.
<mgrwt>
<rscale>  0 0.19569188E+03</rscale>
<asrwt>0</asrwt>
<pdfrwt beam="2">  1        5 0.36525682E-01 0.19569374E+03</pdfrwt>
<pdfrwt beam="1">  1       -5 0.26027634E-01 0.19569374E+03</pdfrwt>
<totfact> 0.81919977E+01</totfact>
</mgrwt>
</event>
<event>
 8    1  0.3573290E-007  0.1407242E+03  0.7546771E-02  0.1212358E+00
         -5   -1    0    0    0  501 -0.00000000000E+00  0.00000000000E+00  0.43581258119E+03  0.43583792392E+03  0.47000000000E+01 0.  1.
          5   -1    0    0  501    0  0.00000000000E+00 -0.00000000000E+00 -0.45445785965E+02  0.45688176391E+02  0.47000000000E+01 0.  1.
         25    2    1    2    0    0 -0.10740057406E+02 -0.63756792026E+02  0.20918966861E+03  0.25211720362E+03  0.12498995778E+03 0.  0.
         25    2    1    2    0    0  0.10740057406E+02  0.63756792026E+02  0.18117712662E+03  0.22940889669E+03  0.12499205298E+03 0.  0.
          5    1    4    4  502    0  0.20308968486E+01  0.14410569097E+02 -0.18203096528E+02  0.23774603402E+02  0.47000000000E+01 0. -1.
         -5    1    4    4    0  502  0.87091605574E+01  0.49346222929E+02  0.19938022315E+03  0.20563429329E+03  0.47000000000E+01 0. -1.
          5    1    3    3  503    0 -0.27241161030E+02 -0.86993055385E+02  0.85393552566E+02  0.12499608538E+03  0.47000000000E+01 0.  1.
         -5    1    3    3    0  503  0.16501103624E+02  0.23236263359E+02  0.12379611604E+03  0.12712111824E+03  0.47000000000E+01 0.  1.
<mgrwt>
<rscale>  0 0.14072370E+03</rscale>
<asrwt>0</asrwt>
<pdfrwt beam="2">  1        5 0.70122543E-02 0.14072417E+03</pdfrwt>
<pdfrwt beam="1">  1       -5 0.67068683E-01 0.14072417E+03</pdfrwt>
<totfact> 0.21690240E+02</totfact>
</mgrwt>
</event>
<event>
 8    1  0.3573290E-007  0.1451610E+03  0.7546771E-02  0.1206550E+00
         -5   -1    0    0    0  501 -0.00000000000E+00  0.00000000000E+00  0.21319616253E+03  0.21324796299E+03  0.47000000000E+01 0. -1.
          5   -1    0    0  501    0  0.00000000000E+00 -0.00000000000E+00 -0.10102236127E+03  0.10113163440E+03  0.47000000000E+01 0. -1.
         25    2    1    2    0    0  0.59658122473E+02  0.43436380000E+02  0.79828053329E+02  0.16565845974E+03  0.12499758598E+03 0.  0.
         25    2    1    2    0    0 -0.59658122473E+02 -0.43436380000E+02  0.32345747932E+02  0.14872113765E+03  0.12500367471E+03 0.  0.
          5    1    4    4  502    0 -0.88607397876E+02 -0.28890183420E+02  0.55545229558E+02  0.10859685163E+03  0.47000000000E+01 0. -1.
         -5    1    4    4    0  502  0.28949275403E+02 -0.14546196581E+02 -0.23199481626E+02  0.40124286025E+02  0.47000000000E+01 0. -1.
          5    1    3    3  503    0  0.18480608998E+02 -0.21246083149E+02 -0.23448216132E+02  0.36943711209E+02  0.47000000000E+01 0.  1.
         -5    1    3    3    0  503  0.41177513475E+02  0.64682463150E+02  0.10327626946E+03  0.12871474853E+03  0.47000000000E+01 0.  1.
<mgrwt>
<rscale>  0 0.14515974E+03</rscale>
<asrwt>0</asrwt>
<pdfrwt beam="2">  1        5 0.15554292E-01 0.14516105E+03</pdfrwt>
<pdfrwt beam="1">  1       -5 0.32811800E-01 0.14516105E+03</pdfrwt>
<totfact> 0.24360415E+02</totfact>
</mgrwt>
</event>
<event>
 8    1  0.3573290E-007  0.1581288E+03  0.7546771E-02  0.1190827E+00
          5   -1    0    0  501    0  0.00000000000E+00  0.00000000000E+00  0.65661598401E+03  0.65663280489E+03  0.47000000000E+01 0. -1.
         -5   -1    0    0    0  501 -0.00000000000E+00 -0.00000000000E+00 -0.37918050526E+02  0.38208226283E+02  0.47000000000E+01 0. -1.
         25    2    1    2    0    0 -0.50656530703E+01  0.96712528232E+02  0.31029379301E+03  0.34826275864E+03  0.12500294842E+03 0.  0.
         25    2    1    2    0    0  0.50656530703E+01 -0.96712528232E+02  0.30840414047E+03  0.34657827254E+03  0.12499764469E+03 0.  0.
          5    1    3    3  502    0  0.92107844932E+01  0.11942003064E+03  0.18791115903E+03  0.22288713726E+03  0.47000000000E+01 0. -1.
         -5    1    3    3    0  502 -0.14276437564E+02 -0.22707502403E+02  0.12238263398E+03  0.12537562138E+03  0.47000000000E+01 0. -1.
          5    1    4    4  503    0 -0.43906232743E+01 -0.26449589392E+02 -0.28019551762E+01  0.27364197495E+02  0.47000000000E+01 0.  1.
         -5    1    4    4    0  503  0.94562763446E+01 -0.70262938839E+02  0.31120609565E+03  0.31921407504E+03  0.47000000000E+01 0.  1.
<mgrwt>
<rscale>  0 0.15812773E+03</rscale>
<asrwt>0</asrwt>
<pdfrwt beam="1">  1        5 0.10104146E+00 0.15812878E+03</pdfrwt>
<pdfrwt beam="2">  1       -5 0.58571612E-02 0.15812878E+03</pdfrwt>
<totfact> 0.11729652E+02</totfact>
</mgrwt>
</event>
<event>
 8    1  0.3573290E-007  0.1818438E+03  0.7546771E-02  0.1166031E+00
          5   -1    0    0  501    0  0.00000000000E+00  0.00000000000E+00  0.37383845316E+03  0.37386799684E+03  0.47000000000E+01 0. -1.
         -5   -1    0    0    0  501 -0.00000000000E+00 -0.00000000000E+00 -0.15997389872E+03  0.16004292635E+03  0.47000000000E+01 0. -1.
         25    2    1    2    0    0 -0.67821717823E+02  0.11331801808E+03 -0.71613348968E+02  0.19543706283E+03  0.12500566045E+03 0.  0.
         25    2    1    2    0    0  0.67821717823E+02 -0.11331801808E+03  0.28547790341E+03  0.33847386036E+03  0.12500464866E+03 0.  0.
          5    1    4    4  502    0  0.10251514441E+03 -0.77736119641E+02  0.23194272614E+03  0.26527679383E+03  0.47000000000E+01 0. -1.
         -5    1    4    4    0  502 -0.34693426590E+02 -0.35581898442E+02  0.53535177262E+02  0.73197066538E+02  0.47000000000E+01 0. -1.
          5    1    3    3  503    0 -0.80304392145E+02  0.13111578573E+03 -0.44027681985E+02  0.16000209825E+03  0.47000000000E+01 0. -1.
         -5    1    3    3    0  503  0.12482674321E+02 -0.17797767643E+02 -0.27585666983E+02  0.35434964572E+02  0.47000000000E+01 0. -1.
<mgrwt>
<rscale>  0 0.18184364E+03</rscale>
<asrwt>0</asrwt>
<pdfrwt beam="1">  1        5 0.57521190E-01 0.18184382E+03</pdfrwt>
<pdfrwt beam="2">  1       -5 0.24618952E-01 0.18184382E+03</pdfrwt>
<totfact> 0.34388743E+01</totfact>
</mgrwt>
</event>
<event>
 8    1  0.3573290E-007  0.1255039E+03  0.7546771E-02  0.1234287E+00
          5   -1    0    0  501    0  0.00000000000E+00  0.00000000000E+00  0.15784622998E+03  0.15791618764E+03  0.47000000000E+01 0.  1.
         -5   -1    0    0    0  501 -0.00000000000E+00 -0.00000000000E+00 -0.10836310264E+03  0.10846498059E+03  0.47000000000E+01 0.  1.
         25    2    1    2    0    0  0.11013699392E+02 -0.22657694005E+01 -0.13027613238E+02  0.12617126847E+03  0.12499213974E+03 0.  0.
         25    2    1    2    0    0 -0.11013699392E+02  0.22657694005E+01  0.62510740572E+02  0.14020989975E+03  0.12499915206E+03 0.  0.
          5    1    3    3  502    0 -0.22369503717E+01 -0.56712083571E+02  0.20704689535E+02  0.60597347620E+02  0.47000000000E+01 0. -1.
         -5    1    3    3    0  502  0.13250649764E+02  0.54446314170E+02 -0.33732302772E+02  0.65573920854E+02  0.47000000000E+01 0. -1.
          5    1    4    4  503    0  0.53672501218E+02  0.21107771015E+02  0.26050775368E+02  0.63458713204E+02  0.47000000000E+01 0.  1.
         -5    1    4    4    0  503 -0.64686200610E+02 -0.18842001615E+02  0.36459965203E+02  0.76751186550E+02  0.47000000000E+01 0.  1.
<mgrwt>
<rscale>  0 0.12550213E+03</rscale>
<asrwt>0</asrwt>
<pdfrwt beam="1">  1        5 0.24297253E-01 0.12550388E+03</pdfrwt>
<pdfrwt beam="2">  1       -5 0.16684465E-01 0.12550388E+03</pdfrwt>
<totfact> 0.36554658E+02</totfact>
</mgrwt>
</event>
<event>
 8    1  0.3573290E-007  0.1472436E+03  0.7546771E-02  0.1203904E+00
         -5   -1    0    0    0  501 -0.00000000000E+00  0.00000000000E+00  0.35932338370E+03  0.35935412072E+03  0.47000000000E+01 0.  1.
          5   -1    0    0  501    0  0.00000000000E+00 -0.00000000000E+00 -0.77203219257E+02  0.77346150930E+02  0.47000000000E+01 0.  1.
         25    2    1    2    0    0  0.77370135117E+02  0.81903090820E+01  0.24337838751E+03  0.28445334371E+03  0.12500978468E+03 0.  0.
         25    2    1    2    0    0 -0.77370135117E+02 -0.81903090820E+01  0.38741776934E+02  0.15224692794E+03  0.12499993127E+03 0.  0.
          5    1    4    4  502    0 -0.51457742081E+02 -0.64902142019E+02  0.10446619326E+02  0.83614646529E+02  0.47000000000E+01 0. -1.
         -5    1    4    4    0  502 -0.25912393036E+02  0.56711832937E+02  0.28295157608E+02  0.68632281413E+02  0.47000000000E+01 0. -1.
          5    1    3    3  503    0  0.99643926042E+02  0.33377586460E+02  0.13660403017E+03  0.17241150290E+03  0.47000000000E+01 0. -1.
         -5    1    3    3    0  503 -0.22273790925E+02 -0.25187277378E+02  0.10677435735E+03  0.11204184081E+03  0.47000000000E+01 0. -1.
<mgrwt>
<rscale>  0 0.14724147E+03</rscale>
<asrwt>0</asrwt>
<pdfrwt beam="2">  1        5 0.11890778E-01 0.14724356E+03</pdfrwt>
<pdfrwt beam="1">  1       -5 0.55293879E-01 0.14724356E+03</pdfrwt>
<totfact> 0.13460942E+02</totfact>
</mgrwt>
</event>
<event>
 8    1  0.3573290E-007  0.1654925E+03  0.7546771E-02  0.1182634E+00
         -5   -1    0    0    0  501 -0.00000000000E+00  0.00000000000E+00  0.18391995421E+03  0.18397999771E+03  0.47000000000E+01 0.  1.
          5   -1    0    0  501    0  0.00000000000E+00 -0.00000000000E+00 -0.17991440651E+03  0.17997578634E+03  0.47000000000E+01 0.  1.
         25    2    1    2    0    0 -0.48844801635E+02 -0.96835141752E+02  0.77675941252E+02  0.18281494270E+03  0.12499956840E+03 0.  0.
         25    2    1    2    0    0  0.48844801635E+02  0.96835141752E+02 -0.73670393555E+02  0.18114084135E+03  0.12498727213E+03 0.  0.
          5    1    4    4  502    0  0.75248562767E+02  0.11171789982E+03 -0.58602502206E+02  0.14696795094E+03  0.47000000000E+01 0. -1.
         -5    1    4    4    0  502 -0.26403761132E+02 -0.14882758068E+02 -0.15067891349E+02  0.34172890415E+02  0.47000000000E+01 0. -1.
          5    1    3    3  503    0  0.48041208996E+01 -0.15173548664E+02 -0.31881248965E+02  0.35941900232E+02  0.47000000000E+01 0.  1.
         -5    1    3    3    0  503 -0.53648922535E+02 -0.81661593088E+02  0.10955719022E+03  0.14687304247E+03  0.47000000000E+01 0.  1.
<mgrwt>
<rscale>  0 0.16549013E+03</rscale>
<asrwt>0</asrwt>
<pdfrwt beam="2">  1        5 0.27688480E-01 0.16549245E+03</pdfrwt>
<pdfrwt beam="1">  1       -5 0.28304718E-01 0.16549245E+03</pdfrwt>
<totfact> 0.11498272E+02</totfact>
</mgrwt>
</event>
<event>
 8    1  0.3573290E-007  0.1404924E+03  0.7546771E-02  0.1212677E+00
          5   -1    0    0  501    0  0.00000000000E+00  0.00000000000E+00  0.54784194146E+03  0.54786210201E+03  0.47000000000E+01 0. -1.
         -5   -1    0    0    0  501 -0.00000000000E+00 -0.00000000000E+00 -0.39195639513E+02  0.39476425330E+02  0.47000000000E+01 0. -1.
         25    2    1    2    0    0 -0.55669239779E+02  0.31840984461E+02  0.16885926458E+03  0.21966237423E+03  0.12500077948E+03 0.  0.
         25    2    1    2    0    0  0.55669239779E+02 -0.31840984461E+02  0.33978703736E+03  0.36767615311E+03  0.12497043753E+03 0.  0.
          5    1    3    3  502    0 -0.11597467624E+02  0.52797434787E+02  0.16114234461E+03  0.17003239574E+03  0.47000000000E+01 0. -1.
         -5    1    3    3    0  502 -0.44071772155E+02 -0.20956450326E+02  0.77169199720E+01  0.49629978491E+02  0.47000000000E+01 0. -1.
          5    1    4    4  503    0  0.79624101639E+02 -0.36432513455E+02  0.13239137293E+03  0.15879827211E+03  0.47000000000E+01 0.  1.
         -5    1    4    4    0  503 -0.23954861860E+02  0.45915289945E+01  0.20739566444E+03  0.20887788100E+03  0.47000000000E+01 0.  1.
<mgrwt>
<rscale>  0 0.14048563E+03</rscale>
<asrwt>0</asrwt>
<pdfrwt beam="1">  1        5 0.84306522E-01 0.14049237E+03</pdfrwt>
<pdfrwt beam="2">  1       -5 0.60532484E-02 0.14049237E+03</pdfrwt>
<totfact> 0.16477160E+02</totfact>
</mgrwt>
</event>
<event>
 8    1  0.3573290E-007  0.1490629E+03  0.7546771E-02  0.1201630E+00
          5   -1    0    0  501    0  0.00000000000E+00  0.00000000000E+00  0.43018778746E+03  0.43021346152E+03  0.47000000000E+01 0.  1.
         -5   -1    0    0    0  501 -0.00000000000E+00 -0.00000000000E+00 -0.51522798252E+02  0.51736725251E+02  0.47000000000E+01 0.  1.
         25    2    1    2    0    0  0.20493931099E+02  0.78576826724E+02  0.18659690904E+03  0.23882661045E+03  0.12500169794E+03 0.  0.
         25    2    1    2    0    0 -0.20493931099E+02 -0.78576826724E+02  0.19206808017E+03  0.24312357632E+03  0.12499842813E+03 0.  0.
          5    1    4    4  502    0  0.18117564609E+02 -0.37131347769E+02  0.18035996015E+03  0.18509129737E+03  0.47000000000E+01 0.  1.
         -5    1    4    4    0  502 -0.38611495707E+02 -0.41445478955E+02  0.11708120017E+02  0.58032278957E+02  0.47000000000E+01 0.  1.
          5    1    3    3  503    0  0.62812123820E+02  0.60298700765E+02  0.16724613976E+03  0.18861245313E+03  0.47000000000E+01 0.  1.
         -5    1    3    3    0  503 -0.42318192721E+02  0.18278125959E+02  0.19350769279E+02  0.50214157321E+02  0.47000000000E+01 0.  1.
<mgrwt>
<rscale>  0 0.14906220E+03</rscale>
<asrwt>0</asrwt>
<pdfrwt beam="1">  1        5 0.66201169E-01 0.14906288E+03</pdfrwt>
<pdfrwt beam="2">  1       -5 0.79450150E-02 0.14906288E+03</pdfrwt>
<totfact> 0.18387509E+02</totfact>
</mgrwt>
</event>
<event>
 8    1  0.3573290E-007  0.1503703E+03  0.7546771E-02  0.1200021E+00
         -5   -1    0    0    0  501 -0.00000000000E+00  0.00000000000E+00  0.39450480381E+02  0.39729465165E+02  0.47000000000E+01 0. -1.
          5   -1    0    0  501    0  0.00000000000E+00 -0.00000000000E+00 -0.78014836441E+03  0.78016252185E+03  0.47000000000E+01 0. -1.
         25    2    1    2    0    0  0.35220730858E+02 -0.75780715226E+02 -0.15802902421E+03  0.21813269850E+03  0.12500193991E+03 0.  0.
         25    2    1    2    0    0 -0.35220730858E+02  0.75780715226E+02 -0.58266885982E+03  0.60175928851E+03  0.12501209709E+03 0.  0.
          5    1    4    4  502    0  0.28063784197E+02 -0.83240774646E+01 -0.45162056970E+02  0.54023769202E+02  0.47000000000E+01 0. -1.
         -5    1    4    4    0  502 -0.63284515055E+02  0.84104792691E+02 -0.53750680285E+03  0.54773551931E+03  0.47000000000E+01 0. -1.
          5    1    3    3  503    0 -0.17730222406E+02 -0.83696738353E+01 -0.12425246577E+03  0.12587762898E+03  0.47000000000E+01 0. -1.
         -5    1    3    3    0  503  0.52950953264E+02 -0.67411041391E+02 -0.33776558436E+02  0.92255069523E+02  0.47000000000E+01 0. -1.
<mgrwt>
<rscale>  0 0.15036824E+03</rscale>
<asrwt>0</asrwt>
<pdfrwt beam="2">  1        5 0.12004536E+00 0.15037035E+03</pdfrwt>
<pdfrwt beam="1">  1       -5 0.60918547E-02 0.15037035E+03</pdfrwt>
<totfact> 0.70306794E+01</totfact>
</mgrwt>
</event>
<event>
 8    1  0.3573290E-007  0.1299957E+03  0.7546771E-02  0.1227468E+00
          5   -1    0    0  501    0  0.00000000000E+00  0.00000000000E+00  0.94919605918E+01  0.10591851390E+02  0.47000000000E+01 0.  1.
         -5   -1    0    0    0  501 -0.00000000000E+00 -0.00000000000E+00 -0.18672717256E+04  0.18672776406E+04  0.47000000000E+01 0.  1.
         25    2    1    2    0    0  0.35000140478E+02 -0.69464062158E+01 -0.12248838601E+04  0.12317610551E+04  0.12498625438E+03 0.  0.
         25    2    1    2    0    0 -0.35000140478E+02  0.69464062158E+01 -0.63289590488E+03  0.64610843688E+03  0.12500249358E+03 0.  0.
          5    1    3    3  502    0  0.59661572104E+02  0.41516626660E+02 -0.81727569060E+03  0.82051494680E+03  0.47000000000E+01 0. -1.
         -5    1    3    3    0  502 -0.24661431626E+02 -0.48463032876E+02 -0.40760816948E+03  0.41124610831E+03  0.47000000000E+01 0. -1.
          5    1    4    4  503    0  0.24679726514E+02  0.48731001269E+02 -0.33106492937E+03  0.33557395138E+03  0.47000000000E+01 0. -1.
         -5    1    4    4    0  503 -0.59679866992E+02 -0.41784595053E+02 -0.30183097550E+03  0.31053448549E+03  0.47000000000E+01 0. -1.
<mgrwt>
<rscale>  0 0.12999181E+03</rscale>
<asrwt>0</asrwt>
<pdfrwt beam="1">  1        5 0.15453651E-02 0.12999571E+03</pdfrwt>
<pdfrwt beam="2">  1       -5 0.28735736E+00 0.12999571E+03</pdfrwt>
<totfact> 0.41346023E+01</totfact>
</mgrwt>
</event>
<event>
 8    1  0.3573290E-007  0.1567889E+03  0.7546771E-02  0.1192373E+00
          5   -1    0    0  501    0  0.00000000000E+00  0.00000000000E+00  0.22757837589E+02  0.23238097420E+02  0.47000000000E+01 0. -1.
         -5   -1    0    0    0  501 -0.00000000000E+00 -0.00000000000E+00 -0.10769605961E+04  0.10769708518E+04  0.47000000000E+01 0. -1.
         25    2    1    2    0    0 -0.12174531955E+02 -0.93846759132E+02 -0.57621543047E+03  0.59716356741E+03  0.12499868202E+03 0.  0.
         25    2    1    2    0    0  0.12174531955E+02  0.93846759132E+02 -0.47798732805E+03  0.50304538178E+03  0.12500934736E+03 0.  0.
          5    1    3    3  502    0  0.52045810525E+02 -0.17673573099E+02 -0.16306355505E+03  0.17214219287E+03  0.47000000000E+01 0. -1.
         -5    1    3    3    0  502 -0.64220342480E+02 -0.76173186033E+02 -0.41315187542E+03  0.42502137454E+03  0.47000000000E+01 0. -1.
          5    1    4    4  503    0  0.51416781073E+02 -0.27394518757E+01 -0.13633683339E+03  0.14581156371E+03  0.47000000000E+01 0.  1.
         -5    1    4    4    0  503 -0.39242249118E+02  0.96586211008E+02 -0.34165049466E+03  0.35723381807E+03  0.47000000000E+01 0.  1.
<mgrwt>
<rscale>  0 0.15678681E+03</rscale>
<asrwt>0</asrwt>
<pdfrwt beam="1">  1        5 0.35389386E-02 0.15678894E+03</pdfrwt>
<pdfrwt beam="2">  1       -5 0.16572394E+00 0.15678894E+03</pdfrwt>
<totfact> 0.73603630E+01</totfact>
</mgrwt>
</event>
<event>
 8    1  0.3573290E-007  0.1289364E+03  0.7546771E-02  0.1229044E+00
          5   -1    0    0  501    0  0.00000000000E+00  0.00000000000E+00  0.43082003876E+03  0.43084567515E+03  0.47000000000E+01 0.  1.
         -5   -1    0    0    0  501 -0.00000000000E+00 -0.00000000000E+00 -0.38923748427E+02  0.39206481500E+02  0.47000000000E+01 0.  1.
         25    2    1    2    0    0 -0.22341629443E+02  0.22464784043E+02  0.16922844641E+03  0.21274773236E+03  0.12497806057E+03 0.  0.
         25    2    1    2    0    0  0.22341629443E+02 -0.22464784043E+02  0.22266784392E+03  0.25730442428E+03  0.12498313131E+03 0.  0.
          5    1    3    3  502    0  0.42269813650E+02  0.68622032716E+01  0.12639148106E+03  0.13353173205E+03  0.47000000000E+01 0.  1.
         -5    1    3    3    0  502 -0.64611443093E+02  0.15602580772E+02  0.42836965346E+02  0.79216000311E+02  0.47000000000E+01 0.  1.
          5    1    4    4  503    0  0.73195532152E+02 -0.17926370290E+02  0.10887964349E+03  0.13249832997E+03  0.47000000000E+01 0. -1.
         -5    1    4    4    0  503 -0.50853902709E+02 -0.45384137530E+01  0.11378820043E+03  0.12480609431E+03  0.47000000000E+01 0. -1.
<mgrwt>
<rscale>  0 0.12893518E+03</rscale>
<asrwt>0</asrwt>
<pdfrwt beam="1">  1        5 0.66303725E-01 0.12893641E+03</pdfrwt>
<pdfrwt beam="2">  1       -5 0.60119899E-02 0.12893641E+03</pdfrwt>
<totfact> 0.28002781E+02</totfact>
</mgrwt>
</event>
<event>
 8    1  0.3573290E-007  0.1265716E+03  0.7546771E-02  0.1232634E+00
         -5   -1    0    0    0  501 -0.00000000000E+00  0.00000000000E+00  0.21592515477E+03  0.21597630069E+03  0.47000000000E+01 0. -1.
          5   -1    0    0  501    0  0.00000000000E+00 -0.00000000000E+00 -0.78521135387E+02  0.78661672385E+02  0.47000000000E+01 0. -1.
         25    2    1    2    0    0  0.16752030635E+02 -0.10702174303E+02  0.10377920184E+03  0.16367799541E+03  0.12500078553E+03 0.  0.
         25    2    1    2    0    0 -0.16752030635E+02  0.10702174303E+02  0.33624817541E+02  0.13095997766E+03  0.12499888132E+03 0.  0.
          5    1    4    4  502    0  0.14322820567E+02  0.61654548807E+02  0.31979546131E+02  0.71071850604E+02  0.47000000000E+01 0.  1.
         -5    1    4    4    0  502 -0.31074851202E+02 -0.50952374504E+02  0.16452714103E+01  0.59888127061E+02  0.47000000000E+01 0.  1.
          5    1    3    3  503    0 -0.49887019477E+02 -0.28219842889E+02  0.46934343400E+02  0.74229352923E+02  0.47000000000E+01 0. -1.
         -5    1    3    3    0  503  0.66639050112E+02  0.17517668586E+02  0.56844858439E+02  0.89448642491E+02  0.47000000000E+01 0. -1.
<mgrwt>
<rscale>  0 0.12657110E+03</rscale>
<asrwt>0</asrwt>
<pdfrwt beam="2">  1        5 0.12094920E-01 0.12657157E+03</pdfrwt>
<pdfrwt beam="1">  1       -5 0.33233999E-01 0.12657157E+03</pdfrwt>
<totfact> 0.35555004E+02</totfact>
</mgrwt>
</event>
<event>
 8    1  0.3573290E-007  0.1295899E+03  0.7546771E-02  0.1228066E+00
         -5   -1    0    0    0  501 -0.00000000000E+00  0.00000000000E+00  0.17770088439E+03  0.17776302853E+03  0.47000000000E+01 0. -1.
          5   -1    0    0  501    0  0.00000000000E+00 -0.00000000000E+00 -0.99688289378E+02  0.99799023237E+02  0.47000000000E+01 0. -1.
         25    2    1    2    0    0 -0.16292972132E+02 -0.30049599782E+02  0.71043329383E+02  0.14778485997E+03  0.12499908319E+03 0.  0.
         25    2    1    2    0    0  0.16292972132E+02  0.30049599782E+02  0.69692656323E+01  0.12977719180E+03  0.12500043784E+03 0.  0.
          5    1    3    3  502    0  0.39616138794E+02  0.23297339900E+02  0.58404574351E+01  0.46566140515E+02  0.47000000000E+01 0. -1.
         -5    1    3    3    0  502 -0.55909110926E+02 -0.53346939683E+02  0.65202871947E+02  0.10121871946E+03  0.47000000000E+01 0. -1.
          5    1    4    4  503    0 -0.46138241262E+02  0.35966068062E+02  0.25832029187E+02  0.64122375896E+02  0.47000000000E+01 0.  1.
         -5    1    4    4    0  503  0.62431213393E+02 -0.59164682801E+01 -0.18862763555E+02  0.65654815906E+02  0.47000000000E+01 0.  1.
<mgrwt>
<rscale>  0 0.12958960E+03</rscale>
<asrwt>0</asrwt>
<pdfrwt beam="2">  1        5 0.15349958E-01 0.12958993E+03</pdfrwt>
<pdfrwt beam="1">  1       -5 0.27351896E-01 0.12958993E+03</pdfrwt>
<totfact> 0.34289808E+02</totfact>
</mgrwt>
</event>
<event>
 8    1  0.3573290E-007  0.1264848E+03  0.7546771E-02  0.1232771E+00
          5   -1    0    0  501    0  0.00000000000E+00  0.00000000000E+00  0.40052706651E+02  0.40327525464E+02  0.47000000000E+01 0. -1.
         -5   -1    0    0    0  501 -0.00000000000E+00 -0.00000000000E+00 -0.39906422232E+03  0.39909189861E+03  0.47000000000E+01 0. -1.
         25    2    1    2    0    0  0.15952836668E+02  0.10784943149E+02 -0.16687183230E+03  0.20939107690E+03  0.12501042627E+03 0.  0.
         25    2    1    2    0    0 -0.15952836668E+02 -0.10784943149E+02 -0.19213968337E+03  0.23002834717E+03  0.12499829831E+03 0.  0.
          5    1    3    3  502    0 -0.46812210149E+02  0.27199824738E+02 -0.42325781559E+02  0.68882329152E+02  0.47000000000E+01 0. -1.
         -5    1    3    3    0  502  0.62765046817E+02 -0.16414881589E+02 -0.12454605074E+03  0.14050874775E+03  0.47000000000E+01 0. -1.
          5    1    4    4  503    0  0.56246949677E+01  0.49804477633E+02 -0.13421330643E+03  0.14334372957E+03  0.47000000000E+01 0. -1.
         -5    1    4    4    0  503 -0.21577531635E+02 -0.60589420783E+02 -0.57926376942E+02  0.86684617597E+02  0.47000000000E+01 0. -1.
<mgrwt>
<rscale>  0 0.12648184E+03</rscale>
<asrwt>0</asrwt>
<pdfrwt beam="1">  1        5 0.61852240E-02 0.12648484E+03</pdfrwt>
<pdfrwt beam="2">  1       -5 0.61417762E-01 0.12648484E+03</pdfrwt>
<totfact> 0.31399378E+02</totfact>
</mgrwt>
</event>
<event>
 8    1  0.3573290E-007  0.1343051E+03  0.7546771E-02  0.1221205E+00
          5   -1    0    0  501    0  0.00000000000E+00  0.00000000000E+00  0.16199768276E+02  0.16867794527E+02  0.47000000000E+01 0.  1.
         -5   -1    0    0    0  501 -0.00000000000E+00 -0.00000000000E+00 -0.11192968115E+04  0.11193066793E+04  0.47000000000E+01 0.  1.
         25    2    1    2    0    0  0.48400934417E+02 -0.83467964368E+01 -0.64301631533E+03  0.65689257266E+03  0.12500220307E+03 0.  0.
         25    2    1    2    0    0 -0.48400934417E+02  0.83467964368E+01 -0.46008072791E+03  0.47928190114E+03  0.12499818040E+03 0.  0.
          5    1    3    3  502    0  0.10610964897E+02 -0.22912160886E+02 -0.20022621809E+02  0.32566164598E+02  0.47000000000E+01 0. -1.
         -5    1    3    3    0  502  0.37789969520E+02  0.14565364449E+02 -0.62299369352E+03  0.62432640806E+03  0.47000000000E+01 0. -1.
          5    1    4    4  503    0 -0.91084033335E+01  0.30063071236E+02 -0.41240758273E+03  0.41362888627E+03  0.47000000000E+01 0.  1.
         -5    1    4    4    0  503 -0.39292531083E+02 -0.21716274799E+02 -0.47673145173E+02  0.65653014864E+02  0.47000000000E+01 0.  1.
<mgrwt>
<rscale>  0 0.13430420E+03</rscale>
<asrwt>0</asrwt>
<pdfrwt beam="1">  1        5 0.25444186E-02 0.13430514E+03</pdfrwt>
<pdfrwt beam="2">  1       -5 0.17225160E+00 0.13430514E+03</pdfrwt>
<totfact> 0.10727449E+02</totfact>
</mgrwt>
</event>
<event>
 8    1  0.3573290E-007  0.1321970E+03  0.7546771E-02  0.1224232E+00
         -5   -1    0    0    0  501 -0.00000000000E+00  0.00000000000E+00  0.41840551322E+03  0.41843191022E+03  0.47000000000E+01 0. -1.
          5   -1    0    0  501    0  0.00000000000E+00 -0.00000000000E+00 -0.42518035464E+02  0.42777018826E+02  0.47000000000E+01 0. -1.
         25    2    1    2    0    0  0.27658181633E+02  0.32972984218E+02  0.22157242995E+03  0.25801237147E+03  0.12499539758E+03 0.  0.
         25    2    1    2    0    0 -0.27658181633E+02 -0.32972984218E+02  0.15431504780E+03  0.20319655758E+03  0.12499405719E+03 0.  0.
          5    1    3    3  502    0  0.60312943862E+02 -0.24978203313E+02  0.10576026353E+03  0.12437397308E+03  0.47000000000E+01 0.  1.
         -5    1    3    3    0  502 -0.32654762229E+02  0.57951187531E+02  0.11581216642E+03  0.13363839839E+03  0.47000000000E+01 0.  1.
          5    1    4    4  503    0 -0.42096805657E+02  0.10018141535E+02  0.13142204604E+01  0.43546772346E+02  0.47000000000E+01 0.  1.
         -5    1    4    4    0  503  0.14438624024E+02 -0.42991125753E+02  0.15300082734E+03  0.15964978523E+03  0.47000000000E+01 0.  1.
<mgrwt>
<rscale>  0 0.13219667E+03</rscale>
<asrwt>0</asrwt>
<pdfrwt beam="2">  1        5 0.65631888E-02 0.13219698E+03</pdfrwt>
<pdfrwt beam="1">  1       -5 0.64392029E-01 0.13219698E+03</pdfrwt>
<totfact> 0.26011188E+02</totfact>
</mgrwt>
</event>
<event>
 8    1  0.3573290E-007  0.1379931E+03  0.7546771E-02  0.1216057E+00
          5   -1    0    0  501    0  0.00000000000E+00  0.00000000000E+00  0.14698601743E+03  0.14706114144E+03  0.47000000000E+01 0. -1.
         -5   -1    0    0    0  501 -0.00000000000E+00 -0.00000000000E+00 -0.13594648828E+03  0.13602770922E+03  0.47000000000E+01 0. -1.
         25    2    1    2    0    0  0.52978484725E+01  0.58206530031E+02 -0.25533703032E+02  0.14033558215E+03  0.12500415309E+03 0.  0.
         25    2    1    2    0    0 -0.52978484725E+01 -0.58206530031E+02  0.36573232179E+02  0.14275326851E+03  0.12499930808E+03 0.  0.
          5    1    4    4  502    0 -0.27351416001E+02 -0.61622420558E+02  0.73186416840E+02  0.99618092145E+02  0.47000000000E+01 0. -1.
         -5    1    4    4    0  502  0.22053567529E+02  0.34158905277E+01 -0.36613184661E+02  0.43135176363E+02  0.47000000000E+01 0. -1.
          5    1    3    3  503    0  0.14827582478E+02  0.79286357778E+02  0.24985793552E+02  0.84572830219E+02  0.47000000000E+01 0. -1.
         -5    1    3    3    0  503 -0.95297340059E+01 -0.21079827747E+02 -0.50519496584E+02  0.55762751933E+02  0.47000000000E+01 0. -1.
<mgrwt>
<rscale>  0 0.13799204E+03</rscale>
<asrwt>0</asrwt>
<pdfrwt beam="1">  1        5 0.22625260E-01 0.13799314E+03</pdfrwt>
<pdfrwt beam="2">  1       -5 0.20926871E-01 0.13799314E+03</pdfrwt>
<totfact> 0.28469256E+02</totfact>
</mgrwt>
</event>
<event>
 8    1  0.3573290E-007  0.1713691E+03  0.7546771E-02  0.1176432E+00
         -5   -1    0    0    0  501 -0.00000000000E+00  0.00000000000E+00  0.22110743551E+03  0.22115738296E+03  0.47000000000E+01 0.  1.
          5   -1    0    0  501    0  0.00000000000E+00 -0.00000000000E+00 -0.16993755895E+03  0.17000254098E+03  0.47000000000E+01 0.  1.
         25    2    1    2    0    0 -0.93930616337E+02 -0.70138423802E+02  0.11710429658E+03  0.20755913220E+03  0.12500007162E+03 0.  0.
         25    2    1    2    0    0  0.93930616337E+02  0.70138423802E+02 -0.65934420015E+02  0.18360079174E+03  0.12497817332E+03 0.  0.
          5    1    3    3  502    0  0.99374440782E+01 -0.66229798943E+02  0.41240651550E+02  0.78790991891E+02  0.47000000000E+01 0.  1.
         -5    1    3    3    0  502 -0.10386806041E+03 -0.39086248594E+01  0.75863645027E+02  0.12876814031E+03  0.47000000000E+01 0.  1.
          5    1    4    4  503    0  0.46706861299E+01 -0.22481328556E+02 -0.48294916951E+02  0.53681602489E+02  0.47000000000E+01 0. -1.
         -5    1    4    4    0  503  0.89259930207E+02  0.92619752358E+02 -0.17639503064E+02  0.12991918925E+03  0.47000000000E+01 0. -1.
<mgrwt>
<rscale>  0 0.17136513E+03</rscale>
<asrwt>0</asrwt>
<pdfrwt beam="2">  1        5 0.26153081E-01 0.17136913E+03</pdfrwt>
<pdfrwt beam="1">  1       -5 0.34025369E-01 0.17136913E+03</pdfrwt>
<totfact> 0.90155226E+01</totfact>
</mgrwt>
</event>
<event>
 8    1  0.3573290E-007  0.1261854E+03  0.7546771E-02  0.1233232E+00
          5   -1    0    0  501    0  0.00000000000E+00  0.00000000000E+00  0.89173310099E+02  0.89297084129E+02  0.47000000000E+01 0. -1.
         -5   -1    0    0    0  501 -0.00000000000E+00 -0.00000000000E+00 -0.19307078271E+03  0.19312798124E+03  0.47000000000E+01 0. -1.
         25    2    1    2    0    0 -0.24477831444E+01 -0.17059852866E+02 -0.91031959037E+02  0.15558546221E+03  0.12499195279E+03 0.  0.
         25    2    1    2    0    0  0.24477831444E+01  0.17059852866E+02 -0.12865513576E+02  0.12683960316E+03  0.12500293304E+03 0.  0.
          5    1    4    4  502    0 -0.36493138250E+02  0.20655491192E+02  0.41844465823E+02  0.59425985694E+02  0.47000000000E+01 0. -1.
         -5    1    4    4    0  502  0.38940921394E+02 -0.35956383254E+01 -0.54709979398E+02  0.67413617465E+02  0.47000000000E+01 0. -1.
          5    1    3    3  503    0 -0.27466121989E+02  0.30458427415E+02  0.87258812825E+01  0.42194012156E+02  0.47000000000E+01 0. -1.
         -5    1    3    3    0  503  0.25018338844E+02 -0.47518280281E+02 -0.99757840319E+02  0.11339145005E+03  0.47000000000E+01 0. -1.
<mgrwt>
<rscale>  0 0.12618271E+03</rscale>
<asrwt>0</asrwt>
<pdfrwt beam="1">  1        5 0.13732892E-01 0.12618543E+03</pdfrwt>
<pdfrwt beam="2">  1       -5 0.29717118E-01 0.12618543E+03</pdfrwt>
<totfact> 0.35312289E+02</totfact>
</mgrwt>
</event>
<event>
 8    1  0.3573290E-007  0.1315229E+03  0.7546771E-02  0.1225239E+00
          5   -1    0    0  501    0  0.00000000000E+00  0.00000000000E+00  0.13138284994E+02  0.13953656603E+02  0.47000000000E+01 0.  1.
         -5   -1    0    0    0  501 -0.00000000000E+00 -0.00000000000E+00 -0.12776785643E+04  0.12776872089E+04  0.47000000000E+01 0.  1.
         25    2    1    2    0    0  0.40689996420E+02 -0.82537143954E+00 -0.65903108952E+03  0.67202698081E+03  0.12506769741E+03 0.  0.
         25    2    1    2    0    0 -0.40689996420E+02  0.82537143954E+00 -0.60550918981E+03  0.61961388467E+03  0.12499452023E+03 0.  0.
          5    1    4    4  502    0  0.16647922382E+02  0.49120595685E+02 -0.17438471209E+03  0.18199479128E+03  0.47000000000E+01 0. -1.
         -5    1    4    4    0  502 -0.57337918802E+02 -0.48295224246E+02 -0.43112447771E+03  0.43761909339E+03  0.47000000000E+01 0. -1.
          5    1    3    3  503    0  0.19287013345E+01 -0.48341230753E+01 -0.60605062196E+03  0.60609119364E+03  0.47000000000E+01 0. -1.
         -5    1    3    3    0  503  0.38761295086E+02  0.40087516357E+01 -0.52980467568E+02  0.65935787173E+02  0.47000000000E+01 0. -1.
<mgrwt>
<rscale>  0 0.13150555E+03</rscale>
<asrwt>0</asrwt>
<pdfrwt beam="1">  1        5 0.20846615E-02 0.13152295E+03</pdfrwt>
<pdfrwt beam="2">  1       -5 0.19662922E+00 0.13152295E+03</pdfrwt>
<totfact> 0.98765877E+01</totfact>
</mgrwt>
</event>
<event>
 8    1  0.3573290E-007  0.1285756E+03  0.7546771E-02  0.1229585E+00
         -5   -1    0    0    0  501 -0.00000000000E+00  0.00000000000E+00  0.37177366155E+02  0.37473277869E+02  0.47000000000E+01 0. -1.
          5   -1    0    0  501    0  0.00000000000E+00 -0.00000000000E+00 -0.50718373082E+03  0.50720550747E+03  0.47000000000E+01 0. -1.
         25    2    1    2    0    0 -0.19583386261E+02  0.22868998380E+02 -0.13784597170E+03  0.18850158178E+03  0.12499933725E+03 0.  0.
         25    2    1    2    0    0  0.19583386261E+02 -0.22868998380E+02 -0.33216039296E+03  0.35617720356E+03  0.12500069432E+03 0.  0.
          5    1    3    3  502    0  0.43303874233E+01 -0.50332793437E+02 -0.64348179326E+02  0.81944618695E+02  0.47000000000E+01 0. -1.
         -5    1    3    3    0  502 -0.23913773685E+02  0.73201791818E+02 -0.73497792377E+02  0.10655696308E+03  0.47000000000E+01 0. -1.
          5    1    4    4  503    0 -0.31085725915E+02 -0.45855673940E+02 -0.25464954942E+03  0.26064832286E+03  0.47000000000E+01 0.  1.
         -5    1    4    4    0  503  0.50669112176E+02  0.22986675560E+02 -0.77510843538E+02  0.95528880701E+02  0.47000000000E+01 0.  1.
<mgrwt>
<rscale>  0 0.12857523E+03</rscale>
<asrwt>0</asrwt>
<pdfrwt beam="2">  1        5 0.78052699E-01 0.12857556E+03</pdfrwt>
<pdfrwt beam="1">  1       -5 0.57440327E-02 0.12857556E+03</pdfrwt>
<totfact> 0.20878611E+02</totfact>
</mgrwt>
</event>
<event>
 8    1  0.3573290E-007  0.1459768E+03  0.7546771E-02  0.1205507E+00
          5   -1    0    0  501    0  0.00000000000E+00  0.00000000000E+00  0.59442558251E+03  0.59444416318E+03  0.47000000000E+01 0. -1.
         -5   -1    0    0    0  501 -0.00000000000E+00 -0.00000000000E+00 -0.50004991382E+02  0.50225383653E+02  0.47000000000E+01 0. -1.
         25    2    1    2    0    0 -0.75190231269E+02 -0.55292677376E+01  0.10014116963E+03  0.17702396509E+03  0.12500034673E+03 0.  0.
         25    2    1    2    0    0  0.75190231269E+02  0.55292677376E+01  0.44427942150E+03  0.46764558174E+03  0.12499616823E+03 0.  0.
          5    1    3    3  502    0 -0.62606035948E+02 -0.41132079890E+02  0.11403083237E+03  0.13651550997E+03  0.47000000000E+01 0.  1.
         -5    1    3    3    0  502 -0.12584195321E+02  0.35602812152E+02 -0.13889662742E+02  0.40508455119E+02  0.47000000000E+01 0.  1.
          5    1    4    4  503    0  0.60720381997E+02  0.35061132155E+02  0.10262201474E+03  0.12437690978E+03  0.47000000000E+01 0. -1.
         -5    1    4    4    0  503  0.14469849272E+02 -0.29531864417E+02  0.34165740676E+03  0.34326867196E+03  0.47000000000E+01 0. -1.
<mgrwt>
<rscale>  0 0.14597592E+03</rscale>
<asrwt>0</asrwt>
<pdfrwt beam="1">  1        5 0.91468467E-01 0.14597681E+03</pdfrwt>
<pdfrwt beam="2">  1       -5 0.77114586E-02 0.14597681E+03</pdfrwt>
<totfact> 0.91238118E+01</totfact>
</mgrwt>
</event>
<event>
 8    1  0.3573290E-007  0.1704717E+03  0.7546771E-02  0.1177359E+00
          5   -1    0    0  501    0  0.00000000000E+00  0.00000000000E+00  0.44567263404E+02  0.44814405801E+02  0.47000000000E+01 0.  1.
         -5   -1    0    0    0  501 -0.00000000000E+00 -0.00000000000E+00 -0.71004937064E+03  0.71006492573E+03  0.47000000000E+01 0.  1.
         25    2    1    2    0    0 -0.11544148779E+03  0.10309298884E+02 -0.44251140961E+03  0.47421193879E+03  0.12501038560E+03 0.  0.
         25    2    1    2    0    0  0.11544148779E+03 -0.10309298884E+02 -0.22297069762E+03  0.28066739274E+03  0.12500093839E+03 0.  0.
          5    1    4    4  502    0 -0.25297046140E+01 -0.39456255505E+02 -0.10039082959E+03  0.10799816744E+03  0.47000000000E+01 0. -1.
         -5    1    4    4    0  502  0.11797119241E+03  0.29146956621E+02 -0.12257986803E+03  0.17266922530E+03  0.47000000000E+01 0. -1.
          5    1    3    3  503    0 -0.62360269656E+02 -0.36266342479E+02 -0.93984203299E+02  0.11857137639E+03  0.47000000000E+01 0. -1.
         -5    1    3    3    0  503 -0.53081218138E+02  0.46575641363E+02 -0.34852720632E+03  0.35564056241E+03  0.47000000000E+01 0. -1.
<mgrwt>
<rscale>  0 0.17047001E+03</rscale>
<asrwt>0</asrwt>
<pdfrwt beam="1">  1        5 0.68767101E-02 0.17047174E+03</pdfrwt>
<pdfrwt beam="2">  1       -5 0.10925856E+00 0.17047174E+03</pdfrwt>
<totfact> 0.75293409E+01</totfact>
</mgrwt>
</event>
<event>
 8    1  0.3573290E-007  0.1337970E+03  0.7546771E-02  0.1221933E+00
          5   -1    0    0  501    0  0.00000000000E+00  0.00000000000E+00  0.33438190360E+03  0.33441493306E+03  0.47000000000E+01 0. -1.
         -5   -1    0    0    0  501 -0.00000000000E+00 -0.00000000000E+00 -0.61864820557E+02  0.62043098106E+02  0.47000000000E+01 0. -1.
         25    2    1    2    0    0 -0.18818143030E+02  0.43801358493E+02  0.63022556407E+02  0.14788289383E+03  0.12499930463E+03 0.  0.
         25    2    1    2    0    0  0.18818143030E+02 -0.43801358493E+02  0.20949452663E+03  0.24857513734E+03  0.12501584180E+03 0.  0.
          5    1    4    4  502    0  0.98803556642E+01  0.30918233600E+02  0.84662789320E+01  0.33872208017E+02  0.47000000000E+01 0. -1.
         -5    1    4    4    0  502  0.89377873655E+01 -0.74719592093E+02  0.20102824770E+03  0.21470292932E+03  0.47000000000E+01 0. -1.
          5    1    3    3  503    0  0.53071403383E+02  0.13023716885E+02  0.32841283226E+02  0.63928326605E+02  0.47000000000E+01 0.  1.
         -5    1    3    3    0  503 -0.71889546413E+02  0.30777641608E+02  0.30181273181E+02  0.83954567221E+02  0.47000000000E+01 0.  1.
<mgrwt>
<rscale>  0 0.13379316E+03</rscale>
<asrwt>0</asrwt>
<pdfrwt beam="1">  1        5 0.51459624E-01 0.13379702E+03</pdfrwt>
<pdfrwt beam="2">  1       -5 0.95339190E-02 0.13379702E+03</pdfrwt>
<totfact> 0.22419345E+02</totfact>
</mgrwt>
</event>
<event>
 8    1  0.3573290E-007  0.1402758E+03  0.7546771E-02  0.1212960E+00
         -5   -1    0    0    0  501 -0.00000000000E+00  0.00000000000E+00  0.37537792747E+03  0.37540735000E+03  0.47000000000E+01 0.  1.
          5   -1    0    0  501    0  0.00000000000E+00 -0.00000000000E+00 -0.54261381946E+02  0.54464553341E+02  0.47000000000E+01 0.  1.
         25    2    1    2    0    0  0.18017311359E+02 -0.61047382963E+02  0.20152412678E+03  0.24553618264E+03  0.12499854733E+03 0.  0.
         25    2    1    2    0    0 -0.18017311359E+02  0.61047382963E+02  0.11959241875E+03  0.18433572070E+03  0.12500361927E+03 0.  0.
          5    1    3    3  502    0 -0.41185003059E+02 -0.60663218691E+02  0.14951517604E+03  0.16659264223E+03  0.47000000000E+01 0.  1.
         -5    1    3    3    0  502  0.59202314418E+02 -0.38416427184E+00  0.52008950736E+02  0.78943540402E+02  0.47000000000E+01 0.  1.
          5    1    4    4  503    0 -0.25598351104E+02  0.81817082476E+02  0.13281422572E+03  0.15814872468E+03  0.47000000000E+01 0. -1.
         -5    1    4    4    0  503  0.75810397452E+01 -0.20769699513E+02 -0.13221806970E+02  0.26186996029E+02  0.47000000000E+01 0. -1.
<mgrwt>
<rscale>  0 0.14027471E+03</rscale>
<asrwt>0</asrwt>
<pdfrwt beam="2">  1        5 0.83657970E-02 0.14027584E+03</pdfrwt>
<pdfrwt beam="1">  1       -5 0.57768341E-01 0.14027584E+03</pdfrwt>
<totfact> 0.22266365E+02</totfact>
</mgrwt>
</event>
<event>
 8    1  0.3573290E-007  0.1294279E+03  0.7546771E-02  0.1228308E+00
          5   -1    0    0  501    0  0.00000000000E+00  0.00000000000E+00  0.47385982216E+02  0.47618497568E+02  0.47000000000E+01 0. -1.
         -5   -1    0    0    0  501 -0.00000000000E+00 -0.00000000000E+00 -0.35259976587E+03  0.35263108895E+03  0.47000000000E+01 0. -1.
         25    2    1    2    0    0  0.22006191224E+02 -0.25359842199E+02 -0.15743782549E+03  0.20380934933E+03  0.12499675168E+03 0.  0.
         25    2    1    2    0    0 -0.22006191224E+02  0.25359842199E+02 -0.14777595817E+03  0.19644023719E+03  0.12499455558E+03 0.  0.
          5    1    3    3  502    0 -0.19385132565E+02  0.77330359160E+01  0.13154137347E+02  0.25113831615E+02  0.47000000000E+01 0.  1.
         -5    1    3    3    0  502  0.41391323789E+02 -0.33092878115E+02 -0.17059196283E+03  0.17869551771E+03  0.47000000000E+01 0.  1.
          5    1    4    4  503    0  0.35414238278E+01 -0.48354863627E+02 -0.76325324625E+02  0.90544904320E+02  0.47000000000E+01 0.  1.
         -5    1    4    4    0  503 -0.25547615052E+02  0.73714705826E+02 -0.71450633545E+02  0.10589533287E+03  0.47000000000E+01 0.  1.
<mgrwt>
<rscale>  0 0.12942737E+03</rscale>
<asrwt>0</asrwt>
<pdfrwt beam="1">  1        5 0.73104466E-02 0.12942790E+03</pdfrwt>
<pdfrwt beam="2">  1       -5 0.54266412E-01 0.12942790E+03</pdfrwt>
<totfact> 0.31221393E+02</totfact>
</mgrwt>
</event>
<event>
 8    1  0.3573290E-007  0.1277356E+03  0.7546771E-02  0.1230873E+00
          5   -1    0    0  501    0  0.00000000000E+00  0.00000000000E+00  0.44773876255E+03  0.44776343028E+03  0.47000000000E+01 0. -1.
         -5   -1    0    0    0  501 -0.00000000000E+00 -0.00000000000E+00 -0.37232225112E+02  0.37527704257E+02  0.47000000000E+01 0. -1.
         25    2    1    2    0    0  0.12368705144E+02 -0.23230080278E+02  0.16598791325E+03  0.20941842883E+03  0.12494586624E+03 0.  0.
         25    2    1    2    0    0 -0.12368705144E+02  0.23230080278E+02  0.24451862419E+03  0.27587270571E+03  0.12499508263E+03 0.  0.
          5    1    4    4  502    0 -0.33171873768E+02 -0.27453932501E+02  0.20137065648E+03  0.20597651057E+03  0.47000000000E+01 0.  1.
         -5    1    4    4    0  502  0.20803168623E+02  0.50684012779E+02  0.43147967716E+02  0.69896195133E+02  0.47000000000E+01 0.  1.
          5    1    3    3  503    0  0.49822254855E+02  0.32808382031E+02  0.71038035156E+02  0.92882395798E+02  0.47000000000E+01 0.  1.
         -5    1    3    3    0  503 -0.37453549710E+02 -0.56038462309E+02  0.94949878095E+02  0.11653603303E+03  0.47000000000E+01 0.  1.
<mgrwt>
<rscale>  0 0.12772359E+03</rscale>
<asrwt>0</asrwt>
<pdfrwt beam="1">  1        5 0.68907510E-01 0.12773563E+03</pdfrwt>
<pdfrwt beam="2">  1       -5 0.57526616E-02 0.12773563E+03</pdfrwt>
<totfact> 0.27570812E+02</totfact>
</mgrwt>
</event>
<event>
 8    1  0.3573290E-007  0.1612061E+03  0.7546771E-02  0.1187344E+00
          5   -1    0    0  501    0  0.00000000000E+00  0.00000000000E+00  0.39165847063E+03  0.39168667020E+03  0.47000000000E+01 0.  1.
         -5   -1    0    0    0  501 -0.00000000000E+00 -0.00000000000E+00 -0.67699563370E+02  0.67862514545E+02  0.47000000000E+01 0.  1.
         25    2    1    2    0    0  0.96294337536E+02  0.32967557730E+02  0.12823608314E+03  0.20598493045E+03  0.12500335695E+03 0.  0.
         25    2    1    2    0    0 -0.96294337536E+02 -0.32967557730E+02  0.19572282412E+03  0.25356425430E+03  0.12501179093E+03 0.  0.
          5    1    3    3  502    0  0.77198856473E+01  0.65477093143E+02  0.43904275876E+02  0.79350625713E+02  0.47000000000E+01 0.  1.
         -5    1    3    3    0  502  0.88574451889E+02 -0.32509535413E+02  0.84331807261E+02  0.12663430474E+03  0.47000000000E+01 0.  1.
          5    1    4    4  503    0  0.86894340560E+01  0.22207972247E+02  0.94483054892E+02  0.97559407323E+02  0.47000000000E+01 0.  1.
         -5    1    4    4    0  503 -0.10498377159E+03 -0.55175529977E+02  0.10123976923E+03  0.15600484697E+03  0.47000000000E+01 0.  1.
<mgrwt>
<rscale>  0 0.16120447E+03</rscale>
<asrwt>0</asrwt>
<pdfrwt beam="1">  1        5 0.60269851E-01 0.16120610E+03</pdfrwt>
<pdfrwt beam="2">  1       -5 0.10430022E-01 0.16120610E+03</pdfrwt>
<totfact> 0.14473131E+02</totfact>
</mgrwt>
</event>
<event>
 8    1  0.3573290E-007  0.1332136E+03  0.7546771E-02  0.1222767E+00
         -5   -1    0    0    0  501 -0.00000000000E+00  0.00000000000E+00  0.20353086153E+02  0.20888707857E+02  0.47000000000E+01 0. -1.
          5   -1    0    0  501    0  0.00000000000E+00 -0.00000000000E+00 -0.85998326471E+03  0.85999610789E+03  0.47000000000E+01 0. -1.
         25    2    1    2    0    0  0.36798523679E+02  0.27668317780E+02 -0.41859532869E+03  0.43927843040E+03  0.12499529213E+03 0.  0.
         25    2    1    2    0    0 -0.36798523679E+02 -0.27668317780E+02 -0.42103484986E+03  0.44160638535E+03  0.12500475041E+03 0.  0.
          5    1    3    3  502    0  0.81703291916E+02  0.24334456054E+02 -0.23030548993E+03  0.24562227577E+03  0.47000000000E+01 0. -1.
         -5    1    3    3    0  502 -0.44904768237E+02  0.33338617263E+01 -0.18828983876E+03  0.19365615463E+03  0.47000000000E+01 0. -1.
          5    1    4    4  503    0 -0.40960613764E+02 -0.61854914122E+02 -0.14074746717E+03  0.15917205093E+03  0.47000000000E+01 0. -1.
         -5    1    4    4    0  503  0.41620900856E+01  0.34186596342E+02 -0.28028738269E+03  0.28243433442E+03  0.47000000000E+01 0. -1.
<mgrwt>
<rscale>  0 0.13321135E+03</rscale>
<asrwt>0</asrwt>
<pdfrwt beam="2">  1        5 0.13234728E+00 0.13321357E+03</pdfrwt>
<pdfrwt beam="1">  1       -5 0.31734343E-02 0.13321357E+03</pdfrwt>
<totfact> 0.15430687E+02</totfact>
</mgrwt>
</event>
<event>
 8    1  0.3573290E-007  0.1302275E+03  0.7546771E-02  0.1227120E+00
          5   -1    0    0  501    0  0.00000000000E+00  0.00000000000E+00  0.53140697529E+02  0.53348137117E+02  0.47000000000E+01 0. -1.
         -5   -1    0    0    0  501 -0.00000000000E+00 -0.00000000000E+00 -0.31839001379E+03  0.31842470206E+03  0.47000000000E+01 0. -1.
         25    2    1    2    0    0 -0.36162751794E+02 -0.51185882391E+01 -0.13604304769E+03  0.18832400813E+03  0.12499710657E+03 0.  0.
         25    2    1    2    0    0  0.36162751794E+02  0.51185882391E+01 -0.12920626857E+03  0.18344883104E+03  0.12500107684E+03 0.  0.
          5    1    4    4  502    0  0.81422902191E+02  0.16743095997E+02 -0.81974200167E+02  0.11684125880E+03  0.47000000000E+01 0. -1.
         -5    1    4    4    0  502 -0.45260150396E+02 -0.11624507758E+02 -0.47232068399E+02  0.66607572240E+02  0.47000000000E+01 0. -1.
          5    1    3    3  503    0 -0.59159455658E+02  0.44520788878E+02 -0.65788291449E+02  0.99157103265E+02  0.47000000000E+01 0.  1.
         -5    1    3    3    0  503  0.22996703863E+02 -0.49639377117E+02 -0.70254756243E+02  0.89166904869E+02  0.47000000000E+01 0.  1.
<mgrwt>
<rscale>  0 0.13022659E+03</rscale>
<asrwt>0</asrwt>
<pdfrwt beam="1">  1        5 0.81941174E-02 0.13022755E+03</pdfrwt>
<pdfrwt beam="2">  1       -5 0.49001703E-01 0.13022755E+03</pdfrwt>
<totfact> 0.31993946E+02</totfact>
</mgrwt>
</event>
<event>
 8    1  0.3573290E-007  0.1363239E+03  0.7546771E-02  0.1218363E+00
          5   -1    0    0  501    0  0.00000000000E+00  0.00000000000E+00  0.89934570958E+03  0.89935799065E+03  0.47000000000E+01 0.  1.
         -5   -1    0    0    0  501 -0.00000000000E+00 -0.00000000000E+00 -0.20480136226E+02  0.21012519597E+02  0.47000000000E+01 0.  1.
         25    2    1    2    0    0 -0.18052526853E+02 -0.51321997338E+02  0.47051713822E+03  0.48986791555E+03  0.12499742471E+03 0.  0.
         25    2    1    2    0    0  0.18052526853E+02  0.51321997338E+02  0.40834843514E+03  0.43050259470E+03  0.12499679368E+03 0.  0.
          5    1    4    4  502    0  0.38239192414E+02  0.81119449801E+02  0.20308349698E+03  0.22205314165E+03  0.47000000000E+01 0.  1.
         -5    1    4    4    0  502 -0.20186665561E+02 -0.29797452462E+02  0.20526493816E+03  0.20844945305E+03  0.47000000000E+01 0.  1.
          5    1    3    3  503    0  0.33072088148E+02  0.23263235297E+02  0.21404257057E+03  0.21787898739E+03  0.47000000000E+01 0. -1.
         -5    1    3    3    0  503 -0.51124615001E+02 -0.74585232635E+02  0.25647456766E+03  0.27198892816E+03  0.47000000000E+01 0. -1.
<mgrwt>
<rscale>  0 0.13632372E+03</rscale>
<asrwt>0</asrwt>
<pdfrwt beam="1">  1        5 0.13840277E+00 0.13632387E+03</pdfrwt>
<pdfrwt beam="2">  1       -5 0.31926877E-02 0.13632387E+03</pdfrwt>
<totfact> 0.13683778E+02</totfact>
</mgrwt>
</event>
<event>
 8    1  0.3573290E-007  0.1421069E+03  0.7546771E-02  0.1210522E+00
          5   -1    0    0  501    0  0.00000000000E+00  0.00000000000E+00  0.47145678974E+02  0.47379373634E+02  0.47000000000E+01 0. -1.
         -5   -1    0    0    0  501 -0.00000000000E+00 -0.00000000000E+00 -0.42983548357E+03  0.42986117868E+03  0.47000000000E+01 0. -1.
         25    2    1    2    0    0 -0.40154404292E+02 -0.54374625761E+02 -0.21060548397E+03  0.25406490289E+03  0.12500131556E+03 0.  0.
         25    2    1    2    0    0  0.40154404292E+02  0.54374625761E+02 -0.17208432062E+03  0.22317564942E+03  0.12500152391E+03 0.  0.
          5    1    4    4  502    0 -0.38055333731E+02 -0.98753628977E+01 -0.36023094896E+02  0.53530221218E+02  0.47000000000E+01 0.  1.
         -5    1    4    4    0  502  0.78209738023E+02  0.64249988658E+02 -0.13606122572E+03  0.16964542820E+03  0.47000000000E+01 0.  1.
          5    1    3    3  503    0  0.82554698946E+01 -0.72819664707E+02 -0.17830221923E+03  0.19283316036E+03  0.47000000000E+01 0. -1.
         -5    1    3    3    0  503 -0.48409874187E+02  0.18445038947E+02 -0.32303264743E+02  0.61231742533E+02  0.47000000000E+01 0. -1.
<mgrwt>
<rscale>  0 0.14210681E+03</rscale>
<asrwt>0</asrwt>
<pdfrwt beam="1">  1        5 0.72731347E-02 0.14210685E+03</pdfrwt>
<pdfrwt beam="2">  1       -5 0.66148486E-01 0.14210685E+03</pdfrwt>
<totfact> 0.21090089E+02</totfact>
</mgrwt>
</event>
<event>
 8    1  0.3573290E-007  0.1293501E+03  0.7546771E-02  0.1228424E+00
         -5   -1    0    0    0  501 -0.00000000000E+00  0.00000000000E+00  0.10530296637E+03  0.10540780202E+03  0.47000000000E+01 0.  1.
          5   -1    0    0  501    0  0.00000000000E+00 -0.00000000000E+00 -0.73877616486E+03  0.73879111511E+03  0.47000000000E+01 0. -1.
         25    2    1    2    0    0 -0.20390581016E+02 -0.26281099119E+02  0.57261768478E+02  0.14145697842E+03  0.12499877859E+03 0.  0.
         25    2    1    2    0    0  0.20390581016E+02  0.26281099119E+02 -0.69073496697E+03  0.70274193871E+03  0.12499986347E+03 0.  0.
          5    1    3    3  502    0 -0.33568326384E+02  0.43549179172E+02  0.10271197223E+02  0.56133332657E+02  0.47000000000E+01 0.  1.
         -5    1    3    3    0  502  0.13177745369E+02 -0.69830278291E+02  0.46990571255E+02  0.85323645762E+02  0.47000000000E+01 0.  1.
          5    1    4    4  503    0 -0.10898959727E+02 -0.35536257773E+01 -0.18988390585E+01  0.12534399430E+02  0.47000000000E+01 0. -1.
         -5    1    4    4    0  503  0.31289540743E+02  0.29834724896E+02 -0.68883612791E+03  0.69020753928E+03  0.47000000000E+01 0. -1.
<mgrwt>
<rscale>  0 0.12934980E+03</rscale>
<asrwt>0</asrwt>
<pdfrwt beam="2">  1        5 0.11366708E+00 0.12935006E+03</pdfrwt>
<pdfrwt beam="1">  1       -5 0.16209671E-01 0.12935006E+03</pdfrwt>
<totfact> 0.13954608E+01</totfact>
</mgrwt>
</event>
<event>
 8    1  0.3573290E-007  0.1267506E+03  0.7546771E-02  0.1232360E+00
          5   -1    0    0  501    0  0.00000000000E+00  0.00000000000E+00  0.12638791473E+03  0.12647527423E+03  0.47000000000E+01 0. -1.
         -5   -1    0    0    0  501 -0.00000000000E+00 -0.00000000000E+00 -0.14632605917E+03  0.14640152182E+03  0.47000000000E+01 0. -1.
         25    2    1    2    0    0 -0.18066897158E+02  0.10641872735E+02 -0.59606726700E+02  0.14006664174E+03  0.12500416006E+03 0.  0.
         25    2    1    2    0    0  0.18066897158E+02 -0.10641872735E+02  0.39668582264E+02  0.13281015432E+03  0.12500111376E+03 0.  0.
          5    1    4    4  502    0  0.45599845437E+02 -0.19156053667E+02  0.73123111357E+02  0.88404636250E+02  0.47000000000E+01 0.  1.
         -5    1    4    4    0  502 -0.27532948279E+02  0.85141809326E+01 -0.33454529093E+02  0.44405518066E+02  0.47000000000E+01 0.  1.
          5    1    3    3  503    0  0.37200361811E+01 -0.35059459425E+02  0.23506344311E+02  0.42633819759E+02  0.47000000000E+01 0. -1.
         -5    1    3    3    0  503 -0.21786933339E+02  0.45701332159E+02 -0.83113071012E+02  0.97432821977E+02  0.47000000000E+01 0. -1.
<mgrwt>
<rscale>  0 0.12674980E+03</rscale>
<asrwt>0</asrwt>
<pdfrwt beam="1">  1        5 0.19456819E-01 0.12675055E+03</pdfrwt>
<pdfrwt beam="2">  1       -5 0.22524226E-01 0.12675055E+03</pdfrwt>
<totfact> 0.31916217E+02</totfact>
</mgrwt>
</event>
<event>
 8    1  0.3573290E-007  0.2030913E+03  0.7546771E-02  0.1147157E+00
         -5   -1    0    0    0  501 -0.00000000000E+00  0.00000000000E+00  0.29440241102E+03  0.29443992531E+03  0.47000000000E+01 0.  1.
          5   -1    0    0  501    0  0.00000000000E+00 -0.00000000000E+00 -0.14078641324E+03  0.14086484357E+03  0.47000000000E+01 0.  1.
         25    2    1    2    0    0  0.15463793748E+03 -0.41326793626E+02  0.92917117500E+02  0.22333677848E+03  0.12499972127E+03 0.  0.
         25    2    1    2    0    0 -0.15463793748E+03  0.41326793626E+02  0.60698880282E+02  0.21196799039E+03  0.12500111721E+03 0.  0.
          5    1    4    4  502    0 -0.12565668306E+03  0.67098232959E+02  0.33359963269E+01  0.14256575233E+03  0.47000000000E+01 0.  1.
         -5    1    4    4    0  502 -0.28981254417E+02 -0.25771439333E+02  0.57362883955E+02  0.69402238066E+02  0.47000000000E+01 0.  1.
          5    1    3    3  503    0  0.44827322358E+02  0.41751015795E+02  0.92109820106E+01  0.62125424258E+02  0.47000000000E+01 0. -1.
         -5    1    3    3    0  503  0.10981061512E+03 -0.83077809421E+02  0.83706135489E+02  0.16121135422E+03  0.47000000000E+01 0. -1.
<mgrwt>
<rscale>  0 0.20309108E+03</rscale>
<asrwt>0</asrwt>
<pdfrwt beam="2">  1        5 0.21668367E-01 0.20309130E+03</pdfrwt>
<pdfrwt beam="1">  1       -5 0.45301597E-01 0.20309130E+03</pdfrwt>
<totfact> 0.75368889E+01</totfact>
</mgrwt>
</event>
<event>
 8    1  0.3573290E-007  0.1424183E+03  0.7546771E-02  0.1210113E+00
         -5   -1    0    0    0  501 -0.00000000000E+00  0.00000000000E+00  0.29338058062E+02  0.29712146520E+02  0.47000000000E+01 0.  1.
          5   -1    0    0  501    0  0.00000000000E+00 -0.00000000000E+00 -0.68674770851E+03  0.68676379138E+03  0.47000000000E+01 0.  1.
         25    2    1    2    0    0  0.18647493719E+02 -0.65630349313E+02 -0.32292289325E+03  0.35293364282E+03  0.12501155737E+03 0.  0.
         25    2    1    2    0    0 -0.18647493719E+02  0.65630349313E+02 -0.33448675720E+03  0.36354229508E+03  0.12500615103E+03 0.  0.
          5    1    3    3  502    0 -0.31565609439E+02 -0.39711961687E+02 -0.27197161460E+03  0.27670214446E+03  0.47000000000E+01 0.  1.
         -5    1    3    3    0  502  0.50213103158E+02 -0.25918387626E+02 -0.50951278647E+02  0.76231498356E+02  0.47000000000E+01 0.  1.
          5    1    4    4  503    0  0.18607493655E+01  0.18930539818E+02 -0.30254364743E+03  0.30317746672E+03  0.47000000000E+01 0. -1.
         -5    1    4    4    0  503 -0.20508243084E+02  0.46699809494E+02 -0.31943109773E+02  0.60364828362E+02  0.47000000000E+01 0. -1.
<mgrwt>
<rscale>  0 0.14241708E+03</rscale>
<asrwt>0</asrwt>
<pdfrwt beam="2">  1        5 0.10568349E+00 0.14241826E+03</pdfrwt>
<pdfrwt beam="1">  1       -5 0.45435611E-02 0.14241826E+03</pdfrwt>
<totfact> 0.15513287E+02</totfact>
</mgrwt>
</event>
<event>
 8    1  0.3573290E-007  0.1412415E+03  0.7546771E-02  0.1211669E+00
          5   -1    0    0  501    0  0.00000000000E+00  0.00000000000E+00  0.14471199055E+03  0.14478829445E+03  0.47000000000E+01 0. -1.
         -5   -1    0    0    0  501 -0.00000000000E+00 -0.00000000000E+00 -0.14051782675E+03  0.14059640691E+03  0.47000000000E+01 0. -1.
         25    2    1    2    0    0 -0.56129384570E+02 -0.34230819120E+02 -0.18106159280E+02  0.14239734840E+03  0.12500765992E+03 0.  0.
         25    2    1    2    0    0  0.56129384570E+02  0.34230819120E+02  0.22300323076E+02  0.14298735295E+03  0.12500328758E+03 0.  0.
          5    1    4    4  502    0  0.34550725646E+01  0.50447481101E+01 -0.48964429005E+02  0.49568057433E+02  0.47000000000E+01 0.  1.
         -5    1    4    4    0  502  0.52674312005E+02  0.29186071010E+02  0.71264752081E+02  0.93419295520E+02  0.47000000000E+01 0.  1.
          5    1    3    3  503    0 -0.55145810603E+02 -0.78600179170E+02 -0.17816781120E+02  0.97767971658E+02  0.47000000000E+01 0.  1.
         -5    1    3    3    0  503 -0.98357396712E+00  0.44369360050E+02 -0.28937816060E+00  0.44629376746E+02  0.47000000000E+01 0.  1.
<mgrwt>
<rscale>  0 0.14124057E+03</rscale>
<asrwt>0</asrwt>
<pdfrwt beam="1">  1        5 0.22275297E-01 0.14124154E+03</pdfrwt>
<pdfrwt beam="2">  1       -5 0.21630041E-01 0.14124154E+03</pdfrwt>
<totfact> 0.27774079E+02</totfact>
</mgrwt>
</event>
<event>
 8    1  0.3573290E-007  0.1256736E+03  0.7546771E-02  0.1234021E+00
          5   -1    0    0  501    0  0.00000000000E+00  0.00000000000E+00  0.25097576533E+03  0.25101976971E+03  0.47000000000E+01 0. -1.
         -5   -1    0    0    0  501 -0.00000000000E+00 -0.00000000000E+00 -0.75495310264E+02  0.75641469260E+02  0.47000000000E+01 0. -1.
         25    2    1    2    0    0  0.22736797880E+01 -0.12701961327E+02  0.20830922806E+02  0.12738669884E+03  0.12500773678E+03 0.  0.
         25    2    1    2    0    0 -0.22736797880E+01  0.12701961327E+02  0.15464953226E+03  0.19927454013E+03  0.12500941994E+03 0.  0.
          5    1    4    4  502    0  0.38401571966E+02 -0.12717421433E+02  0.14435931174E+03  0.14999371461E+03  0.47000000000E+01 0.  1.
         -5    1    4    4    0  502 -0.40675251754E+02  0.25419382760E+02  0.10290220523E+02  0.49280825516E+02  0.47000000000E+01 0.  1.
          5    1    3    3  503    0  0.22169454600E+01 -0.64750228441E+02 -0.11451009091E+02  0.65960007122E+02  0.47000000000E+01 0. -1.
         -5    1    3    3    0  503  0.56734327924E-01  0.52048267114E+02  0.32281931897E+02  0.61426691717E+02  0.47000000000E+01 0. -1.
<mgrwt>
<rscale>  0 0.12567322E+03</rscale>
<asrwt>0</asrwt>
<pdfrwt beam="1">  1        5 0.38626284E-01 0.12567364E+03</pdfrwt>
<pdfrwt beam="2">  1       -5 0.11629291E-01 0.12567364E+03</pdfrwt>
<totfact> 0.28103517E+02</totfact>
</mgrwt>
</event>
<event>
 8    1  0.3573290E-007  0.1307111E+03  0.7546771E-02  0.1226417E+00
          5   -1    0    0  501    0  0.00000000000E+00  0.00000000000E+00  0.38688175507E+02  0.38972617618E+02  0.47000000000E+01 0.  1.
         -5   -1    0    0    0  501 -0.00000000000E+00 -0.00000000000E+00 -0.48511129909E+03  0.48513406653E+03  0.47000000000E+01 0.  1.
         25    2    1    2    0    0  0.35926314885E+02  0.13048899522E+02 -0.30343808436E+03  0.33037979640E+03  0.12496065360E+03 0.  0.
         25    2    1    2    0    0 -0.35926314885E+02 -0.13048899522E+02 -0.14298503922E+03  0.19372688775E+03  0.12499764684E+03 0.  0.
          5    1    4    4  502    0  0.44935698557E+02  0.59772302691E+01 -0.67112312433E+02  0.81123959263E+02  0.47000000000E+01 0.  1.
         -5    1    4    4    0  502 -0.80862013441E+02 -0.19026129791E+02 -0.75872726792E+02  0.11260292849E+03  0.47000000000E+01 0.  1.
          5    1    3    3  503    0  0.54198003280E+02 -0.44279272385E+02 -0.17168944571E+03  0.18546545039E+03  0.47000000000E+01 0.  1.
         -5    1    3    3    0  503 -0.18271688395E+02  0.57328171907E+02 -0.13174863865E+03  0.14491434601E+03  0.47000000000E+01 0.  1.
<mgrwt>
<rscale>  0 0.13070223E+03</rscale>
<asrwt>0</asrwt>
<pdfrwt beam="1">  1        5 0.59756589E-02 0.13071108E+03</pdfrwt>
<pdfrwt beam="2">  1       -5 0.74656135E-01 0.13071108E+03</pdfrwt>
<totfact> 0.21761567E+02</totfact>
</mgrwt>
</event>
<event>
 8    1  0.3573290E-007  0.1262444E+03  0.7546771E-02  0.1233138E+00
         -5   -1    0    0    0  501 -0.00000000000E+00  0.00000000000E+00  0.39319527761E+03  0.39322336697E+03  0.47000000000E+01 0.  1.
          5   -1    0    0  501    0  0.00000000000E+00 -0.00000000000E+00 -0.46858873986E+02  0.47093991880E+02  0.47000000000E+01 0.  1.
         25    2    1    2    0    0 -0.17692673164E+02  0.14825248412E+00  0.25486621418E+03  0.28441854284E+03  0.12499627081E+03 0.  0.
         25    2    1    2    0    0  0.17692673164E+02 -0.14825248412E+00  0.91470189444E+02  0.15589881602E+03  0.12499837045E+03 0.  0.
          5    1    4    4  502    0 -0.10227773961E+02  0.33175887229E+02  0.10454433009E+03  0.11025812355E+03  0.47000000000E+01 0.  1.
         -5    1    4    4    0  502  0.27920447125E+02 -0.33324139713E+02 -0.13074140651E+02  0.45640692469E+02  0.47000000000E+01 0.  1.
          5    1    3    3  503    0  0.30859542545E+02 -0.36219478890E+01  0.75627098530E+01  0.32322042833E+02  0.47000000000E+01 0. -1.
         -5    1    3    3    0  503 -0.48552215709E+02  0.37702003731E+01  0.24730350433E+03  0.25209650000E+03  0.47000000000E+01 0. -1.
<mgrwt>
<rscale>  0 0.12624387E+03</rscale>
<asrwt>0</asrwt>
<pdfrwt beam="2">  1        5 0.72293039E-02 0.12624439E+03</pdfrwt>
<pdfrwt beam="1">  1       -5 0.60511830E-01 0.12624439E+03</pdfrwt>
<totfact> 0.24903040E+02</totfact>
</mgrwt>
</event>
<event>
 8    1  0.3573290E-007  0.1599166E+03  0.7546771E-02  0.1188793E+00
         -5   -1    0    0    0  501 -0.00000000000E+00  0.00000000000E+00  0.22489896398E+03  0.22494806956E+03  0.47000000000E+01 0. -1.
          5   -1    0    0  501    0  0.00000000000E+00 -0.00000000000E+00 -0.11850990257E+03  0.11860306492E+03  0.47000000000E+01 0. -1.
         25    2    1    2    0    0 -0.84188639363E+02 -0.53464896799E+02  0.88157539582E+02  0.18260632953E+03  0.12500839017E+03 0.  0.
         25    2    1    2    0    0  0.84188639363E+02  0.53464896799E+02  0.18231521827E+02  0.16094480495E+03  0.12499847865E+03 0.  0.
          5    1    4    4  502    0  0.14282509815E+02  0.47270745891E+02  0.61001799198E+02  0.78624570009E+02  0.47000000000E+01 0.  1.
         -5    1    4    4    0  502  0.69906129548E+02  0.61941509075E+01 -0.42770277371E+02  0.82320234938E+02  0.47000000000E+01 0.  1.
          5    1    3    3  503    0 -0.25569983935E+00 -0.29088553772E+02  0.90368184815E+02  0.95051081896E+02  0.47000000000E+01 0. -1.
         -5    1    3    3    0  503 -0.83932939523E+02 -0.24376343027E+02 -0.22106452322E+01  0.87555247637E+02  0.47000000000E+01 0. -1.
<mgrwt>
<rscale>  0 0.15991467E+03</rscale>
<asrwt>0</asrwt>
<pdfrwt beam="2">  1        5 0.18243237E-01 0.15991660E+03</pdfrwt>
<pdfrwt beam="1">  1       -5 0.34610784E-01 0.15991660E+03</pdfrwt>
<totfact> 0.16870430E+02</totfact>
</mgrwt>
</event>
<event>
 8    1  0.3573290E-007  0.1487664E+03  0.7546771E-02  0.1201998E+00
         -5   -1    0    0    0  501 -0.00000000000E+00  0.00000000000E+00  0.85272220708E+02  0.85401648840E+02  0.47000000000E+01 0. -1.
          5   -1    0    0  501    0  0.00000000000E+00 -0.00000000000E+00 -0.28256431190E+03  0.28260339764E+03  0.47000000000E+01 0. -1.
         25    2    1    2    0    0 -0.47446590681E+02  0.65226958295E+02 -0.45735499729E+02  0.15563795661E+03  0.12500281015E+03 0.  0.
         25    2    1    2    0    0  0.47446590681E+02 -0.65226958295E+02 -0.15155659146E+03  0.21236708987E+03  0.12499858156E+03 0.  0.
          5    1    4    4  502    0  0.88828749511E+02 -0.43094337782E+02 -0.12069533928E+03  0.15600360128E+03  0.47000000000E+01 0.  1.
         -5    1    4    4    0  502 -0.41382158831E+02 -0.22132620514E+02 -0.30861252181E+02  0.56363488594E+02  0.47000000000E+01 0.  1.
          5    1    3    3  503    0 -0.20068339735E+02  0.99024401470E+02 -0.47732692600E+02  0.11184395508E+03  0.47000000000E+01 0. -1.
         -5    1    3    3    0  503 -0.27378250945E+02 -0.33797443174E+02  0.19971928706E+01  0.43794001522E+02  0.47000000000E+01 0. -1.
<mgrwt>
<rscale>  0 0.14876550E+03</rscale>
<asrwt>0</asrwt>
<pdfrwt beam="2">  1        5 0.43484395E-01 0.14876639E+03</pdfrwt>
<pdfrwt beam="1">  1       -5 0.13131766E-01 0.14876639E+03</pdfrwt>
<totfact> 0.18816433E+02</totfact>
</mgrwt>
</event>
<event>
 8    1  0.3573290E-007  0.1473049E+03  0.7546771E-02  0.1203834E+00
          5   -1    0    0  501    0  0.00000000000E+00  0.00000000000E+00  0.26372652411E+02  0.26788183872E+02  0.47000000000E+01 0. -1.
         -5   -1    0    0    0  501 -0.00000000000E+00 -0.00000000000E+00 -0.11329594705E+04  0.11329692193E+04  0.47000000000E+01 0. -1.
         25    2    1    2    0    0  0.52407901377E+02 -0.57615825874E+02 -0.86011499328E+03  0.87263769621E+03  0.12503029902E+03 0.  0.
         25    2    1    2    0    0 -0.52407901377E+02  0.57615825874E+02 -0.24647182486E+03  0.28711970697E+03  0.12499277644E+03 0.  0.
          5    1    4    4  502    0 -0.49740046162E+02  0.18049352821E+02 -0.19385012031E+02  0.56548386546E+02  0.47000000000E+01 0.  1.
         -5    1    4    4    0  502 -0.26678552153E+01  0.39566473052E+02 -0.22708681283E+03  0.23057132042E+03  0.47000000000E+01 0.  1.
          5    1    3    3  503    0 -0.25045901092E+02 -0.54229211048E+02 -0.53635549297E+03  0.53969195781E+03  0.47000000000E+01 0.  1.
         -5    1    3    3    0  503  0.77453802470E+02 -0.33866148256E+01 -0.32375950031E+03  0.33294573840E+03  0.47000000000E+01 0.  1.
<mgrwt>
<rscale>  0 0.14729698E+03</rscale>
<asrwt>0</asrwt>
<pdfrwt beam="1">  1        5 0.40900459E-02 0.14730495E+03</pdfrwt>
<pdfrwt beam="2">  1       -5 0.17433413E+00 0.14730495E+03</pdfrwt>
<totfact> 0.49306491E+01</totfact>
</mgrwt>
</event>
<event>
 8    1  0.3573290E-007  0.1441427E+03  0.7546771E-02  0.1207861E+00
         -5   -1    0    0    0  501 -0.00000000000E+00  0.00000000000E+00  0.50989092205E+02  0.51205248988E+02  0.47000000000E+01 0. -1.
          5   -1    0    0  501    0  0.00000000000E+00 -0.00000000000E+00 -0.40876851984E+03  0.40879553913E+03  0.47000000000E+01 0. -1.
         25    2    1    2    0    0  0.17345381481E+02  0.69659245129E+02 -0.16133450666E+03  0.21634586860E+03  0.12499375637E+03 0.  0.
         25    2    1    2    0    0 -0.17345381481E+02 -0.69659245129E+02 -0.19644492097E+03  0.24365491951E+03  0.12499536046E+03 0.  0.
          5    1    4    4  502    0  0.31588316095E+02 -0.26067817921E+02 -0.53371780303E+01  0.41568357126E+02  0.47000000000E+01 0.  1.
         -5    1    4    4    0  502 -0.48933697576E+02 -0.43591427208E+02 -0.19110774294E+03  0.20208656239E+03  0.47000000000E+01 0.  1.
          5    1    3    3  503    0 -0.26842284161E+01  0.56631020182E+02 -0.38820279579E+01  0.57021379062E+02  0.47000000000E+01 0.  1.
         -5    1    3    3    0  503  0.20029609897E+02  0.13028224947E+02 -0.15745247870E+03  0.15932448954E+03  0.47000000000E+01 0.  1.
<mgrwt>
<rscale>  0 0.14414233E+03</rscale>
<asrwt>0</asrwt>
<pdfrwt beam="2">  1        5 0.62906168E-01 0.14414268E+03</pdfrwt>
<pdfrwt beam="1">  1       -5 0.78631818E-02 0.14414268E+03</pdfrwt>
<totfact> 0.20734089E+02</totfact>
</mgrwt>
</event>
<event>
 8    1  0.3573290E-007  0.1316416E+03  0.7546771E-02  0.1225043E+00
          5   -1    0    0  501    0  0.00000000000E+00  0.00000000000E+00  0.50749804853E+03  0.50751981170E+03  0.47000000000E+01 0. -1.
         -5   -1    0    0    0  501 -0.00000000000E+00 -0.00000000000E+00 -0.74889058709E+02  0.75036398596E+02  0.47000000000E+01 0. -1.
         25    2    1    2    0    0 -0.51245483050E+00 -0.41282748997E+02  0.13357522621E+01  0.13163922712E+03  0.12499029526E+03 0.  0.
         25    2    1    2    0    0  0.51245483050E+00  0.41282748997E+02  0.43127323756E+03  0.45091698317E+03  0.12499996919E+03 0.  0.
          5    1    4    4  502    0  0.17974978226E+02  0.60230642800E+02  0.97387006501E+02  0.11600495338E+03  0.47000000000E+01 0. -1.
         -5    1    4    4    0  502 -0.17462523395E+02 -0.18947893804E+02  0.33388623106E+03  0.33491202979E+03  0.47000000000E+01 0. -1.
          5    1    3    3  503    0 -0.12082613495E+02 -0.62266684379E+02  0.47522062136E+02  0.79394999352E+02  0.47000000000E+01 0.  1.
         -5    1    3    3    0  503  0.11570158665E+02  0.20983935382E+02 -0.46186309874E+02  0.52244227772E+02  0.47000000000E+01 0.  1.
<mgrwt>
<rscale>  0 0.13163934E+03</rscale>
<asrwt>0</asrwt>
<pdfrwt beam="1">  1        5 0.78089628E-01 0.13164164E+03</pdfrwt>
<pdfrwt beam="2">  1       -5 0.11534402E-01 0.13164164E+03</pdfrwt>
<totfact> 0.63534330E+01</totfact>
</mgrwt>
</event>
<event>
 8    1  0.3573290E-007  0.1415525E+03  0.7546771E-02  0.1211263E+00
         -5   -1    0    0    0  501 -0.00000000000E+00  0.00000000000E+00  0.16762674479E+03  0.16769262228E+03  0.47000000000E+01 0. -1.
          5   -1    0    0  501    0  0.00000000000E+00 -0.00000000000E+00 -0.13137125678E+03  0.13145530460E+03  0.47000000000E+01 0. -1.
         25    2    1    2    0    0  0.66406209635E+02 -0.15522787398E+01  0.63292121536E+02  0.15503651939E+03  0.12497293886E+03 0.  0.
         25    2    1    2    0    0 -0.66406209635E+02  0.15522787398E+01 -0.27036633526E+02  0.14411140749E+03  0.12499969588E+03 0.  0.
          5    1    4    4  502    0 -0.70154296621E+02  0.33972734607E+02 -0.59243804667E+02  0.98018826877E+02  0.47000000000E+01 0. -1.
         -5    1    4    4    0  502  0.37480869858E+01 -0.32420455868E+02  0.32207171141E+02  0.46092580614E+02  0.47000000000E+01 0. -1.
          5    1    3    3  503    0  0.20494992914E+02 -0.42750984879E+01 -0.38029865699E+02  0.43665568664E+02  0.47000000000E+01 0.  1.
         -5    1    3    3    0  503  0.45911216721E+02  0.27228197481E+01  0.10132198723E+03  0.11137095072E+03  0.47000000000E+01 0.  1.
<mgrwt>
<rscale>  0 0.14154662E+03</rscale>
<asrwt>0</asrwt>
<pdfrwt beam="2">  1        5 0.20222495E-01 0.14155253E+03</pdfrwt>
<pdfrwt beam="1">  1       -5 0.25800263E-01 0.14155253E+03</pdfrwt>
<totfact> 0.23829996E+02</totfact>
</mgrwt>
</event>
<event>
 8    1  0.3573290E-007  0.1334596E+03  0.7546771E-02  0.1222411E+00
         -5   -1    0    0    0  501 -0.00000000000E+00  0.00000000000E+00  0.26898142253E+02  0.27305678103E+02  0.47000000000E+01 0. -1.
          5   -1    0    0  501    0  0.00000000000E+00 -0.00000000000E+00 -0.78832874721E+03  0.78834275774E+03  0.47000000000E+01 0. -1.
         25    2    1    2    0    0  0.14607117385E+02  0.44423818740E+02 -0.21416914589E+03  0.25234875104E+03  0.12499850219E+03 0.  0.
         25    2    1    2    0    0 -0.14607117385E+02 -0.44423818740E+02 -0.54726145907E+03  0.56329968481E+03  0.12499834707E+03 0.  0.
          5    1    3    3  502    0  0.56890228183E+02  0.23099818066E+02 -0.44089457851E+02  0.75736846719E+02  0.47000000000E+01 0.  1.
         -5    1    3    3    0  502 -0.42283110798E+02  0.21324000674E+02 -0.17007968804E+03  0.17661190432E+03  0.47000000000E+01 0.  1.
          5    1    4    4  503    0 -0.44529556856E+02 -0.26738606379E+02 -0.50793143607E+03  0.51060186864E+03  0.47000000000E+01 0.  1.
         -5    1    4    4    0  503  0.29922439471E+02 -0.17685212361E+02 -0.39330022999E+02  0.52697816171E+02  0.47000000000E+01 0.  1.
<mgrwt>
<rscale>  0 0.13345958E+03</rscale>
<asrwt>0</asrwt>
<pdfrwt beam="2">  1        5 0.12131375E+00 0.13345962E+03</pdfrwt>
<pdfrwt beam="1">  1       -5 0.41706030E-02 0.13345962E+03</pdfrwt>
<totfact> 0.12384566E+02</totfact>
</mgrwt>
</event>
<event>
 8    1  0.3573290E-007  0.1565597E+03  0.7546771E-02  0.1192637E+00
          5   -1    0    0  501    0  0.00000000000E+00  0.00000000000E+00  0.60642326115E+03  0.60644147423E+03  0.47000000000E+01 0. -1.
         -5   -1    0    0    0  501 -0.00000000000E+00 -0.00000000000E+00 -0.62741443166E+02  0.62917236832E+02  0.47000000000E+01 0. -1.
         25    2    1    2    0    0  0.94213078841E+02  0.31227398729E+01  0.71903101150E+02  0.17228173959E+03  0.12500034445E+03 0.  0.
         25    2    1    2    0    0 -0.94213078841E+02 -0.31227398729E+01  0.47177871684E+03  0.49707697147E+03  0.12499800870E+03 0.  0.
          5    1    3    3  502    0  0.93217071642E+02 -0.17101738818E+02  0.99656945031E+02  0.13760628114E+03  0.47000000000E+01 0. -1.
         -5    1    3    3    0  502  0.99600719949E+00  0.20224478691E+02 -0.27753843881E+02  0.34675458452E+02  0.47000000000E+01 0. -1.
          5    1    4    4  503    0 -0.10639031397E+03 -0.42714661902E+02  0.35477842762E+03  0.37287164541E+03  0.47000000000E+01 0. -1.
         -5    1    4    4    0  503  0.12177235125E+02  0.39591922029E+02  0.11700028922E+03  0.12420532606E+03  0.47000000000E+01 0. -1.
<mgrwt>
<rscale>  0 0.15655924E+03</rscale>
<asrwt>0</asrwt>
<pdfrwt beam="1">  1        5 0.93310813E-01 0.15655971E+03</pdfrwt>
<pdfrwt beam="2">  1       -5 0.96674530E-02 0.15655971E+03</pdfrwt>
<totfact> 0.60143208E+01</totfact>
</mgrwt>
</event>
<event>
 8    1  0.3573290E-007  0.1854420E+03  0.7546771E-02  0.1162639E+00
          5   -1    0    0  501    0  0.00000000000E+00  0.00000000000E+00  0.44122003281E+02  0.44371625771E+02  0.47000000000E+01 0. -1.
         -5   -1    0    0    0  501 -0.00000000000E+00 -0.00000000000E+00 -0.79329595621E+03  0.79330987902E+03  0.47000000000E+01 0. -1.
         25    2    1    2    0    0 -0.87816476076E+02 -0.10512125216E+03 -0.43473398692E+03  0.47263343560E+03  0.12500605561E+03 0.  0.
         25    2    1    2    0    0  0.87816476076E+02  0.10512125216E+03 -0.31443996601E+03  0.36504806919E+03  0.12500155785E+03 0.  0.
          5    1    4    4  502    0  0.82415462497E+02  0.69609821023E+02 -0.98716408327E+02  0.14630398120E+03  0.47000000000E+01 0. -1.
         -5    1    4    4    0  502  0.54010135782E+01  0.35511431136E+02 -0.21572355769E+03  0.21874408799E+03  0.47000000000E+01 0. -1.
          5    1    3    3  503    0 -0.69782114703E+02 -0.13280436473E+03 -0.32600165302E+03  0.35889512479E+03  0.47000000000E+01 0. -1.
         -5    1    3    3    0  503 -0.18034361373E+02  0.27683112570E+02 -0.10873233389E+03  0.11373831081E+03  0.47000000000E+01 0. -1.
<mgrwt>
<rscale>  0 0.18544121E+03</rscale>
<asrwt>0</asrwt>
<pdfrwt beam="1">  1        5 0.68082738E-02 0.18544197E+03</pdfrwt>
<pdfrwt beam="2">  1       -5 0.12206579E+00 0.18544197E+03</pdfrwt>
<totfact> 0.59202996E+01</totfact>
</mgrwt>
</event>
<event>
 8    1  0.3573290E-007  0.1350835E+03  0.7546771E-02  0.1220103E+00
         -5   -1    0    0    0  501 -0.00000000000E+00  0.00000000000E+00  0.82689050232E+03  0.82690385949E+03  0.47000000000E+01 0. -1.
          5   -1    0    0  501    0  0.00000000000E+00 -0.00000000000E+00 -0.23431962943E+02  0.23898679615E+02  0.47000000000E+01 0. -1.
         25    2    1    2    0    0 -0.41329198630E+02  0.30228690209E+02  0.51270324524E+03  0.53019969953E+03  0.12500090931E+03 0.  0.
         25    2    1    2    0    0  0.41329198630E+02 -0.30228690209E+02  0.29075529414E+03  0.32060283957E+03  0.12500265318E+03 0.  0.
          5    1    4    4  502    0  0.27681736883E+02 -0.72126534911E+02  0.11004334766E+03  0.13453677549E+03  0.47000000000E+01 0. -1.
         -5    1    4    4    0  502  0.13647461747E+02  0.41897844702E+02  0.18071194648E+03  0.18606606408E+03  0.47000000000E+01 0. -1.
          5    1    3    3  503    0 -0.20912772411E+02 -0.43977251770E+02  0.11313664633E+03  0.12326124073E+03  0.47000000000E+01 0.  1.
         -5    1    3    3    0  503 -0.20416426219E+02  0.74205941979E+02  0.39956659891E+03  0.40693845880E+03  0.47000000000E+01 0.  1.
<mgrwt>
<rscale>  0 0.13508305E+03</rscale>
<asrwt>0</asrwt>
<pdfrwt beam="2">  1        5 0.36418462E-02 0.13508345E+03</pdfrwt>
<pdfrwt beam="1">  1       -5 0.12725085E+00 0.13508345E+03</pdfrwt>
<totfact> 0.13724832E+02</totfact>
</mgrwt>
</event>
<event>
 8    1  0.3573290E-007  0.1296142E+03  0.7546771E-02  0.1228030E+00
         -5   -1    0    0    0  501 -0.00000000000E+00  0.00000000000E+00  0.15388214711E+04  0.15388286486E+04  0.47000000000E+01 0.  1.
          5   -1    0    0  501    0  0.00000000000E+00 -0.00000000000E+00 -0.10654972666E+02  0.11645533157E+02  0.47000000000E+01 0.  1.
         25    2    1    2    0    0  0.32864828356E+02  0.96885073761E+01  0.87781905295E+03  0.88733645766E+03  0.12500294100E+03 0.  0.
         25    2    1    2    0    0 -0.32864828356E+02 -0.96885073761E+01  0.65034744548E+03  0.66313772414E+03  0.12500350884E+03 0.  0.
          5    1    3    3  502    0  0.13250679866E+02 -0.22601154145E+02  0.80250862076E+03  0.80294991692E+03  0.47000000000E+01 0.  1.
         -5    1    3    3    0  502  0.19614148490E+02  0.32289661521E+02  0.75310432191E+02  0.84386540745E+02  0.47000000000E+01 0.  1.
          5    1    4    4  503    0  0.72998706966E+01 -0.59149362471E+02  0.21614711590E+03  0.22426234839E+03  0.47000000000E+01 0.  1.
         -5    1    4    4    0  503 -0.40164699052E+02  0.49460855095E+02  0.43420032957E+03  0.43887537575E+03  0.47000000000E+01 0.  1.
<mgrwt>
<rscale>  0 0.12961407E+03</rscale>
<asrwt>0</asrwt>
<pdfrwt beam="2">  1        5 0.17159747E-02 0.12961420E+03</pdfrwt>
<pdfrwt beam="1">  1       -5 0.23681864E+00 0.12961420E+03</pdfrwt>
<totfact> 0.72926199E+01</totfact>
</mgrwt>
</event>
<event>
 8    1  0.3573290E-007  0.1278864E+03  0.7546771E-02  0.1230631E+00
         -5   -1    0    0    0  501 -0.00000000000E+00  0.00000000000E+00  0.73963561250E+02  0.74112741096E+02  0.47000000000E+01 0. -1.
          5   -1    0    0  501    0  0.00000000000E+00 -0.00000000000E+00 -0.23695176442E+03  0.23699837270E+03  0.47000000000E+01 0. -1.
         25    2    1    2    0    0 -0.13888248163E+02  0.23121130629E+02 -0.40779216000E+02  0.13423065348E+03  0.12500981464E+03 0.  0.
         25    2    1    2    0    0  0.13888248163E+02 -0.23121130629E+02 -0.12220898717E+03  0.17688046032E+03  0.12499676227E+03 0.  0.
          5    1    3    3  502    0  0.25538474256E+02 -0.52103690572E+01  0.35133434486E+02  0.43997838945E+02  0.47000000000E+01 0. -1.
         -5    1    3    3    0  502 -0.39426722418E+02  0.28331499686E+02 -0.75912650486E+02  0.90232814535E+02  0.47000000000E+01 0. -1.
          5    1    4    4  503    0  0.26508559413E+02 -0.61946840993E+02 -0.26202464436E+02  0.72448422851E+02  0.47000000000E+01 0. -1.
         -5    1    4    4    0  503 -0.12620311251E+02  0.38825710364E+02 -0.96006522737E+02  0.10443203747E+03  0.47000000000E+01 0. -1.
<mgrwt>
<rscale>  0 0.12788318E+03</rscale>
<asrwt>0</asrwt>
<pdfrwt beam="2">  1        5 0.36469178E-01 0.12788637E+03</pdfrwt>
<pdfrwt beam="1">  1       -5 0.11394070E-01 0.12788637E+03</pdfrwt>
<totfact> 0.32934197E+02</totfact>
</mgrwt>
</event>
<event>
 8    1  0.3573290E-007  0.1717694E+03  0.7546771E-02  0.1176016E+00
         -5   -1    0    0    0  501 -0.00000000000E+00  0.00000000000E+00  0.14652323200E+03  0.14659859316E+03  0.47000000000E+01 0.  1.
          5   -1    0    0  501    0  0.00000000000E+00 -0.00000000000E+00 -0.22452928134E+03  0.22457846775E+03  0.47000000000E+01 0.  1.
         25    2    1    2    0    0 -0.75821931332E+02 -0.90164426215E+02 -0.98799933514E+02  0.19815363776E+03  0.12499939307E+03 0.  0.
         25    2    1    2    0    0  0.75821931332E+02  0.90164426215E+02  0.20793884181E+02  0.17302342316E+03  0.12500452118E+03 0.  0.
          5    1    3    3  502    0  0.14771593922E+02  0.70715670600E+01  0.15324006732E+02  0.22915545597E+02  0.47000000000E+01 0.  1.
         -5    1    3    3    0  502 -0.90593525254E+02 -0.97235993275E+02 -0.11412394025E+03  0.17523809216E+03  0.47000000000E+01 0.  1.
          5    1    4    4  503    0  0.53929789803E+02  0.41873260844E+02 -0.49778578517E+02  0.84627354213E+02  0.47000000000E+01 0.  1.
         -5    1    4    4    0  503  0.21892141528E+02  0.48291165371E+02  0.70572462699E+02  0.88396068945E+02  0.47000000000E+01 0.  1.
<mgrwt>
<rscale>  0 0.17176845E+03</rscale>
<asrwt>0</asrwt>
<pdfrwt beam="2">  1        5 0.34552547E-01 0.17176938E+03</pdfrwt>
<pdfrwt beam="1">  1       -5 0.22551616E-01 0.17176938E+03</pdfrwt>
<totfact> 0.11620716E+02</totfact>
</mgrwt>
</event>
<event>
 8    1  0.3573290E-007  0.1251166E+03  0.7546771E-02  0.1234890E+00
         -5   -1    0    0    0  501 -0.00000000000E+00  0.00000000000E+00  0.48739374584E+02  0.48965463695E+02  0.47000000000E+01 0. -1.
          5   -1    0    0  501    0  0.00000000000E+00 -0.00000000000E+00 -0.34807159835E+03  0.34810332888E+03  0.47000000000E+01 0. -1.
         25    2    1    2    0    0  0.44295297656E+01  0.27159496902E+01 -0.93475601807E+02  0.15617234043E+03  0.12500045867E+03 0.  0.
         25    2    1    2    0    0 -0.44295297656E+01 -0.27159496902E+01 -0.20585662196E+03  0.24089645215E+03  0.12500861864E+03 0.  0.
          5    1    3    3  502    0 -0.17899070943E+02  0.32808916316E+02 -0.10901147603E+03  0.11533600321E+03  0.47000000000E+01 0. -1.
         -5    1    3    3    0  502  0.22328600709E+02 -0.30092966626E+02  0.15535874222E+02  0.40836337223E+02  0.47000000000E+01 0. -1.
          5    1    4    4  503    0 -0.26551355220E+02 -0.57818108278E+02 -0.12646750428E+03  0.14164754762E+03  0.47000000000E+01 0. -1.
         -5    1    4    4    0  503  0.22121825454E+02  0.55102158588E+02 -0.79389117681E+02  0.99248904521E+02  0.47000000000E+01 0. -1.
<mgrwt>
<rscale>  0 0.12511451E+03</rscale>
<asrwt>0</asrwt>
<pdfrwt beam="2">  1        5 0.53569307E-01 0.12511655E+03</pdfrwt>
<pdfrwt beam="1">  1       -5 0.75181978E-02 0.12511655E+03</pdfrwt>
<totfact> 0.30227280E+02</totfact>
</mgrwt>
</event>
<event>
 8    1  0.3573290E-007  0.1669468E+03  0.7546771E-02  0.1181070E+00
          5   -1    0    0  501    0  0.00000000000E+00  0.00000000000E+00  0.61432658929E+02  0.61612186968E+02  0.47000000000E+01 0.  1.
         -5   -1    0    0    0  501 -0.00000000000E+00 -0.00000000000E+00 -0.50316502295E+03  0.50318697352E+03  0.47000000000E+01 0.  1.
         25    2    1    2    0    0  0.72935017215E+02 -0.83224977378E+02 -0.31017121526E+03  0.35224624953E+03  0.12500129572E+03 0.  0.
         25    2    1    2    0    0 -0.72935017215E+02  0.83224977378E+02 -0.13156114876E+03  0.21255291097E+03  0.12499796199E+03 0.  0.
          5    1    4    4  502    0 -0.73783700124E+02 -0.91002069961E+01 -0.59479547455E+02  0.95324470819E+02  0.47000000000E+01 0.  1.
         -5    1    4    4    0  502  0.84868290850E+00  0.92325184375E+02 -0.72081601306E+02  0.11722844015E+03  0.47000000000E+01 0.  1.
          5    1    3    3  503    0  0.15924703149E+02 -0.83427664471E+02 -0.26800552630E+03  0.28118112223E+03  0.47000000000E+01 0.  1.
         -5    1    3    3    0  503  0.57010314067E+02  0.20268709230E+00 -0.42165688958E+02  0.71065127294E+02  0.47000000000E+01 0.  1.
<mgrwt>
<rscale>  0 0.16694619E+03</rscale>
<asrwt>0</asrwt>
<pdfrwt beam="1">  1        5 0.94666770E-02 0.16694681E+03</pdfrwt>
<pdfrwt beam="2">  1       -5 0.77425499E-01 0.16694681E+03</pdfrwt>
<totfact> 0.98597878E+01</totfact>
</mgrwt>
</event>
<event>
 8    1  0.3573290E-007  0.1300973E+03  0.7546771E-02  0.1227315E+00
          5   -1    0    0  501    0  0.00000000000E+00  0.00000000000E+00  0.97099450635E+02  0.97213133442E+02  0.47000000000E+01 0. -1.
         -5   -1    0    0    0  501 -0.00000000000E+00 -0.00000000000E+00 -0.17432786654E+03  0.17439121266E+03  0.47000000000E+01 0. -1.
         25    2    1    2    0    0  0.35966958339E+02  0.21184832366E+01 -0.44039178195E+02  0.13734030475E+03  0.12499920012E+03 0.  0.
         25    2    1    2    0    0 -0.35966958339E+02 -0.21184832366E+01 -0.33189237708E+02  0.13426404135E+03  0.12500878863E+03 0.  0.
          5    1    4    4  502    0 -0.40472271917E+02  0.51566674203E+02 -0.44034030082E+02  0.79108864786E+02  0.47000000000E+01 0.  1.
         -5    1    4    4    0  502  0.45053135777E+01 -0.53685157439E+02  0.10844792374E+02  0.55155176560E+02  0.47000000000E+01 0.  1.
          5    1    3    3  503    0  0.79417587944E+01  0.48055099288E+02  0.20609214736E+02  0.53096081139E+02  0.47000000000E+01 0. -1.
         -5    1    3    3    0  503  0.28025199545E+02 -0.45936616051E+02 -0.64648392931E+02  0.84244223614E+02  0.47000000000E+01 0. -1.
<mgrwt>
<rscale>  0 0.13009500E+03</rscale>
<asrwt>0</asrwt>
<pdfrwt beam="1">  1        5 0.14951995E-01 0.13009730E+03</pdfrwt>
<pdfrwt beam="2">  1       -5 0.26833289E-01 0.13009730E+03</pdfrwt>
<totfact> 0.37369195E+02</totfact>
</mgrwt>
</event>
<event>
 8    1  0.3573290E-007  0.1377990E+03  0.7546771E-02  0.1216322E+00
         -5   -1    0    0    0  501 -0.00000000000E+00  0.00000000000E+00  0.32784690456E+03  0.32788059233E+03  0.47000000000E+01 0. -1.
          5   -1    0    0  501    0  0.00000000000E+00 -0.00000000000E+00 -0.58995579658E+02  0.59182500954E+02  0.47000000000E+01 0. -1.
         25    2    1    2    0    0  0.56486711021E+02  0.13161422686E+02  0.16207612870E+03  0.21273722998E+03  0.12499794381E+03 0.  0.
         25    2    1    2    0    0 -0.56486711021E+02 -0.13161422686E+02  0.10677519620E+03  0.17432586330E+03  0.12499837009E+03 0.  0.
          5    1    3    3  502    0 -0.13868628562E+02 -0.12219628152E+02  0.12971153310E+03  0.13110617831E+03  0.47000000000E+01 0.  1.
         -5    1    3    3    0  502  0.70355339583E+02  0.25381050838E+02  0.32364595599E+02  0.81631051676E+02  0.47000000000E+01 0.  1.
          5    1    4    4  503    0 -0.39548543554E+02  0.44977420756E+02  0.11241377912E+02  0.61118853494E+02  0.47000000000E+01 0.  1.
         -5    1    4    4    0  503 -0.16938167467E+02 -0.58138843442E+02  0.95533818287E+02  0.11320700981E+03  0.47000000000E+01 0.  1.
<mgrwt>
<rscale>  0 0.13779890E+03</rscale>
<asrwt>0</asrwt>
<pdfrwt beam="2">  1        5 0.90932131E-02 0.13779900E+03</pdfrwt>
<pdfrwt beam="1">  1       -5 0.50454955E-01 0.13779900E+03</pdfrwt>
<totfact> 0.25633628E+02</totfact>
</mgrwt>
</event>
<event>
 8    1  0.3573290E-007  0.1458698E+03  0.7546771E-02  0.1205643E+00
         -5   -1    0    0    0  501 -0.00000000000E+00  0.00000000000E+00  0.18150724908E+02  0.18749368381E+02  0.47000000000E+01 0.  1.
          5   -1    0    0  501    0  0.00000000000E+00 -0.00000000000E+00 -0.11541836607E+04  0.11541932302E+04  0.47000000000E+01 0.  1.
         25    2    1    2    0    0 -0.75176223113E+02  0.80731811231E+00 -0.54660775138E+03  0.56573671582E+03  0.12500352586E+03 0.  0.
         25    2    1    2    0    0  0.75176223113E+02 -0.80731811231E+00 -0.58942518443E+03  0.60720588277E+03  0.12499927897E+03 0.  0.
          5    1    4    4  502    0  0.65641532182E+02  0.43389434238E+02 -0.50687303294E+03  0.51296570575E+03  0.47000000000E+01 0.  1.
         -5    1    4    4    0  502  0.95346909313E+01 -0.44196752350E+02 -0.82552151491E+02  0.94240177023E+02  0.47000000000E+01 0.  1.
          5    1    3    3  503    0  0.12013441399E+01 -0.50374024836E+02 -0.25385469265E+03  0.25884991904E+03  0.47000000000E+01 0.  1.
         -5    1    3    3    0  503 -0.76377567253E+02  0.51181342948E+02 -0.29275305873E+03  0.30688679678E+03  0.47000000000E+01 0.  1.
<mgrwt>
<rscale>  0 0.14586889E+03</rscale>
<asrwt>0</asrwt>
<pdfrwt beam="2">  1        5 0.17761345E+00 0.14586980E+03</pdfrwt>
<pdfrwt beam="1">  1       -5 0.28392057E-02 0.14586980E+03</pdfrwt>
<totfact> 0.84335260E+01</totfact>
</mgrwt>
</event>
<event>
 8    1  0.3573290E-007  0.1414529E+03  0.7546771E-02  0.1211391E+00
          5   -1    0    0  501    0  0.00000000000E+00  0.00000000000E+00  0.17198751753E+03  0.17205172532E+03  0.47000000000E+01 0. -1.
         -5   -1    0    0    0  501 -0.00000000000E+00 -0.00000000000E+00 -0.12771780236E+03  0.12780425283E+03  0.47000000000E+01 0. -1.
         25    2    1    2    0    0  0.10578071968E+01 -0.66201575178E+02 -0.22866535127E+02  0.14328920438E+03  0.12500060060E+03 0.  0.
         25    2    1    2    0    0 -0.10578071968E+01  0.66201575178E+02  0.67136250293E+02  0.15656677377E+03  0.12498844360E+03 0.  0.
          5    1    4    4  502    0 -0.19740404696E+02  0.84609782214E+02  0.29383014403E+01  0.87058729827E+02  0.47000000000E+01 0. -1.
         -5    1    4    4    0  502  0.18682597500E+02 -0.18408207036E+02  0.64197948853E+02  0.69508043941E+02  0.47000000000E+01 0. -1.
          5    1    3    3  503    0  0.24742334390E+02 -0.62698163449E+02 -0.65540585976E+02  0.94132360116E+02  0.47000000000E+01 0. -1.
         -5    1    3    3    0  503 -0.23684527193E+02 -0.35034117291E+01  0.42674050849E+02  0.49156844263E+02  0.47000000000E+01 0. -1.
<mgrwt>
<rscale>  0 0.14145020E+03</rscale>
<asrwt>0</asrwt>
<pdfrwt beam="1">  1        5 0.26471207E-01 0.14145288E+03</pdfrwt>
<pdfrwt beam="2">  1       -5 0.19660482E-01 0.14145288E+03</pdfrwt>
<totfact> 0.23898959E+02</totfact>
</mgrwt>
</event>
<event>
 8    1  0.3573290E-007  0.1426059E+03  0.7546771E-02  0.1209865E+00
          5   -1    0    0  501    0  0.00000000000E+00  0.00000000000E+00  0.13909106270E+03  0.13917044845E+03  0.47000000000E+01 0.  1.
         -5   -1    0    0    0  501 -0.00000000000E+00 -0.00000000000E+00 -0.18655638144E+03  0.18661557667E+03  0.47000000000E+01 0.  1.
         25    2    1    2    0    0 -0.58467161464E+01 -0.68386277329E+02 -0.99606428155E+02  0.17394680458E+03  0.12500073310E+03 0.  0.
         25    2    1    2    0    0  0.58467161464E+01  0.68386277329E+02  0.52141109410E+02  0.15183922055E+03  0.12500234634E+03 0.  0.
          5    1    3    3  502    0  0.63471229670E+01  0.32841967389E+02 -0.38579598574E+01  0.33997862377E+02  0.47000000000E+01 0. -1.
         -5    1    3    3    0  502 -0.12193839113E+02 -0.10122824472E+03 -0.95748468298E+02  0.13994894220E+03  0.47000000000E+01 0. -1.
          5    1    4    4  503    0 -0.11416613188E+02  0.39806005293E+00 -0.36597990115E+02  0.38626420866E+02  0.47000000000E+01 0. -1.
         -5    1    4    4    0  503  0.17263329334E+02  0.67988217276E+02  0.88739099525E+02  0.11321279969E+03  0.47000000000E+01 0. -1.
<mgrwt>
<rscale>  0 0.14260558E+03</rscale>
<asrwt>0</asrwt>
<pdfrwt beam="1">  1        5 0.21409285E-01 0.14260594E+03</pdfrwt>
<pdfrwt beam="2">  1       -5 0.28711642E-01 0.14260594E+03</pdfrwt>
<totfact> 0.17447691E+02</totfact>
</mgrwt>
</event>
<event>
 8    1  0.3573290E-007  0.1277906E+03  0.7546771E-02  0.1230784E+00
         -5   -1    0    0    0  501 -0.00000000000E+00  0.00000000000E+00  0.37663503075E+03  0.37666435508E+03  0.47000000000E+01 0.  1.
          5   -1    0    0  501    0  0.00000000000E+00 -0.00000000000E+00 -0.58044368165E+02  0.58234342751E+02  0.47000000000E+01 0.  1.
         25    2    1    2    0    0  0.19192211459E+02 -0.18154121865E+02  0.26904914423E+03  0.29784108222E+03  0.12499582044E+03 0.  0.
         25    2    1    2    0    0 -0.19192211459E+02  0.18154121865E+02  0.49541518359E+02  0.13705761561E+03  0.12503005572E+03 0.  0.
          5    1    3    3  502    0 -0.43954764455E+02 -0.36650994180E+02  0.87321485858E+02  0.10451051902E+03  0.47000000000E+01 0.  1.
         -5    1    3    3    0  502  0.63146975914E+02  0.18496872315E+02  0.18172765837E+03  0.19333056321E+03  0.47000000000E+01 0.  1.
          5    1    4    4  503    0 -0.13154877177E+02 -0.49165948096E+02  0.46717037400E+02  0.69245309077E+02  0.47000000000E+01 0.  1.
         -5    1    4    4    0  503 -0.60373342819E+01  0.67320069961E+02  0.28244809586E+01  0.67812306534E+02  0.47000000000E+01 0.  1.
<mgrwt>
<rscale>  0 0.12778219E+03</rscale>
<asrwt>0</asrwt>
<pdfrwt beam="2">  1        5 0.89467721E-02 0.12779056E+03</pdfrwt>
<pdfrwt beam="1">  1       -5 0.57960719E-01 0.12779056E+03</pdfrwt>
<totfact> 0.19070321E+02</totfact>
</mgrwt>
</event>
<event>
 8    1  0.3573290E-007  0.1385801E+03  0.7546771E-02  0.1215260E+00
         -5   -1    0    0    0  501 -0.00000000000E+00  0.00000000000E+00  0.41769771414E+03  0.41772415587E+03  0.47000000000E+01 0. -1.
          5   -1    0    0  501    0  0.00000000000E+00 -0.00000000000E+00 -0.50830742304E+02  0.51047569610E+02  0.47000000000E+01 0. -1.
         25    2    1    2    0    0 -0.29705210015E+02  0.51930471994E+02  0.25684192075E+03  0.29184281389E+03  0.12500112937E+03 0.  0.
         25    2    1    2    0    0  0.29705210015E+02 -0.51930471994E+02  0.11002505108E+03  0.17692891158E+03  0.12497661567E+03 0.  0.
          5    1    3    3  502    0 -0.55359123085E+02  0.19339308814E+01  0.21378231584E+03  0.22089214826E+03  0.47000000000E+01 0. -1.
         -5    1    3    3    0  502  0.25653913070E+02  0.49996541112E+02  0.43059604915E+02  0.70950665638E+02  0.47000000000E+01 0. -1.
          5    1    4    4  503    0  0.21804366105E+02 -0.17275465846E+02  0.13193029189E+03  0.13491317215E+03  0.47000000000E+01 0.  1.
         -5    1    4    4    0  503  0.79008439105E+01 -0.34655006148E+02 -0.21905240805E+02  0.42015739436E+02  0.47000000000E+01 0.  1.
<mgrwt>
<rscale>  0 0.13857461E+03</rscale>
<asrwt>0</asrwt>
<pdfrwt beam="2">  1        5 0.78388269E-02 0.13858014E+03</pdfrwt>
<pdfrwt beam="1">  1       -5 0.64279902E-01 0.13858014E+03</pdfrwt>
<totfact> 0.19613772E+02</totfact>
</mgrwt>
</event>
<event>
 8    1  0.3573290E-007  0.1407703E+03  0.7546771E-02  0.1212297E+00
          5   -1    0    0  501    0  0.00000000000E+00  0.00000000000E+00  0.18612483989E+03  0.18618417232E+03  0.47000000000E+01 0. -1.
         -5   -1    0    0    0  501 -0.00000000000E+00 -0.00000000000E+00 -0.11832395329E+03  0.11841726193E+03  0.47000000000E+01 0. -1.
         25    2    1    2    0    0 -0.64713179728E+02  0.17652321338E+01 -0.14542741267E+02  0.14151950275E+03  0.12500146663E+03 0.  0.
         25    2    1    2    0    0  0.64713179728E+02 -0.17652321338E+01  0.82343627861E+02  0.16308193150E+03  0.12499732660E+03 0.  0.
          5    1    4    4  502    0  0.66335848050E+02  0.46012739592E+02  0.81824279062E+02  0.11504312055E+03  0.47000000000E+01 0. -1.
         -5    1    4    4    0  502 -0.16226683219E+01 -0.47777971726E+02  0.51934879921E+00  0.48038810954E+02  0.47000000000E+01 0. -1.
          5    1    3    3  503    0 -0.94037302671E+02  0.28295595528E+02  0.21539083500E+01  0.98338112353E+02  0.47000000000E+01 0.  1.
         -5    1    3    3    0  503  0.29324122943E+02 -0.26530363395E+02 -0.16696649617E+02  0.43181390398E+02  0.47000000000E+01 0.  1.
<mgrwt>
<rscale>  0 0.14076938E+03</rscale>
<asrwt>0</asrwt>
<pdfrwt beam="1">  1        5 0.28646332E-01 0.14077030E+03</pdfrwt>
<pdfrwt beam="2">  1       -5 0.18215427E-01 0.14077030E+03</pdfrwt>
<totfact> 0.23584573E+02</totfact>
</mgrwt>
</event>
<event>
 8    1  0.3573290E-007  0.1418301E+03  0.7546771E-02  0.1210894E+00
          5   -1    0    0  501    0  0.00000000000E+00  0.00000000000E+00  0.20652411502E+04  0.20652464983E+04  0.47000000000E+01 0. -1.
         -5   -1    0    0    0  501 -0.00000000000E+00 -0.00000000000E+00 -0.10513628349E+02  0.11516352767E+02  0.47000000000E+01 0. -1.
         25    2    1    2    0    0  0.51042872233E+02 -0.43351465727E+02  0.67332581677E+03  0.68810131909E+03  0.12502417934E+03 0.  0.
         25    2    1    2    0    0 -0.51042872233E+02  0.43351465727E+02  0.13814017051E+04  0.13886615319E+04  0.12500182011E+03 0.  0.
          5    1    3    3  502    0  0.50919247928E+02 -0.57944831127E+02  0.66708689776E+03  0.67154850341E+03  0.47000000000E+01 0.  1.
         -5    1    3    3    0  502  0.12362430463E+00  0.14593365399E+02  0.62389190092E+01  0.16552815684E+02  0.47000000000E+01 0.  1.
          5    1    4    4  503    0 -0.38409651495E+02  0.65839068169E+02  0.13158061650E+04  0.13180204999E+04  0.47000000000E+01 0.  1.
         -5    1    4    4    0  503 -0.12633220737E+02 -0.22487602442E+02  0.65595540092E+02  0.70641032054E+02  0.47000000000E+01 0.  1.
<mgrwt>
<rscale>  0 0.14182515E+03</rscale>
<asrwt>0</asrwt>
<pdfrwt beam="1">  1        5 0.31780671E+00 0.14183007E+03</pdfrwt>
<pdfrwt beam="2">  1       -5 0.16950266E-02 0.14183007E+03</pdfrwt>
<totfact> 0.23435594E+01</totfact>
</mgrwt>
</event>
<event>
 8    1  0.3573290E-007  0.1463746E+03  0.7546771E-02  0.1205001E+00
         -5   -1    0    0    0  501 -0.00000000000E+00  0.00000000000E+00  0.51247461027E+02  0.51462532601E+02  0.47000000000E+01 0. -1.
          5   -1    0    0  501    0  0.00000000000E+00 -0.00000000000E+00 -0.43018617206E+03  0.43021184623E+03  0.47000000000E+01 0. -1.
         25    2    1    2    0    0 -0.75587861254E+02  0.93172825901E+01 -0.14726455208E+03  0.20763518032E+03  0.12500073314E+03 0.  0.
         25    2    1    2    0    0  0.75587861254E+02 -0.93172825901E+01 -0.23167415896E+03  0.27403919850E+03  0.12499691942E+03 0.  0.
          5    1    3    3  502    0 -0.37698112799E+02 -0.56347037051E+02 -0.88599467344E+02  0.11166061036E+03  0.47000000000E+01 0.  1.
         -5    1    3    3    0  502 -0.37889748455E+02  0.65664319641E+02 -0.58665084736E+02  0.95974569960E+02  0.47000000000E+01 0.  1.
          5    1    4    4  503    0  0.61534438514E+01 -0.76881992275E+00  0.15375445075E+02  0.17232244966E+02  0.47000000000E+01 0.  1.
         -5    1    4    4    0  503  0.69434417403E+02 -0.85484626674E+01 -0.24704960403E+03  0.25680695354E+03  0.47000000000E+01 0.  1.
<mgrwt>
<rscale>  0 0.14637377E+03</rscale>
<asrwt>0</asrwt>
<pdfrwt beam="2">  1        5 0.66201004E-01 0.14637459E+03</pdfrwt>
<pdfrwt beam="1">  1       -5 0.79027440E-02 0.14637459E+03</pdfrwt>
<totfact> 0.18446543E+02</totfact>
</mgrwt>
</event>
<event>
 8    1  0.3573290E-007  0.1335700E+03  0.7546771E-02  0.1222255E+00
         -5   -1    0    0    0  501 -0.00000000000E+00  0.00000000000E+00  0.47133031539E+03  0.47135374848E+03  0.47000000000E+01 0.  1.
          5   -1    0    0  501    0  0.00000000000E+00 -0.00000000000E+00 -0.45998687624E+02  0.46238179713E+02  0.47000000000E+01 0.  1.
         25    2    1    2    0    0  0.33727757149E+02 -0.32834761134E+02  0.32237814886E+03  0.34895361580E+03  0.12500108792E+03 0.  0.
         25    2    1    2    0    0 -0.33727757149E+02  0.32834761134E+02  0.10295347891E+03  0.16863831239E+03  0.12499511369E+03 0.  0.
          5    1    4    4  502    0 -0.26909516792E+02  0.48154482584E+02  0.12723463528E+03  0.13875776988E+03  0.47000000000E+01 0.  1.
         -5    1    4    4    0  502 -0.68182403573E+01 -0.15319721450E+02 -0.24281156363E+02  0.29880542518E+02  0.47000000000E+01 0.  1.
          5    1    3    3  503    0 -0.26937878844E+02 -0.59994684114E+02  0.18169733403E+03  0.19328999620E+03  0.47000000000E+01 0.  1.
         -5    1    3    3    0  503  0.60665635993E+02  0.27159922980E+02  0.14068081483E+03  0.15566361960E+03  0.47000000000E+01 0.  1.
<mgrwt>
<rscale>  0 0.13356864E+03</rscale>
<asrwt>0</asrwt>
<pdfrwt beam="2">  1        5 0.70969462E-02 0.13357004E+03</pdfrwt>
<pdfrwt beam="1">  1       -5 0.72532582E-01 0.13357004E+03</pdfrwt>
<totfact> 0.17510992E+02</totfact>
</mgrwt>
</event>
<event>
 8    1  0.3573290E-007  0.1408549E+03  0.7546771E-02  0.1212184E+00
         -5   -1    0    0    0  501 -0.00000000000E+00  0.00000000000E+00  0.15245303290E+03  0.15252546423E+03  0.47000000000E+01 0.  1.
          5   -1    0    0  501    0  0.00000000000E+00 -0.00000000000E+00 -0.13120339271E+03  0.13128754800E+03  0.47000000000E+01 0.  1.
         25    2    1    2    0    0 -0.13025499901E+02  0.63596491938E+02 -0.30037927431E+01  0.14088533762E+03  0.12500191259E+03 0.  0.
         25    2    1    2    0    0  0.13025499901E+02 -0.63596491938E+02  0.24253432929E+02  0.14292767461E+03  0.12500365485E+03 0.  0.
          5    1    3    3  502    0 -0.51510616372E+02 -0.14149293865E+02  0.36841290475E+01  0.53751362055E+02  0.47000000000E+01 0.  1.
         -5    1    3    3    0  502  0.38485116471E+02  0.77745785804E+02 -0.66879217906E+01  0.87133975566E+02  0.47000000000E+01 0.  1.
          5    1    4    4  503    0  0.20593255194E+02 -0.58727960017E+02 -0.42434951294E+02  0.75470991372E+02  0.47000000000E+01 0.  1.
         -5    1    4    4    0  503 -0.75677552924E+01 -0.48685319209E+01  0.66688384223E+02  0.67456683239E+02  0.47000000000E+01 0.  1.
<mgrwt>
<rscale>  0 0.14085447E+03</rscale>
<asrwt>0</asrwt>
<pdfrwt beam="2">  1        5 0.20197183E-01 0.14085486E+03</pdfrwt>
<pdfrwt beam="1">  1       -5 0.23466358E-01 0.14085486E+03</pdfrwt>
<totfact> 0.28588895E+02</totfact>
</mgrwt>
</event>
<event>
 8    1  0.3573290E-007  0.1627084E+03  0.7546771E-02  0.1185676E+00
         -5   -1    0    0    0  501 -0.00000000000E+00  0.00000000000E+00  0.79856753653E+02  0.79994944240E+02  0.47000000000E+01 0. -1.
          5   -1    0    0  501    0  0.00000000000E+00 -0.00000000000E+00 -0.33562390414E+03  0.33565681139E+03  0.47000000000E+01 0. -1.
         25    2    1    2    0    0  0.33681227419E+02 -0.98558067499E+02 -0.15212347250E+03  0.22273720609E+03  0.12498877686E+03 0.  0.
         25    2    1    2    0    0 -0.33681227419E+02  0.98558067499E+02 -0.10364367798E+03  0.19291454953E+03  0.12500357470E+03 0.  0.
          5    1    4    4  502    0 -0.20096115357E+02  0.12109171211E+03 -0.11060381618E+03  0.16529473902E+03  0.47000000000E+01 0.  1.
         -5    1    4    4    0  502 -0.13585112062E+02 -0.22533644613E+02  0.69601381932E+01  0.27619810516E+02  0.47000000000E+01 0.  1.
          5    1    3    3  503    0 -0.21032936859E+02 -0.15975828782E+02  0.13238358108E+02  0.29915809593E+02  0.47000000000E+01 0. -1.
         -5    1    3    3    0  503  0.54714164278E+02 -0.82582238717E+02 -0.16536183061E+03  0.19282139650E+03  0.47000000000E+01 0. -1.
<mgrwt>
<rscale>  0 0.16270552E+03</rscale>
<asrwt>0</asrwt>
<pdfrwt beam="2">  1        5 0.51647608E-01 0.16270836E+03</pdfrwt>
<pdfrwt beam="1">  1       -5 0.12298816E-01 0.16270836E+03</pdfrwt>
<totfact> 0.15152281E+02</totfact>
</mgrwt>
</event>
<event>
 8    1  0.3573290E-007  0.1427653E+03  0.7546771E-02  0.1209656E+00
         -5   -1    0    0    0  501 -0.00000000000E+00  0.00000000000E+00  0.87744382005E+02  0.87870168848E+02  0.47000000000E+01 0.  1.
          5   -1    0    0  501    0  0.00000000000E+00 -0.00000000000E+00 -0.23278858724E+03  0.23283602889E+03  0.47000000000E+01 0.  1.
         25    2    1    2    0    0 -0.65306791632E+02  0.22177121098E+02 -0.63026257009E+02  0.15605843371E+03  0.12500049570E+03 0.  0.
         25    2    1    2    0    0  0.65306791632E+02 -0.22177121098E+02 -0.82017948223E+02  0.16464776403E+03  0.12500056254E+03 0.  0.
          5    1    3    3  502    0  0.21807396903E+02  0.46589401013E+02 -0.16558486718E+02  0.54243970437E+02  0.47000000000E+01 0.  1.
         -5    1    3    3    0  502 -0.87114188535E+02 -0.24412279915E+02 -0.46467770292E+02  0.10181446327E+03  0.47000000000E+01 0.  1.
          5    1    4    4  503    0 -0.26737753870E+02 -0.38861954179E+02 -0.15904729514E+02  0.50002093812E+02  0.47000000000E+01 0. -1.
         -5    1    4    4    0  503  0.92044545502E+02  0.16684833082E+02 -0.66113218709E+02  0.11464567022E+03  0.47000000000E+01 0. -1.
<mgrwt>
<rscale>  0 0.14276533E+03</rscale>
<asrwt>0</asrwt>
<pdfrwt beam="2">  1        5 0.35826954E-01 0.14276534E+03</pdfrwt>
<pdfrwt beam="1">  1       -5 0.13512461E-01 0.14276534E+03</pdfrwt>
<totfact> 0.26196249E+02</totfact>
</mgrwt>
</event>
<event>
 8    1  0.3573290E-007  0.1420186E+03  0.7546771E-02  0.1210639E+00
          5   -1    0    0  501    0  0.00000000000E+00  0.00000000000E+00  0.31059074409E+03  0.31062630332E+03  0.47000000000E+01 0.  1.
         -5   -1    0    0    0  501 -0.00000000000E+00 -0.00000000000E+00 -0.64817141582E+02  0.64987320631E+02  0.47000000000E+01 0.  1.
         25    2    1    2    0    0  0.23529779521E+02 -0.63163853930E+02  0.12438028000E+03  0.18878315700E+03  0.12500121338E+03 0.  0.
         25    2    1    2    0    0 -0.23529779521E+02  0.63163853930E+02  0.12139332250E+03  0.18683046695E+03  0.12500384660E+03 0.  0.
          5    1    4    4  502    0  0.33623586242E+02  0.12635423074E+02  0.10161883416E+03  0.10788269983E+03  0.47000000000E+01 0.  1.
         -5    1    4    4    0  502 -0.57153365763E+02  0.50528430857E+02  0.19774488345E+02  0.78947767114E+02  0.47000000000E+01 0.  1.
          5    1    3    3  503    0  0.26812528900E+02 -0.91409374007E+02  0.47239873532E+02  0.10643439770E+03  0.47000000000E+01 0. -1.
         -5    1    3    3    0  503 -0.32827493784E+01  0.28245520077E+02  0.77140406473E+02  0.82348759303E+02  0.47000000000E+01 0. -1.
<mgrwt>
<rscale>  0 0.14201803E+03</rscale>
<asrwt>0</asrwt>
<pdfrwt beam="1">  1        5 0.47799017E-01 0.14201861E+03</pdfrwt>
<pdfrwt beam="2">  1       -5 0.99876941E-02 0.14201861E+03</pdfrwt>
<totfact> 0.24661228E+02</totfact>
</mgrwt>
</event>
<event>
 8    1  0.3573290E-007  0.1407103E+03  0.7546771E-02  0.1212388E+00
          5   -1    0    0  501    0  0.00000000000E+00  0.00000000000E+00  0.91636457133E+03  0.91637662432E+03  0.47000000000E+01 0.  1.
         -5   -1    0    0    0  501 -0.00000000000E+00 -0.00000000000E+00 -0.22148177658E+02  0.22641373050E+02  0.47000000000E+01 0.  1.
         25    2    1    2    0    0 -0.60902753911E+02  0.21365348636E+02  0.35811526865E+03  0.38476737123E+03  0.12503503815E+03 0.  0.
         25    2    1    2    0    0  0.60902753911E+02 -0.21365348636E+02  0.53610112503E+03  0.55425062614E+03  0.12499486696E+03 0.  0.
          5    1    4    4  502    0  0.58012668550E+02  0.21883372613E+02  0.47576082056E+03  0.47980704464E+03  0.47000000000E+01 0.  1.
         -5    1    4    4    0  502  0.28900853613E+01 -0.43248721249E+02  0.60340304471E+02  0.74443581501E+02  0.47000000000E+01 0.  1.
          5    1    3    3  503    0 -0.44182583481E+02  0.65469797826E+02  0.29737011533E+03  0.30771654261E+03  0.47000000000E+01 0.  1.
         -5    1    3    3    0  503 -0.16720170430E+02 -0.44104449190E+02  0.60745153322E+02  0.77050828611E+02  0.47000000000E+01 0.  1.
<mgrwt>
<rscale>  0 0.14070136E+03</rscale>
<asrwt>0</asrwt>
<pdfrwt beam="1">  1        5 0.14101803E+00 0.14071029E+03</pdfrwt>
<pdfrwt beam="2">  1       -5 0.34462772E-02 0.14071029E+03</pdfrwt>
<totfact> 0.11612353E+02</totfact>
</mgrwt>
</event>
<event>
 8    1  0.3573290E-007  0.1359378E+03  0.7546771E-02  0.1218904E+00
          5   -1    0    0  501    0  0.00000000000E+00  0.00000000000E+00  0.17863611845E+03  0.17869793735E+03  0.47000000000E+01 0.  1.
         -5   -1    0    0    0  501 -0.00000000000E+00 -0.00000000000E+00 -0.10432525614E+03  0.10443107329E+03  0.47000000000E+01 0.  1.
         25    2    1    2    0    0  0.53202079303E+02  0.47539973341E+01  0.23187598043E+02  0.13790126065E+03  0.12500412495E+03 0.  0.
         25    2    1    2    0    0 -0.53202079303E+02 -0.47539973341E+01  0.51123264266E+02  0.14522774999E+03  0.12499779792E+03 0.  0.
          5    1    4    4  502    0  0.21210890252E+02  0.51489358162E+01 -0.28163395320E+02  0.35939953273E+02  0.47000000000E+01 0. -1.
         -5    1    4    4    0  502 -0.74412969554E+02 -0.99029331503E+01  0.79286659586E+02  0.10928779672E+03  0.47000000000E+01 0. -1.
          5    1    3    3  503    0 -0.16562032161E+02 -0.41016658684E+02  0.30616145553E+02  0.54000977467E+02  0.47000000000E+01 0.  1.
         -5    1    3    3    0  503  0.69764111463E+02  0.45770656018E+02 -0.74285475100E+01  0.83900283186E+02  0.47000000000E+01 0.  1.
<mgrwt>
<rscale>  0 0.13593637E+03</rscale>
<asrwt>0</asrwt>
<pdfrwt beam="1">  1        5 0.27495375E-01 0.13593783E+03</pdfrwt>
<pdfrwt beam="2">  1       -5 0.16062934E-01 0.13593783E+03</pdfrwt>
<totfact> 0.31791110E+02</totfact>
</mgrwt>
</event>
<event>
 8    1  0.3573290E-007  0.2012797E+03  0.7546771E-02  0.1148664E+00
         -5   -1    0    0    0  501 -0.00000000000E+00  0.00000000000E+00  0.86786208966E+02  0.86913382552E+02  0.47000000000E+01 0.  1.
          5   -1    0    0  501    0  0.00000000000E+00 -0.00000000000E+00 -0.49743213915E+03  0.49745434269E+03  0.47000000000E+01 0.  1.
         25    2    1    2    0    0  0.12652851936E+03  0.94219404176E+02 -0.13227742859E+03  0.24085434718E+03  0.12500694423E+03 0.  0.
         25    2    1    2    0    0 -0.12652851936E+03 -0.94219404176E+02 -0.27836850160E+03  0.34351337807E+03  0.12500262354E+03 0.  0.
          5    1    4    4  502    0 -0.11554465423E+03 -0.19752149138E+02 -0.11850313663E+03  0.16675070587E+03  0.47000000000E+01 0. -1.
         -5    1    4    4    0  502 -0.10983865134E+02 -0.74467255038E+02 -0.15986536497E+03  0.17676267220E+03  0.47000000000E+01 0. -1.
          5    1    3    3  503    0  0.46900725564E+02  0.40255872361E+02  0.16026392812E+02  0.64024593592E+02  0.47000000000E+01 0.  1.
         -5    1    3    3    0  503  0.79627793799E+02  0.53963531815E+02 -0.14830382140E+03  0.17682975359E+03  0.47000000000E+01 0.  1.
<mgrwt>
<rscale>  0 0.20127898E+03</rscale>
<asrwt>0</asrwt>
<pdfrwt beam="2">  1        5 0.76539511E-01 0.20127965E+03</pdfrwt>
<pdfrwt beam="1">  1       -5 0.13363215E-01 0.20127965E+03</pdfrwt>
<totfact> 0.57922412E+01</totfact>
</mgrwt>
</event>
<event>
 8    1  0.3573290E-007  0.1320539E+03  0.7546771E-02  0.1224446E+00
          5   -1    0    0  501    0  0.00000000000E+00  0.00000000000E+00  0.11470664596E+03  0.11480289468E+03  0.47000000000E+01 0.  1.
         -5   -1    0    0    0  501 -0.00000000000E+00 -0.00000000000E+00 -0.16283537226E+03  0.16290318738E+03  0.47000000000E+01 0.  1.
         25    2    1    2    0    0  0.38295940108E+02  0.18629449811E+02 -0.60181677281E+02  0.14512088451E+03  0.12499840563E+03 0.  0.
         25    2    1    2    0    0 -0.38295940108E+02 -0.18629449811E+02  0.12052950981E+02  0.13258519755E+03  0.12497970057E+03 0.  0.
          5    1    3    3  502    0  0.49798807073E+02 -0.40544028322E+02 -0.73117777200E+01  0.64801940649E+02  0.47000000000E+01 0.  1.
         -5    1    3    3    0  502 -0.11502866966E+02  0.59173478134E+02 -0.52869899561E+02  0.80318943858E+02  0.47000000000E+01 0.  1.
          5    1    4    4  503    0  0.13256214085E+02 -0.25264008641E+00  0.58797621030E+02  0.60456937382E+02  0.47000000000E+01 0. -1.
         -5    1    4    4    0  503 -0.51552154193E+02 -0.18376809725E+02 -0.46744670048E+02  0.72128260173E+02  0.47000000000E+01 0. -1.
<mgrwt>
<rscale>  0 0.13204949E+03</rscale>
<asrwt>0</asrwt>
<pdfrwt beam="1">  1        5 0.17659797E-01 0.13205392E+03</pdfrwt>
<pdfrwt beam="2">  1       -5 0.25064216E-01 0.13205392E+03</pdfrwt>
<totfact> 0.31626390E+02</totfact>
</mgrwt>
</event>
<event>
 8    1  0.3573290E-007  0.1342355E+03  0.7546771E-02  0.1221308E+00
         -5   -1    0    0    0  501 -0.00000000000E+00  0.00000000000E+00  0.80724515705E+03  0.80725883927E+03  0.47000000000E+01 0. -1.
          5   -1    0    0  501    0  0.00000000000E+00 -0.00000000000E+00 -0.26400342719E+02  0.26815445095E+02  0.47000000000E+01 0. -1.
         25    2    1    2    0    0  0.40113321843E+02 -0.28020584568E+02  0.55809635522E+03  0.57401281559E+03  0.12499975600E+03 0.  0.
         25    2    1    2    0    0 -0.40113321843E+02  0.28020584568E+02  0.22274845911E+03  0.26006146877E+03  0.12498343793E+03 0.  0.
          5    1    4    4  502    0  0.33566648377E+00  0.64109352764E+02  0.17916180165E+03  0.19034485272E+03  0.47000000000E+01 0.  1.
         -5    1    4    4    0  502 -0.40448988327E+02 -0.36088768196E+02  0.43586657454E+02  0.69716616058E+02  0.47000000000E+01 0.  1.
          5    1    3    3  503    0 -0.44709558612E+02 -0.18849371039E+02  0.20962556364E+03  0.21521898232E+03  0.47000000000E+01 0. -1.
         -5    1    3    3    0  503  0.84822880455E+02 -0.91712135289E+01  0.34847079158E+03  0.35879383327E+03  0.47000000000E+01 0. -1.
<mgrwt>
<rscale>  0 0.13423171E+03</rscale>
<asrwt>0</asrwt>
<pdfrwt beam="2">  1        5 0.40945752E-02 0.13423550E+03</pdfrwt>
<pdfrwt beam="1">  1       -5 0.12422453E+00 0.13423550E+03</pdfrwt>
<totfact> 0.12033090E+02</totfact>
</mgrwt>
</event>
<event>
 8    1  0.3573290E-007  0.1410768E+03  0.7546771E-02  0.1211888E+00
         -5   -1    0    0    0  501 -0.00000000000E+00  0.00000000000E+00  0.62766257651E+03  0.62768017329E+03  0.47000000000E+01 0.  1.
          5   -1    0    0  501    0  0.00000000000E+00 -0.00000000000E+00 -0.32344671793E+02  0.32684366192E+02  0.47000000000E+01 0.  1.
         25    2    1    2    0    0  0.11666464551E+02  0.64365344014E+02  0.35019303608E+03  0.37754181538E+03  0.12499462363E+03 0.  0.
         25    2    1    2    0    0 -0.11666464551E+02 -0.64365344014E+02  0.24512486863E+03  0.28282272411E+03  0.12499395243E+03 0.  0.
          5    1    3    3  502    0 -0.81669631617E+01  0.88573704094E+01  0.29914200120E+03  0.29942140735E+03  0.47000000000E+01 0.  1.
         -5    1    3    3    0  502  0.19833427713E+02  0.55507973604E+02  0.51051034882E+02  0.78120408032E+02  0.47000000000E+01 0.  1.
          5    1    4    4  503    0  0.36649986703E+02 -0.40070954024E+02  0.32681844351E+02  0.63553881328E+02  0.47000000000E+01 0.  1.
         -5    1    4    4    0  503 -0.48316451254E+02 -0.24294389990E+02  0.21244302428E+03  0.21926884278E+03  0.47000000000E+01 0.  1.
<mgrwt>
<rscale>  0 0.14107664E+03</rscale>
<asrwt>0</asrwt>
<pdfrwt beam="2">  1        5 0.50035877E-02 0.14107679E+03</pdfrwt>
<pdfrwt beam="1">  1       -5 0.96590950E-01 0.14107679E+03</pdfrwt>
<totfact> 0.16422401E+02</totfact>
</mgrwt>
</event>
<event>
 8    1  0.3573290E-007  0.1488211E+03  0.7546771E-02  0.1201930E+00
         -5   -1    0    0    0  501 -0.00000000000E+00  0.00000000000E+00  0.44601939038E+02  0.44848890354E+02  0.47000000000E+01 0. -1.
          5   -1    0    0  501    0  0.00000000000E+00 -0.00000000000E+00 -0.64420303402E+03  0.64422017900E+03  0.47000000000E+01 0. -1.
         25    2    1    2    0    0  0.32311947590E+02  0.74014371978E+02 -0.13398267996E+03  0.20024575280E+03  0.12499925507E+03 0.  0.
         25    2    1    2    0    0 -0.32311947590E+02 -0.74014371978E+02 -0.46561841501E+03  0.48882331656E+03  0.12500214876E+03 0.  0.
          5    1    3    3  502    0  0.34868123741E+02 -0.20259037633E+02 -0.84255570904E+02  0.93527032923E+02  0.47000000000E+01 0.  1.
         -5    1    3    3    0  502 -0.25561761510E+01  0.94273409612E+02 -0.49727109059E+02  0.10671871987E+03  0.47000000000E+01 0.  1.
          5    1    4    4  503    0 -0.75647743368E+02 -0.44567318305E+02 -0.36312872562E+03  0.37362198584E+03  0.47000000000E+01 0.  1.
         -5    1    4    4    0  503  0.43335795778E+02 -0.29447053674E+02 -0.10248968940E+03  0.11520133072E+03  0.47000000000E+01 0.  1.
<mgrwt>
<rscale>  0 0.14882051E+03</rscale>
<asrwt>0</asrwt>
<pdfrwt beam="2">  1        5 0.99128468E-01 0.14882112E+03</pdfrwt>
<pdfrwt beam="1">  1       -5 0.68821523E-02 0.14882112E+03</pdfrwt>
<totfact> 0.91834061E+01</totfact>
</mgrwt>
</event>
<event>
 8    1  0.3573290E-007  0.1272565E+03  0.7546771E-02  0.1231589E+00
         -5   -1    0    0    0  501 -0.00000000000E+00  0.00000000000E+00  0.22366175902E+03  0.22371113617E+03  0.47000000000E+01 0. -1.
          5   -1    0    0  501    0  0.00000000000E+00 -0.00000000000E+00 -0.12558992594E+03  0.12567784013E+03  0.47000000000E+01 0. -1.
         25    2    1    2    0    0 -0.14831077368E+01 -0.23745563577E+02  0.16279344332E+03  0.20662989912E+03  0.12501263385E+03 0.  0.
         25    2    1    2    0    0  0.14831077368E+01  0.23745563577E+02 -0.64721610246E+02  0.14275907718E+03  0.12500086355E+03 0.  0.
          5    1    4    4  502    0 -0.39158788713E+02  0.26784156229E+02  0.17568880044E+02  0.50809027784E+02  0.47000000000E+01 0.  1.
         -5    1    4    4    0  502  0.40641896450E+02 -0.30385926519E+01 -0.82290490289E+02  0.91950049399E+02  0.47000000000E+01 0.  1.
          5    1    3    3  503    0 -0.23633827540E+02  0.47066971471E+02  0.65284626480E+02  0.84012082835E+02  0.47000000000E+01 0. -1.
         -5    1    3    3    0  503  0.22150719804E+02 -0.70812535048E+02  0.97508816840E+02  0.12261781628E+03  0.47000000000E+01 0. -1.
<mgrwt>
<rscale>  0 0.12725358E+03</rscale>
<asrwt>0</asrwt>
<pdfrwt beam="2">  1        5 0.19332088E-01 0.12725647E+03</pdfrwt>
<pdfrwt beam="1">  1       -5 0.34420062E-01 0.12725647E+03</pdfrwt>
<totfact> 0.14202855E+02</totfact>
</mgrwt>
</event>
<event>
 8    1  0.3573290E-007  0.1804881E+03  0.7546771E-02  0.1167332E+00
         -5   -1    0    0    0  501 -0.00000000000E+00  0.00000000000E+00  0.88421134120E+03  0.88422383247E+03  0.47000000000E+01 0.  1.
          5   -1    0    0  501    0  0.00000000000E+00 -0.00000000000E+00 -0.40411404479E+02  0.40683800363E+02  0.47000000000E+01 0.  1.
         25    2    1    2    0    0 -0.10819578060E+03 -0.72415721589E+02  0.56193401159E+03  0.59020825001E+03  0.12500232528E+03 0.  0.
         25    2    1    2    0    0  0.10819578060E+03  0.72415721589E+02  0.28186592513E+03  0.33469938282E+03  0.12499965375E+03 0.  0.
          5    1    4    4  502    0  0.12392992555E+03  0.43641495004E+02  0.26852643610E+03  0.29898452036E+03  0.47000000000E+01 0. -1.
         -5    1    4    4    0  502 -0.15734144950E+02  0.28774226585E+02  0.13339489034E+02  0.35714862460E+02  0.47000000000E+01 0. -1.
          5    1    3    3  503    0 -0.41513524766E+02  0.33712448956E+02  0.20352814109E+03  0.21048918302E+03  0.47000000000E+01 0.  1.
         -5    1    3    3    0  503 -0.66682255835E+02 -0.10612817055E+03  0.35840587049E+03  0.37971906698E+03  0.47000000000E+01 0.  1.
<mgrwt>
<rscale>  0 0.18048761E+03</rscale>
<asrwt>0</asrwt>
<pdfrwt beam="2">  1        5 0.62390531E-02 0.18048807E+03</pdfrwt>
<pdfrwt beam="1">  1       -5 0.13605444E+00 0.18048807E+03</pdfrwt>
<totfact> 0.51318675E+01</totfact>
</mgrwt>
</event>
<event>
 8    1  0.3573290E-007  0.1255799E+03  0.7546771E-02  0.1234184E+00
         -5   -1    0    0    0  501 -0.00000000000E+00  0.00000000000E+00  0.84052321000E+02  0.84183624688E+02  0.47000000000E+01 0.  1.
          5   -1    0    0  501    0  0.00000000000E+00 -0.00000000000E+00 -0.18808726128E+03  0.18814597486E+03  0.47000000000E+01 0.  1.
         25    2    1    2    0    0 -0.82936041345E+01 -0.80089055686E+01 -0.42922955538E+02  0.13266938037E+03  0.12500343170E+03 0.  0.
         25    2    1    2    0    0  0.82936041345E+01  0.80089055686E+01 -0.61111984738E+02  0.13966021917E+03  0.12504949301E+03 0.  0.
          5    1    4    4  502    0  0.12650906081E+02 -0.30980940489E+02  0.26895575769E+02  0.43189421092E+02  0.47000000000E+01 0. -1.
         -5    1    4    4    0  502 -0.43573019469E+01  0.38989846058E+02 -0.88007560507E+02  0.96470798080E+02  0.47000000000E+01 0. -1.
          5    1    3    3  503    0  0.30949335324E+02  0.30242186940E+02  0.21010810231E+02  0.48332136043E+02  0.47000000000E+01 0.  1.
         -5    1    3    3    0  503 -0.39242939459E+02 -0.38251092508E+02 -0.63933765768E+02  0.84337244328E+02  0.47000000000E+01 0.  1.
<mgrwt>
<rscale>  0 0.12556840E+03</rscale>
<asrwt>0</asrwt>
<pdfrwt beam="2">  1        5 0.28951118E-01 0.12557986E+03</pdfrwt>
<pdfrwt beam="1">  1       -5 0.12945743E-01 0.12557986E+03</pdfrwt>
<totfact> 0.41220732E+02</totfact>
</mgrwt>
</event>
<event>
 8    1  0.3573290E-007  0.1338080E+03  0.7546771E-02  0.1221915E+00
          5   -1    0    0  501    0  0.00000000000E+00  0.00000000000E+00  0.35514875082E+02  0.35824521659E+02  0.47000000000E+01 0. -1.
         -5   -1    0    0    0  501 -0.00000000000E+00 -0.00000000000E+00 -0.52609681770E+03  0.52611781152E+03  0.47000000000E+01 0. -1.
         25    2    1    2    0    0  0.34796595812E+02 -0.32670150164E+02 -0.30588308335E+03  0.33386725180E+03  0.12499895739E+03 0.  0.
         25    2    1    2    0    0 -0.34796595812E+02  0.32670150164E+02 -0.18469885926E+03  0.22807508138E+03  0.12500572923E+03 0.  0.
          5    1    3    3  502    0  0.26220682953E+02  0.35172376697E+02 -0.21797146993E+03  0.22239215813E+03  0.47000000000E+01 0. -1.
         -5    1    3    3    0  502  0.85759128592E+01 -0.67842526861E+02 -0.87911613426E+02  0.11147509366E+03  0.47000000000E+01 0. -1.
          5    1    4    4  503    0 -0.67565756960E+02  0.47447904240E+02 -0.16982566435E+03  0.18888960110E+03  0.47000000000E+01 0.  1.
         -5    1    4    4    0  503  0.32769161148E+02 -0.14777754076E+02 -0.14873194913E+02  0.39185480280E+02  0.47000000000E+01 0.  1.
<mgrwt>
<rscale>  0 0.13380639E+03</rscale>
<asrwt>0</asrwt>
<pdfrwt beam="1">  1        5 0.54892612E-02 0.13380797E+03</pdfrwt>
<pdfrwt beam="2">  1       -5 0.80963400E-01 0.13380797E+03</pdfrwt>
<totfact> 0.20988716E+02</totfact>
</mgrwt>
</event>
<event>
 8    1  0.3573290E-007  0.1385453E+03  0.7546771E-02  0.1215305E+00
         -5   -1    0    0    0  501 -0.00000000000E+00  0.00000000000E+00  0.17598600877E+03  0.17604875825E+03  0.47000000000E+01 0.  1.
          5   -1    0    0  501    0  0.00000000000E+00 -0.00000000000E+00 -0.11103818189E+03  0.11113760767E+03  0.47000000000E+01 0.  1.
         25    2    1    2    0    0  0.37798246296E+02  0.46187762036E+02  0.52273713875E+02  0.14807880120E+03  0.12503108981E+03 0.  0.
         25    2    1    2    0    0 -0.37798246296E+02 -0.46187762036E+02  0.12674112997E+02  0.13910756471E+03  0.12501305786E+03 0.  0.
          5    1    3    3  502    0 -0.28610584500E+02  0.36275827236E+02 -0.18882736550E+02  0.50131316825E+02  0.47000000000E+01 0. -1.
         -5    1    3    3    0  502  0.66408830796E+02  0.99119348008E+01  0.71156450425E+02  0.97947484379E+02  0.47000000000E+01 0. -1.
          5    1    4    4  503    0 -0.54892929075E+02 -0.31791138492E+02 -0.44441345373E+02  0.77595317691E+02  0.47000000000E+01 0.  1.
         -5    1    4    4    0  503  0.17094682779E+02 -0.14396623545E+02  0.57115458371E+02  0.61512247022E+02  0.47000000000E+01 0.  1.
<mgrwt>
<rscale>  0 0.13854120E+03</rscale>
<asrwt>0</asrwt>
<pdfrwt beam="2">  1        5 0.17095272E-01 0.13854526E+03</pdfrwt>
<pdfrwt beam="1">  1       -5 0.27087245E-01 0.13854526E+03</pdfrwt>
<totfact> 0.29394272E+02</totfact>
</mgrwt>
</event>
<event>
 8    1  0.3573290E-007  0.1272895E+03  0.7546771E-02  0.1231538E+00
         -5   -1    0    0    0  501 -0.00000000000E+00  0.00000000000E+00  0.31521120180E+03  0.31524623986E+03  0.47000000000E+01 0. -1.
          5   -1    0    0  501    0  0.00000000000E+00 -0.00000000000E+00 -0.52394158508E+02  0.52604542064E+02  0.47000000000E+01 0. -1.
         25    2    1    2    0    0 -0.19397213370E+02 -0.14110702917E+02  0.15849016831E+03  0.20327749155E+03  0.12500896488E+03 0.  0.
         25    2    1    2    0    0  0.19397213370E+02  0.14110702917E+02  0.10432687499E+03  0.16457329036E+03  0.12499962893E+03 0.  0.
          5    1    3    3  502    0 -0.23989806445E+01  0.28768180401E+02 -0.81055034902E+01  0.30350494206E+02  0.47000000000E+01 0. -1.
         -5    1    3    3    0  502 -0.16998232726E+02 -0.42878883319E+02  0.16659567180E+03  0.17292699735E+03  0.47000000000E+01 0. -1.
          5    1    4    4  503    0 -0.50052338002E+02  0.13591353069E+02  0.69187449593E+02  0.86596504542E+02  0.47000000000E+01 0. -1.
         -5    1    4    4    0  503  0.69449551372E+02  0.51934984823E+00  0.35139425397E+02  0.77976785823E+02  0.47000000000E+01 0. -1.
<mgrwt>
<rscale>  0 0.12728716E+03</rscale>
<asrwt>0</asrwt>
<pdfrwt beam="2">  1        5 0.80795184E-02 0.12728945E+03</pdfrwt>
<pdfrwt beam="1">  1       -5 0.48512909E-01 0.12728945E+03</pdfrwt>
<totfact> 0.33198069E+02</totfact>
</mgrwt>
</event>
<event>
 8    1  0.3573290E-007  0.1474360E+03  0.7546771E-02  0.1203674E+00
          5   -1    0    0  501    0  0.00000000000E+00  0.00000000000E+00  0.43184561085E+03  0.43187118636E+03  0.47000000000E+01 0. -1.
         -5   -1    0    0    0  501 -0.00000000000E+00 -0.00000000000E+00 -0.53317124415E+02  0.53523880239E+02  0.47000000000E+01 0. -1.
         25    2    1    2    0    0  0.78080543501E+02  0.38073905201E+01  0.13058754474E+03  0.19695297160E+03  0.12500519463E+03 0.  0.
         25    2    1    2    0    0 -0.78080543501E+02 -0.38073905201E+01  0.24794094169E+03  0.28844209500E+03  0.12495224730E+03 0.  0.
          5    1    3    3  502    0 -0.14596584387E+02  0.43786094431E+02  0.40842842535E+02  0.61810275260E+02  0.47000000000E+01 0. -1.
         -5    1    3    3    0  502  0.92677127888E+02 -0.39978703911E+02  0.89744702203E+02  0.13514269634E+03  0.47000000000E+01 0. -1.
          5    1    4    4  503    0  0.15846182981E+02  0.31501610124E+02  0.12346548059E+03  0.12848839579E+03  0.47000000000E+01 0.  1.
         -5    1    4    4    0  503 -0.93926726482E+02 -0.35309000644E+02  0.12447546110E+03  0.15995369921E+03  0.47000000000E+01 0.  1.
<mgrwt>
<rscale>  0 0.14742475E+03</rscale>
<asrwt>0</asrwt>
<pdfrwt beam="1">  1        5 0.66455659E-01 0.14743597E+03</pdfrwt>
<pdfrwt beam="2">  1       -5 0.82205061E-02 0.14743597E+03</pdfrwt>
<totfact> 0.17132188E+02</totfact>
</mgrwt>
</event>
<event>
 8    1  0.3573290E-007  0.1260985E+03  0.7546771E-02  0.1233366E+00
          5   -1    0    0  501    0  0.00000000000E+00  0.00000000000E+00  0.32556572897E+03  0.32559965277E+03  0.47000000000E+01 0.  1.
         -5   -1    0    0    0  501 -0.00000000000E+00 -0.00000000000E+00 -0.48930508048E+02  0.49155718059E+02  0.47000000000E+01 0.  1.
         25    2    1    2    0    0  0.88404073179E+01  0.13963550571E+02  0.15149762118E+03  0.19711002644E+03  0.12501079854E+03 0.  0.
         25    2    1    2    0    0 -0.88404073179E+01 -0.13963550571E+02  0.12513759974E+03  0.17764534439E+03  0.12500126387E+03 0.  0.
          5    1    3    3  502    0  0.98908727199E+01  0.59506443304E+02  0.30547049701E+02  0.67779483646E+02  0.47000000000E+01 0. -1.
         -5    1    3    3    0  502 -0.10504654021E+01 -0.45542892733E+02  0.12095057148E+03  0.12933054279E+03  0.47000000000E+01 0. -1.
          5    1    4    4  503    0  0.43210103089E+01  0.53531859270E+02  0.35413354040E+02  0.64502145168E+02  0.47000000000E+01 0. -1.
         -5    1    4    4    0  503 -0.13161417627E+02 -0.67495409841E+02  0.89724245699E+02  0.11314319922E+03  0.47000000000E+01 0. -1.
<mgrwt>
<rscale>  0 0.12609614E+03</rscale>
<asrwt>0</asrwt>
<pdfrwt beam="1">  1        5 0.50106969E-01 0.12609851E+03</pdfrwt>
<pdfrwt beam="2">  1       -5 0.75477038E-02 0.12609851E+03</pdfrwt>
<totfact> 0.34714294E+02</totfact>
</mgrwt>
</event>
<event>
 8    1  0.3573290E-007  0.1319812E+03  0.7546771E-02  0.1224548E+00
         -5   -1    0    0    0  501 -0.00000000000E+00  0.00000000000E+00  0.24139004566E+02  0.24592306549E+02  0.47000000000E+01 0. -1.
          5   -1    0    0  501    0  0.00000000000E+00 -0.00000000000E+00 -0.83327638288E+03  0.83328963768E+03  0.47000000000E+01 0. -1.
         25    2    1    2    0    0  0.19202376157E+02  0.37733536613E+02 -0.24258547689E+03  0.27616027944E+03  0.12499694118E+03 0.  0.
         25    2    1    2    0    0 -0.19202376157E+02 -0.37733536613E+02 -0.56655190142E+03  0.58172166479E+03  0.12500594885E+03 0.  0.
          5    1    4    4  502    0 -0.11537526703E+02  0.38609357225E+02 -0.86344152550E+02  0.95400207900E+02  0.47000000000E+01 0.  1.
         -5    1    4    4    0  502 -0.76648494539E+01 -0.76342893838E+02 -0.48020774887E+03  0.48632145689E+03  0.47000000000E+01 0.  1.
          5    1    3    3  503    0 -0.44132919717E+02  0.46770414559E+02 -0.15248446273E+03  0.16555599552E+03  0.47000000000E+01 0. -1.
         -5    1    3    3    0  503  0.63335295874E+02 -0.90368779458E+01 -0.90101014163E+02  0.11060428391E+03  0.47000000000E+01 0. -1.
<mgrwt>
<rscale>  0 0.13197907E+03</rscale>
<asrwt>0</asrwt>
<pdfrwt beam="2">  1        5 0.12823223E+00 0.13198120E+03</pdfrwt>
<pdfrwt beam="1">  1       -5 0.37495826E-02 0.13198120E+03</pdfrwt>
<totfact> 0.12733835E+02</totfact>
</mgrwt>
</event>
<event>
 8    1  0.3573290E-007  0.1644911E+03  0.7546771E-02  0.1183732E+00
          5   -1    0    0  501    0  0.00000000000E+00  0.00000000000E+00  0.65015952509E+03  0.65017651301E+03  0.47000000000E+01 0. -1.
         -5   -1    0    0    0  501 -0.00000000000E+00 -0.00000000000E+00 -0.47538882589E+02  0.47770653730E+02  0.47000000000E+01 0. -1.
         25    2    1    2    0    0 -0.10547866720E+03  0.17518976861E+02  0.17683376171E+03  0.24151088208E+03  0.12499865238E+03 0.  0.
         25    2    1    2    0    0  0.10547866720E+03 -0.17518976861E+02  0.42578688079E+03  0.45643628466E+03  0.12492778038E+03 0.  0.
          5    1    3    3  502    0 -0.47083398663E+02 -0.46026965791E+02  0.33228657633E+02  0.73902379513E+02  0.47000000000E+01 0.  1.
         -5    1    3    3    0  502 -0.58395268541E+02  0.63545942652E+02  0.14360510407E+03  0.16760850256E+03  0.47000000000E+01 0.  1.
          5    1    4    4  503    0  0.11339161396E+03 -0.42503005548E+02  0.40475037232E+03  0.42250339347E+03  0.47000000000E+01 0. -1.
         -5    1    4    4    0  503 -0.79129467601E+01  0.24984028688E+02  0.21036508475E+02  0.33932891193E+02  0.47000000000E+01 0. -1.
<mgrwt>
<rscale>  0 0.16447765E+03</rscale>
<asrwt>0</asrwt>
<pdfrwt beam="1">  1        5 0.10004368E+00 0.16449111E+03</pdfrwt>
<pdfrwt beam="2">  1       -5 0.73328094E-02 0.16449111E+03</pdfrwt>
<totfact> 0.83079447E+01</totfact>
</mgrwt>
</event>
<event>
 8    1  0.3573290E-007  0.1410959E+03  0.7546771E-02  0.1211875E+00
         -5   -1    0    0    0  501 -0.00000000000E+00  0.00000000000E+00  0.38891536415E+03  0.38894376261E+03  0.47000000000E+01 0.  1.
          5   -1    0    0  501    0  0.00000000000E+00 -0.00000000000E+00 -0.86101098797E+02  0.86229282810E+02  0.47000000000E+01 0.  1.
         25    2    1    2    0    0 -0.63261261619E+02  0.16407230194E+02  0.30286389387E+03  0.33411761388E+03  0.12504742007E+03 0.  0.
         25    2    1    2    0    0  0.63261261619E+02 -0.16407230194E+02 -0.49628517534E-01  0.14105543155E+03  0.12500179151E+03 0.  0.
          5    1    3    3  502    0 -0.71026620983E+02  0.51723681650E+02  0.27348327385E+03  0.28728959467E+03  0.47000000000E+01 0.  1.
         -5    1    3    3    0  502  0.77653593638E+01 -0.35316451456E+02  0.29380620026E+02  0.46828019205E+02  0.47000000000E+01 0.  1.
          5    1    4    4  503    0  0.54637094823E+02  0.14287840257E+02  0.53902325910E+02  0.78210646644E+02  0.47000000000E+01 0. -1.
         -5    1    4    4    0  503  0.86241667953E+01 -0.30695070451E+02 -0.53951954428E+02  0.62844784902E+02  0.47000000000E+01 0. -1.
<mgrwt>
<rscale>  0 0.14108575E+03</rscale>
<asrwt>0</asrwt>
<pdfrwt beam="2">  1        5 0.13258368E-01 0.14109586E+03</pdfrwt>
<pdfrwt beam="1">  1       -5 0.59845178E-01 0.14109586E+03</pdfrwt>
<totfact> 0.92099076E+01</totfact>
</mgrwt>
</event>
<event>
 8    1  0.3573290E-007  0.1694991E+03  0.7546771E-02  0.1178373E+00
         -5   -1    0    0    0  501 -0.00000000000E+00  0.00000000000E+00  0.39915437513E+03  0.39918204517E+03  0.47000000000E+01 0.  1.
          5   -1    0    0  501    0  0.00000000000E+00 -0.00000000000E+00 -0.93475930852E+02  0.93594015025E+02  0.47000000000E+01 0.  1.
         25    2    1    2    0    0 -0.11429837324E+03 -0.64093380395E+01  0.27119603715E+03  0.31980503835E+03  0.12499109667E+03 0.  0.
         25    2    1    2    0    0  0.11429837324E+03  0.64093380395E+01  0.34482407129E+02  0.17297102185E+03  0.12499896104E+03 0.  0.
          5    1    4    4  502    0  0.35622013367E+02  0.19858582781E+02 -0.44526511595E+02  0.60563944564E+02  0.47000000000E+01 0.  1.
         -5    1    4    4    0  502  0.78676359869E+02 -0.13449244741E+02  0.79008918724E+02  0.11240707729E+03  0.47000000000E+01 0.  1.
          5    1    3    3  503    0  0.19105345577E+01  0.40850201696E+02  0.94267129706E+02  0.10286287408E+03  0.47000000000E+01 0.  1.
         -5    1    3    3    0  503 -0.11620890779E+03 -0.47259539736E+02  0.17692890745E+03  0.21694216427E+03  0.47000000000E+01 0.  1.
<mgrwt>
<rscale>  0 0.16949763E+03</rscale>
<asrwt>0</asrwt>
<pdfrwt beam="2">  1        5 0.14392124E-01 0.16949908E+03</pdfrwt>
<pdfrwt beam="1">  1       -5 0.61419577E-01 0.16949908E+03</pdfrwt>
<totfact> 0.79382305E+01</totfact>
</mgrwt>
</event>
<event>
 8    1  0.3573290E-007  0.1766832E+03  0.7546771E-02  0.1171053E+00
          5   -1    0    0  501    0  0.00000000000E+00  0.00000000000E+00  0.14981676479E+04  0.14981750203E+04  0.47000000000E+01 0.  1.
         -5   -1    0    0    0  501 -0.00000000000E+00 -0.00000000000E+00 -0.21126525881E+02  0.21643014943E+02  0.47000000000E+01 0.  1.
         25    2    1    2    0    0  0.55985197551E+02  0.11160361281E+03  0.61601337796E+03  0.64084947482E+03  0.12500343519E+03 0.  0.
         25    2    1    2    0    0 -0.55985197551E+02 -0.11160361281E+03  0.86102774410E+03  0.87896856039E+03  0.12500898090E+03 0.  0.
          5    1    3    3  502    0  0.30150210022E+02  0.13504984599E+01  0.35474502700E+03  0.35605755601E+03  0.47000000000E+01 0. -1.
         -5    1    3    3    0  502  0.25834987529E+02  0.11025311435E+03  0.26126835096E+03  0.28479191881E+03  0.47000000000E+01 0. -1.
          5    1    4    4  503    0 -0.21808398752E+02 -0.76253602060E+02  0.18758155415E+03  0.20371339558E+03  0.47000000000E+01 0. -1.
         -5    1    4    4    0  503 -0.34176798799E+02 -0.35350010750E+02  0.67344618995E+03  0.67525516480E+03  0.47000000000E+01 0. -1.
<mgrwt>
<rscale>  0 0.17668222E+03</rscale>
<asrwt>0</asrwt>
<pdfrwt beam="1">  1        5 0.23052763E+00 0.17668320E+03</pdfrwt>
<pdfrwt beam="2">  1       -5 0.32905318E-02 0.17668320E+03</pdfrwt>
<totfact> 0.30626553E+01</totfact>
</mgrwt>
</event>
<event>
 8    1  0.3573290E-007  0.1355270E+03  0.7546771E-02  0.1219478E+00
          5   -1    0    0  501    0  0.00000000000E+00  0.00000000000E+00  0.62792856735E+02  0.62968506866E+02  0.47000000000E+01 0.  1.
         -5   -1    0    0    0  501 -0.00000000000E+00 -0.00000000000E+00 -0.33102801811E+03  0.33106138219E+03  0.47000000000E+01 0.  1.
         25    2    1    2    0    0 -0.31208585547E+02  0.42047879296E+02 -0.20182524101E+03  0.24310660867E+03  0.12500158121E+03 0.  0.
         25    2    1    2    0    0  0.31208585547E+02 -0.42047879296E+02 -0.66409920372E+02  0.15092328039E+03  0.12500223627E+03 0.  0.
          5    1    3    3  502    0 -0.23510434425E+01  0.83493120564E+02 -0.10991844819E+03  0.13813321048E+03  0.47000000000E+01 0.  1.
         -5    1    3    3    0  502 -0.28857542104E+02 -0.41445241268E+02 -0.91906792820E+02  0.10497339818E+03  0.47000000000E+01 0.  1.
          5    1    4    4  503    0 -0.39209420229E+02 -0.46673058972E+02 -0.13537194179E+02  0.62618676884E+02  0.47000000000E+01 0. -1.
         -5    1    4    4    0  503  0.70418005776E+02  0.46251796763E+01 -0.52872726193E+02  0.88304603502E+02  0.47000000000E+01 0. -1.
<mgrwt>
<rscale>  0 0.13552682E+03</rscale>
<asrwt>0</asrwt>
<pdfrwt beam="1">  1        5 0.96765177E-02 0.13552697E+03</pdfrwt>
<pdfrwt beam="2">  1       -5 0.50943465E-01 0.13552697E+03</pdfrwt>
<totfact> 0.22418559E+02</totfact>
</mgrwt>
</event>
<event>
 8    1  0.3573290E-007  0.1304077E+03  0.7546771E-02  0.1226854E+00
          5   -1    0    0  501    0  0.00000000000E+00  0.00000000000E+00  0.21710765791E+03  0.21715852533E+03  0.47000000000E+01 0.  1.
         -5   -1    0    0    0  501 -0.00000000000E+00 -0.00000000000E+00 -0.92260139882E+02  0.92379778150E+02  0.47000000000E+01 0.  1.
         25    2    1    2    0    0  0.23238892743E+02  0.29001116428E+02  0.20589891287E+01  0.13042391432E+03  0.12500018840E+03 0.  0.
         25    2    1    2    0    0 -0.23238892743E+02 -0.29001116428E+02  0.12278852890E+03  0.17911438916E+03  0.12499532266E+03 0.  0.
          5    1    4    4  502    0  0.26392963591E+02  0.23806878867E+02  0.94680820773E+02  0.10124180871E+03  0.47000000000E+01 0.  1.
         -5    1    4    4    0  502 -0.49631856334E+02 -0.52807995294E+02  0.28107708123E+02  0.77872580451E+02  0.47000000000E+01 0.  1.
          5    1    3    3  503    0  0.13948993453E+02 -0.49229974257E+02 -0.17259247866E+01  0.51412387613E+02  0.47000000000E+01 0.  1.
         -5    1    3    3    0  503  0.92898992903E+01  0.78231090685E+02  0.37849139153E+01  0.79011526703E+02  0.47000000000E+01 0.  1.
<mgrwt>
<rscale>  0 0.13040649E+03</rscale>
<asrwt>0</asrwt>
<pdfrwt beam="1">  1        5 0.33414294E-01 0.13040766E+03</pdfrwt>
<pdfrwt beam="2">  1       -5 0.14206983E-01 0.13040766E+03</pdfrwt>
<totfact> 0.26681543E+02</totfact>
</mgrwt>
</event>
<event>
 8    1  0.3573290E-007  0.1277561E+03  0.7546771E-02  0.1230841E+00
          5   -1    0    0  501    0  0.00000000000E+00  0.00000000000E+00  0.33565280933E+03  0.33568571375E+03  0.47000000000E+01 0. -1.
         -5   -1    0    0    0  501 -0.00000000000E+00 -0.00000000000E+00 -0.57581863268E+02  0.57773358717E+02  0.47000000000E+01 0. -1.
         25    2    1    2    0    0 -0.26284157311E+02  0.35351349164E+01  0.60921138374E+02  0.14153799596E+03  0.12497305747E+03 0.  0.
         25    2    1    2    0    0  0.26284157311E+02 -0.35351349164E+01  0.21714980769E+03  0.25192107650E+03  0.12492732168E+03 0.  0.
          5    1    4    4  502    0  0.70671529826E+02 -0.34493597349E+01  0.18128942993E+03  0.19466461059E+03  0.47000000000E+01 0. -1.
         -5    1    4    4    0  502 -0.44387372515E+02 -0.85775181522E-01  0.35860377760E+02  0.57256465916E+02  0.47000000000E+01 0. -1.
          5    1    3    3  503    0 -0.72871323673E+02  0.10864730495E+01  0.60200863943E+02  0.94644832173E+02  0.47000000000E+01 0. -1.
         -5    1    3    3    0  503  0.46587166362E+02  0.24486618669E+01  0.72027443084E+00  0.46893163785E+02  0.47000000000E+01 0. -1.
<mgrwt>
<rscale>  0 0.12774491E+03</rscale>
<asrwt>0</asrwt>
<pdfrwt beam="1">  1        5 0.51656156E-01 0.12775609E+03</pdfrwt>
<pdfrwt beam="2">  1       -5 0.88760096E-02 0.12775609E+03</pdfrwt>
<totfact> 0.24760750E+02</totfact>
</mgrwt>
</event>
<event>
 8    1  0.3573290E-007  0.1422834E+03  0.7546771E-02  0.1210290E+00
         -5   -1    0    0    0  501 -0.00000000000E+00  0.00000000000E+00  0.61086301444E+02  0.61266844412E+02  0.47000000000E+01 0.  1.
          5   -1    0    0  501    0  0.00000000000E+00 -0.00000000000E+00 -0.43758170556E+03  0.43760694583E+03  0.47000000000E+01 0.  1.
         25    2    1    2    0    0 -0.63602775270E+02  0.23951115279E+02 -0.65006265066E+02  0.15642662484E+03  0.12499802205E+03 0.  0.
         25    2    1    2    0    0  0.63602775270E+02 -0.23951115279E+02 -0.31148913905E+03  0.34244716540E+03  0.12500243358E+03 0.  0.
          5    1    3    3  502    0 -0.65872016104E+02 -0.18981741408E+02 -0.84563750712E+02  0.10896121763E+03  0.47000000000E+01 0. -1.
         -5    1    3    3    0  502  0.22692408339E+01  0.42932856687E+02  0.19557485647E+02  0.47465407215E+02  0.47000000000E+01 0. -1.
          5    1    4    4  503    0  0.20413494260E+02 -0.68448992934E+02 -0.22361836835E+03  0.23479616702E+03  0.47000000000E+01 0.  1.
         -5    1    4    4    0  503  0.43189281010E+02  0.44497877655E+02 -0.87870770698E+02  0.10765099838E+03  0.47000000000E+01 0.  1.
<mgrwt>
<rscale>  0 0.14228247E+03</rscale>
<asrwt>0</asrwt>
<pdfrwt beam="2">  1        5 0.67336090E-01 0.14228344E+03</pdfrwt>
<pdfrwt beam="1">  1       -5 0.94137223E-02 0.14228344E+03</pdfrwt>
<totfact> 0.13009552E+02</totfact>
</mgrwt>
</event>
<event>
 8    1  0.3573290E-007  0.1529868E+03  0.7546771E-02  0.1196860E+00
          5   -1    0    0  501    0  0.00000000000E+00  0.00000000000E+00  0.99233486446E+03  0.99234599471E+03  0.47000000000E+01 0. -1.
         -5   -1    0    0    0  501 -0.00000000000E+00 -0.00000000000E+00 -0.24139132083E+02  0.24592431717E+02  0.47000000000E+01 0. -1.
         25    2    1    2    0    0  0.74367085662E+02 -0.47329569019E+02  0.39225637198E+03  0.42103447296E+03  0.12503765246E+03 0.  0.
         25    2    1    2    0    0 -0.74367085662E+02  0.47329569019E+02  0.57593936039E+03  0.59590395346E+03  0.12499929347E+03 0.  0.
          5    1    4    4  502    0 -0.45812050045E+02  0.57643537230E+02  0.55212427837E+03  0.55703216252E+03  0.47000000000E+01 0. -1.
         -5    1    4    4    0  502 -0.28555035617E+02 -0.10313968210E+02  0.23815082021E+02  0.38871790941E+02  0.47000000000E+01 0. -1.
          5    1    3    3  503    0 -0.28711762227E+02  0.13129301999E+02  0.10870438817E+03  0.11329376801E+03  0.47000000000E+01 0. -1.
         -5    1    3    3    0  503  0.10307884789E+03 -0.60458871019E+02  0.28355198381E+03  0.30774070496E+03  0.47000000000E+01 0. -1.
<mgrwt>
<rscale>  0 0.15297898E+03</rscale>
<asrwt>0</asrwt>
<pdfrwt beam="1">  1        5 0.15270262E+00 0.15298682E+03</pdfrwt>
<pdfrwt beam="2">  1       -5 0.37494381E-02 0.15298682E+03</pdfrwt>
<totfact> 0.83634206E+01</totfact>
</mgrwt>
</event>
<event>
 8    1  0.3573290E-007  0.1507675E+03  0.7546771E-02  0.1199534E+00
         -5   -1    0    0    0  501 -0.00000000000E+00  0.00000000000E+00  0.11199598670E+03  0.11209456292E+03  0.47000000000E+01 0.  1.
          5   -1    0    0  501    0  0.00000000000E+00 -0.00000000000E+00 -0.21791527174E+03  0.21796595068E+03  0.47000000000E+01 0.  1.
         25    2    1    2    0    0 -0.28754778919E+02 -0.79241526175E+02 -0.94289024942E+01  0.15105984043E+03  0.12499645758E+03 0.  0.
         25    2    1    2    0    0  0.28754778919E+02  0.79241526175E+02 -0.96490382539E+02  0.17900067317E+03  0.12499916116E+03 0.  0.
          5    1    3    3  502    0 -0.32858570254E+02  0.11447003984E+01  0.43411771643E+02  0.54659563622E+02  0.47000000000E+01 0. -1.
         -5    1    3    3    0  502  0.41037913356E+01 -0.80386226573E+02 -0.52840674137E+02  0.96400276811E+02  0.47000000000E+01 0. -1.
          5    1    4    4  503    0  0.71316133584E+01  0.33189994383E+02 -0.11850979698E+03  0.12336570681E+03  0.47000000000E+01 0.  1.
         -5    1    4    4    0  503  0.21623165560E+02  0.46051531792E+02  0.22019414444E+02  0.55634966358E+02  0.47000000000E+01 0.  1.
<mgrwt>
<rscale>  0 0.15076697E+03</rscale>
<asrwt>0</asrwt>
<pdfrwt beam="2">  1        5 0.33536908E-01 0.15076753E+03</pdfrwt>
<pdfrwt beam="1">  1       -5 0.17241633E-01 0.15076753E+03</pdfrwt>
<totfact> 0.19563369E+02</totfact>
</mgrwt>
</event>
<event>
 8    1  0.3573290E-007  0.1666020E+03  0.7546771E-02  0.1181439E+00
          5   -1    0    0  501    0  0.00000000000E+00  0.00000000000E+00  0.68725205286E+02  0.68885730320E+02  0.47000000000E+01 0.  1.
         -5   -1    0    0    0  501 -0.00000000000E+00 -0.00000000000E+00 -0.41001065928E+03  0.41003759672E+03  0.47000000000E+01 0.  1.
         25    2    1    2    0    0  0.53613876787E+02  0.96207185993E+02 -0.20145140709E+03  0.26141706360E+03  0.12500376516E+03 0.  0.
         25    2    1    2    0    0 -0.53613876787E+02 -0.96207185993E+02 -0.13983404691E+03  0.21750626344E+03  0.12500057416E+03 0.  0.
          5    1    4    4  502    0 -0.88788011506E+02 -0.43812974793E+02 -0.60888138078E+02  0.11632859969E+03  0.47000000000E+01 0. -1.
         -5    1    4    4    0  502  0.35174134719E+02 -0.52394211200E+02 -0.78945908828E+02  0.10117766375E+03  0.47000000000E+01 0. -1.
          5    1    3    3  503    0  0.32237309706E+02  0.11695323803E+03 -0.10550766685E+03  0.16084545933E+03  0.47000000000E+01 0.  1.
         -5    1    3    3    0  503  0.21376567081E+02 -0.20746052036E+02 -0.95943740242E+02  0.10057160428E+03  0.47000000000E+01 0.  1.
<mgrwt>
<rscale>  0 0.16660136E+03</rscale>
<asrwt>0</asrwt>
<pdfrwt beam="1">  1        5 0.10587529E-01 0.16660196E+03</pdfrwt>
<pdfrwt beam="2">  1       -5 0.63092982E-01 0.16660196E+03</pdfrwt>
<totfact> 0.12868521E+02</totfact>
</mgrwt>
</event>
<event>
 8    1  0.3573290E-007  0.1289658E+03  0.7546771E-02  0.1229001E+00
          5   -1    0    0  501    0  0.00000000000E+00  0.00000000000E+00  0.98036528899E+02  0.98149126326E+02  0.47000000000E+01 0.  1.
         -5   -1    0    0    0  501 -0.00000000000E+00 -0.00000000000E+00 -0.17491695443E+03  0.17498008728E+03  0.47000000000E+01 0.  1.
         25    2    1    2    0    0  0.93036261174E+01 -0.30315760459E+02 -0.62677846468E+02  0.14338370255E+03  0.12499908371E+03 0.  0.
         25    2    1    2    0    0 -0.93036261174E+01  0.30315760459E+02 -0.14202579060E+02  0.12974551106E+03  0.12500632622E+03 0.  0.
          5    1    3    3  502    0  0.29680687528E+02  0.16358411683E+01 -0.90995531841E+02  0.95843080102E+02  0.47000000000E+01 0. -1.
         -5    1    3    3    0  502 -0.20377061410E+02 -0.31951601628E+02  0.28317685373E+02  0.47540622453E+02  0.47000000000E+01 0. -1.
          5    1    4    4  503    0  0.70910771367E+01  0.13267825077E+02  0.54605298746E+02  0.56834384033E+02  0.47000000000E+01 0.  1.
         -5    1    4    4    0  503 -0.16394703254E+02  0.17047935382E+02 -0.68807877806E+02  0.72911127023E+02  0.47000000000E+01 0.  1.
<mgrwt>
<rscale>  0 0.12896407E+03</rscale>
<asrwt>0</asrwt>
<pdfrwt beam="1">  1        5 0.15096061E-01 0.12896583E+03</pdfrwt>
<pdfrwt beam="2">  1       -5 0.26923818E-01 0.12896583E+03</pdfrwt>
<totfact> 0.36371382E+02</totfact>
</mgrwt>
</event>
<event>
 8    1  0.3573290E-007  0.1263339E+03  0.7546771E-02  0.1233001E+00
          5   -1    0    0  501    0  0.00000000000E+00  0.00000000000E+00  0.36389800929E+03  0.36392835994E+03  0.47000000000E+01 0.  1.
         -5   -1    0    0    0  501 -0.00000000000E+00 -0.00000000000E+00 -0.44043639508E+02  0.44293703629E+02  0.47000000000E+01 0.  1.
         25    2    1    2    0    0  0.56280767189E-01 -0.18276265909E+02  0.17791345800E+03  0.21820241404E+03  0.12500027957E+03 0.  0.
         25    2    1    2    0    0 -0.56280767189E-01  0.18276265909E+02  0.14194091179E+03  0.19001964953E+03  0.12500487872E+03 0.  0.
          5    1    4    4  502    0 -0.26895328265E+02  0.25992501660E+02  0.15450601546E+03  0.15903825842E+03  0.47000000000E+01 0. -1.
         -5    1    4    4    0  502  0.26839047497E+02 -0.77162357515E+01 -0.12565103677E+02  0.30981391111E+02  0.47000000000E+01 0. -1.
          5    1    3    3  503    0 -0.52683757422E+02 -0.41264067298E+02  0.78639229181E+02  0.10336595142E+03  0.47000000000E+01 0. -1.
         -5    1    3    3    0  503  0.52740038190E+02  0.22987801389E+02  0.99274228814E+02  0.11483646262E+03  0.47000000000E+01 0. -1.
<mgrwt>
<rscale>  0 0.12633272E+03</rscale>
<asrwt>0</asrwt>
<pdfrwt beam="1">  1        5 0.56005881E-01 0.12633386E+03</pdfrwt>
<pdfrwt beam="2">  1       -5 0.67975147E-02 0.12633386E+03</pdfrwt>
<totfact> 0.32714430E+02</totfact>
</mgrwt>
</event>
<event>
 8    1  0.3573290E-007  0.1292918E+03  0.7546771E-02  0.1228511E+00
         -5   -1    0    0    0  501 -0.00000000000E+00  0.00000000000E+00  0.71592479225E+03  0.71594021969E+03  0.47000000000E+01 0.  1.
          5   -1    0    0  501    0  0.00000000000E+00 -0.00000000000E+00 -0.25135755489E+02  0.25571394252E+02  0.47000000000E+01 0.  1.
         25    2    1    2    0    0 -0.33041601215E+02 -0.33297463998E-01  0.45001959268E+03  0.46822367167E+03  0.12499609752E+03 0.  0.
         25    2    1    2    0    0  0.33041601215E+02  0.33297463998E-01  0.24076944409E+03  0.27328794227E+03  0.12499850265E+03 0.  0.
          5    1    4    4  502    0 -0.17896615860E-01  0.54504299738E+02  0.58262837449E+02  0.79921006236E+02  0.47000000000E+01 0. -1.
         -5    1    4    4    0  502  0.33059497831E+02 -0.54471002274E+02  0.18250660664E+03  0.19336693603E+03  0.47000000000E+01 0. -1.
          5    1    3    3  503    0  0.41526721943E+02 -0.79085930134E+01  0.26727060591E+03  0.27063385091E+03  0.47000000000E+01 0. -1.
         -5    1    3    3    0  503 -0.74568323159E+02  0.78752955494E+01  0.18274898677E+03  0.19758982075E+03  0.47000000000E+01 0. -1.
<mgrwt>
<rscale>  0 0.12929124E+03</rscale>
<asrwt>0</asrwt>
<pdfrwt beam="2">  1        5 0.39017370E-02 0.12929182E+03</pdfrwt>
<pdfrwt beam="1">  1       -5 0.11017696E+00 0.12929182E+03</pdfrwt>
<totfact> 0.17408971E+02</totfact>
</mgrwt>
</event>
<event>
 8    1  0.3573290E-007  0.1256831E+03  0.7546771E-02  0.1234006E+00
          5   -1    0    0  501    0  0.00000000000E+00  0.00000000000E+00  0.77064569494E+02  0.77207757844E+02  0.47000000000E+01 0.  1.
         -5   -1    0    0    0  501 -0.00000000000E+00 -0.00000000000E+00 -0.24327597110E+03  0.24332136797E+03  0.47000000000E+01 0.  1.
         25    2    1    2    0    0  0.13056391236E+02 -0.74761093542E+00 -0.14697331463E+03  0.19338408229E+03  0.12500087918E+03 0.  0.
         25    2    1    2    0    0 -0.13056391236E+02  0.74761093542E+00 -0.19238086967E+02  0.12714504353E+03  0.12499891931E+03 0.  0.
          5    1    3    3  502    0 -0.24398927542E+02 -0.41550585722E+02 -0.15812044480E+02  0.50930046040E+02  0.47000000000E+01 0.  1.
         -5    1    3    3    0  502  0.37455318777E+02  0.40802974786E+02 -0.13116127015E+03  0.14245403625E+03  0.47000000000E+01 0.  1.
          5    1    4    4  503    0  0.37726571335E+02 -0.34935457800E+02 -0.35686583189E+02  0.62764660567E+02  0.47000000000E+01 0.  1.
         -5    1    4    4    0  503 -0.50782962571E+02  0.35683068735E+02  0.16448496222E+02  0.64380382958E+02  0.47000000000E+01 0.  1.
<mgrwt>
<rscale>  0 0.12568264E+03</rscale>
<asrwt>0</asrwt>
<pdfrwt beam="1">  1        5 0.11870594E-01 0.12568313E+03</pdfrwt>
<pdfrwt beam="2">  1       -5 0.37441579E-01 0.12568313E+03</pdfrwt>
<totfact> 0.28868518E+02</totfact>
</mgrwt>
</event>
<event>
 8    1  0.3573290E-007  0.1269050E+03  0.7546771E-02  0.1232124E+00
          5   -1    0    0  501    0  0.00000000000E+00  0.00000000000E+00  0.33603652516E+03  0.33606939200E+03  0.47000000000E+01 0. -1.
         -5   -1    0    0    0  501 -0.00000000000E+00 -0.00000000000E+00 -0.93222331638E+02  0.93340736638E+02  0.47000000000E+01 0. -1.
         25    2    1    2    0    0 -0.17409853013E+02  0.13293383367E+02 -0.28340150671E+02  0.13003090199E+03  0.12500021724E+03 0.  0.
         25    2    1    2    0    0  0.17409853013E+02 -0.13293383367E+02  0.27115434419E+03  0.29937922665E+03  0.12499370364E+03 0.  0.
          5    1    3    3  502    0  0.26414853052E+02  0.26942581474E+02  0.34991507281E+02  0.51673423924E+02  0.47000000000E+01 0. -1.
         -5    1    3    3    0  502 -0.43824706064E+02 -0.13649198108E+02 -0.63331657952E+02  0.78357478070E+02  0.47000000000E+01 0. -1.
          5    1    4    4  503    0 -0.90340063181E+00 -0.66656357029E+02  0.18078323410E+03  0.19273960101E+03  0.47000000000E+01 0. -1.
         -5    1    4    4    0  503  0.18313253645E+02  0.53362973662E+02  0.90371110094E+02  0.10663962564E+03  0.47000000000E+01 0. -1.
<mgrwt>
<rscale>  0 0.12690337E+03</rscale>
<asrwt>0</asrwt>
<pdfrwt beam="1">  1        5 0.51709563E-01 0.12690497E+03</pdfrwt>
<pdfrwt beam="2">  1       -5 0.14353533E-01 0.12690497E+03</pdfrwt>
<totfact> 0.10570942E+02</totfact>
</mgrwt>
</event>
<event>
 8    1  0.3573290E-007  0.1276479E+03  0.7546771E-02  0.1230991E+00
         -5   -1    0    0    0  501 -0.00000000000E+00  0.00000000000E+00  0.24724273492E+03  0.24728740358E+03  0.47000000000E+01 0. -1.
          5   -1    0    0  501    0  0.00000000000E+00 -0.00000000000E+00 -0.83030441692E+02  0.83163358804E+02  0.47000000000E+01 0. -1.
         25    2    1    2    0    0 -0.25139855887E+02 -0.59066430317E+01  0.15736571045E+03  0.20262764284E+03  0.12500837585E+03 0.  0.
         25    2    1    2    0    0  0.25139855887E+02  0.59066430317E+01  0.68465827763E+01  0.12782311954E+03  0.12499989363E+03 0.  0.
          5    1    3    3  502    0  0.41814387288E+02  0.25700925730E+02  0.38702455899E+02  0.62681342202E+02  0.47000000000E+01 0. -1.
         -5    1    3    3    0  502 -0.66954243175E+02 -0.31607568762E+02  0.11866325455E+03  0.13994630064E+03  0.47000000000E+01 0. -1.
          5    1    4    4  503    0  0.52654455111E+02 -0.44226718236E+02  0.12910824447E+02  0.70123274573E+02  0.47000000000E+01 0. -1.
         -5    1    4    4    0  503 -0.27514599224E+02  0.50133361267E+02 -0.60642416712E+01  0.57699844969E+02  0.47000000000E+01 0. -1.
<mgrwt>
<rscale>  0 0.12764586E+03</rscale>
<asrwt>0</asrwt>
<pdfrwt beam="2">  1        5 0.12787574E-01 0.12764793E+03</pdfrwt>
<pdfrwt beam="1">  1       -5 0.38051004E-01 0.12764793E+03</pdfrwt>
<totfact> 0.24624120E+02</totfact>
</mgrwt>
</event>
<event>
 8    1  0.3573290E-007  0.1383915E+03  0.7546771E-02  0.1215516E+00
         -5   -1    0    0    0  501 -0.00000000000E+00  0.00000000000E+00  0.17200324692E+03  0.17206744884E+03  0.47000000000E+01 0. -1.
          5   -1    0    0  501    0  0.00000000000E+00 -0.00000000000E+00 -0.11890313246E+03  0.11899598694E+03  0.47000000000E+01 0. -1.
         25    2    1    2    0    0 -0.43749767425E+02  0.40101009101E+02  0.63569225680E+02  0.15227647517E+03  0.12499978142E+03 0.  0.
         25    2    1    2    0    0  0.43749767425E+02 -0.40101009101E+02 -0.10469111219E+02  0.13878696062E+03  0.12502033862E+03 0.  0.
          5    1    3    3  502    0 -0.54860122325E+02 -0.26404383664E+02  0.23931146270E+01  0.61111713245E+02  0.47000000000E+01 0.  1.
         -5    1    3    3    0  502  0.11110354900E+02  0.66505392764E+02  0.61176111053E+02  0.91164761922E+02  0.47000000000E+01 0.  1.
          5    1    4    4  503    0 -0.14295629720E+02 -0.68596919720E+00 -0.54014649927E+02  0.56075912739E+02  0.47000000000E+01 0.  1.
         -5    1    4    4    0  503  0.58045397145E+02 -0.39415039903E+02  0.43545538708E+02  0.82711047881E+02  0.47000000000E+01 0.  1.
<mgrwt>
<rscale>  0 0.13838690E+03</rscale>
<asrwt>0</asrwt>
<pdfrwt beam="2">  1        5 0.18304871E-01 0.13839154E+03</pdfrwt>
<pdfrwt beam="1">  1       -5 0.26474119E-01 0.13839154E+03</pdfrwt>
<totfact> 0.27080274E+02</totfact>
</mgrwt>
</event>
<event>
 8    1  0.3573290E-007  0.1254013E+03  0.7546771E-02  0.1234444E+00
          5   -1    0    0  501    0  0.00000000000E+00  0.00000000000E+00  0.15620891281E+03  0.15627960340E+03  0.47000000000E+01 0.  1.
         -5   -1    0    0    0  501 -0.00000000000E+00 -0.00000000000E+00 -0.10252444784E+03  0.10263212170E+03  0.47000000000E+01 0.  1.
         25    2    1    2    0    0  0.72378713347E+01 -0.69421904520E+01  0.87555637303E+01  0.12570474358E+03  0.12499776747E+03 0.  0.
         25    2    1    2    0    0 -0.72378713347E+01  0.69421904520E+01  0.44928901231E+02  0.13320698152E+03  0.12499965188E+03 0.  0.
          5    1    4    4  502    0 -0.35032318910E+02  0.55513884274E+02  0.87191683302E+01  0.66386509261E+02  0.47000000000E+01 0.  1.
         -5    1    4    4    0  502  0.27794447576E+02 -0.48571693822E+02  0.36209732901E+02  0.66820472264E+02  0.47000000000E+01 0.  1.
          5    1    3    3  503    0  0.28578094300E+02  0.36431658436E+02 -0.36633899675E+02  0.59229264858E+02  0.47000000000E+01 0. -1.
         -5    1    3    3    0  503 -0.21340222965E+02 -0.43373848888E+02  0.45389463406E+02  0.66475478726E+02  0.47000000000E+01 0. -1.
<mgrwt>
<rscale>  0 0.12540086E+03</rscale>
<asrwt>0</asrwt>
<pdfrwt beam="1">  1        5 0.24045861E-01 0.12540133E+03</pdfrwt>
<pdfrwt beam="2">  1       -5 0.15786712E-01 0.12540133E+03</pdfrwt>
<totfact> 0.41225624E+02</totfact>
</mgrwt>
</event>
<event>
 8    1  0.3573290E-007  0.1271787E+03  0.7546771E-02  0.1231704E+00
          5   -1    0    0  501    0  0.00000000000E+00  0.00000000000E+00  0.23967322853E+03  0.23971930768E+03  0.47000000000E+01 0.  1.
         -5   -1    0    0    0  501 -0.00000000000E+00 -0.00000000000E+00 -0.68094065071E+02  0.68256074439E+02  0.47000000000E+01 0.  1.
         25    2    1    2    0    0  0.23330807693E+02  0.23039588453E+01  0.69720347975E+02  0.14503570957E+03  0.12499918125E+03 0.  0.
         25    2    1    2    0    0 -0.23330807693E+02 -0.23039588453E+01  0.10185881549E+03  0.16293967255E+03  0.12499793512E+03 0.  0.
          5    1    3    3  502    0 -0.25596785295E+02 -0.41378267596E+02 -0.42979873114E+00  0.48883853916E+02  0.47000000000E+01 0.  1.
         -5    1    3    3    0  502  0.48927592989E+02  0.43682226442E+02  0.70150146706E+02  0.96151855653E+02  0.47000000000E+01 0.  1.
          5    1    4    4  503    0  0.24436585963E+02  0.18391823396E+02 -0.15396007199E+02  0.34562015842E+02  0.47000000000E+01 0. -1.
         -5    1    4    4    0  503 -0.47767393656E+02 -0.20695782242E+02  0.11725482268E+03  0.12837765671E+03  0.47000000000E+01 0. -1.
<mgrwt>
<rscale>  0 0.12717843E+03</rscale>
<asrwt>0</asrwt>
<pdfrwt beam="1">  1        5 0.36888811E-01 0.12717873E+03</pdfrwt>
<pdfrwt beam="2">  1       -5 0.10492017E-01 0.12717873E+03</pdfrwt>
<totfact> 0.37122443E+02</totfact>
</mgrwt>
</event>
<event>
 8    1  0.3573290E-007  0.1307397E+03  0.7546771E-02  0.1226365E+00
          5   -1    0    0  501    0  0.00000000000E+00  0.00000000000E+00  0.36068516956E+03  0.36071579054E+03  0.47000000000E+01 0. -1.
         -5   -1    0    0    0  501 -0.00000000000E+00 -0.00000000000E+00 -0.52448783799E+02  0.52658949116E+02  0.47000000000E+01 0. -1.
         25    2    1    2    0    0  0.18558545895E+02 -0.33523579731E+02  0.89130179595E+02  0.15823100402E+03  0.12499844677E+03 0.  0.
         25    2    1    2    0    0 -0.18558545895E+02  0.33523579731E+02  0.21910620617E+03  0.25514373564E+03  0.12499018453E+03 0.  0.
          5    1    3    3  502    0  0.35014455951E+02 -0.19131589218E+01 -0.21844025865E+02  0.41580329106E+02  0.47000000000E+01 0. -1.
         -5    1    3    3    0  502 -0.16455910056E+02 -0.31610420809E+02  0.11097420546E+03  0.11665067491E+03  0.47000000000E+01 0. -1.
          5    1    4    4  503    0  0.25668202739E+02 -0.21085435434E+02  0.10786124308E+02  0.35240356083E+02  0.47000000000E+01 0.  1.
         -5    1    4    4    0  503 -0.44226748634E+02  0.54609015165E+02  0.20832008186E+03  0.21990337955E+03  0.47000000000E+01 0.  1.
<mgrwt>
<rscale>  0 0.13073770E+03</rscale>
<asrwt>0</asrwt>
<pdfrwt beam="1">  1        5 0.55508546E-01 0.13073967E+03</pdfrwt>
<pdfrwt beam="2">  1       -5 0.80875661E-02 0.13073967E+03</pdfrwt>
<totfact> 0.25116528E+02</totfact>
</mgrwt>
</event>
<event>
 8    1  0.3573290E-007  0.1311685E+03  0.7546771E-02  0.1225732E+00
          5   -1    0    0  501    0  0.00000000000E+00  0.00000000000E+00  0.24575197998E+03  0.24579691955E+03  0.47000000000E+01 0. -1.
         -5   -1    0    0    0  501 -0.00000000000E+00 -0.00000000000E+00 -0.11988917352E+03  0.11998126490E+03  0.47000000000E+01 0. -1.
         25    2    1    2    0    0  0.16561544723E+02  0.36156584335E+02 -0.55104826949E+02  0.14227321253E+03  0.12499416664E+03 0.  0.
         25    2    1    2    0    0 -0.16561544723E+02 -0.36156584335E+02  0.18096763340E+03  0.22350497193E+03  0.12499441901E+03 0.  0.
          5    1    4    4  502    0  0.44854836178E+02 -0.92837415994E+01  0.22236897063E+02  0.51134272046E+02  0.47000000000E+01 0. -1.
         -5    1    4    4    0  502 -0.61416380901E+02 -0.26872842736E+02  0.15873073634E+03  0.17237069989E+03  0.47000000000E+01 0. -1.
          5    1    3    3  503    0 -0.10548185115E+02  0.72961123449E+02 -0.46303311835E+01  0.74014320986E+02  0.47000000000E+01 0.  1.
         -5    1    3    3    0  503  0.27109729839E+02 -0.36804539114E+02 -0.50474495766E+02  0.68258891539E+02  0.47000000000E+01 0.  1.
<mgrwt>
<rscale>  0 0.13116849E+03</rscale>
<asrwt>0</asrwt>
<pdfrwt beam="1">  1        5 0.37818538E-01 0.13116855E+03</pdfrwt>
<pdfrwt beam="2">  1       -5 0.18455029E-01 0.13116855E+03</pdfrwt>
<totfact> 0.12944433E+02</totfact>
</mgrwt>
</event>
<event>
 8    1  0.3573290E-007  0.1306135E+03  0.7546771E-02  0.1226551E+00
          5   -1    0    0  501    0  0.00000000000E+00  0.00000000000E+00  0.22906089763E+03  0.22910911117E+03  0.47000000000E+01 0.  1.
         -5   -1    0    0    0  501 -0.00000000000E+00 -0.00000000000E+00 -0.79286203012E+02  0.79425386295E+02  0.47000000000E+01 0.  1.
         25    2    1    2    0    0 -0.35320780592E+02 -0.13670822704E+02  0.36411832156E+02  0.13558643349E+03  0.12499364180E+03 0.  0.
         25    2    1    2    0    0  0.35320780592E+02  0.13670822704E+02  0.11336286246E+03  0.17294806398E+03  0.12500178124E+03 0.  0.
          5    1    4    4  502    0  0.41612338579E+02 -0.45337248331E+02  0.89716087227E+02  0.10889499123E+03  0.47000000000E+01 0. -1.
         -5    1    4    4    0  502 -0.62915579872E+01  0.59008071035E+02  0.23646775234E+02  0.64053072746E+02  0.47000000000E+01 0. -1.
          5    1    3    3  503    0 -0.49234621458E+02 -0.18214766778E+02  0.76359390853E+02  0.92782930814E+02  0.47000000000E+01 0.  1.
         -5    1    3    3    0  503  0.13913840866E+02  0.45439440734E+01 -0.39947558697E+02  0.42803502675E+02  0.47000000000E+01 0.  1.
<mgrwt>
<rscale>  0 0.13061158E+03</rscale>
<asrwt>0</asrwt>
<pdfrwt beam="1">  1        5 0.35254553E-01 0.13061353E+03</pdfrwt>
<pdfrwt beam="2">  1       -5 0.12212293E-01 0.13061353E+03</pdfrwt>
<totfact> 0.31428015E+02</totfact>
</mgrwt>
</event>
<event>
 8    1  0.3573290E-007  0.1310131E+03  0.7546771E-02  0.1225961E+00
          5   -1    0    0  501    0  0.00000000000E+00  0.00000000000E+00  0.59615106364E+03  0.59616959054E+03  0.47000000000E+01 0.  1.
         -5   -1    0    0    0  501 -0.00000000000E+00 -0.00000000000E+00 -0.32133944787E+02  0.32475843447E+02  0.47000000000E+01 0.  1.
         25    2    1    2    0    0 -0.37301299646E+02  0.12152656079E+02  0.17810323826E+03  0.22109997412E+03  0.12500144428E+03 0.  0.
         25    2    1    2    0    0  0.37301299646E+02 -0.12152656079E+02  0.38591388060E+03  0.40754545987E+03  0.12499881846E+03 0.  0.
          5    1    4    4  502    0 -0.36615046951E+02  0.12377159143E+02  0.22920048182E+03  0.23248399214E+03  0.47000000000E+01 0. -1.
         -5    1    4    4    0  502  0.73916346598E+02 -0.24529815221E+02  0.15671339878E+03  0.17506146773E+03  0.47000000000E+01 0. -1.
          5    1    3    3  503    0 -0.48032583648E+02  0.61976936907E+02  0.92407037416E+02  0.12128239924E+03  0.47000000000E+01 0. -1.
         -5    1    3    3    0  503  0.10731284002E+02 -0.49824280829E+02  0.85696200840E+02  0.99817574880E+02  0.47000000000E+01 0. -1.
<mgrwt>
<rscale>  0 0.13101248E+03</rscale>
<asrwt>0</asrwt>
<pdfrwt beam="1">  1        5 0.91743268E-01 0.13101311E+03</pdfrwt>
<pdfrwt beam="2">  1       -5 0.49714091E-02 0.13101311E+03</pdfrwt>
<totfact> 0.18323789E+02</totfact>
</mgrwt>
</event>
<event>
 8    1  0.3573290E-007  0.1280138E+03  0.7546771E-02  0.1230434E+00
          5   -1    0    0  501    0  0.00000000000E+00  0.00000000000E+00  0.34082555973E+03  0.34085796480E+03  0.47000000000E+01 0. -1.
         -5   -1    0    0    0  501 -0.00000000000E+00 -0.00000000000E+00 -0.48561116555E+02  0.48788031740E+02  0.47000000000E+01 0. -1.
         25    2    1    2    0    0  0.27177493086E+02  0.47972280146E+01  0.12400146136E+03  0.17822235482E+03  0.12500086324E+03 0.  0.
         25    2    1    2    0    0 -0.27177493086E+02 -0.47972280146E+01  0.16826298181E+03  0.21142364172E+03  0.12500358276E+03 0.  0.
          5    1    4    4  502    0 -0.80153574255E+01 -0.53127768064E+02  0.25977643896E+02  0.59864293836E+02  0.47000000000E+01 0. -1.
         -5    1    4    4    0  502 -0.19162135660E+02  0.48330540049E+02  0.14228533792E+03  0.15155934788E+03  0.47000000000E+01 0. -1.
          5    1    3    3  503    0  0.10306755072E+01 -0.40637060150E+02 -0.27146328651E+01  0.41010878815E+02  0.47000000000E+01 0. -1.
         -5    1    3    3    0  503  0.26146817579E+02  0.45434288164E+02  0.12671609423E+03  0.13721147600E+03  0.47000000000E+01 0. -1.
<mgrwt>
<rscale>  0 0.12801311E+03</rscale>
<asrwt>0</asrwt>
<pdfrwt beam="1">  1        5 0.52454649E-01 0.12801377E+03</pdfrwt>
<pdfrwt beam="2">  1       -5 0.74908888E-02 0.12801377E+03</pdfrwt>
<totfact> 0.32080528E+02</totfact>
</mgrwt>
</event>
<event>
 8    1  0.3573290E-007  0.1887589E+03  0.7546771E-02  0.1159586E+00
         -5   -1    0    0    0  501 -0.00000000000E+00  0.00000000000E+00  0.45394140867E+02  0.45636805597E+02  0.47000000000E+01 0.  1.
          5   -1    0    0  501    0  0.00000000000E+00 -0.00000000000E+00 -0.88293505214E+03  0.88294756147E+03  0.47000000000E+01 0.  1.
         25    2    1    2    0    0 -0.97532998385E+02 -0.10242377080E+03 -0.26222933638E+03  0.32309833080E+03  0.12499996764E+03 0.  0.
         25    2    1    2    0    0  0.97532998385E+02  0.10242377080E+03 -0.57531157490E+03  0.60548603627E+03  0.12500646906E+03 0.  0.
          5    1    4    4  502    0 -0.63891992858E+01  0.82402692195E+02 -0.25839567240E+03  0.27133270917E+03  0.47000000000E+01 0.  1.
         -5    1    4    4    0  502  0.10392219767E+03  0.20021078601E+02 -0.31691590250E+03  0.33415332710E+03  0.47000000000E+01 0.  1.
          5    1    3    3  503    0 -0.23671579564E+02  0.20208859912E+02 -0.99849594468E+01  0.33023190535E+02  0.47000000000E+01 0.  1.
         -5    1    3    3    0  503 -0.73861418821E+02 -0.12263263071E+03 -0.25224437693E+03  0.29007514026E+03  0.47000000000E+01 0.  1.
<mgrwt>
<rscale>  0 0.18875785E+03</rscale>
<asrwt>0</asrwt>
<pdfrwt beam="2">  1        5 0.13585578E+00 0.18875893E+03</pdfrwt>
<pdfrwt beam="1">  1       -5 0.70033434E-02 0.18875893E+03</pdfrwt>
<totfact> 0.42834820E+01</totfact>
</mgrwt>
</event>
<event>
 8    1  0.3573290E-007  0.1356971E+03  0.7546771E-02  0.1219241E+00
         -5   -1    0    0    0  501 -0.00000000000E+00  0.00000000000E+00  0.17220230257E+03  0.17226643031E+03  0.47000000000E+01 0. -1.
          5   -1    0    0  501    0  0.00000000000E+00 -0.00000000000E+00 -0.11460383792E+03  0.11470017292E+03  0.47000000000E+01 0. -1.
         25    2    1    2    0    0  0.14904065279E+02 -0.50663520151E+02  0.66236385314E+02  0.15099484454E+03  0.12499304341E+03 0.  0.
         25    2    1    2    0    0 -0.14904065279E+02  0.50663520151E+02 -0.86379206635E+01  0.13597175869E+03  0.12499912821E+03 0.  0.
          5    1    4    4  502    0 -0.20898986307E+02 -0.26247920611E+02  0.33751791445E+02  0.47822530159E+02  0.47000000000E+01 0. -1.
         -5    1    4    4    0  502  0.59949210279E+01  0.76911440761E+02 -0.42389712109E+02  0.88149228532E+02  0.47000000000E+01 0. -1.
          5    1    3    3  503    0 -0.28319921055E+01 -0.25003011021E+02  0.10091730996E+03  0.10411322773E+03  0.47000000000E+01 0. -1.
         -5    1    3    3    0  503  0.17736057384E+02 -0.25660509130E+02 -0.34680924643E+02  0.46881616807E+02  0.47000000000E+01 0. -1.
<mgrwt>
<rscale>  0 0.13569571E+03</rscale>
<asrwt>0</asrwt>
<pdfrwt beam="2">  1        5 0.17643703E-01 0.13569711E+03</pdfrwt>
<pdfrwt beam="1">  1       -5 0.26505005E-01 0.13569711E+03</pdfrwt>
<totfact> 0.28722263E+02</totfact>
</mgrwt>
</event>
<event>
 8    1  0.3573290E-007  0.1479148E+03  0.7546771E-02  0.1203071E+00
          5   -1    0    0  501    0  0.00000000000E+00  0.00000000000E+00  0.50764729888E+03  0.50766905565E+03  0.47000000000E+01 0. -1.
         -5   -1    0    0    0  501 -0.00000000000E+00 -0.00000000000E+00 -0.46340772746E+02  0.46578505973E+02  0.47000000000E+01 0. -1.
         25    2    1    2    0    0  0.48637370212E+01  0.78935274804E+02  0.15578228336E+03  0.21481829420E+03  0.12499738464E+03 0.  0.
         25    2    1    2    0    0 -0.48637370212E+01 -0.78935274804E+02  0.30552424278E+03  0.33942926742E+03  0.12495091481E+03 0.  0.
          5    1    4    4  502    0  0.37014150472E+01 -0.49679045291E+02  0.22731267074E+02  0.54959153170E+02  0.47000000000E+01 0.  1.
         -5    1    4    4    0  502 -0.85651520684E+01 -0.29256229513E+02  0.28279297570E+03  0.28447011425E+03  0.47000000000E+01 0.  1.
          5    1    3    3  503    0  0.39906276393E+02  0.93819170174E+02  0.79277465443E+02  0.12923449274E+03  0.47000000000E+01 0. -1.
         -5    1    3    3    0  503 -0.35042539372E+02 -0.14883895371E+02  0.76504817917E+02  0.85583801456E+02  0.47000000000E+01 0. -1.
<mgrwt>
<rscale>  0 0.14790495E+03</rscale>
<asrwt>0</asrwt>
<pdfrwt beam="1">  1        5 0.78119541E-01 0.14791477E+03</pdfrwt>
<pdfrwt beam="2">  1       -5 0.71493108E-02 0.14791477E+03</pdfrwt>
<totfact> 0.15090235E+02</totfact>
</mgrwt>
</event>
<event>
 8    1  0.3573290E-007  0.1304879E+03  0.7546771E-02  0.1226735E+00
          5   -1    0    0  501    0  0.00000000000E+00  0.00000000000E+00  0.10078311729E+03  0.10089264954E+03  0.47000000000E+01 0.  1.
         -5   -1    0    0    0  501 -0.00000000000E+00 -0.00000000000E+00 -0.18242391123E+03  0.18248444697E+03  0.47000000000E+01 0.  1.
         25    2    1    2    0    0 -0.17564766396E+02 -0.33059562754E+02 -0.79650395297E+02  0.15287666368E+03  0.12500253245E+03 0.  0.
         25    2    1    2    0    0  0.17564766396E+02  0.33059562754E+02 -0.19903986402E+01  0.13050043283E+03  0.12499978230E+03 0.  0.
          5    1    4    4  502    0  0.62985405088E+02  0.51188368750E+02  0.61539372568E+00  0.81301162715E+02  0.47000000000E+01 0.  1.
         -5    1    4    4    0  502 -0.45420638692E+02 -0.18128805997E+02 -0.26057923659E+01  0.49199270115E+02  0.47000000000E+01 0.  1.
          5    1    3    3  503    0  0.13771903103E+02 -0.43014460035E+02 -0.10280574544E+03  0.11238781243E+03  0.47000000000E+01 0.  1.
         -5    1    3    3    0  503 -0.31336669499E+02  0.99548972818E+01  0.23155350145E+02  0.40488851250E+02  0.47000000000E+01 0.  1.
<mgrwt>
<rscale>  0 0.13048723E+03</rscale>
<asrwt>0</asrwt>
<pdfrwt beam="1">  1        5 0.15518177E-01 0.13048789E+03</pdfrwt>
<pdfrwt beam="2">  1       -5 0.28078299E-01 0.13048789E+03</pdfrwt>
<totfact> 0.32032948E+02</totfact>
</mgrwt>
</event>
<event>
 8    1  0.3573290E-007  0.1397440E+03  0.7546771E-02  0.1213675E+00
         -5   -1    0    0    0  501 -0.00000000000E+00  0.00000000000E+00  0.13542330944E+03  0.13550484397E+03  0.47000000000E+01 0.  1.
          5   -1    0    0  501    0  0.00000000000E+00 -0.00000000000E+00 -0.14435198896E+03  0.14442848305E+03  0.47000000000E+01 0.  1.
         25    2    1    2    0    0  0.62160321927E+02 -0.62344252392E+01 -0.11008689707E+02  0.14017385247E+03  0.12499897594E+03 0.  0.
         25    2    1    2    0    0 -0.62160321927E+02  0.62344252392E+01  0.20800101905E+01  0.13975947455E+03  0.12500244239E+03 0.  0.
          5    1    3    3  502    0 -0.81113768454E+01  0.48448075944E+02 -0.12841085852E+02  0.50990136133E+02  0.47000000000E+01 0. -1.
         -5    1    3    3    0  502  0.70271698772E+02 -0.54682501184E+02  0.18323961449E+01  0.89183716337E+02  0.47000000000E+01 0. -1.
          5    1    4    4  503    0  0.23799490012E+02  0.28090016428E+02 -0.27446255629E+02  0.46161149204E+02  0.47000000000E+01 0.  1.
         -5    1    4    4    0  503 -0.85959811939E+02 -0.21855591189E+02  0.29526265820E+02  0.93598325348E+02  0.47000000000E+01 0.  1.
<mgrwt>
<rscale>  0 0.13974322E+03</rscale>
<asrwt>0</asrwt>
<pdfrwt beam="2">  1        5 0.22220154E-01 0.13974400E+03</pdfrwt>
<pdfrwt beam="1">  1       -5 0.20846511E-01 0.13974400E+03</pdfrwt>
<totfact> 0.29800310E+02</totfact>
</mgrwt>
</event>
<event>
 8    1  0.3573290E-007  0.1362445E+03  0.7546771E-02  0.1218476E+00
         -5   -1    0    0    0  501 -0.00000000000E+00  0.00000000000E+00  0.18815664533E+04  0.18815723234E+04  0.47000000000E+01 0.  1.
          5   -1    0    0  501    0  0.00000000000E+00 -0.00000000000E+00 -0.11996927606E+02  0.12884730187E+02  0.47000000000E+01 0.  1.
         25    2    1    2    0    0 -0.34363937266E+02  0.41925597748E+02  0.13662120507E+04  0.13729886888E+04  0.12499574377E+03 0.  0.
         25    2    1    2    0    0  0.34363937266E+02 -0.41925597748E+02  0.50335747495E+03  0.52146836482E+03  0.12498748732E+03 0.  0.
          5    1    3    3  502    0 -0.60065288897E+01  0.64095670308E+01  0.12146149262E+04  0.12146557824E+04  0.47000000000E+01 0. -1.
         -5    1    3    3    0  502 -0.28357408376E+02  0.35516030717E+02  0.15159712457E+03  0.15833290633E+03  0.47000000000E+01 0. -1.
          5    1    4    4  503    0  0.45762563587E+02 -0.80709504439E+02  0.39343611971E+03  0.40425524935E+03  0.47000000000E+01 0.  1.
         -5    1    4    4    0  503 -0.11398626321E+02  0.38783906691E+02  0.10992135524E+03  0.11721311547E+03  0.47000000000E+01 0.  1.
<mgrwt>
<rscale>  0 0.13624264E+03</rscale>
<asrwt>0</asrwt>
<pdfrwt beam="2">  1        5 0.19144250E-02 0.13624453E+03</pdfrwt>
<pdfrwt beam="1">  1       -5 0.28954054E+00 0.13624453E+03</pdfrwt>
<totfact> 0.28940770E+01</totfact>
</mgrwt>
</event>
<event>
 8    1  0.3573290E-007  0.1485220E+03  0.7546771E-02  0.1202302E+00
          5   -1    0    0  501    0  0.00000000000E+00  0.00000000000E+00  0.40679312495E+02  0.40949926314E+02  0.47000000000E+01 0. -1.
         -5   -1    0    0    0  501 -0.00000000000E+00 -0.00000000000E+00 -0.69779021236E+03  0.69780604072E+03  0.47000000000E+01 0. -1.
         25    2    1    2    0    0 -0.80187545373E+02  0.19201510279E+01 -0.50407082686E+03  0.52549544680E+03  0.12499734678E+03 0.  0.
         25    2    1    2    0    0  0.80187545373E+02 -0.19201510279E+01 -0.15304007301E+03  0.21326052024E+03  0.12500022453E+03 0.  0.
          5    1    4    4  502    0  0.10769914167E+03 -0.17237633918E+02 -0.85758947315E+02  0.13882697211E+03  0.47000000000E+01 0.  1.
         -5    1    4    4    0  502 -0.27511596298E+02  0.15317482890E+02 -0.67281125695E+02  0.74433548133E+02  0.47000000000E+01 0.  1.
          5    1    3    3  503    0 -0.94678712706E+02  0.39965482854E+02 -0.41314339082E+03  0.42575914533E+03  0.47000000000E+01 0.  1.
         -5    1    3    3    0  503  0.14491167332E+02 -0.38045331826E+02 -0.90927436041E+02  0.99736301463E+02  0.47000000000E+01 0.  1.
<mgrwt>
<rscale>  0 0.14852140E+03</rscale>
<asrwt>0</asrwt>
<pdfrwt beam="1">  1        5 0.62803903E-02 0.14852200E+03</pdfrwt>
<pdfrwt beam="2">  1       -5 0.10737437E+00 0.14852200E+03</pdfrwt>
<totfact> 0.88030172E+01</totfact>
</mgrwt>
</event>
<event>
 8    1  0.3573290E-007  0.2040692E+03  0.7546771E-02  0.1146354E+00
         -5   -1    0    0    0  501 -0.00000000000E+00  0.00000000000E+00  0.66319783018E+03  0.66321448413E+03  0.47000000000E+01 0.  1.
          5   -1    0    0  501    0  0.00000000000E+00 -0.00000000000E+00 -0.72195423853E+02  0.72348249635E+02  0.47000000000E+01 0.  1.
         25    2    1    2    0    0  0.13682892731E+03 -0.85384684312E+02  0.42885302081E+03  0.47493068648E+03  0.12502617260E+03 0.  0.
         25    2    1    2    0    0 -0.13682892731E+03  0.85384684312E+02  0.16214938552E+03  0.26063204729E+03  0.12499576467E+03 0.  0.
          5    1    4    4  502    0 -0.13392758507E+03  0.99967639534E+02  0.17380412995E+03  0.24116403667E+03  0.47000000000E+01 0.  1.
         -5    1    4    4    0  502 -0.29013422455E+01 -0.14582955221E+02 -0.11654744428E+02  0.19468010620E+02  0.47000000000E+01 0.  1.
          5    1    3    3  503    0 -0.67329670397E+01 -0.28235869020E+02  0.17693676391E+03  0.17936361272E+03  0.47000000000E+01 0. -1.
         -5    1    3    3    0  503  0.14356189435E+03 -0.57148815292E+02  0.25191625690E+03  0.29556707376E+03  0.47000000000E+01 0. -1.
<mgrwt>
<rscale>  0 0.20406456E+03</rscale>
<asrwt>0</asrwt>
<pdfrwt beam="2">  1        5 0.11120025E-01 0.20406921E+03</pdfrwt>
<pdfrwt beam="1">  1       -5 0.10204347E+00 0.20406921E+03</pdfrwt>
<totfact> 0.40655073E+01</totfact>
</mgrwt>
</event>
<event>
 8    1  0.3573290E-007  0.1453760E+03  0.7546771E-02  0.1206274E+00
          5   -1    0    0  501    0  0.00000000000E+00  0.00000000000E+00  0.18159132129E+02  0.18757507289E+02  0.47000000000E+01 0.  1.
         -5   -1    0    0    0  501 -0.00000000000E+00 -0.00000000000E+00 -0.12126058588E+04  0.12126149672E+04  0.47000000000E+01 0.  1.
         25    2    1    2    0    0 -0.65276053231E+02 -0.35323041693E+02 -0.74327160290E+03  0.75735436915E+03  0.12499713756E+03 0.  0.
         25    2    1    2    0    0  0.65276053231E+02  0.35323041693E+02 -0.45117512373E+03  0.47401810534E+03  0.12500196607E+03 0.  0.
          5    1    3    3  502    0  0.32050805062E+02 -0.17410480512E+02 -0.10101209410E+03  0.10749842832E+03  0.47000000000E+01 0. -1.
         -5    1    3    3    0  502 -0.97326858293E+02 -0.17912561181E+02 -0.64225950879E+03  0.64985594083E+03  0.47000000000E+01 0. -1.
          5    1    4    4  503    0  0.73727625819E+02  0.19142985106E+02 -0.11938927636E+03  0.14169723355E+03  0.47000000000E+01 0. -1.
         -5    1    4    4    0  503 -0.84515725877E+01  0.16180056587E+02 -0.33178584737E+03  0.33232087179E+03  0.47000000000E+01 0. -1.
<mgrwt>
<rscale>  0 0.14537493E+03</rscale>
<asrwt>0</asrwt>
<pdfrwt beam="1">  1        5 0.28404431E-02 0.14537597E+03</pdfrwt>
<pdfrwt beam="2">  1       -5 0.18660141E+00 0.14537597E+03</pdfrwt>
<totfact> 0.72720038E+01</totfact>
</mgrwt>
</event>
<event>
 8    1  0.3573290E-007  0.1877881E+03  0.7546771E-02  0.1160472E+00
          5   -1    0    0  501    0  0.00000000000E+00  0.00000000000E+00  0.14555593109E+03  0.14563179280E+03  0.47000000000E+01 0.  1.
         -5   -1    0    0    0  501 -0.00000000000E+00 -0.00000000000E+00 -0.34785188107E+03  0.34788363164E+03  0.47000000000E+01 0.  1.
         25    2    1    2    0    0  0.12200706800E+03 -0.68942583559E+02 -0.23717651706E+03  0.30251788531E+03  0.12500226484E+03 0.  0.
         25    2    1    2    0    0 -0.12200706800E+03  0.68942583559E+02  0.34880567079E+02  0.19099753913E+03  0.12499840609E+03 0.  0.
          5    1    4    4  502    0 -0.84914774341E+02  0.90936881545E+02 -0.14408718246E+02  0.12533848766E+03  0.47000000000E+01 0.  1.
         -5    1    4    4    0  502 -0.37092293662E+02 -0.21994297986E+02  0.49289285325E+02  0.65659051476E+02  0.47000000000E+01 0.  1.
          5    1    3    3  503    0  0.39334524750E+02 -0.13119030508E+02 -0.18538046808E+03  0.19001926677E+03  0.47000000000E+01 0.  1.
         -5    1    3    3    0  503  0.82672543252E+02 -0.55823553051E+02 -0.51796048987E+02  0.11249861854E+03  0.47000000000E+01 0.  1.
<mgrwt>
<rscale>  0 0.18778746E+03</rscale>
<asrwt>0</asrwt>
<pdfrwt beam="1">  1        5 0.22401498E-01 0.18778810E+03</pdfrwt>
<pdfrwt beam="2">  1       -5 0.53523952E-01 0.18778810E+03</pdfrwt>
<totfact> 0.48581412E+01</totfact>
</mgrwt>
</event>
<event>
 8    1  0.3573290E-007  0.1261186E+03  0.7546771E-02  0.1233333E+00
          5   -1    0    0  501    0  0.00000000000E+00  0.00000000000E+00  0.53893468857E+02  0.54098022011E+02  0.47000000000E+01 0.  1.
         -5   -1    0    0    0  501 -0.00000000000E+00 -0.00000000000E+00 -0.29435505880E+03  0.29439257912E+03  0.47000000000E+01 0.  1.
         25    2    1    2    0    0 -0.10856604995E+02  0.12736906079E+02 -0.12117795792E+03  0.17489773181E+03  0.12500009783E+03 0.  0.
         25    2    1    2    0    0  0.10856604995E+02 -0.12736906079E+02 -0.11928363203E+03  0.17359286933E+03  0.12500321901E+03 0.  0.
          5    1    3    3  502    0  0.54244551657E+01  0.65492594420E+02 -0.89291857217E+02  0.11096769982E+03  0.47000000000E+01 0.  1.
         -5    1    3    3    0  502 -0.16281060161E+02 -0.52755688341E+02 -0.31886100703E+02  0.63930031990E+02  0.47000000000E+01 0.  1.
          5    1    4    4  503    0 -0.98582290923E+01  0.51483895033E+02 -0.26936215594E+02  0.59122126477E+02  0.47000000000E+01 0. -1.
         -5    1    4    4    0  503  0.20714834087E+02 -0.64220801112E+02 -0.92347416432E+02  0.11447074285E+03  0.47000000000E+01 0. -1.
<mgrwt>
<rscale>  0 0.12611782E+03</rscale>
<asrwt>0</asrwt>
<pdfrwt beam="1">  1        5 0.83099241E-02 0.12611859E+03</pdfrwt>
<pdfrwt beam="2">  1       -5 0.45304014E-01 0.12611859E+03</pdfrwt>
<totfact> 0.36384877E+02</totfact>
</mgrwt>
</event>
<event>
 8    1  0.3573290E-007  0.1867434E+03  0.7546771E-02  0.1161435E+00
          5   -1    0    0  501    0  0.00000000000E+00  0.00000000000E+00  0.67856216559E+03  0.67857844246E+03  0.47000000000E+01 0. -1.
         -5   -1    0    0    0  501 -0.00000000000E+00 -0.00000000000E+00 -0.51573571270E+02  0.51787288532E+02  0.47000000000E+01 0. -1.
         25    2    1    2    0    0 -0.13798580137E+03 -0.14369253779E+02  0.34169025171E+03  0.38939096600E+03  0.12500615766E+03 0.  0.
         25    2    1    2    0    0  0.13798580137E+03  0.14369253779E+02  0.28529834261E+03  0.34097476499E+03  0.12498835638E+03 0.  0.
          5    1    4    4  502    0  0.55688561064E+02  0.42961337442E+02  0.40962992060E+02  0.81528823533E+02  0.47000000000E+01 0.  1.
         -5    1    4    4    0  502  0.82297240310E+02 -0.28592083663E+02  0.24433535055E+03  0.25944594146E+03  0.47000000000E+01 0.  1.
          5    1    3    3  503    0 -0.84638604756E+02  0.23097259794E+02  0.77241177004E+02  0.11698489753E+03  0.47000000000E+01 0. -1.
         -5    1    3    3    0  503 -0.53347196618E+02 -0.37466513573E+02  0.26444907471E+03  0.27240606847E+03  0.47000000000E+01 0. -1.
<mgrwt>
<rscale>  0 0.18674042E+03</rscale>
<asrwt>0</asrwt>
<pdfrwt beam="1">  1        5 0.10441186E+00 0.18674340E+03</pdfrwt>
<pdfrwt beam="2">  1       -5 0.79520881E-02 0.18674340E+03</pdfrwt>
<totfact> 0.67422403E+01</totfact>
</mgrwt>
</event>
<event>
 8    1  0.3573290E-007  0.1425452E+03  0.7546771E-02  0.1209946E+00
          5   -1    0    0  501    0  0.00000000000E+00  0.00000000000E+00  0.24336573969E+03  0.24341111983E+03  0.47000000000E+01 0. -1.
         -5   -1    0    0    0  501 -0.00000000000E+00 -0.00000000000E+00 -0.83500463564E+02  0.83632633674E+02  0.47000000000E+01 0. -1.
         25    2    1    2    0    0  0.31764620060E+01 -0.68431887010E+02  0.73481980839E+02  0.16036675894E+03  0.12499953117E+03 0.  0.
         25    2    1    2    0    0 -0.31764620060E+01  0.68431887010E+02  0.86383295290E+02  0.16667699457E+03  0.12500453489E+03 0.  0.
          5    1    3    3  502    0  0.14532363347E+02 -0.34421939079E+02  0.10552944684E+03  0.11204737224E+03  0.47000000000E+01 0. -1.
         -5    1    3    3    0  502 -0.11355901341E+02 -0.34009947931E+02 -0.32047466004E+02  0.48319386698E+02  0.47000000000E+01 0. -1.
          5    1    4    4  503    0  0.42219334571E+02 -0.15069736572E+02  0.42255823754E+02  0.61783604727E+02  0.47000000000E+01 0. -1.
         -5    1    4    4    0  503 -0.45395796577E+02  0.83501623583E+02  0.44127471536E+02  0.10489338984E+03  0.47000000000E+01 0. -1.
<mgrwt>
<rscale>  0 0.14254415E+03</rscale>
<asrwt>0</asrwt>
<pdfrwt beam="1">  1        5 0.37454540E-01 0.14254524E+03</pdfrwt>
<pdfrwt beam="2">  1       -5 0.12859883E-01 0.14254524E+03</pdfrwt>
<totfact> 0.26152594E+02</totfact>
</mgrwt>
</event>
<event>
 8    1  0.3573290E-007  0.1409708E+03  0.7546771E-02  0.1212030E+00
          5   -1    0    0  501    0  0.00000000000E+00  0.00000000000E+00  0.22232588491E+03  0.22237555869E+03  0.47000000000E+01 0. -1.
         -5   -1    0    0    0  501 -0.00000000000E+00 -0.00000000000E+00 -0.99041305544E+02  0.99152761958E+02  0.47000000000E+01 0. -1.
         25    2    1    2    0    0  0.23336999426E+02  0.60846216568E+02  0.11169138424E+02  0.14141257900E+03  0.12500356088E+03 0.  0.
         25    2    1    2    0    0 -0.23336999426E+02 -0.60846216568E+02  0.11211544095E+03  0.18011574165E+03  0.12499972272E+03 0.  0.
          5    1    3    3  502    0  0.40121068929E+02 -0.24900924159E+02  0.23659904518E+02  0.53024874142E+02  0.47000000000E+01 0. -1.
         -5    1    3    3    0  502 -0.16784069503E+02  0.85747140727E+02 -0.12490766094E+02  0.88387704855E+02  0.47000000000E+01 0. -1.
          5    1    4    4  503    0  0.19004264389E+02  0.30125803205E+02  0.51491803808E+02  0.62787116060E+02  0.47000000000E+01 0.  1.
         -5    1    4    4    0  503 -0.42341263815E+02 -0.90972019774E+02  0.60623637138E+02  0.11732862559E+03  0.47000000000E+01 0.  1.
<mgrwt>
<rscale>  0 0.14096995E+03</rscale>
<asrwt>0</asrwt>
<pdfrwt beam="1">  1        5 0.34216377E-01 0.14097080E+03</pdfrwt>
<pdfrwt beam="2">  1       -5 0.15249519E-01 0.14097080E+03</pdfrwt>
<totfact> 0.23000131E+02</totfact>
</mgrwt>
</event>
<event>
 8    1  0.3573290E-007  0.1260099E+03  0.7546771E-02  0.1233500E+00
          5   -1    0    0  501    0  0.00000000000E+00  0.00000000000E+00  0.26862782110E+02  0.27270846387E+02  0.47000000000E+01 0.  1.
         -5   -1    0    0    0  501 -0.00000000000E+00 -0.00000000000E+00 -0.76740597318E+03  0.76742036569E+03  0.47000000000E+01 0.  1.
         25    2    1    2    0    0  0.14575345086E+02  0.63662836286E+01 -0.56329232972E+03  0.57721464333E+03  0.12500210197E+03 0.  0.
         25    2    1    2    0    0 -0.14575345086E+02 -0.63662836286E+01 -0.17725086135E+03  0.21747656875E+03  0.12500087941E+03 0.  0.
          5    1    3    3  502    0 -0.17742663854E+02 -0.32944465008E+02 -0.46410820221E+03  0.46563789929E+03  0.47000000000E+01 0.  1.
         -5    1    3    3    0  502  0.32318008940E+02  0.39310748636E+02 -0.99184127509E+02  0.11157674404E+03  0.47000000000E+01 0.  1.
          5    1    4    4  503    0  0.36608114238E+02 -0.46844476730E+02 -0.71294829416E+02  0.92949457931E+02  0.47000000000E+01 0.  1.
         -5    1    4    4    0  503 -0.51183459324E+02  0.40478193102E+02 -0.10595603193E+03  0.12452711082E+03  0.47000000000E+01 0.  1.
<mgrwt>
<rscale>  0 0.12600960E+03</rscale>
<asrwt>0</asrwt>
<pdfrwt beam="1">  1        5 0.41652330E-02 0.12600990E+03</pdfrwt>
<pdfrwt beam="2">  1       -5 0.11809494E+00 0.12600990E+03</pdfrwt>
<totfact> 0.13035387E+02</totfact>
</mgrwt>
</event>
<event>
 8    1  0.3573290E-007  0.1434848E+03  0.7546771E-02  0.1208715E+00
          5   -1    0    0  501    0  0.00000000000E+00  0.00000000000E+00  0.30339319998E+03  0.30342960270E+03  0.47000000000E+01 0. -1.
         -5   -1    0    0    0  501 -0.00000000000E+00 -0.00000000000E+00 -0.80938834234E+02  0.81075180464E+02  0.47000000000E+01 0. -1.
         25    2    1    2    0    0 -0.63246143564E+02  0.31048322197E+02  0.33670971390E+02  0.14738230607E+03  0.12499494726E+03 0.  0.
         25    2    1    2    0    0  0.63246143564E+02 -0.31048322197E+02  0.18878339435E+03  0.23712247709E+03  0.12499530459E+03 0.  0.
          5    1    3    3  502    0 -0.41616560893E+02 -0.44741415844E+02  0.30271494878E+02  0.68353389341E+02  0.47000000000E+01 0. -1.
         -5    1    3    3    0  502 -0.21629582671E+02  0.75789738041E+02  0.33994765117E+01  0.79028916729E+02  0.47000000000E+01 0. -1.
          5    1    4    4  503    0  0.37137337481E+02 -0.33529038952E+02  0.20144788686E+03  0.20762157742E+03  0.47000000000E+01 0. -1.
         -5    1    4    4    0  503  0.26108806083E+02  0.24807167548E+01 -0.12664492512E+02  0.29500899669E+02  0.47000000000E+01 0. -1.
<mgrwt>
<rscale>  0 0.14348476E+03</rscale>
<asrwt>0</asrwt>
<pdfrwt beam="1">  1        5 0.46689166E-01 0.14348484E+03</pdfrwt>
<pdfrwt beam="2">  1       -5 0.12465417E-01 0.14348484E+03</pdfrwt>
<totfact> 0.17591799E+02</totfact>
</mgrwt>
</event>
<event>
 8    1  0.3573290E-007  0.1293798E+03  0.7546771E-02  0.1228383E+00
         -5   -1    0    0    0  501 -0.00000000000E+00  0.00000000000E+00  0.99364468152E+02  0.99475562482E+02  0.47000000000E+01 0.  1.
          5   -1    0    0  501    0  0.00000000000E+00 -0.00000000000E+00 -0.17380484802E+03  0.17386838469E+03  0.47000000000E+01 0.  1.
         25    2    1    2    0    0  0.31832140519E+02 -0.99882080475E+01 -0.12715491087E+02  0.13000315702E+03  0.12500435053E+03 0.  0.
         25    2    1    2    0    0 -0.31832140519E+02  0.99882080475E+01 -0.61724888780E+02  0.14334079016E+03  0.12499428290E+03 0.  0.
          5    1    4    4  502    0  0.22256416956E+02 -0.34615010348E+02 -0.60183274310E+02  0.73059315242E+02  0.47000000000E+01 0.  1.
         -5    1    4    4    0  502 -0.54088557474E+02  0.44603218395E+02 -0.15416144703E+01  0.70281474914E+02  0.47000000000E+01 0.  1.
          5    1    3    3  503    0 -0.28535409096E+02  0.40396297549E+02  0.26308922801E+01  0.49750799211E+02  0.47000000000E+01 0.  1.
         -5    1    3    3    0  503  0.60367549615E+02 -0.50384505597E+02 -0.15346383367E+02  0.80252357805E+02  0.47000000000E+01 0.  1.
<mgrwt>
<rscale>  0 0.12937739E+03</rscale>
<asrwt>0</asrwt>
<pdfrwt beam="2">  1        5 0.26752641E-01 0.12937982E+03</pdfrwt>
<pdfrwt beam="1">  1       -5 0.15300274E-01 0.12937982E+03</pdfrwt>
<totfact> 0.35979503E+02</totfact>
</mgrwt>
</event>
<event>
 8    1  0.3573290E-007  0.1419339E+03  0.7546771E-02  0.1210760E+00
          5   -1    0    0  501    0  0.00000000000E+00  0.00000000000E+00  0.17859854567E+03  0.17866037758E+03  0.47000000000E+01 0.  1.
         -5   -1    0    0    0  501 -0.00000000000E+00 -0.00000000000E+00 -0.12147023463E+03  0.12156112825E+03  0.47000000000E+01 0.  1.
         25    2    1    2    0    0 -0.63262965066E+02  0.22780264624E+02 -0.11872298148E+02  0.14242956173E+03  0.12499634149E+03 0.  0.
         25    2    1    2    0    0  0.63262965066E+02 -0.22780264624E+02  0.69000609188E+02  0.15779194410E+03  0.12496427629E+03 0.  0.
          5    1    4    4  502    0  0.32830600349E+02  0.44624221070E+02 -0.13447648694E+01  0.55615355954E+02  0.47000000000E+01 0. -1.
         -5    1    4    4    0  502  0.30432364718E+02 -0.67404485694E+02  0.70345374058E+02  0.10217658815E+03  0.47000000000E+01 0. -1.
          5    1    3    3  503    0 -0.49809170168E+01  0.64667267006E+02 -0.24331911578E+02  0.69431958617E+02  0.47000000000E+01 0.  1.
         -5    1    3    3    0  503 -0.58282048050E+02 -0.41887002382E+02  0.12459613430E+02  0.72997603113E+02  0.47000000000E+01 0.  1.
<mgrwt>
<rscale>  0 0.14192683E+03</rscale>
<asrwt>0</asrwt>
<pdfrwt beam="1">  1        5 0.27488447E-01 0.14193389E+03</pdfrwt>
<pdfrwt beam="2">  1       -5 0.18699477E-01 0.14193389E+03</pdfrwt>
<totfact> 0.24413456E+02</totfact>
</mgrwt>
</event>
<event>
 8    1  0.3573290E-007  0.1320936E+03  0.7546771E-02  0.1224396E+00
         -5   -1    0    0    0  501 -0.00000000000E+00  0.00000000000E+00  0.68271954757E+02  0.68433542992E+02  0.47000000000E+01 0. -1.
          5   -1    0    0  501    0  0.00000000000E+00 -0.00000000000E+00 -0.29971169447E+03  0.29974854429E+03  0.47000000000E+01 0. -1.
         25    2    1    2    0    0  0.37004216209E+02 -0.21085009791E+02 -0.44668920548E+02  0.13944186305E+03  0.12503931803E+03 0.  0.
         25    2    1    2    0    0 -0.37004216209E+02  0.21085009791E+02 -0.18677081917E+03  0.22874022423E+03  0.12499944654E+03 0.  0.
          5    1    4    4  502    0 -0.53256255528E+02  0.31137367023E+01 -0.19539041906E+03  0.20259671757E+03  0.47000000000E+01 0.  1.
         -5    1    4    4    0  502  0.16252039320E+02  0.17971273089E+02  0.86195998908E+01  0.26143506665E+02  0.47000000000E+01 0.  1.
          5    1    3    3  503    0 -0.33448884005E+02 -0.33643167375E+02  0.10673218872E+02  0.48853844816E+02  0.47000000000E+01 0.  1.
         -5    1    3    3    0  503  0.70453100214E+02  0.12558157584E+02 -0.55342139420E+02  0.90588018232E+02  0.47000000000E+01 0.  1.
<mgrwt>
<rscale>  0 0.13208417E+03</rscale>
<asrwt>0</asrwt>
<pdfrwt beam="2">  1        5 0.46124755E-01 0.13209361E+03</pdfrwt>
<pdfrwt beam="1">  1       -5 0.10518642E-01 0.13209361E+03</pdfrwt>
<totfact> 0.23686251E+02</totfact>
</mgrwt>
</event>
<event>
 8    1  0.3573290E-007  0.1631914E+03  0.7546771E-02  0.1185142E+00
         -5   -1    0    0    0  501 -0.00000000000E+00  0.00000000000E+00  0.30079669814E+03  0.30083341506E+03  0.47000000000E+01 0.  1.
          5   -1    0    0  501    0  0.00000000000E+00 -0.00000000000E+00 -0.89006981536E+02  0.89130986543E+02  0.47000000000E+01 0.  1.
         25    2    1    2    0    0 -0.78936988935E+02 -0.69090678417E+02  0.12159228456E+03  0.20350530728E+03  0.12500062543E+03 0.  0.
         25    2    1    2    0    0  0.78936988935E+02  0.69090678417E+02  0.90197432045E+02  0.18645909432E+03  0.12500738795E+03 0.  0.
          5    1    4    4  502    0  0.86733070266E+02  0.35105381772E+02  0.11126182767E+03  0.14545204572E+03  0.47000000000E+01 0.  1.
         -5    1    4    4    0  502 -0.77960813308E+01  0.33985296645E+02 -0.21064395627E+02  0.41007048605E+02  0.47000000000E+01 0.  1.
          5    1    3    3  503    0 -0.79501280116E+02 -0.81198863689E+02  0.39514512502E+02  0.12040430101E+03  0.47000000000E+01 0.  1.
         -5    1    3    3    0  503  0.56429118120E+00  0.12108185272E+02  0.82077772061E+02  0.83101006261E+02  0.47000000000E+01 0.  1.
<mgrwt>
<rscale>  0 0.16319006E+03</rscale>
<asrwt>0</asrwt>
<pdfrwt beam="2">  1        5 0.13705745E-01 0.16319135E+03</pdfrwt>
<pdfrwt beam="1">  1       -5 0.46288778E-01 0.16319135E+03</pdfrwt>
<totfact> 0.15755108E+02</totfact>
</mgrwt>
</event>
<event>
 8    1  0.3573290E-007  0.1586586E+03  0.7546771E-02  0.1190220E+00
          5   -1    0    0  501    0  0.00000000000E+00  0.00000000000E+00  0.46952484184E+02  0.47187135653E+02  0.47000000000E+01 0. -1.
         -5   -1    0    0    0  501 -0.00000000000E+00 -0.00000000000E+00 -0.68870105782E+03  0.68871709507E+03  0.47000000000E+01 0. -1.
         25    2    1    2    0    0 -0.96558286518E+02 -0.14979853738E+02 -0.49493319398E+03  0.51974169752E+03  0.12499866768E+03 0.  0.
         25    2    1    2    0    0  0.96558286518E+02  0.14979853738E+02 -0.14681537966E+03  0.21616253321E+03  0.12499434525E+03 0.  0.
          5    1    3    3  502    0 -0.25050412520E+02 -0.46899564847E+01 -0.39756013019E+03  0.39840389805E+03  0.47000000000E+01 0. -1.
         -5    1    3    3    0  502 -0.71507873999E+02 -0.10289897253E+02 -0.97373063786E+02  0.12133779947E+03  0.47000000000E+01 0. -1.
          5    1    4    4  503    0 -0.13373878421E+01 -0.43971051918E+02 -0.38740209318E+02  0.58805916633E+02  0.47000000000E+01 0. -1.
         -5    1    4    4    0  503  0.97895674360E+02  0.58950905656E+02 -0.10807517034E+03  0.15735661658E+03  0.47000000000E+01 0. -1.
<mgrwt>
<rscale>  0 0.15865779E+03</rscale>
<asrwt>0</asrwt>
<pdfrwt beam="1">  1        5 0.72427433E-02 0.15865865E+03</pdfrwt>
<pdfrwt beam="2">  1       -5 0.10597329E+00 0.15865865E+03</pdfrwt>
<totfact> 0.72853201E+01</totfact>
</mgrwt>
</event>
<event>
 8    1  0.3573290E-007  0.1254829E+03  0.7546771E-02  0.1234320E+00
         -5   -1    0    0    0  501 -0.00000000000E+00  0.00000000000E+00  0.15687696727E+03  0.15694735697E+03  0.47000000000E+01 0.  1.
          5   -1    0    0  501    0  0.00000000000E+00 -0.00000000000E+00 -0.10033246536E+03  0.10044248904E+03  0.47000000000E+01 0.  1.
         25    2    1    2    0    0  0.10633093001E+02 -0.28138405545E+01  0.23906418211E+02  0.12773182912E+03  0.12499169162E+03 0.  0.
         25    2    1    2    0    0 -0.10633093001E+02  0.28138405545E+01  0.32638083707E+02  0.12965801689E+03  0.12499990588E+03 0.  0.
          5    1    4    4  502    0  0.42428840208E+02 -0.15094997114E+02 -0.22818535620E+02  0.50703461293E+02  0.47000000000E+01 0. -1.
         -5    1    4    4    0  502 -0.53061933209E+02  0.17908837668E+02  0.55456619327E+02  0.78954555598E+02  0.47000000000E+01 0. -1.
          5    1    3    3  503    0  0.17282179577E+02 -0.54801244685E+02 -0.18069969136E+02  0.60419069296E+02  0.47000000000E+01 0. -1.
         -5    1    3    3    0  503 -0.66490865759E+01  0.51987404131E+02  0.41976387348E+02  0.67312759825E+02  0.47000000000E+01 0. -1.
<mgrwt>
<rscale>  0 0.12548085E+03</rscale>
<asrwt>0</asrwt>
<pdfrwt beam="2">  1        5 0.15449642E-01 0.12548289E+03</pdfrwt>
<pdfrwt beam="1">  1       -5 0.24148796E-01 0.12548289E+03</pdfrwt>
<totfact> 0.42535098E+02</totfact>
</mgrwt>
</event>
<event>
 8    1  0.3573290E-007  0.1277384E+03  0.7546771E-02  0.1230852E+00
         -5   -1    0    0    0  501 -0.00000000000E+00  0.00000000000E+00  0.23734708043E+03  0.23739361110E+03  0.47000000000E+01 0.  1.
          5   -1    0    0  501    0  0.00000000000E+00 -0.00000000000E+00 -0.85816171586E+02  0.85944780561E+02  0.47000000000E+01 0.  1.
         25    2    1    2    0    0  0.19666257591E+02 -0.17414309117E+02  0.14807300868E+03  0.19555747846E+03  0.12500836624E+03 0.  0.
         25    2    1    2    0    0 -0.19666257591E+02  0.17414309117E+02  0.34579001638E+01  0.12778091320E+03  0.12500393936E+03 0.  0.
          5    1    3    3  502    0  0.35928307710E+02  0.47848255200E+02  0.76402011108E+02  0.97157892742E+02  0.47000000000E+01 0. -1.
         -5    1    3    3    0  502 -0.16262050119E+02 -0.65262564318E+02  0.71670997576E+02  0.98399585715E+02  0.47000000000E+01 0. -1.
          5    1    4    4  503    0  0.35024143860E+02 -0.33770027582E+02 -0.13757801065E+02  0.50778661918E+02  0.47000000000E+01 0.  1.
         -5    1    4    4    0  503 -0.54690401452E+02  0.51184336699E+02  0.17215701229E+02  0.77002251286E+02  0.47000000000E+01 0.  1.
<mgrwt>
<rscale>  0 0.12773737E+03</rscale>
<asrwt>0</asrwt>
<pdfrwt beam="2">  1        5 0.13215960E-01 0.12773845E+03</pdfrwt>
<pdfrwt beam="1">  1       -5 0.36528408E-01 0.12773845E+03</pdfrwt>
<totfact> 0.25222305E+02</totfact>
</mgrwt>
</event>
<event>
 8    1  0.3573290E-007  0.1860555E+03  0.7546771E-02  0.1162070E+00
          5   -1    0    0  501    0  0.00000000000E+00  0.00000000000E+00  0.28486425937E+03  0.28490302959E+03  0.47000000000E+01 0. -1.
         -5   -1    0    0    0  501 -0.00000000000E+00 -0.00000000000E+00 -0.15521379269E+03  0.15528493629E+03  0.47000000000E+01 0. -1.
         25    2    1    2    0    0 -0.96340738985E+02  0.98538811170E+02 -0.37832416448E+02  0.18985383615E+03  0.12498700760E+03 0.  0.
         25    2    1    2    0    0  0.96340738985E+02 -0.98538811170E+02  0.16748288314E+03  0.25033412974E+03  0.12500090029E+03 0.  0.
          5    1    3    3  502    0  0.11953583489E+02 -0.15821262149E+00  0.26739792377E+02  0.29665125751E+02  0.47000000000E+01 0.  1.
         -5    1    3    3    0  502 -0.10829432247E+03  0.98697023791E+02 -0.64572208825E+02  0.16018871039E+03  0.47000000000E+01 0.  1.
          5    1    4    4  503    0  0.88490174273E+02 -0.11296701537E+03  0.17919569084E+03  0.22961977947E+03  0.47000000000E+01 0.  1.
         -5    1    4    4    0  503  0.78505647120E+01  0.14428204204E+02 -0.11712807705E+02  0.20714350272E+02  0.47000000000E+01 0.  1.
<mgrwt>
<rscale>  0 0.18605320E+03</rscale>
<asrwt>0</asrwt>
<pdfrwt beam="1">  1        5 0.43833725E-01 0.18605553E+03</pdfrwt>
<pdfrwt beam="2">  1       -5 0.23887500E-01 0.18605553E+03</pdfrwt>
<totfact> 0.65475575E+01</totfact>
</mgrwt>
</event>
<event>
 8    1  0.3573290E-007  0.1337315E+03  0.7546771E-02  0.1222023E+00
          5   -1    0    0  501    0  0.00000000000E+00  0.00000000000E+00  0.36340826990E+02  0.36643494734E+02  0.47000000000E+01 0.  1.
         -5   -1    0    0    0  501 -0.00000000000E+00 -0.00000000000E+00 -0.70536534685E+03  0.70538100523E+03  0.47000000000E+01 0.  1.
         25    2    1    2    0    0  0.40162930628E+02  0.25395996912E+02 -0.53959293005E+03  0.55591785104E+03  0.12500443706E+03 0.  0.
         25    2    1    2    0    0 -0.40162930628E+02 -0.25395996912E+02 -0.12943158981E+03  0.18610664893E+03  0.12500052271E+03 0.  0.
          5    1    3    3  502    0 -0.82350820498E+00  0.23140509018E+02 -0.11618853985E+02  0.26329623835E+02  0.47000000000E+01 0. -1.
         -5    1    3    3    0  502  0.40986438833E+02  0.22554878940E+01 -0.52797407606E+03  0.52958822720E+03  0.47000000000E+01 0. -1.
          5    1    4    4  503    0 -0.41122512748E+02  0.39354841126E+02 -0.99241910640E+02  0.11450288818E+03  0.47000000000E+01 0. -1.
         -5    1    4    4    0  503  0.95958211988E+00 -0.64750838038E+02 -0.30189679173E+02  0.71603760747E+02  0.47000000000E+01 0. -1.
<mgrwt>
<rscale>  0 0.13373063E+03</rscale>
<asrwt>0</asrwt>
<pdfrwt beam="1">  1        5 0.56153836E-02 0.13373155E+03</pdfrwt>
<pdfrwt beam="2">  1       -5 0.10854222E+00 0.13373155E+03</pdfrwt>
<totfact> 0.10008681E+02</totfact>
</mgrwt>
</event>
<event>
 8    1  0.3573290E-007  0.1401882E+03  0.7546771E-02  0.1213076E+00
          5   -1    0    0  501    0  0.00000000000E+00  0.00000000000E+00  0.65729367225E+03  0.65731047579E+03  0.47000000000E+01 0.  1.
         -5   -1    0    0    0  501 -0.00000000000E+00 -0.00000000000E+00 -0.30687131315E+02  0.31044967843E+02  0.47000000000E+01 0.  1.
         25    2    1    2    0    0 -0.23648119501E+02 -0.58893844266E+02  0.37473240253E+03  0.40009636557E+03  0.12500003914E+03 0.  0.
         25    2    1    2    0    0  0.23648119501E+02  0.58893844266E+02  0.25187413841E+03  0.28825907806E+03  0.12499998416E+03 0.  0.
          5    1    4    4  502    0  0.20868747810E+02  0.97380542677E+02  0.16030891996E+03  0.18878430694E+03  0.47000000000E+01 0.  1.
         -5    1    4    4    0  502  0.27793716904E+01 -0.38486698410E+02  0.91565218448E+02  0.99474771128E+02  0.47000000000E+01 0.  1.
          5    1    3    3  503    0 -0.56430923278E+02 -0.12179175562E+02  0.74061653964E+02  0.94021274227E+02  0.47000000000E+01 0.  1.
         -5    1    3    3    0  503  0.32782803778E+02 -0.46714668704E+02  0.30067074856E+03  0.30607509134E+03  0.47000000000E+01 0.  1.
<mgrwt>
<rscale>  0 0.14018818E+03</rscale>
<asrwt>0</asrwt>
<pdfrwt beam="1">  1        5 0.10115093E+00 0.14018819E+03</pdfrwt>
<pdfrwt beam="2">  1       -5 0.47499153E-02 0.14018819E+03</pdfrwt>
<totfact> 0.15973934E+02</totfact>
</mgrwt>
</event>
<event>
 8    1  0.3573290E-007  0.1289781E+03  0.7546771E-02  0.1228980E+00
          5   -1    0    0  501    0  0.00000000000E+00  0.00000000000E+00  0.45111008939E+03  0.45113457278E+03  0.47000000000E+01 0.  1.
         -5   -1    0    0    0  501 -0.00000000000E+00 -0.00000000000E+00 -0.37263187364E+02  0.37558422924E+02  0.47000000000E+01 0.  1.
         25    2    1    2    0    0 -0.26982107396E+02  0.16819488275E+02  0.17703906633E+03  0.21903919856E+03  0.12499764075E+03 0.  0.
         25    2    1    2    0    0  0.26982107396E+02 -0.16819488275E+02  0.23680783570E+03  0.26965379714E+03  0.12499715980E+03 0.  0.
          5    1    3    3  502    0 -0.18889273971E+02 -0.19187367229E+01  0.19219367536E+03  0.19318639981E+03  0.47000000000E+01 0. -1.
         -5    1    3    3    0  502 -0.80928334244E+01  0.18738224998E+02 -0.15154609024E+02  0.25852798758E+02  0.47000000000E+01 0. -1.
          5    1    4    4  503    0 -0.45120689210E+02 -0.81463677242E+01  0.14702970998E+03  0.15408460507E+03  0.47000000000E+01 0.  1.
         -5    1    4    4    0  503  0.72102796606E+02 -0.86731205511E+01  0.89778125714E+02  0.11556919207E+03  0.47000000000E+01 0.  1.
<mgrwt>
<rscale>  0 0.12897794E+03</rscale>
<asrwt>0</asrwt>
<pdfrwt beam="1">  1        5 0.69426149E-01 0.12897806E+03</pdfrwt>
<pdfrwt beam="2">  1       -5 0.57573916E-02 0.12897806E+03</pdfrwt>
<totfact> 0.27168164E+02</totfact>
</mgrwt>
</event>
<event>
 8    1  0.3573290E-007  0.2386177E+03  0.7546771E-02  0.1120717E+00
         -5   -1    0    0    0  501 -0.00000000000E+00  0.00000000000E+00  0.31717593033E+03  0.31721075137E+03  0.47000000000E+01 0. -1.
          5   -1    0    0  501    0  0.00000000000E+00 -0.00000000000E+00 -0.25339829827E+03  0.25344188203E+03  0.47000000000E+01 0. -1.
         25    2    1    2    0    0 -0.19191599854E+03  0.66949365508E+02  0.18600777746E+03  0.30255076285E+03  0.12499641111E+03 0.  0.
         25    2    1    2    0    0  0.19191599854E+03 -0.66949365508E+02 -0.12223014540E+03  0.26810187055E+03  0.12499774601E+03 0.  0.
          5    1    3    3  502    0 -0.85122725348E+02 -0.31089998999E+02  0.49487195165E+02  0.10336120594E+03  0.47000000000E+01 0.  1.
         -5    1    3    3    0  502 -0.10679327319E+03  0.98039364507E+02  0.13652058229E+03  0.19918955691E+03  0.47000000000E+01 0.  1.
          5    1    4    4  503    0  0.17162130384E+03 -0.41753408322E+02 -0.42211092370E+02  0.18166200857E+03  0.47000000000E+01 0.  1.
         -5    1    4    4    0  503  0.20294694704E+02 -0.25195957186E+02 -0.80019053027E+02  0.86439861979E+02  0.47000000000E+01 0.  1.
<mgrwt>
<rscale>  0 0.23861752E+03</rscale>
<asrwt>0</asrwt>
<pdfrwt beam="2">  1        5 0.38990385E-01 0.23861770E+03</pdfrwt>
<pdfrwt beam="1">  1       -5 0.48802328E-01 0.23861770E+03</pdfrwt>
<totfact> 0.21035954E+01</totfact>
</mgrwt>
</event>
<event>
 8    1  0.3573290E-007  0.1557843E+03  0.7546771E-02  0.1193543E+00
         -5   -1    0    0    0  501 -0.00000000000E+00  0.00000000000E+00  0.13894064122E+03  0.13902011287E+03  0.47000000000E+01 0.  1.
          5   -1    0    0  501    0  0.00000000000E+00 -0.00000000000E+00 -0.17493717846E+03  0.17500030403E+03  0.47000000000E+01 0.  1.
         25    2    1    2    0    0 -0.32818877891E+02 -0.86985261716E+02 -0.25863289016E+02  0.15791659015E+03  0.12500090089E+03 0.  0.
         25    2    1    2    0    0  0.32818877891E+02  0.86985261716E+02 -0.10133248225E+02  0.15610382675E+03  0.12498882952E+03 0.  0.
          5    1    3    3  502    0  0.13160661933E+02 -0.10036364334E+03  0.37790925627E+01  0.10140234448E+03  0.47000000000E+01 0.  1.
         -5    1    3    3    0  502 -0.45979539824E+02  0.13378381620E+02 -0.29642381578E+02  0.56514245663E+02  0.47000000000E+01 0.  1.
          5    1    4    4  503    0  0.51775890756E+02  0.11024619811E+03  0.53600407983E+01  0.12200732395E+03  0.47000000000E+01 0. -1.
         -5    1    4    4    0  503 -0.18957012865E+02 -0.23260936391E+02 -0.15493289023E+02  0.34096502802E+02  0.47000000000E+01 0. -1.
<mgrwt>
<rscale>  0 0.15578185E+03</rscale>
<asrwt>0</asrwt>
<pdfrwt beam="2">  1        5 0.26924381E-01 0.15578427E+03</pdfrwt>
<pdfrwt beam="1">  1       -5 0.21386452E-01 0.15578427E+03</pdfrwt>
<totfact> 0.20396011E+02</totfact>
</mgrwt>
</event>
<event>
 8    1  0.3573290E-007  0.1393175E+03  0.7546771E-02  0.1214252E+00
          5   -1    0    0  501    0  0.00000000000E+00  0.00000000000E+00  0.49380515800E+03  0.49382752461E+03  0.47000000000E+01 0. -1.
         -5   -1    0    0    0  501 -0.00000000000E+00 -0.00000000000E+00 -0.42564465951E+02  0.42823168515E+02  0.47000000000E+01 0. -1.
         25    2    1    2    0    0 -0.38507511222E+02  0.47964009421E+02  0.14977524529E+03  0.20455011526E+03  0.12499900372E+03 0.  0.
         25    2    1    2    0    0  0.38507511222E+02 -0.47964009421E+02  0.30146544675E+03  0.33210057786E+03  0.12500401438E+03 0.  0.
          5    1    3    3  502    0  0.64021559154E+01  0.17749367443E+02  0.14894857577E+03  0.15021250237E+03  0.47000000000E+01 0.  1.
         -5    1    3    3    0  502 -0.44909667137E+02  0.30214641978E+02  0.82666952423E+00  0.54337612891E+02  0.47000000000E+01 0.  1.
          5    1    4    4  503    0  0.55327246264E+02  0.22336018476E+02  0.85933590052E+02  0.10472188787E+03  0.47000000000E+01 0. -1.
         -5    1    4    4    0  503 -0.16819735042E+02 -0.70300027897E+02  0.21553185670E+03  0.22737868999E+03  0.47000000000E+01 0. -1.
<mgrwt>
<rscale>  0 0.13931642E+03</rscale>
<asrwt>0</asrwt>
<pdfrwt beam="1">  1        5 0.75991639E-01 0.13931754E+03</pdfrwt>
<pdfrwt beam="2">  1       -5 0.65700006E-02 0.13931754E+03</pdfrwt>
<totfact> 0.18199552E+02</totfact>
</mgrwt>
</event>
<event>
 8    1  0.3573290E-007  0.1364291E+03  0.7546771E-02  0.1218219E+00
         -5   -1    0    0    0  501 -0.00000000000E+00  0.00000000000E+00  0.92646922315E+02  0.92766061760E+02  0.47000000000E+01 0.  1.
          5   -1    0    0  501    0  0.00000000000E+00 -0.00000000000E+00 -0.21367235883E+03  0.21372404387E+03  0.47000000000E+01 0.  1.
         25    2    1    2    0    0 -0.45310700009E+02 -0.30559518774E+02 -0.22639977791E+02  0.13828609994E+03  0.12499413234E+03 0.  0.
         25    2    1    2    0    0  0.45310700009E+02  0.30559518774E+02 -0.98385458720E+02  0.16820400568E+03  0.12500378121E+03 0.  0.
          5    1    3    3  502    0  0.78618590809E+01 -0.48388006733E+02 -0.54630115762E+02  0.73550986207E+02  0.47000000000E+01 0. -1.
         -5    1    3    3    0  502 -0.53172559090E+02  0.17828487959E+02  0.31990137971E+02  0.64735113736E+02  0.47000000000E+01 0. -1.
          5    1    4    4  503    0  0.72350841904E+02 -0.16245531980E+02 -0.83847993675E+02  0.11203186010E+03  0.47000000000E+01 0.  1.
         -5    1    4    4    0  503 -0.27040141895E+02  0.46805050754E+02 -0.14537465045E+02  0.56172145586E+02  0.47000000000E+01 0.  1.
<mgrwt>
<rscale>  0 0.13642685E+03</rscale>
<asrwt>0</asrwt>
<pdfrwt beam="2">  1        5 0.32885811E-01 0.13642906E+03</pdfrwt>
<pdfrwt beam="1">  1       -5 0.14266513E-01 0.13642906E+03</pdfrwt>
<totfact> 0.27768484E+02</totfact>
</mgrwt>
</event>
<event>
 8    1  0.3573290E-007  0.1258941E+03  0.7546771E-02  0.1233680E+00
         -5   -1    0    0    0  501 -0.00000000000E+00  0.00000000000E+00  0.22546361925E+04  0.22546410913E+04  0.47000000000E+01 0. -1.
          5   -1    0    0  501    0  0.00000000000E+00 -0.00000000000E+00 -0.85530139357E+01  0.97593056815E+01  0.47000000000E+01 0. -1.
         25    2    1    2    0    0  0.56313029321E+01 -0.13976546835E+02  0.16692023813E+04  0.16739432257E+04  0.12498910966E+03 0.  0.
         25    2    1    2    0    0 -0.56313029321E+01  0.13976546835E+02  0.57688079725E+03  0.59045717131E+03  0.12498464496E+03 0.  0.
          5    1    4    4  502    0 -0.61290241364E+02 -0.12081601891E+02  0.33774721943E+03  0.34350798102E+03  0.47000000000E+01 0.  1.
         -5    1    4    4    0  502  0.55658938431E+02  0.26058148726E+02  0.23913357782E+03  0.24694919029E+03  0.47000000000E+01 0.  1.
          5    1    3    3  503    0  0.35117779728E+02 -0.81459893626E+01  0.15641998565E+04  0.15646222857E+04  0.47000000000E+01 0.  1.
         -5    1    3    3    0  503 -0.29486476796E+02 -0.58305574727E+01  0.10500252481E+03  0.10932094004E+03  0.47000000000E+01 0.  1.
<mgrwt>
<rscale>  0 0.12589303E+03</rscale>
<asrwt>0</asrwt>
<pdfrwt beam="2">  1        5 0.14090169E-02 0.12589413E+03</pdfrwt>
<pdfrwt beam="1">  1       -5 0.34696025E+00 0.12589413E+03</pdfrwt>
<totfact> 0.19728829E+01</totfact>
</mgrwt>
</event>
<event>
 8    1  0.3573290E-007  0.1366279E+03  0.7546771E-02  0.1217941E+00
          5   -1    0    0  501    0  0.00000000000E+00  0.00000000000E+00  0.29942654858E+02  0.30309282076E+02  0.47000000000E+01 0.  1.
         -5   -1    0    0    0  501 -0.00000000000E+00 -0.00000000000E+00 -0.68321362025E+03  0.68322978631E+03  0.47000000000E+01 0.  1.
         25    2    1    2    0    0  0.23686303505E+01 -0.55128456152E+02 -0.43576537795E+03  0.45668138040E+03  0.12498664529E+03 0.  0.
         25    2    1    2    0    0 -0.23686303505E+01  0.55128456152E+02 -0.21750558744E+03  0.25685768798E+03  0.12498973645E+03 0.  0.
          5    1    4    4  502    0  0.34428154276E+02 -0.15500471656E+01 -0.66808939683E+01  0.35417859864E+02  0.47000000000E+01 0.  1.
         -5    1    4    4    0  502 -0.36796784627E+02  0.56678503317E+02 -0.21082469347E+03  0.22143982811E+03  0.47000000000E+01 0.  1.
          5    1    3    3  503    0  0.59160064738E+01  0.31773803730E+02 -0.40984926033E+02  0.52406372685E+02  0.47000000000E+01 0.  1.
         -5    1    3    3    0  503 -0.35473761233E+01 -0.86902259882E+02 -0.39478045192E+03  0.40427500772E+03  0.47000000000E+01 0.  1.
<mgrwt>
<rscale>  0 0.13662722E+03</rscale>
<asrwt>0</asrwt>
<pdfrwt beam="1">  1        5 0.46360084E-02 0.13662793E+03</pdfrwt>
<pdfrwt beam="2">  1       -5 0.10513922E+00 0.13662793E+03</pdfrwt>
<totfact> 0.14995640E+02</totfact>
</mgrwt>
</event>
<event>
 8    1  0.3573290E-007  0.1985017E+03  0.7546771E-02  0.1151010E+00
         -5   -1    0    0    0  501 -0.00000000000E+00  0.00000000000E+00  0.45781201384E+02  0.46021825259E+02  0.47000000000E+01 0. -1.
          5   -1    0    0  501    0  0.00000000000E+00 -0.00000000000E+00 -0.87461607004E+03  0.87462869834E+03  0.47000000000E+01 0. -1.
         25    2    1    2    0    0  0.15314222845E+03 -0.18022078431E+02 -0.47752818724E+03  0.51714175960E+03  0.12500036989E+03 0.  0.
         25    2    1    2    0    0 -0.15314222845E+03  0.18022078431E+02 -0.35130668141E+03  0.40350876400E+03  0.12500240307E+03 0.  0.
          5    1    3    3  502    0  0.45316242445E+02 -0.45057721160E+02 -0.70894338976E+02  0.95560752217E+02  0.47000000000E+01 0. -1.
         -5    1    3    3    0  502  0.10782598601E+03  0.27035642729E+02 -0.40663384826E+03  0.42158100739E+03  0.47000000000E+01 0. -1.
          5    1    4    4  503    0 -0.14615464242E+00 -0.30663721098E+02 -0.10474312159E+03  0.10924054501E+03  0.47000000000E+01 0. -1.
         -5    1    4    4    0  503 -0.15299607381E+03  0.48685799529E+02 -0.24656355982E+03  0.29426821899E+03  0.47000000000E+01 0. -1.
<mgrwt>
<rscale>  0 0.19850141E+03</rscale>
<asrwt>0</asrwt>
<pdfrwt beam="2">  1        5 0.13457579E+00 0.19850173E+03</pdfrwt>
<pdfrwt beam="1">  1       -5 0.70627434E-02 0.19850173E+03</pdfrwt>
<totfact> 0.43850716E+01</totfact>
</mgrwt>
</event>
<event>
 8    1  0.3573290E-007  0.2088299E+03  0.7546771E-02  0.1142497E+00
         -5   -1    0    0    0  501 -0.00000000000E+00  0.00000000000E+00  0.65791759242E+03  0.65793438002E+03  0.47000000000E+01 0. -1.
          5   -1    0    0  501    0  0.00000000000E+00 -0.00000000000E+00 -0.67039635514E+02  0.67204186848E+02  0.47000000000E+01 0. -1.
         25    2    1    2    0    0  0.16427409831E+03 -0.31573384037E+02  0.33639159482E+03  0.39594093706E+03  0.12500825019E+03 0.  0.
         25    2    1    2    0    0 -0.16427409831E+03  0.31573384037E+02  0.25448636208E+03  0.32919762981E+03  0.12499965213E+03 0.  0.
          5    1    3    3  502    0  0.88205796037E+02  0.19893897706E+02  0.70982229175E+02  0.11505040843E+03  0.47000000000E+01 0.  1.
         -5    1    3    3    0  502  0.76068302274E+02 -0.51467281743E+02  0.26540936565E+03  0.28089052863E+03  0.47000000000E+01 0.  1.
          5    1    4    4  503    0 -0.18210324538E+03  0.36765972095E+02  0.24585224417E+03  0.30818621748E+03  0.47000000000E+01 0. -1.
         -5    1    4    4    0  503  0.17829147072E+02 -0.51925880580E+01  0.86341179177E+01  0.21011412334E+02  0.47000000000E+01 0. -1.
<mgrwt>
<rscale>  0 0.20882860E+03</rscale>
<asrwt>0</asrwt>
<pdfrwt beam="2">  1        5 0.10327739E-01 0.20882988E+03</pdfrwt>
<pdfrwt beam="1">  1       -5 0.10123204E+00 0.20882988E+03</pdfrwt>
<totfact> 0.47526400E+01</totfact>
</mgrwt>
</event>
<event>
 8    1  0.3573290E-007  0.1373936E+03  0.7546771E-02  0.1216887E+00
          5   -1    0    0  501    0  0.00000000000E+00  0.00000000000E+00  0.14465074672E+02  0.15209483399E+02  0.47000000000E+01 0.  1.
         -5   -1    0    0    0  501 -0.00000000000E+00 -0.00000000000E+00 -0.12999522637E+04  0.12999607602E+04  0.47000000000E+01 0.  1.
         25    2    1    2    0    0  0.32858906598E+02  0.46530237537E+02 -0.74024180895E+03  0.75288071040E+03  0.12500663035E+03 0.  0.
         25    2    1    2    0    0 -0.32858906598E+02 -0.46530237537E+02 -0.54524538012E+03  0.56228953318E+03  0.12502889198E+03 0.  0.
          5    1    4    4  502    0 -0.79293434678E+02 -0.38741999148E+02 -0.31101873624E+03  0.32333130930E+03  0.47000000000E+01 0. -1.
         -5    1    4    4    0  502  0.46434528080E+02 -0.77882383895E+01 -0.23422664388E+03  0.23895822388E+03  0.47000000000E+01 0. -1.
          5    1    3    3  503    0  0.22502965883E+02  0.18974657241E+02 -0.70926081464E+03  0.70988690245E+03  0.47000000000E+01 0.  1.
         -5    1    3    3    0  503  0.10355940716E+02  0.27555580297E+02 -0.30980994313E+02  0.42993807952E+02  0.47000000000E+01 0.  1.
<mgrwt>
<rscale>  0 0.13738851E+03</rscale>
<asrwt>0</asrwt>
<pdfrwt beam="1">  1        5 0.22833129E-02 0.13739358E+03</pdfrwt>
<pdfrwt beam="2">  1       -5 0.20005048E+00 0.13739358E+03</pdfrwt>
<totfact> 0.82070598E+01</totfact>
</mgrwt>
</event>
<event>
 8    1  0.3573290E-007  0.1278950E+03  0.7546771E-02  0.1230615E+00
          5   -1    0    0  501    0  0.00000000000E+00  0.00000000000E+00  0.39539189464E+02  0.39817552706E+02  0.47000000000E+01 0.  1.
         -5   -1    0    0    0  501 -0.00000000000E+00 -0.00000000000E+00 -0.50367659022E+03  0.50369851849E+03  0.47000000000E+01 0.  1.
         25    2    1    2    0    0 -0.25002029735E+02  0.10259458186E+02 -0.34801281651E+03  0.37076754472E+03  0.12500117515E+03 0.  0.
         25    2    1    2    0    0  0.25002029735E+02 -0.10259458186E+02 -0.11612458424E+03  0.17274852648E+03  0.12500710525E+03 0.  0.
          5    1    4    4  502    0  0.64156909309E+02 -0.20689769060E+02 -0.11322119858E+03  0.13185334794E+03  0.47000000000E+01 0.  1.
         -5    1    4    4    0  502 -0.39154879574E+02  0.10430310873E+02 -0.29033856631E+01  0.40895178538E+02  0.47000000000E+01 0.  1.
          5    1    3    3  503    0 -0.20261693018E+02 -0.55979878905E+02 -0.13564738421E+03  0.14821128800E+03  0.47000000000E+01 0. -1.
         -5    1    3    3    0  503 -0.47403367169E+01  0.66239337092E+02 -0.21236543230E+03  0.22255625672E+03  0.47000000000E+01 0. -1.
<mgrwt>
<rscale>  0 0.12789356E+03</rscale>
<asrwt>0</asrwt>
<pdfrwt beam="1">  1        5 0.61060519E-02 0.12789501E+03</pdfrwt>
<pdfrwt beam="2">  1       -5 0.77511801E-01 0.12789501E+03</pdfrwt>
<totfact> 0.19112477E+02</totfact>
</mgrwt>
</event>
<event>
 8    1  0.3573290E-007  0.1312480E+03  0.7546771E-02  0.1225618E+00
          5   -1    0    0  501    0  0.00000000000E+00  0.00000000000E+00  0.12734715453E+03  0.12743385643E+03  0.47000000000E+01 0.  1.
         -5   -1    0    0    0  501 -0.00000000000E+00 -0.00000000000E+00 -0.13682861728E+03  0.13690931490E+03  0.47000000000E+01 0.  1.
         25    2    1    2    0    0 -0.25889381869E+02 -0.30499594546E+02 -0.19639543747E+02  0.13270929663E+03  0.12500224147E+03 0.  0.
         25    2    1    2    0    0  0.25889381869E+02  0.30499594546E+02  0.10158080998E+02  0.13163387470E+03  0.12499521991E+03 0.  0.
          5    1    4    4  502    0  0.26801248565E+02  0.61355973743E+02 -0.35801384332E+02  0.76070306682E+02  0.47000000000E+01 0. -1.
         -5    1    4    4    0  502 -0.91186669633E+00 -0.30856379197E+02  0.45959465330E+02  0.55563568023E+02  0.47000000000E+01 0. -1.
          5    1    3    3  503    0  0.28118869495E+02  0.24026545141E+02 -0.38443684163E+02  0.53553268295E+02  0.47000000000E+01 0.  1.
         -5    1    3    3    0  503 -0.54008251364E+02 -0.54526139687E+02  0.18804140416E+02  0.79156028332E+02  0.47000000000E+01 0.  1.
<mgrwt>
<rscale>  0 0.13124636E+03</rscale>
<asrwt>0</asrwt>
<pdfrwt beam="1">  1        5 0.19604747E-01 0.13124803E+03</pdfrwt>
<pdfrwt beam="2">  1       -5 0.21063433E-01 0.13124803E+03</pdfrwt>
<totfact> 0.36163761E+02</totfact>
</mgrwt>
</event>
<event>
 8    1  0.3573290E-007  0.1529612E+03  0.7546771E-02  0.1196881E+00
         -5   -1    0    0    0  501 -0.00000000000E+00  0.00000000000E+00  0.46867823299E+02  0.47102896523E+02  0.47000000000E+01 0.  1.
          5   -1    0    0  501    0  0.00000000000E+00 -0.00000000000E+00 -0.97219157527E+03  0.97220293613E+03  0.47000000000E+01 0.  1.
         25    2    1    2    0    0  0.54949213481E+02  0.68941962839E+02 -0.10666381282E+03  0.18647865971E+03  0.12499884502E+03 0.  0.
         25    2    1    2    0    0 -0.54949213481E+02 -0.68941962839E+02 -0.81865993914E+03  0.83282717295E+03  0.12499837494E+03 0.  0.
          5    1    3    3  502    0  0.80160089406E+02  0.57727708980E+02 -0.11997840916E+03  0.15548323698E+03  0.47000000000E+01 0.  1.
         -5    1    3    3    0  502 -0.25210875925E+02  0.11214253859E+02  0.13314596333E+02  0.30995422727E+02  0.47000000000E+01 0.  1.
          5    1    4    4  503    0 -0.32376135635E+02 -0.40763558168E+02 -0.96468148297E+02  0.10971816381E+03  0.47000000000E+01 0. -1.
         -5    1    4    4    0  503 -0.22573077846E+02 -0.28178404672E+02 -0.72219179085E+03  0.72310900914E+03  0.47000000000E+01 0. -1.
<mgrwt>
<rscale>  0 0.15296108E+03</rscale>
<asrwt>0</asrwt>
<pdfrwt beam="2">  1        5 0.14958688E+00 0.15296118E+03</pdfrwt>
<pdfrwt beam="1">  1       -5 0.72293916E-02 0.15296118E+03</pdfrwt>
<totfact> 0.29577542E+01</totfact>
</mgrwt>
</event>
<event>
 8    1  0.3573290E-007  0.1925647E+03  0.7546771E-02  0.1156169E+00
          5   -1    0    0  501    0  0.00000000000E+00  0.00000000000E+00  0.73296077010E+02  0.73446612618E+02  0.47000000000E+01 0. -1.
         -5   -1    0    0    0  501 -0.00000000000E+00 -0.00000000000E+00 -0.78172765179E+03  0.78174178062E+03  0.47000000000E+01 0. -1.
         25    2    1    2    0    0  0.76377055201E+02  0.12498806841E+03 -0.60849343867E+03  0.63823618395E+03  0.12500275915E+03 0.  0.
         25    2    1    2    0    0 -0.76377055201E+02 -0.12498806841E+03 -0.99938136112E+02  0.21695220929E+03  0.12500063304E+03 0.  0.
          5    1    4    4  502    0  0.59551384944E+01 -0.71193101204E+02  0.65802558357E+01  0.71897921391E+02  0.47000000000E+01 0.  1.
         -5    1    4    4    0  502 -0.82332193696E+02 -0.53794967206E+02 -0.10651839195E+03  0.14505428790E+03  0.47000000000E+01 0.  1.
          5    1    3    3  503    0 -0.17447827425E+02  0.33376189899E+02 -0.41419614309E+02  0.56178921167E+02  0.47000000000E+01 0. -1.
         -5    1    3    3    0  503  0.93824882626E+02  0.91611878511E+02 -0.56707382436E+03  0.58205726278E+03  0.47000000000E+01 0. -1.
<mgrwt>
<rscale>  0 0.19256435E+03</rscale>
<asrwt>0</asrwt>
<pdfrwt beam="1">  1        5 0.11288987E-01 0.19256469E+03</pdfrwt>
<pdfrwt beam="2">  1       -5 0.12027845E+00 0.19256469E+03</pdfrwt>
<totfact> 0.25806347E+01</totfact>
</mgrwt>
</event>
<event>
 8    1  0.3573290E-007  0.1252212E+03  0.7546771E-02  0.1234726E+00
          5   -1    0    0  501    0  0.00000000000E+00  0.00000000000E+00  0.22293386442E+03  0.22298340276E+03  0.47000000000E+01 0.  1.
         -5   -1    0    0    0  501 -0.00000000000E+00 -0.00000000000E+00 -0.86261930155E+02  0.86389875530E+02  0.47000000000E+01 0.  1.
         25    2    1    2    0    0  0.28373273905E+01 -0.67089127021E+01  0.16561832948E+01  0.12522768354E+03  0.12500467929E+03 0.  0.
         25    2    1    2    0    0 -0.28373273905E+01  0.67089127021E+01  0.13501575097E+03  0.18414559475E+03  0.12500914815E+03 0.  0.
          5    1    4    4  502    0 -0.48839232235E+02  0.43593615717E+02  0.78669813707E+02  0.10245342125E+03  0.47000000000E+01 0. -1.
         -5    1    4    4    0  502  0.46001904845E+02 -0.36884703015E+02  0.56345937265E+02  0.81692173506E+02  0.47000000000E+01 0. -1.
          5    1    3    3  503    0 -0.38260135508E+02 -0.91987989288E+01  0.48534391458E+02  0.62658862302E+02  0.47000000000E+01 0.  1.
         -5    1    3    3    0  503  0.41097462898E+02  0.24898862267E+01 -0.46878208163E+02  0.62568821234E+02  0.47000000000E+01 0.  1.
<mgrwt>
<rscale>  0 0.12522008E+03</rscale>
<asrwt>0</asrwt>
<pdfrwt beam="1">  1        5 0.34311170E-01 0.12522119E+03</pdfrwt>
<pdfrwt beam="2">  1       -5 0.13284719E-01 0.12522119E+03</pdfrwt>
<totfact> 0.28127826E+02</totfact>
</mgrwt>
</event>
<event>
 8    1  0.3573290E-007  0.1507280E+03  0.7546771E-02  0.1199587E+00
         -5   -1    0    0    0  501 -0.00000000000E+00  0.00000000000E+00  0.43885166587E+02  0.44136128583E+02  0.47000000000E+01 0. -1.
          5   -1    0    0  501    0  0.00000000000E+00 -0.00000000000E+00 -0.52145489365E+03  0.52147607434E+03  0.47000000000E+01 0. -1.
         25    2    1    2    0    0  0.82920334914E+02 -0.14775156301E+02 -0.20957358191E+03  0.25813721931E+03  0.12497860044E+03 0.  0.
         25    2    1    2    0    0 -0.82920334914E+02  0.14775156301E+02 -0.26799614515E+03  0.30747498362E+03  0.12499937820E+03 0.  0.
          5    1    4    4  502    0  0.76850490466E+01 -0.23115516112E+02 -0.32002413000E+01  0.25014368039E+02  0.47000000000E+01 0.  1.
         -5    1    4    4    0  502 -0.90605383961E+02  0.37890672414E+02 -0.26479590385E+03  0.28246061558E+03  0.47000000000E+01 0.  1.
          5    1    3    3  503    0 -0.23834611810E+02 -0.43073250097E+00 -0.21830829371E+01  0.24395288515E+02  0.47000000000E+01 0.  1.
         -5    1    3    3    0  503  0.10675494672E+03 -0.14344423800E+02 -0.20739049898E+03  0.23374193079E+03  0.47000000000E+01 0.  1.
<mgrwt>
<rscale>  0 0.15072370E+03</rscale>
<asrwt>0</asrwt>
<pdfrwt beam="2">  1        5 0.80244760E-01 0.15072801E+03</pdfrwt>
<pdfrwt beam="1">  1       -5 0.67724985E-02 0.15072801E+03</pdfrwt>
<totfact> 0.15644028E+02</totfact>
</mgrwt>
</event>
<event>
 8    1  0.3573290E-007  0.1307960E+03  0.7546771E-02  0.1226284E+00
          5   -1    0    0  501    0  0.00000000000E+00  0.00000000000E+00  0.14120372147E+03  0.14128192014E+03  0.47000000000E+01 0. -1.
         -5   -1    0    0    0  501 -0.00000000000E+00 -0.00000000000E+00 -0.13183981158E+03  0.13192356089E+03  0.47000000000E+01 0. -1.
         25    2    1    2    0    0  0.34784613860E+02  0.16507281308E+02 -0.34485501192E+02  0.13525487115E+03  0.12498868221E+03 0.  0.
         25    2    1    2    0    0 -0.34784613860E+02 -0.16507281308E+02  0.43849411081E+02  0.13795060988E+03  0.12500056086E+03 0.  0.
          5    1    3    3  502    0  0.31894480569E+02  0.43767709132E+02  0.32074935546E+02  0.63117047964E+02  0.47000000000E+01 0.  1.
         -5    1    3    3    0  502  0.28901332913E+01 -0.27260427824E+02 -0.66560436739E+02  0.72137823189E+02  0.47000000000E+01 0.  1.
          5    1    4    4  503    0 -0.26608082801E+02 -0.26458636275E+02 -0.38794563764E+02  0.54177095543E+02  0.47000000000E+01 0. -1.
         -5    1    4    4    0  503 -0.81765310592E+01  0.99513549671E+01  0.82643974844E+02  0.83773514334E+02  0.47000000000E+01 0. -1.
<mgrwt>
<rscale>  0 0.13079319E+03</rscale>
<asrwt>0</asrwt>
<pdfrwt beam="1">  1        5 0.21736107E-01 0.13079602E+03</pdfrwt>
<pdfrwt beam="2">  1       -5 0.20295506E-01 0.13079602E+03</pdfrwt>
<totfact> 0.31918074E+02</totfact>
</mgrwt>
</event>
<event>
 8    1  0.3573290E-007  0.1398566E+03  0.7546771E-02  0.1213524E+00
         -5   -1    0    0    0  501 -0.00000000000E+00  0.00000000000E+00  0.32272784799E+02  0.32613227971E+02  0.47000000000E+01 0. -1.
          5   -1    0    0  501    0  0.00000000000E+00 -0.00000000000E+00 -0.66506611262E+03  0.66508271979E+03  0.47000000000E+01 0. -1.
         25    2    1    2    0    0  0.55605749685E+02 -0.29034216450E+02 -0.20943845657E+03  0.25183810475E+03  0.12499191490E+03 0.  0.
         25    2    1    2    0    0 -0.55605749685E+02  0.29034216450E+02 -0.42335487125E+03  0.44585784301E+03  0.12499953615E+03 0.  0.
          5    1    4    4  502    0 -0.91304615154E+02  0.43130901619E+02 -0.29854183495E+03  0.31519220269E+03  0.47000000000E+01 0.  1.
         -5    1    4    4    0  502  0.35698865469E+02 -0.14096685169E+02 -0.12481303630E+03  0.13066564031E+03  0.47000000000E+01 0.  1.
          5    1    3    3  503    0  0.10202888679E+02 -0.41689303035E+02 -0.19860991084E+03  0.20324882191E+03  0.47000000000E+01 0. -1.
         -5    1    3    3    0  503  0.45402861006E+02  0.12655086585E+02 -0.10828545733E+02  0.48589282837E+02  0.47000000000E+01 0. -1.
<mgrwt>
<rscale>  0 0.13985490E+03</rscale>
<asrwt>0</asrwt>
<pdfrwt beam="2">  1        5 0.10234532E+00 0.13985660E+03</pdfrwt>
<pdfrwt beam="1">  1       -5 0.49925097E-02 0.13985660E+03</pdfrwt>
<totfact> 0.14278816E+02</totfact>
</mgrwt>
</event>
<event>
 8    1  0.3573290E-007  0.1352031E+03  0.7546771E-02  0.1219938E+00
          5   -1    0    0  501    0  0.00000000000E+00  0.00000000000E+00  0.28424143567E+02  0.28810101311E+02  0.47000000000E+01 0.  1.
         -5   -1    0    0    0  501 -0.00000000000E+00 -0.00000000000E+00 -0.69152473853E+03  0.69154071030E+03  0.47000000000E+01 0.  1.
         25    2    1    2    0    0  0.49951821149E+02  0.12478222208E+02 -0.43144457138E+03  0.45213304685E+03  0.12501593267E+03 0.  0.
         25    2    1    2    0    0 -0.49951821149E+02 -0.12478222208E+02 -0.23165602359E+03  0.26821776475E+03  0.12500146239E+03 0.  0.
          5    1    4    4  502    0 -0.64112619534E+02 -0.41048765165E+01 -0.40053431191E+02  0.75852787325E+02  0.47000000000E+01 0. -1.
         -5    1    4    4    0  502  0.14160798385E+02 -0.83733456914E+01 -0.19160259240E+03  0.19236497743E+03  0.47000000000E+01 0. -1.
          5    1    3    3  503    0 -0.16442672051E+02  0.49767717575E+02 -0.24678226506E+03  0.25233066307E+03  0.47000000000E+01 0. -1.
         -5    1    3    3    0  503  0.66394493200E+02 -0.37289495367E+02 -0.18466230631E+03  0.19980238378E+03  0.47000000000E+01 0. -1.
<mgrwt>
<rscale>  0 0.13519974E+03</rscale>
<asrwt>0</asrwt>
<pdfrwt beam="1">  1        5 0.44038633E-02 0.13520308E+03</pdfrwt>
<pdfrwt beam="2">  1       -5 0.10641933E+00 0.13520308E+03</pdfrwt>
<totfact> 0.15788568E+02</totfact>
</mgrwt>
</event>
<event>
 8    1  0.3573290E-007  0.1265523E+03  0.7546771E-02  0.1232663E+00
          5   -1    0    0  501    0  0.00000000000E+00  0.00000000000E+00  0.23163797843E+02  0.23635810341E+02  0.47000000000E+01 0.  1.
         -5   -1    0    0    0  501 -0.00000000000E+00 -0.00000000000E+00 -0.69628748243E+03  0.69630334495E+03  0.47000000000E+01 0.  1.
         25    2    1    2    0    0  0.27917200801E+01 -0.19544845553E+02 -0.38447159858E+03  0.40476377317E+03  0.12500202907E+03 0.  0.
         25    2    1    2    0    0 -0.27917200801E+01  0.19544845553E+02 -0.28865208600E+03  0.31517538211E+03  0.12500280015E+03 0.  0.
          5    1    3    3  502    0  0.23517571721E+02 -0.12101181190E+02 -0.38104012975E+03  0.38198584430E+03  0.47000000000E+01 0.  1.
         -5    1    3    3    0  502 -0.20725851641E+02 -0.74436643636E+01 -0.34314688260E+01  0.22777928872E+02  0.47000000000E+01 0.  1.
          5    1    4    4  503    0 -0.60235136551E+02 -0.68227355731E+01 -0.11109418765E+03  0.12664450215E+03  0.47000000000E+01 0.  1.
         -5    1    4    4    0  503  0.57443416471E+02  0.26367581126E+02 -0.17755789836E+03  0.18853087996E+03  0.47000000000E+01 0.  1.
<mgrwt>
<rscale>  0 0.12655215E+03</rscale>
<asrwt>0</asrwt>
<pdfrwt beam="1">  1        5 0.36011906E-02 0.12655234E+03</pdfrwt>
<pdfrwt beam="2">  1       -5 0.10715866E+00 0.12655234E+03</pdfrwt>
<totfact> 0.21096361E+02</totfact>
</mgrwt>
</event>
<event>
 8    1  0.3573290E-007  0.1261606E+03  0.7546771E-02  0.1233268E+00
         -5   -1    0    0    0  501 -0.00000000000E+00  0.00000000000E+00  0.96081536872E+03  0.96082686410E+03  0.47000000000E+01 0. -1.
          5   -1    0    0  501    0  0.00000000000E+00 -0.00000000000E+00 -0.29876505458E+02  0.30243934572E+02  0.47000000000E+01 0. -1.
         25    2    1    2    0    0 -0.64105467696E+01  0.15771002033E+02  0.79756625769E+03  0.80748227203E+03  0.12500345844E+03 0.  0.
         25    2    1    2    0    0  0.64105467696E+01 -0.15771002033E+02  0.13337260558E+03  0.18358852664E+03  0.12500670215E+03 0.  0.
          5    1    3    3  502    0 -0.63148239830E+02  0.64561175184E+01  0.30653068643E+03  0.31306953440E+03  0.47000000000E+01 0.  1.
         -5    1    3    3    0  502  0.56737693060E+02  0.93148845150E+01  0.49103557126E+03  0.49441273763E+03  0.47000000000E+01 0.  1.
          5    1    4    4  503    0  0.62364298524E+02 -0.26682967821E+02  0.83632331459E+02  0.10778563618E+03  0.47000000000E+01 0. -1.
         -5    1    4    4    0  503 -0.55953751754E+02  0.10911965787E+02  0.49740274118E+02  0.75802890460E+02  0.47000000000E+01 0. -1.
<mgrwt>
<rscale>  0 0.12615979E+03</rscale>
<asrwt>0</asrwt>
<pdfrwt beam="2">  1        5 0.46255335E-02 0.12616059E+03</pdfrwt>
<pdfrwt beam="1">  1       -5 0.14784690E+00 0.12616059E+03</pdfrwt>
<totfact> 0.60985177E+01</totfact>
</mgrwt>
</event>
<event>
 8    1  0.3573290E-007  0.1258097E+03  0.7546771E-02  0.1233811E+00
          5   -1    0    0  501    0  0.00000000000E+00  0.00000000000E+00  0.93517694117E+02  0.93635725623E+02  0.47000000000E+01 0. -1.
         -5   -1    0    0    0  501 -0.00000000000E+00 -0.00000000000E+00 -0.17032719067E+03  0.17039202412E+03  0.47000000000E+01 0. -1.
         25    2    1    2    0    0 -0.13710609787E+02 -0.37540509358E+01 -0.26711429112E+02  0.12861411202E+03  0.12500406251E+03 0.  0.
         25    2    1    2    0    0  0.13710609787E+02  0.37540509358E+01 -0.50098067444E+02  0.13541363772E+03  0.12499985280E+03 0.  0.
          5    1    3    3  502    0  0.87141538139E+01 -0.69890303373E+01  0.48464925817E+02  0.49957202245E+02  0.47000000000E+01 0.  1.
         -5    1    3    3    0  502 -0.22424763601E+02  0.32349794015E+01 -0.75176354929E+02  0.78656909770E+02  0.47000000000E+01 0.  1.
          5    1    4    4  503    0 -0.45643475337E+02 -0.53784242214E+00  0.13850946744E+02  0.47932815910E+02  0.47000000000E+01 0. -1.
         -5    1    4    4    0  503  0.59354085124E+02  0.42918933580E+01 -0.63949014188E+02  0.87480821814E+02  0.47000000000E+01 0. -1.
<mgrwt>
<rscale>  0 0.12580869E+03</rscale>
<asrwt>0</asrwt>
<pdfrwt beam="1">  1        5 0.14401404E-01 0.12580973E+03</pdfrwt>
<pdfrwt beam="2">  1       -5 0.26218250E-01 0.12580973E+03</pdfrwt>
<totfact> 0.41298053E+02</totfact>
</mgrwt>
</event>
<event>
 8    1  0.3573290E-007  0.1313237E+03  0.7546771E-02  0.1225505E+00
          5   -1    0    0  501    0  0.00000000000E+00  0.00000000000E+00  0.77005245743E+02  0.77148544198E+02  0.47000000000E+01 0.  1.
         -5   -1    0    0    0  501 -0.00000000000E+00 -0.00000000000E+00 -0.22729150306E+03  0.22734009185E+03  0.47000000000E+01 0.  1.
         25    2    1    2    0    0 -0.78242225455E+01 -0.39493296581E+02 -0.94585975380E+02  0.16184072222E+03  0.12499989479E+03 0.  0.
         25    2    1    2    0    0  0.78242225455E+01  0.39493296581E+02 -0.55700281933E+02  0.14264791382E+03  0.12499986791E+03 0.  0.
          5    1    3    3  502    0  0.56429858284E+02 -0.18945818796E+02 -0.64289500870E+02  0.87741112814E+02  0.47000000000E+01 0. -1.
         -5    1    3    3    0  502 -0.64254080830E+02 -0.20547477785E+02 -0.30296474511E+02  0.74099609408E+02  0.47000000000E+01 0. -1.
          5    1    4    4  503    0 -0.18707543247E+02 -0.32040163658E+02 -0.54624747928E+02  0.66200433139E+02  0.47000000000E+01 0.  1.
         -5    1    4    4    0  503  0.26531765792E+02  0.71533460239E+02 -0.10755340050E+01  0.76447480686E+02  0.47000000000E+01 0.  1.
<mgrwt>
<rscale>  0 0.13132369E+03</rscale>
<asrwt>0</asrwt>
<pdfrwt beam="1">  1        5 0.11861722E-01 0.13132369E+03</pdfrwt>
<pdfrwt beam="2">  1       -5 0.34982684E-01 0.13132369E+03</pdfrwt>
<totfact> 0.33675816E+02</totfact>
</mgrwt>
</event>
<event>
 8    1  0.3573290E-007  0.1340047E+03  0.7546771E-02  0.1221633E+00
          5   -1    0    0  501    0  0.00000000000E+00  0.00000000000E+00  0.16063977446E+03  0.16070851608E+03  0.47000000000E+01 0. -1.
         -5   -1    0    0    0  501 -0.00000000000E+00 -0.00000000000E+00 -0.11164231094E+03  0.11174119917E+03  0.47000000000E+01 0. -1.
         25    2    1    2    0    0 -0.39377404026E+02 -0.27945626587E+02  0.25141961797E+02  0.13633818151E+03  0.12499777398E+03 0.  0.
         25    2    1    2    0    0  0.39377404026E+02  0.27945626587E+02  0.23855501731E+02  0.13611153374E+03  0.12500290661E+03 0.  0.
          5    1    4    4  502    0  0.24441860124E+02  0.39541629273E+02  0.71059747298E+02  0.85044239417E+02  0.47000000000E+01 0. -1.
         -5    1    4    4    0  502  0.14935543901E+02 -0.11596002686E+02 -0.47204245566E+02  0.51067294323E+02  0.47000000000E+01 0. -1.
          5    1    3    3  503    0 -0.76641311109E+02  0.10988727002E+02  0.27207772513E+02  0.82200946312E+02  0.47000000000E+01 0.  1.
         -5    1    3    3    0  503  0.37263907083E+02 -0.38934353588E+02 -0.20658107158E+01  0.54137235193E+02  0.47000000000E+01 0.  1.
<mgrwt>
<rscale>  0 0.13400352E+03</rscale>
<asrwt>0</asrwt>
<pdfrwt beam="1">  1        5 0.24726706E-01 0.13400472E+03</pdfrwt>
<pdfrwt beam="2">  1       -5 0.17188635E-01 0.13400472E+03</pdfrwt>
<totfact> 0.34286770E+02</totfact>
</mgrwt>
</event>
<event>
 8    1  0.3573290E-007  0.1333925E+03  0.7546771E-02  0.1222508E+00
         -5   -1    0    0    0  501 -0.00000000000E+00  0.00000000000E+00  0.29080580412E+03  0.29084378231E+03  0.47000000000E+01 0.  1.
          5   -1    0    0  501    0  0.00000000000E+00 -0.00000000000E+00 -0.61328322189E+02  0.61508154765E+02  0.47000000000E+01 0.  1.
         25    2    1    2    0    0  0.16162749605E+02 -0.43670478331E+02  0.12651761976E+03  0.18384589375E+03  0.12499703750E+03 0.  0.
         25    2    1    2    0    0 -0.16162749605E+02  0.43670478331E+02  0.10295986217E+03  0.16850604333E+03  0.12500083308E+03 0.  0.
          5    1    3    3  502    0 -0.17451426539E+02  0.38249914190E+02  0.25353721781E+02  0.49320476802E+02  0.47000000000E+01 0. -1.
         -5    1    3    3    0  502  0.33614176144E+02 -0.81920392521E+02  0.10116389798E+03  0.13452541694E+03  0.47000000000E+01 0. -1.
          5    1    4    4  503    0 -0.16137797149E+02  0.44194421786E+02 -0.15647287582E+02  0.49804648603E+02  0.47000000000E+01 0. -1.
         -5    1    4    4    0  503 -0.24952455857E-01 -0.52394345487E+00  0.11860714975E+03  0.11870139473E+03  0.47000000000E+01 0. -1.
<mgrwt>
<rscale>  0 0.13339159E+03</rscale>
<asrwt>0</asrwt>
<pdfrwt beam="2">  1        5 0.94518813E-02 0.13339248E+03</pdfrwt>
<pdfrwt beam="1">  1       -5 0.44756108E-01 0.13339248E+03</pdfrwt>
<totfact> 0.30495130E+02</totfact>
</mgrwt>
</event>
<event>
 8    1  0.3573290E-007  0.1311167E+03  0.7546771E-02  0.1225809E+00
         -5   -1    0    0    0  501 -0.00000000000E+00  0.00000000000E+00  0.11284710905E+03  0.11294494243E+03  0.47000000000E+01 0.  1.
          5   -1    0    0  501    0  0.00000000000E+00 -0.00000000000E+00 -0.15667581122E+03  0.15674629125E+03  0.47000000000E+01 0.  1.
         25    2    1    2    0    0 -0.22066161502E+02  0.32853128222E+02  0.10127878656E+01  0.13112062890E+03  0.12500140026E+03 0.  0.
         25    2    1    2    0    0  0.22066161502E+02 -0.32853128222E+02 -0.44841490040E+02  0.13857060478E+03  0.12499923905E+03 0.  0.
          5    1    3    3  502    0  0.26978053217E+02  0.36023483894E+02 -0.44866915468E+02  0.63723126499E+02  0.47000000000E+01 0.  1.
         -5    1    3    3    0  502 -0.49044214719E+02 -0.31703556722E+01  0.45879703334E+02  0.67397502405E+02  0.47000000000E+01 0.  1.
          5    1    4    4  503    0  0.61262809464E+01 -0.76797811462E+02 -0.56557270754E+01  0.77391940228E+02  0.47000000000E+01 0. -1.
         -5    1    4    4    0  503  0.15939880556E+02  0.43944683240E+02 -0.39185762964E+02  0.61178664551E+02  0.47000000000E+01 0. -1.
<mgrwt>
<rscale>  0 0.13111620E+03</rscale>
<asrwt>0</asrwt>
<pdfrwt beam="2">  1        5 0.24116918E-01 0.13111672E+03</pdfrwt>
<pdfrwt beam="1">  1       -5 0.17374041E-01 0.13111672E+03</pdfrwt>
<totfact> 0.34986781E+02</totfact>
</mgrwt>
</event>
<event>
 8    1  0.3573290E-007  0.1751467E+03  0.7546771E-02  0.1172585E+00
         -5   -1    0    0    0  501 -0.00000000000E+00  0.00000000000E+00  0.21846926559E+03  0.21851981605E+03  0.47000000000E+01 0. -1.
          5   -1    0    0  501    0  0.00000000000E+00 -0.00000000000E+00 -0.15098274240E+03  0.15105587874E+03  0.47000000000E+01 0. -1.
         25    2    1    2    0    0  0.11729864336E+03 -0.35950564916E+02  0.82857377832E+02  0.19375683029E+03  0.12499979748E+03 0.  0.
         25    2    1    2    0    0 -0.11729864336E+03  0.35950564916E+02 -0.15370854643E+02  0.17581886450E+03  0.12499838036E+03 0.  0.
          5    1    4    4  502    0 -0.12760393656E+02  0.55084312799E+02  0.25047071817E+02  0.62020601169E+02  0.47000000000E+01 0.  1.
         -5    1    4    4    0  502 -0.10453824970E+03 -0.19133747883E+02 -0.40417926460E+02  0.11379826333E+03  0.47000000000E+01 0.  1.
          5    1    3    3  503    0  0.12986706858E+03 -0.31196850736E+02  0.10325298301E+03  0.16888447974E+03  0.47000000000E+01 0. -1.
         -5    1    3    3    0  503 -0.12568425219E+02 -0.47537141797E+01 -0.20395605180E+02  0.24872350545E+02  0.47000000000E+01 0. -1.
<mgrwt>
<rscale>  0 0.17514644E+03</rscale>
<asrwt>0</asrwt>
<pdfrwt beam="2">  1        5 0.23237629E-01 0.17514669E+03</pdfrwt>
<pdfrwt beam="1">  1       -5 0.33620170E-01 0.17514669E+03</pdfrwt>
<totfact> 0.11662319E+02</totfact>
</mgrwt>
</event>
<event>
 8    1  0.3573290E-007  0.1288890E+03  0.7546771E-02  0.1229115E+00
         -5   -1    0    0    0  501 -0.00000000000E+00  0.00000000000E+00  0.60949767992E+03  0.60951580113E+03  0.47000000000E+01 0. -1.
          5   -1    0    0  501    0  0.00000000000E+00 -0.00000000000E+00 -0.29320162467E+02  0.29694476373E+02  0.47000000000E+01 0. -1.
         25    2    1    2    0    0  0.29224658697E+02 -0.11503816156E+02  0.37872068473E+03  0.40005215123E+03  0.12500379275E+03 0.  0.
         25    2    1    2    0    0 -0.29224658697E+02  0.11503816156E+02  0.20145683273E+03  0.23915812627E+03  0.12500134178E+03 0.  0.
          5    1    4    4  502    0 -0.42624944577E+02  0.60714416395E+02  0.91731443023E+02  0.11806724312E+03  0.47000000000E+01 0. -1.
         -5    1    4    4    0  502  0.13400285879E+02 -0.49210600239E+02  0.10972538970E+03  0.12109088316E+03  0.47000000000E+01 0. -1.
          5    1    3    3  503    0  0.25040300414E+02  0.52339300813E+02  0.11829999149E+03  0.13184611121E+03  0.47000000000E+01 0.  1.
         -5    1    3    3    0  503  0.41843582834E+01 -0.63843116969E+02  0.26042069324E+03  0.26820604002E+03  0.47000000000E+01 0.  1.
<mgrwt>
<rscale>  0 0.12888838E+03</rscale>
<asrwt>0</asrwt>
<pdfrwt beam="2">  1        5 0.45409818E-02 0.12888897E+03</pdfrwt>
<pdfrwt beam="1">  1       -5 0.93799056E-01 0.12888897E+03</pdfrwt>
<totfact> 0.20074332E+02</totfact>
</mgrwt>
</event>
<event>
 8    1  0.3573290E-007  0.1435558E+03  0.7546771E-02  0.1208627E+00
         -5   -1    0    0    0  501 -0.00000000000E+00  0.00000000000E+00  0.10672608859E+03  0.10682952769E+03  0.47000000000E+01 0.  1.
          5   -1    0    0  501    0  0.00000000000E+00 -0.00000000000E+00 -0.26052959803E+03  0.26057198900E+03  0.47000000000E+01 0.  1.
         25    2    1    2    0    0  0.47022407780E+02 -0.52632507537E+02  0.16702034167E+02  0.14451051511E+03  0.12499217315E+03 0.  0.
         25    2    1    2    0    0 -0.47022407780E+02  0.52632507537E+02 -0.17050554361E+03  0.22289100157E+03  0.12500788174E+03 0.  0.
          5    1    4    4  502    0 -0.79596914467E+02  0.70209415239E+02 -0.12687541188E+03  0.16548260005E+03  0.47000000000E+01 0.  1.
         -5    1    4    4    0  502  0.32574506686E+02 -0.17576907701E+02 -0.43630131727E+02  0.57408401516E+02  0.47000000000E+01 0.  1.
          5    1    3    3  503    0 -0.38142035097E+02 -0.41558180810E+02 -0.13791415472E+01  0.56620572807E+02  0.47000000000E+01 0. -1.
         -5    1    3    3    0  503  0.85164442877E+02 -0.11074326727E+02  0.18081175714E+02  0.87889942304E+02  0.47000000000E+01 0. -1.
<mgrwt>
<rscale>  0 0.14355235E+03</rscale>
<asrwt>0</asrwt>
<pdfrwt beam="2">  1        5 0.40092694E-01 0.14355577E+03</pdfrwt>
<pdfrwt beam="1">  1       -5 0.16430616E-01 0.14355577E+03</pdfrwt>
<totfact> 0.14659364E+02</totfact>
</mgrwt>
</event>
<event>
 8    1  0.3573290E-007  0.1490765E+03  0.7546771E-02  0.1201613E+00
         -5   -1    0    0    0  501 -0.00000000000E+00  0.00000000000E+00  0.53505757429E+03  0.53507821653E+03  0.47000000000E+01 0. -1.
          5   -1    0    0  501    0  0.00000000000E+00 -0.00000000000E+00 -0.91905793882E+02  0.92025892818E+02  0.47000000000E+01 0. -1.
         25    2    1    2    0    0  0.72283736800E+00  0.81225346007E+02  0.45378951068E+03  0.47764854417E+03  0.12500052966E+03 0.  0.
         25    2    1    2    0    0 -0.72283736800E+00 -0.81225346007E+02 -0.10637730273E+02  0.14945556518E+03  0.12500290129E+03 0.  0.
          5    1    4    4  502    0 -0.21994758625E+02  0.24817478668E+02  0.17235646839E+02  0.37667415313E+02  0.47000000000E+01 0.  1.
         -5    1    4    4    0  502  0.21271921257E+02 -0.10604282468E+03 -0.27873377112E+02  0.11178814987E+03  0.47000000000E+01 0.  1.
          5    1    3    3  503    0  0.33128223948E+02  0.39291290377E+02  0.55366886992E+02  0.75689278610E+02  0.47000000000E+01 0. -1.
         -5    1    3    3    0  503 -0.32405386580E+02  0.41934055630E+02  0.39842262369E+03  0.40195926556E+03  0.47000000000E+01 0. -1.
<mgrwt>
<rscale>  0 0.14907601E+03</rscale>
<asrwt>0</asrwt>
<pdfrwt beam="2">  1        5 0.14150179E-01 0.14907651E+03</pdfrwt>
<pdfrwt beam="1">  1       -5 0.82327376E-01 0.14907651E+03</pdfrwt>
<totfact> 0.40564055E+01</totfact>
</mgrwt>
</event>
<event>
 8    1  0.3573290E-007  0.1597697E+03  0.7546771E-02  0.1188960E+00
          5   -1    0    0  501    0  0.00000000000E+00  0.00000000000E+00  0.52045092746E+03  0.52047214901E+03  0.47000000000E+01 0.  1.
         -5   -1    0    0    0  501 -0.00000000000E+00 -0.00000000000E+00 -0.51580092819E+02  0.51793783172E+02  0.47000000000E+01 0.  1.
         25    2    1    2    0    0 -0.91887072180E+02  0.38169264125E+02  0.16946471519E+03  0.23289829675E+03  0.12499280050E+03 0.  0.
         25    2    1    2    0    0  0.91887072180E+02 -0.38169264125E+02  0.29940611945E+03  0.33936763543E+03  0.12500496333E+03 0.  0.
          5    1    3    3  502    0 -0.70541076000E+02  0.68653057248E+02  0.16870746306E+03  0.19538061256E+03  0.47000000000E+01 0.  1.
         -5    1    3    3    0  502 -0.21345996180E+02 -0.30483793124E+02  0.75725213214E+00  0.37517684189E+02  0.47000000000E+01 0.  1.
          5    1    4    4  503    0  0.11591871519E+02  0.32679815984E+02  0.15855517876E+03  0.16237049168E+03  0.47000000000E+01 0. -1.
         -5    1    4    4    0  503  0.80295200662E+02 -0.70849080109E+02  0.14085094069E+03  0.17699714375E+03  0.47000000000E+01 0. -1.
<mgrwt>
<rscale>  0 0.15976735E+03</rscale>
<asrwt>0</asrwt>
<pdfrwt beam="1">  1        5 0.80087440E-01 0.15976973E+03</pdfrwt>
<pdfrwt beam="2">  1       -5 0.79534694E-02 0.15976973E+03</pdfrwt>
<totfact> 0.12166361E+02</totfact>
</mgrwt>
</event>
<event>
 8    1  0.3573290E-007  0.1437727E+03  0.7546771E-02  0.1208341E+00
         -5   -1    0    0    0  501 -0.00000000000E+00  0.00000000000E+00  0.11322972628E+03  0.11332722936E+03  0.47000000000E+01 0. -1.
          5   -1    0    0  501    0  0.00000000000E+00 -0.00000000000E+00 -0.42792495361E+03  0.42795076343E+03  0.47000000000E+01 0. -1.
         25    2    1    2    0    0  0.42262902155E+02  0.57086113031E+02  0.47641116430E+02  0.15146043794E+03  0.12500244432E+03 0.  0.
         25    2    1    2    0    0 -0.42262902155E+02 -0.57086113031E+02 -0.36233634376E+03  0.38981755485E+03  0.12500049144E+03 0.  0.
          5    1    3    3  502    0  0.70654757942E+02  0.27424229228E+02  0.71025317072E+02  0.10397532801E+03  0.47000000000E+01 0. -1.
         -5    1    3    3    0  502 -0.28391855787E+02  0.29661883803E+02 -0.23384200642E+02  0.47485109934E+02  0.47000000000E+01 0. -1.
          5    1    4    4  503    0 -0.43621494113E+02 -0.64580516402E+02 -0.36993070446E+03  0.37807974549E+03  0.47000000000E+01 0. -1.
         -5    1    4    4    0  503  0.13585919583E+01  0.74944033718E+01  0.75943607036E+01  0.11737809357E+02  0.47000000000E+01 0. -1.
<mgrwt>
<rscale>  0 0.14377227E+03</rscale>
<asrwt>0</asrwt>
<pdfrwt beam="2">  1        5 0.65844093E-01 0.14377270E+03</pdfrwt>
<pdfrwt beam="1">  1       -5 0.17429444E-01 0.14377270E+03</pdfrwt>
<totfact> 0.45674483E+01</totfact>
</mgrwt>
</event>
<event>
 8    1  0.3573290E-007  0.1357949E+03  0.7546771E-02  0.1219104E+00
          5   -1    0    0  501    0  0.00000000000E+00  0.00000000000E+00  0.98689644218E+02  0.98801497336E+02  0.47000000000E+01 0. -1.
         -5   -1    0    0    0  501 -0.00000000000E+00 -0.00000000000E+00 -0.21763428970E+03  0.21768503405E+03  0.47000000000E+01 0. -1.
         25    2    1    2    0    0  0.37988965708E+02 -0.37039112218E+02 -0.11921023761E+03  0.18069682669E+03  0.12500082030E+03 0.  0.
         25    2    1    2    0    0 -0.37988965708E+02  0.37039112218E+02  0.26559213359E+00  0.13578970470E+03  0.12499486395E+03 0.  0.
          5    1    3    3  502    0  0.35462646093E+02 -0.82096473490E+02 -0.88533103050E+02  0.12592708431E+03  0.47000000000E+01 0. -1.
         -5    1    3    3    0  502  0.25263196150E+01  0.45057361272E+02 -0.30677134561E+02  0.54769742381E+02  0.47000000000E+01 0. -1.
          5    1    4    4  503    0 -0.14218777455E+02 -0.37796851707E+02 -0.31017405979E+02  0.51136533955E+02  0.47000000000E+01 0. -1.
         -5    1    4    4    0  503 -0.23770188253E+02  0.74835963925E+02  0.31282998113E+02  0.84653170744E+02  0.47000000000E+01 0. -1.
<mgrwt>
<rscale>  0 0.13579356E+03</rscale>
<asrwt>0</asrwt>
<pdfrwt beam="1">  1        5 0.15195530E-01 0.13579493E+03</pdfrwt>
<pdfrwt beam="2">  1       -5 0.33494706E-01 0.13579493E+03</pdfrwt>
<totfact> 0.23851450E+02</totfact>
</mgrwt>
</event>
<event>
 8    1  0.3573290E-007  0.1378582E+03  0.7546771E-02  0.1216242E+00
          5   -1    0    0  501    0  0.00000000000E+00  0.00000000000E+00  0.10021233626E+03  0.10032249169E+03  0.47000000000E+01 0.  1.
         -5   -1    0    0    0  501 -0.00000000000E+00 -0.00000000000E+00 -0.19434068115E+03  0.19439750603E+03  0.47000000000E+01 0.  1.
         25    2    1    2    0    0 -0.48641581214E+02  0.31849590904E+02 -0.70559024167E+02  0.15486149943E+03  0.12499243277E+03 0.  0.
         25    2    1    2    0    0  0.48641581214E+02 -0.31849590904E+02 -0.23569320730E+02  0.13985849829E+03  0.12499794718E+03 0.  0.
          5    1    4    4  502    0  0.10311564836E+02 -0.62796162954E+02 -0.52415183039E+02  0.82578010778E+02  0.47000000000E+01 0. -1.
         -5    1    4    4    0  502  0.38330016378E+02  0.30946572050E+02  0.28845862308E+02  0.57280487511E+02  0.47000000000E+01 0. -1.
          5    1    3    3  503    0 -0.67852196668E+02  0.68007429778E+02 -0.55082694799E+02  0.11083828023E+03  0.47000000000E+01 0. -1.
         -5    1    3    3    0  503  0.19210615454E+02 -0.36157838874E+02 -0.15476329367E+02  0.44023219202E+02  0.47000000000E+01 0. -1.
<mgrwt>
<rscale>  0 0.13785696E+03</rscale>
<asrwt>0</asrwt>
<pdfrwt beam="1">  1        5 0.15430127E-01 0.13785821E+03</pdfrwt>
<pdfrwt beam="2">  1       -5 0.29911411E-01 0.13785821E+03</pdfrwt>
<totfact> 0.29160938E+02</totfact>
</mgrwt>
</event>
<event>
 8    1  0.3573290E-007  0.1904697E+03  0.7546771E-02  0.1158041E+00
         -5   -1    0    0    0  501 -0.00000000000E+00  0.00000000000E+00  0.25862080901E+03  0.25866351279E+03  0.47000000000E+01 0. -1.
          5   -1    0    0  501    0  0.00000000000E+00 -0.00000000000E+00 -0.14019277485E+03  0.14027153710E+03  0.47000000000E+01 0. -1.
         25    2    1    2    0    0  0.84176157796E+02  0.11648089206E+03  0.57060339197E+02  0.19883302143E+03  0.12500105737E+03 0.  0.
         25    2    1    2    0    0 -0.84176157796E+02 -0.11648089206E+03  0.61367694961E+02  0.20010202846E+03  0.12498561538E+03 0.  0.
          5    1    3    3  502    0  0.76887214626E+01  0.37235436692E+02  0.77745269254E+02  0.86671858609E+02  0.47000000000E+01 0. -1.
         -5    1    3    3    0  502  0.76487436333E+02  0.79245455371E+02 -0.20684930057E+02  0.11216116282E+03  0.47000000000E+01 0. -1.
          5    1    4    4  503    0 -0.56000050860E+01 -0.40637423405E+02  0.79229475838E+02  0.89342935252E+02  0.47000000000E+01 0.  1.
         -5    1    4    4    0  503 -0.78576152710E+02 -0.75843468657E+02 -0.17861780877E+02  0.11075909321E+03  0.47000000000E+01 0.  1.
<mgrwt>
<rscale>  0 0.19046712E+03</rscale>
<asrwt>0</asrwt>
<pdfrwt beam="2">  1        5 0.21577463E-01 0.19046965E+03</pdfrwt>
<pdfrwt beam="1">  1       -5 0.39797160E-01 0.19046965E+03</pdfrwt>
<totfact> 0.97722855E+01</totfact>
</mgrwt>
</event>
<event>
 8    1  0.3573290E-007  0.1314882E+03  0.7546771E-02  0.1225265E+00
         -5   -1    0    0    0  501 -0.00000000000E+00  0.00000000000E+00  0.46176083645E+03  0.46178475513E+03  0.47000000000E+01 0. -1.
          5   -1    0    0  501    0  0.00000000000E+00 -0.00000000000E+00 -0.38742392056E+02  0.39026439015E+02  0.47000000000E+01 0. -1.
         25    2    1    2    0    0 -0.25959733838E+02 -0.31475370867E+02  0.26015139891E+03  0.29149252210E+03  0.12499813332E+03 0.  0.
         25    2    1    2    0    0  0.25959733838E+02  0.31475370867E+02  0.16286704548E+03  0.20931867205E+03  0.12499610079E+03 0.  0.
          5    1    4    4  502    0  0.35456550640E+02  0.70332494726E+02  0.60861176895E+02  0.99649383595E+02  0.47000000000E+01 0.  1.
         -5    1    4    4    0  502 -0.94968168014E+01 -0.38857123860E+02  0.10200586858E+03  0.10966928845E+03  0.47000000000E+01 0.  1.
          5    1    3    3  503    0 -0.42648599961E+02 -0.41972113757E+02  0.26410751807E+03  0.27084208040E+03  0.47000000000E+01 0. -1.
         -5    1    3    3    0  503  0.16688866122E+02  0.10496742890E+02 -0.39561191630E+01  0.20650441704E+02  0.47000000000E+01 0. -1.
<mgrwt>
<rscale>  0 0.13148769E+03</rscale>
<asrwt>0</asrwt>
<pdfrwt beam="2">  1        5 0.59840579E-02 0.13148817E+03</pdfrwt>
<pdfrwt beam="1">  1       -5 0.71063816E-01 0.13148817E+03</pdfrwt>
<totfact> 0.24330655E+02</totfact>
</mgrwt>
</event>
<event>
 8    1  0.3573290E-007  0.1507024E+03  0.7546771E-02  0.1199613E+00
         -5   -1    0    0    0  501 -0.00000000000E+00  0.00000000000E+00  0.67205587980E+02  0.67369733974E+02  0.47000000000E+01 0. -1.
          5   -1    0    0  501    0  0.00000000000E+00 -0.00000000000E+00 -0.38510548536E+03  0.38513416474E+03  0.47000000000E+01 0. -1.
         25    2    1    2    0    0 -0.59595271046E+02 -0.59446799308E+02 -0.79290517742E+02  0.17028827122E+03  0.12500236331E+03 0.  0.
         25    2    1    2    0    0  0.59595271046E+02  0.59446799308E+02 -0.23860937964E+03  0.28221562749E+03  0.12500282426E+03 0.  0.
          5    1    4    4  502    0 -0.89737883722E+01  0.97995150463E+01 -0.17662974007E+03  0.17719118051E+03  0.47000000000E+01 0.  1.
         -5    1    4    4    0  502  0.68569059418E+02  0.49647284262E+02 -0.61979639571E+02  0.10502444699E+03  0.47000000000E+01 0.  1.
          5    1    3    3  503    0 -0.37607747705E+02 -0.98106438963E+02 -0.63522129552E+02  0.12286727390E+03  0.47000000000E+01 0.  1.
         -5    1    3    3    0  503 -0.21987523341E+02  0.38659639655E+02 -0.15768388190E+02  0.47420997322E+02  0.47000000000E+01 0.  1.
<mgrwt>
<rscale>  0 0.15070234E+03</rscale>
<asrwt>0</asrwt>
<pdfrwt beam="2">  1        5 0.59261829E-01 0.15070244E+03</pdfrwt>
<pdfrwt beam="1">  1       -5 0.10354154E-01 0.15070244E+03</pdfrwt>
<totfact> 0.14888914E+02</totfact>
</mgrwt>
</event>
<event>
 8    1  0.3573290E-007  0.1520456E+03  0.7546771E-02  0.1197982E+00
          5   -1    0    0  501    0  0.00000000000E+00  0.00000000000E+00  0.77643974519E+03  0.77645397024E+03  0.47000000000E+01 0.  1.
         -5   -1    0    0    0  501 -0.00000000000E+00 -0.00000000000E+00 -0.29595297926E+02  0.29966175254E+02  0.47000000000E+01 0.  1.
         25    2    1    2    0    0 -0.83932229845E+02 -0.21169223831E+02  0.38425075876E+03  0.41323820123E+03  0.12499764038E+03 0.  0.
         25    2    1    2    0    0  0.83932229845E+02  0.21169223831E+02  0.36259368850E+03  0.39318194427E+03  0.12500041246E+03 0.  0.
          5    1    4    4  502    0  0.81910575341E+01 -0.45993483365E+02  0.77509202172E+02  0.90621522592E+02  0.47000000000E+01 0.  1.
         -5    1    4    4    0  502  0.75741172311E+02  0.67162707196E+02  0.28508448632E+03  0.30256042167E+03  0.47000000000E+01 0.  1.
          5    1    3    3  503    0 -0.40119715145E+01 -0.35517308086E+02  0.22588044934E+02  0.42542741602E+02  0.47000000000E+01 0.  1.
         -5    1    3    3    0  503 -0.79920258331E+02  0.14348084255E+02  0.36166271383E+03  0.37069545963E+03  0.47000000000E+01 0.  1.
<mgrwt>
<rscale>  0 0.15204501E+03</rscale>
<asrwt>0</asrwt>
<pdfrwt beam="1">  1        5 0.11948189E+00 0.15204558E+03</pdfrwt>
<pdfrwt beam="2">  1       -5 0.45827460E-02 0.15204558E+03</pdfrwt>
<totfact> 0.11484212E+02</totfact>
</mgrwt>
</event>
<event>
 8    1  0.3573290E-007  0.2200186E+03  0.7546771E-02  0.1133871E+00
          5   -1    0    0  501    0  0.00000000000E+00  0.00000000000E+00  0.86918741656E+03  0.86920012373E+03  0.47000000000E+01 0. -1.
         -5   -1    0    0    0  501 -0.00000000000E+00 -0.00000000000E+00 -0.55588946843E+02  0.55787283597E+02  0.47000000000E+01 0. -1.
         25    2    1    2    0    0 -0.66523680537E+01  0.18093932113E+03  0.40066273080E+03  0.45709413822E+03  0.12498454070E+03 0.  0.
         25    2    1    2    0    0  0.66523680537E+01 -0.18093932113E+03  0.41293573891E+03  0.46789326911E+03  0.12499957949E+03 0.  0.
          5    1    4    4  502    0  0.10773092232E+02 -0.44715596080E+02  0.17215520384E+02  0.49335668548E+02  0.47000000000E+01 0.  1.
         -5    1    4    4    0  502 -0.41207241786E+01 -0.13622372505E+03  0.39572021853E+03  0.41855760056E+03  0.47000000000E+01 0.  1.
          5    1    3    3  503    0 -0.33033970890E+02 -0.27811922862E+01  0.76911240922E+02  0.83883295378E+02  0.47000000000E+01 0.  1.
         -5    1    3    3    0  503  0.26381602836E+02  0.18372051342E+03  0.32375148988E+03  0.37321084285E+03  0.47000000000E+01 0.  1.
<mgrwt>
<rscale>  0 0.22001647E+03</rscale>
<asrwt>0</asrwt>
<pdfrwt beam="1">  1        5 0.13373738E+00 0.22001861E+03</pdfrwt>
<pdfrwt beam="2">  1       -5 0.85683797E-02 0.22001861E+03</pdfrwt>
<totfact> 0.32760119E+01</totfact>
</mgrwt>
</event>
<event>
 8    1  0.3573290E-007  0.1816783E+03  0.7546771E-02  0.1166189E+00
          5   -1    0    0  501    0  0.00000000000E+00  0.00000000000E+00  0.18533584415E+03  0.18539542908E+03  0.47000000000E+01 0. -1.
         -5   -1    0    0    0  501 -0.00000000000E+00 -0.00000000000E+00 -0.21678157439E+03  0.21683251830E+03  0.47000000000E+01 0. -1.
         25    2    1    2    0    0 -0.30626250153E+02  0.12822956940E+03 -0.10079489750E+03  0.20776576427E+03  0.12500484700E+03 0.  0.
         25    2    1    2    0    0  0.30626250153E+02 -0.12822956940E+03  0.69349167253E+02  0.19446218312E+03  0.12500177598E+03 0.  0.
          5    1    4    4  502    0 -0.11161944101E+02 -0.13415334350E+03  0.70391016152E+02  0.15198254414E+03  0.47000000000E+01 0. -1.
         -5    1    4    4    0  502  0.41788194254E+02  0.59237741014E+01 -0.10418488992E+01  0.42479638979E+02  0.47000000000E+01 0. -1.
          5    1    3    3  503    0 -0.72443821441E+02  0.39151937644E+02 -0.37018270387E+02  0.90406989933E+02  0.47000000000E+01 0. -1.
         -5    1    3    3    0  503  0.41817571288E+02  0.89077631757E+02 -0.63776627108E+02  0.11735877433E+03  0.47000000000E+01 0. -1.
<mgrwt>
<rscale>  0 0.18167776E+03</rscale>
<asrwt>0</asrwt>
<pdfrwt beam="1">  1        5 0.28521709E-01 0.18167829E+03</pdfrwt>
<pdfrwt beam="2">  1       -5 0.33359514E-01 0.18167829E+03</pdfrwt>
<totfact> 0.80578545E+01</totfact>
</mgrwt>
</event>
<event>
 8    1  0.3573290E-007  0.1623025E+03  0.7546771E-02  0.1186122E+00
          5   -1    0    0  501    0  0.00000000000E+00  0.00000000000E+00  0.14304726828E+04  0.14304804040E+04  0.47000000000E+01 0. -1.
         -5   -1    0    0    0  501 -0.00000000000E+00 -0.00000000000E+00 -0.18765189228E+02  0.19344826873E+02  0.47000000000E+01 0. -1.
         25    2    1    2    0    0  0.32954680239E+01 -0.10347110801E+03  0.57218710178E+03  0.59475997273E+03  0.12499686163E+03 0.  0.
         25    2    1    2    0    0 -0.32954680239E+01  0.10347110801E+03  0.83952039176E+03  0.85506525812E+03  0.12499990860E+03 0.  0.
          5    1    3    3  502    0 -0.50863383330E+02 -0.93308889981E+02  0.40043812120E+03  0.41432645537E+03  0.47000000000E+01 0. -1.
         -5    1    3    3    0  502  0.54158851354E+02 -0.10162218026E+02  0.17174898058E+03  0.18043351736E+03  0.47000000000E+01 0. -1.
          5    1    4    4  503    0 -0.61589632792E+02  0.47824830846E+02  0.32540451143E+03  0.33465009095E+03  0.47000000000E+01 0.  1.
         -5    1    4    4    0  503  0.58294164768E+02  0.55646277161E+02  0.51411588033E+03  0.52041516717E+03  0.47000000000E+01 0.  1.
<mgrwt>
<rscale>  0 0.16230193E+03</rscale>
<asrwt>0</asrwt>
<pdfrwt beam="1">  1        5 0.22011792E+00 0.16230252E+03</pdfrwt>
<pdfrwt beam="2">  1       -5 0.29321334E-02 0.16230252E+03</pdfrwt>
<totfact> 0.42301373E+01</totfact>
</mgrwt>
</event>
<event>
 8    1  0.3573290E-007  0.1347226E+03  0.7546771E-02  0.1220612E+00
          5   -1    0    0  501    0  0.00000000000E+00  0.00000000000E+00  0.79825357254E+02  0.79963602100E+02  0.47000000000E+01 0. -1.
         -5   -1    0    0    0  501 -0.00000000000E+00 -0.00000000000E+00 -0.26400296693E+03  0.26404480026E+03  0.47000000000E+01 0. -1.
         25    2    1    2    0    0 -0.47944354646E+02 -0.15032471966E+02 -0.15645062172E+03  0.20646303516E+03  0.12500220596E+03 0.  0.
         25    2    1    2    0    0  0.47944354646E+02  0.15032471966E+02 -0.27726987953E+02  0.13754536720E+03  0.12500122328E+03 0.  0.
          5    1    3    3  502    0 -0.12527934040E+02  0.37386649475E+02 -0.13304834593E+03  0.13884762528E+03  0.47000000000E+01 0. -1.
         -5    1    3    3    0  502 -0.35416420606E+02 -0.52419121442E+02 -0.23402275784E+02  0.67615409879E+02  0.47000000000E+01 0. -1.
          5    1    4    4  503    0 -0.26813799931E+02  0.41283575330E+02 -0.30542966024E+02  0.58122940671E+02  0.47000000000E+01 0.  1.
         -5    1    4    4    0  503  0.74758154577E+02 -0.26251103363E+02  0.28159780707E+01  0.79422426531E+02  0.47000000000E+01 0.  1.
<mgrwt>
<rscale>  0 0.13472241E+03</rscale>
<asrwt>0</asrwt>
<pdfrwt beam="1">  1        5 0.12294676E-01 0.13472263E+03</pdfrwt>
<pdfrwt beam="2">  1       -5 0.40629693E-01 0.13472263E+03</pdfrwt>
<totfact> 0.23548796E+02</totfact>
</mgrwt>
</event>
<event>
 8    1  0.3573290E-007  0.1362434E+03  0.7546771E-02  0.1218478E+00
          5   -1    0    0  501    0  0.00000000000E+00  0.00000000000E+00  0.44349222876E+02  0.44597573586E+02  0.47000000000E+01 0. -1.
         -5   -1    0    0    0  501 -0.00000000000E+00 -0.00000000000E+00 -0.42895307809E+03  0.42897882606E+03  0.47000000000E+01 0. -1.
         25    2    1    2    0    0 -0.33903222161E+02 -0.42305466527E+02 -0.23166535769E+03  0.26875842444E+03  0.12499228689E+03 0.  0.
         25    2    1    2    0    0  0.33903222161E+02  0.42305466527E+02 -0.15293849753E+03  0.20481797521E+03  0.12498415088E+03 0.  0.
          5    1    4    4  502    0  0.18318207476E+02  0.84430022817E+02 -0.73893721172E+02  0.11378206145E+03  0.47000000000E+01 0. -1.
         -5    1    4    4    0  502  0.15585014684E+02 -0.42124556290E+02 -0.79044776354E+02  0.91035913760E+02  0.47000000000E+01 0. -1.
          5    1    3    3  503    0  0.38476684155E+02 -0.46728676310E+02 -0.13318065277E+03  0.14636666521E+03  0.47000000000E+01 0.  1.
         -5    1    3    3    0  503 -0.72379906315E+02  0.44232097822E+01 -0.98484704926E+02  0.12239175923E+03  0.47000000000E+01 0.  1.
<mgrwt>
<rscale>  0 0.13624149E+03</rscale>
<asrwt>0</asrwt>
<pdfrwt beam="1">  1        5 0.68440422E-02 0.13624336E+03</pdfrwt>
<pdfrwt beam="2">  1       -5 0.66013863E-01 0.13624336E+03</pdfrwt>
<totfact> 0.23164330E+02</totfact>
</mgrwt>
</event>
<event>
 8    1  0.3573290E-007  0.1514308E+03  0.7546771E-02  0.1198730E+00
         -5   -1    0    0    0  501 -0.00000000000E+00  0.00000000000E+00  0.10174186354E+04  0.10174294912E+04  0.47000000000E+01 0.  1.
          5   -1    0    0  501    0  0.00000000000E+00 -0.00000000000E+00 -0.22281096088E+02  0.22771412843E+02  0.47000000000E+01 0.  1.
         25    2    1    2    0    0 -0.82755410054E+02 -0.21387696588E+02  0.49533561233E+03  0.51796589122E+03  0.12500161664E+03 0.  0.
         25    2    1    2    0    0  0.82755410054E+02  0.21387696588E+02  0.49980192695E+03  0.52223501284E+03  0.12498620322E+03 0.  0.
          5    1    4    4  502    0  0.58622341275E+02  0.41734269807E+02  0.11255412480E+03  0.13367441484E+03  0.47000000000E+01 0. -1.
         -5    1    4    4    0  502  0.24133068779E+02 -0.20346573219E+02  0.38724780214E+03  0.38856059800E+03  0.47000000000E+01 0. -1.
          5    1    3    3  503    0 -0.10698386708E+03 -0.44755761972E+02  0.35136984226E+03  0.37004254093E+03  0.47000000000E+01 0.  1.
         -5    1    3    3    0  503  0.24228457026E+02  0.23368065384E+02  0.14396577007E+03  0.14792335029E+03  0.47000000000E+01 0.  1.
<mgrwt>
<rscale>  0 0.15142765E+03</rscale>
<asrwt>0</asrwt>
<pdfrwt beam="2">  1        5 0.34664136E-02 0.15143083E+03</pdfrwt>
<pdfrwt beam="1">  1       -5 0.15656446E+00 0.15143083E+03</pdfrwt>
<totfact> 0.88453882E+01</totfact>
</mgrwt>
</event>
<event>
 8    1  0.3573290E-007  0.1359520E+03  0.7546771E-02  0.1218888E+00
          5   -1    0    0  501    0  0.00000000000E+00  0.00000000000E+00  0.19024531737E+03  0.19030336513E+03  0.47000000000E+01 0.  1.
         -5   -1    0    0    0  501 -0.00000000000E+00 -0.00000000000E+00 -0.98061020039E+02  0.98173589376E+02  0.47000000000E+01 0.  1.
         25    2    1    2    0    0 -0.49800522844E+02  0.19336279398E+02  0.31183014556E+02  0.13946654987E+03  0.12499821743E+03 0.  0.
         25    2    1    2    0    0  0.49800522844E+02 -0.19336279398E+02  0.61001282771E+02  0.14901040463E+03  0.12501584065E+03 0.  0.
          5    1    3    3  502    0 -0.80277337003E+02  0.23184100191E+02  0.55145052265E+02  0.10022484785E+03  0.47000000000E+01 0. -1.
         -5    1    3    3    0  502  0.30476814158E+02 -0.38478207931E+01 -0.23962037709E+02  0.39241702018E+02  0.47000000000E+01 0. -1.
          5    1    4    4  503    0 -0.23896894225E+02 -0.11694780787E+02 -0.24010254835E+02  0.36144318896E+02  0.47000000000E+01 0.  1.
         -5    1    4    4    0  503  0.73697417069E+02 -0.76414986109E+01  0.85011537606E+02  0.11286608574E+03  0.47000000000E+01 0.  1.
<mgrwt>
<rscale>  0 0.13594794E+03</rscale>
<asrwt>0</asrwt>
<pdfrwt beam="1">  1        5 0.29281635E-01 0.13595199E+03</pdfrwt>
<pdfrwt beam="2">  1       -5 0.15099435E-01 0.13595199E+03</pdfrwt>
<totfact> 0.31469382E+02</totfact>
</mgrwt>
</event>
<event>
 8    1  0.3573290E-007  0.1733898E+03  0.7546771E-02  0.1174359E+00
          5   -1    0    0  501    0  0.00000000000E+00  0.00000000000E+00  0.97188061628E+02  0.97301640906E+02  0.47000000000E+01 0. -1.
         -5   -1    0    0    0  501 -0.00000000000E+00 -0.00000000000E+00 -0.31031493691E+03  0.31035052774E+03  0.47000000000E+01 0. -1.
         25    2    1    2    0    0  0.35699111148E+02  0.11474313409E+03 -0.11970371098E+03  0.21069646160E+03  0.12499442848E+03 0.  0.
         25    2    1    2    0    0 -0.35699111148E+02 -0.11474313409E+03 -0.93423164306E+02  0.19695570705E+03  0.12499299801E+03 0.  0.
          5    1    3    3  502    0  0.21305358253E+02 -0.24797531064E+02 -0.22544041134E+02  0.39989493968E+02  0.47000000000E+01 0. -1.
         -5    1    3    3    0  502  0.14393752895E+02  0.13954066516E+03 -0.97159669844E+02  0.17070696763E+03  0.47000000000E+01 0. -1.
          5    1    4    4  503    0  0.45583834890E+02 -0.58797464598E+02 -0.37717984848E+02  0.83544983258E+02  0.47000000000E+01 0.  1.
         -5    1    4    4    0  503 -0.81282946038E+02 -0.55945669494E+02 -0.55705179458E+02  0.11341072379E+03  0.47000000000E+01 0.  1.
<mgrwt>
<rscale>  0 0.17338954E+03</rscale>
<asrwt>0</asrwt>
<pdfrwt beam="1">  1        5 0.14963484E-01 0.17338979E+03</pdfrwt>
<pdfrwt beam="2">  1       -5 0.47752234E-01 0.17338979E+03</pdfrwt>
<totfact> 0.12819897E+02</totfact>
</mgrwt>
</event>
<event>
 8    1  0.3573290E-007  0.1369454E+03  0.7546771E-02  0.1217507E+00
         -5   -1    0    0    0  501 -0.00000000000E+00  0.00000000000E+00  0.17771360254E+02  0.18382362342E+02  0.47000000000E+01 0. -1.
          5   -1    0    0  501    0  0.00000000000E+00 -0.00000000000E+00 -0.11640570319E+04  0.11640665202E+04  0.47000000000E+01 0. -1.
         25    2    1    2    0    0 -0.42955990441E+01 -0.55785319494E+02 -0.37766128227E+03  0.40172390317E+03  0.12499438474E+03 0.  0.
         25    2    1    2    0    0  0.42955990441E+01  0.55785319494E+02 -0.76862438938E+03  0.78072497940E+03  0.12497034632E+03 0.  0.
          5    1    3    3  502    0  0.53591397090E+02 -0.19610365951E+02 -0.95198264682E+02  0.11109187141E+03  0.47000000000E+01 0.  1.
         -5    1    3    3    0  502 -0.57886996134E+02 -0.36174953543E+02 -0.28246301758E+03  0.29063203176E+03  0.47000000000E+01 0.  1.
          5    1    4    4  503    0 -0.39617968432E+02  0.61104762830E+02 -0.25669685876E+03  0.26686839970E+03  0.47000000000E+01 0. -1.
         -5    1    4    4    0  503  0.43913567476E+02 -0.53194433363E+01 -0.51192753062E+03  0.51385657970E+03  0.47000000000E+01 0. -1.
<mgrwt>
<rscale>  0 0.13693994E+03</rscale>
<asrwt>0</asrwt>
<pdfrwt beam="2">  1        5 0.17913337E+00 0.13694543E+03</pdfrwt>
<pdfrwt beam="1">  1       -5 0.27817864E-02 0.13694543E+03</pdfrwt>
<totfact> 0.83430856E+01</totfact>
</mgrwt>
</event>
<event>
 8    1  0.3573290E-007  0.1396146E+03  0.7546771E-02  0.1213852E+00
         -5   -1    0    0    0  501 -0.00000000000E+00  0.00000000000E+00  0.58448384816E+02  0.58637050468E+02  0.47000000000E+01 0.  1.
          5   -1    0    0  501    0  0.00000000000E+00 -0.00000000000E+00 -0.33885084019E+03  0.33888343409E+03  0.47000000000E+01 0.  1.
         25    2    1    2    0    0  0.59637308671E+02 -0.17632042976E+02 -0.11349967861E+03  0.17992889950E+03  0.12499893722E+03 0.  0.
         25    2    1    2    0    0 -0.59637308671E+02  0.17632042976E+02 -0.16690277677E+03  0.21759158505E+03  0.12498825332E+03 0.  0.
          5    1    4    4  502    0  0.24292350343E+01  0.49199459363E+02 -0.17143901787E+02  0.52368801332E+02  0.47000000000E+01 0. -1.
         -5    1    4    4    0  502 -0.62066543705E+02 -0.31567416387E+02 -0.14975887498E+03  0.16522278372E+03  0.47000000000E+01 0. -1.
          5    1    3    3  503    0 -0.60921649489E+01 -0.27374420265E+02 -0.10956991854E+03  0.11319951593E+03  0.47000000000E+01 0.  1.
         -5    1    3    3    0  503  0.65729473620E+02  0.97423772891E+01 -0.39297600687E+01  0.66729383571E+02  0.47000000000E+01 0.  1.
<mgrwt>
<rscale>  0 0.13961219E+03</rscale>
<asrwt>0</asrwt>
<pdfrwt beam="2">  1        5 0.52147917E-01 0.13961458E+03</pdfrwt>
<pdfrwt beam="1">  1       -5 0.90090793E-02 0.13961458E+03</pdfrwt>
<totfact> 0.24389601E+02</totfact>
</mgrwt>
</event>
<event>
 8    1  0.3573290E-007  0.1297019E+03  0.7546771E-02  0.1227905E+00
         -5   -1    0    0    0  501 -0.00000000000E+00  0.00000000000E+00  0.89868510188E+02  0.89991328045E+02  0.47000000000E+01 0. -1.
          5   -1    0    0  501    0  0.00000000000E+00 -0.00000000000E+00 -0.18689130122E+03  0.18695039040E+03  0.47000000000E+01 0. -1.
         25    2    1    2    0    0 -0.21257361731E+02 -0.27201892985E+02 -0.49163145704E+02  0.13870689018E+03  0.12502307019E+03 0.  0.
         25    2    1    2    0    0  0.21257361731E+02  0.27201892985E+02 -0.47859645329E+02  0.13823482827E+03  0.12500601460E+03 0.  0.
          5    1    4    4  502    0 -0.43414911340E+01  0.34630354581E+02 -0.85156995727E+02  0.92151581240E+02  0.47000000000E+01 0. -1.
         -5    1    4    4    0  502  0.25598852865E+02 -0.74284615960E+01  0.37297350399E+02  0.46083247026E+02  0.47000000000E+01 0. -1.
          5    1    3    3  503    0 -0.41767483813E+02  0.26296017394E+02  0.15728017504E+02  0.52014072802E+02  0.47000000000E+01 0.  1.
         -5    1    3    3    0  503  0.20510122083E+02 -0.53497910379E+02 -0.64891163208E+02  0.86692817380E+02  0.47000000000E+01 0.  1.
<mgrwt>
<rscale>  0 0.12969780E+03</rscale>
<asrwt>0</asrwt>
<pdfrwt beam="2">  1        5 0.28766500E-01 0.12970191E+03</pdfrwt>
<pdfrwt beam="1">  1       -5 0.13839918E-01 0.12970191E+03</pdfrwt>
<totfact> 0.37485070E+02</totfact>
</mgrwt>
</event>
<event>
 8    1  0.3573290E-007  0.1254612E+03  0.7546771E-02  0.1234352E+00
          5   -1    0    0  501    0  0.00000000000E+00  0.00000000000E+00  0.10006664381E+02  0.11055466161E+02  0.47000000000E+01 0.  1.
         -5   -1    0    0    0  501 -0.00000000000E+00 -0.00000000000E+00 -0.15712599314E+04  0.15712669608E+04  0.47000000000E+01 0.  1.
         25    2    1    2    0    0  0.94854443382E+00 -0.10687249727E+02 -0.95649693548E+03  0.96469005453E+03  0.12500158668E+03 0.  0.
         25    2    1    2    0    0 -0.94854443382E+00  0.10687249727E+02 -0.60475633156E+03  0.61763237243E+03  0.12499763946E+03 0.  0.
          5    1    4    4  502    0  0.35409614564E+01 -0.35549069421E+01  0.44729277685E+01  0.82020030618E+01  0.47000000000E+01 0.  1.
         -5    1    4    4    0  502 -0.44895058902E+01  0.14242156669E+02 -0.60922925933E+03  0.60943036937E+03  0.47000000000E+01 0.  1.
          5    1    3    3  503    0  0.31007249381E+02 -0.52238102513E+02 -0.72393336395E+03  0.72649285909E+03  0.47000000000E+01 0. -1.
         -5    1    3    3    0  503 -0.30058704947E+02  0.41550852787E+02 -0.23256357154E+03  0.23819719544E+03  0.47000000000E+01 0. -1.
<mgrwt>
<rscale>  0 0.12546022E+03</rscale>
<asrwt>0</asrwt>
<pdfrwt beam="1">  1        5 0.16207059E-02 0.12546120E+03</pdfrwt>
<pdfrwt beam="2">  1       -5 0.24181333E+00 0.12546120E+03</pdfrwt>
<totfact> 0.73436275E+01</totfact>
</mgrwt>
</event>
<event>
 8    1  0.3573290E-007  0.1425319E+03  0.7546771E-02  0.1209966E+00
          5   -1    0    0  501    0  0.00000000000E+00  0.00000000000E+00  0.23059053213E+03  0.23063842592E+03  0.47000000000E+01 0.  1.
         -5   -1    0    0    0  501 -0.00000000000E+00 -0.00000000000E+00 -0.88016779668E+02  0.88142177776E+02  0.47000000000E+01 0.  1.
         25    2    1    2    0    0  0.67951829052E+02  0.83605559005E+01  0.74765983405E+02  0.16095125088E+03  0.12501201110E+03 0.  0.
         25    2    1    2    0    0 -0.67951829052E+02 -0.83605559005E+01  0.67807769061E+02  0.15782935281E+03  0.12499944439E+03 0.  0.
          5    1    4    4  502    0 -0.45492560939E+02  0.42632433077E+02  0.79055436102E+02  0.10079161388E+03  0.47000000000E+01 0. -1.
         -5    1    4    4    0  502 -0.22459268112E+02 -0.50992988977E+02 -0.11247667042E+02  0.57037738935E+02  0.47000000000E+01 0. -1.
          5    1    3    3  503    0 -0.31844433516E+02  0.21468650246E+02  0.64831130607E+01  0.39231258511E+02  0.47000000000E+01 0. -1.
         -5    1    3    3    0  503  0.99796262568E+02 -0.13108094346E+02  0.68282870345E+02  0.12171999237E+03  0.47000000000E+01 0. -1.
<mgrwt>
<rscale>  0 0.14252918E+03</rscale>
<asrwt>0</asrwt>
<pdfrwt beam="1">  1        5 0.35488796E-01 0.14253194E+03</pdfrwt>
<pdfrwt beam="2">  1       -5 0.13554373E-01 0.14253194E+03</pdfrwt>
<totfact> 0.26538178E+02</totfact>
</mgrwt>
</event>
<event>
 8    1  0.3573290E-007  0.1291573E+03  0.7546771E-02  0.1228718E+00
          5   -1    0    0  501    0  0.00000000000E+00  0.00000000000E+00  0.26161537518E+02  0.26580369548E+02  0.47000000000E+01 0. -1.
         -5   -1    0    0    0  501 -0.00000000000E+00 -0.00000000000E+00 -0.63942423786E+03  0.63944151097E+03  0.47000000000E+01 0. -1.
         25    2    1    2    0    0 -0.77976986884E+01 -0.31549013888E+02 -0.34231753143E+03  0.36586708960E+03  0.12498516130E+03 0.  0.
         25    2    1    2    0    0  0.77976986884E+01  0.31549013888E+02 -0.27094516891E+03  0.30015479092E+03  0.12500187830E+03 0.  0.
          5    1    3    3  502    0 -0.53251139553E+02  0.12269010856E+02 -0.87230544762E+02  0.10304111039E+03  0.47000000000E+01 0.  1.
         -5    1    3    3    0  502  0.45453440865E+02 -0.43818024743E+02 -0.25508698667E+03  0.26282597921E+03  0.47000000000E+01 0.  1.
          5    1    4    4  503    0  0.11697733706E+02  0.55021228964E+02 -0.27004807277E+03  0.27588443997E+03  0.47000000000E+01 0. -1.
         -5    1    4    4    0  503 -0.39000350179E+01 -0.23472215076E+02 -0.89709613181E+00  0.24270350949E+02  0.47000000000E+01 0. -1.
<mgrwt>
<rscale>  0 0.12915328E+03</rscale>
<asrwt>0</asrwt>
<pdfrwt beam="1">  1        5 0.40583989E-02 0.12915732E+03</pdfrwt>
<pdfrwt beam="2">  1       -5 0.98406495E-01 0.12915732E+03</pdfrwt>
<totfact> 0.21534718E+02</totfact>
</mgrwt>
</event>
<event>
 8    1  0.3573290E-007  0.1607738E+03  0.7546771E-02  0.1187828E+00
          5   -1    0    0  501    0  0.00000000000E+00  0.00000000000E+00  0.58218081069E+03  0.58219978215E+03  0.47000000000E+01 0. -1.
         -5   -1    0    0    0  501 -0.00000000000E+00 -0.00000000000E+00 -0.13312298512E+03  0.13320592767E+03  0.47000000000E+01 0. -1.
         25    2    1    2    0    0  0.77146943423E+02  0.65352076647E+02 -0.67529676698E+02  0.17438029673E+03  0.12500274337E+03 0.  0.
         25    2    1    2    0    0 -0.77146943423E+02 -0.65352076647E+02  0.51658750227E+03  0.54102541310E+03  0.12499322105E+03 0.  0.
          5    1    4    4  502    0 -0.78428099966E+02 -0.30038515365E+02  0.48837041169E+03  0.49556132646E+03  0.47000000000E+01 0.  1.
         -5    1    4    4    0  502  0.12811565435E+01 -0.35313561282E+02  0.28217090583E+02  0.45464086634E+02  0.47000000000E+01 0.  1.
          5    1    3    3  503    0 -0.18141302286E+02 -0.17991415951E+02 -0.35003069458E+02  0.43590168250E+02  0.47000000000E+01 0.  1.
         -5    1    3    3    0  503  0.95288245709E+02  0.83343492597E+02 -0.32526607240E+02  0.13079012848E+03  0.47000000000E+01 0.  1.
<mgrwt>
<rscale>  0 0.16077200E+03</rscale>
<asrwt>0</asrwt>
<pdfrwt beam="1">  1        5 0.89574118E-01 0.16077385E+03</pdfrwt>
<pdfrwt beam="2">  1       -5 0.20488299E-01 0.16077385E+03</pdfrwt>
<totfact> 0.17212127E+01</totfact>
</mgrwt>
</event>
<event>
 8    1  0.3573290E-007  0.1494034E+03  0.7546771E-02  0.1201213E+00
         -5   -1    0    0    0  501 -0.00000000000E+00  0.00000000000E+00  0.81465046628E+02  0.81600513614E+02  0.47000000000E+01 0.  1.
          5   -1    0    0  501    0  0.00000000000E+00 -0.00000000000E+00 -0.56928422602E+03  0.56930362724E+03  0.47000000000E+01 0.  1.
         25    2    1    2    0    0  0.73536839920E+02  0.35824061989E+02 -0.93817920696E+01  0.14968193828E+03  0.12500253751E+03 0.  0.
         25    2    1    2    0    0 -0.73536839920E+02 -0.35824061989E+02 -0.47843738732E+03  0.50122220257E+03  0.12502132828E+03 0.  0.
          5    1    3    3  502    0  0.27327954935E+02  0.80365824754E+02 -0.65345162118E+01  0.85265894774E+02  0.47000000000E+01 0.  1.
         -5    1    3    3    0  502  0.46208884985E+02 -0.44541762765E+02 -0.28472758578E+01  0.64416043511E+02  0.47000000000E+01 0.  1.
          5    1    4    4  503    0 -0.41185065739E+02 -0.55406772163E+02 -0.44553232049E+03  0.45087388330E+03  0.47000000000E+01 0.  1.
         -5    1    4    4    0  503 -0.32351774182E+02  0.19582710173E+02 -0.32905066828E+02  0.50348319271E+02  0.47000000000E+01 0.  1.
<mgrwt>
<rscale>  0 0.14939942E+03</rscale>
<asrwt>0</asrwt>
<pdfrwt beam="2">  1        5 0.87594099E-01 0.14940336E+03</pdfrwt>
<pdfrwt beam="1">  1       -5 0.12544997E-01 0.14940336E+03</pdfrwt>
<totfact> 0.43547604E+01</totfact>
</mgrwt>
</event>
<event>
 8    1  0.3573290E-007  0.1426300E+03  0.7546771E-02  0.1209835E+00
         -5   -1    0    0    0  501 -0.00000000000E+00  0.00000000000E+00  0.14855597034E+03  0.14863030083E+03  0.47000000000E+01 0. -1.
          5   -1    0    0  501    0  0.00000000000E+00 -0.00000000000E+00 -0.14052950598E+03  0.14060807961E+03  0.47000000000E+01 0. -1.
         25    2    1    2    0    0  0.14954845778E+02 -0.67038406370E+02 -0.19578607171E+02  0.14396152519E+03  0.12499521405E+03 0.  0.
         25    2    1    2    0    0 -0.14954845778E+02  0.67038406370E+02  0.27605071534E+02  0.14527685524E+03  0.12500211740E+03 0.  0.
          5    1    4    4  502    0  0.91688540267E+01  0.99150701546E+02  0.31769974676E+02  0.10462480964E+03  0.47000000000E+01 0.  1.
         -5    1    4    4    0  502 -0.24123699805E+02 -0.32112295176E+02 -0.41649031424E+01  0.40652045605E+02  0.47000000000E+01 0.  1.
          5    1    3    3  503    0  0.36494078912E+02  0.16165170015E+02 -0.38694492804E+02  0.55789643220E+02  0.47000000000E+01 0. -1.
         -5    1    3    3    0  503 -0.21539233134E+02 -0.83203576385E+02  0.19115885633E+02  0.88171881974E+02  0.47000000000E+01 0. -1.
<mgrwt>
<rscale>  0 0.14262851E+03</rscale>
<asrwt>0</asrwt>
<pdfrwt beam="2">  1        5 0.21631686E-01 0.14263003E+03</pdfrwt>
<pdfrwt beam="1">  1       -5 0.22866527E-01 0.14263003E+03</pdfrwt>
<totfact> 0.26513918E+02</totfact>
</mgrwt>
</event>
<event>
 8    1  0.3573290E-007  0.1403011E+03  0.7546771E-02  0.1212930E+00
         -5   -1    0    0    0  501 -0.00000000000E+00  0.00000000000E+00  0.67760083330E+02  0.67922889315E+02  0.47000000000E+01 0.  1.
          5   -1    0    0  501    0  0.00000000000E+00 -0.00000000000E+00 -0.30124214083E+03  0.30127880345E+03  0.47000000000E+01 0.  1.
         25    2    1    2    0    0  0.57217390379E+02 -0.27958241744E+02 -0.81001310196E+02  0.16200496031E+03  0.12501560649E+03 0.  0.
         25    2    1    2    0    0 -0.57217390379E+02  0.27958241744E+02 -0.15248074730E+03  0.20719673246E+03  0.12499845840E+03 0.  0.
          5    1    4    4  502    0  0.17033552311E+02  0.19310156451E+02 -0.12452982819E+03  0.12725090237E+03  0.47000000000E+01 0. -1.
         -5    1    4    4    0  502 -0.74250942690E+02  0.86480852923E+01 -0.27950919116E+02  0.79945830091E+02  0.47000000000E+01 0. -1.
          5    1    3    3  503    0 -0.91516580023E+01 -0.62425728219E+02 -0.23268512338E+02  0.67410963903E+02  0.47000000000E+01 0.  1.
         -5    1    3    3    0  503  0.66369048381E+02  0.34467486476E+02 -0.57732797858E+02  0.94593996403E+02  0.47000000000E+01 0.  1.
<mgrwt>
<rscale>  0 0.14029727E+03</rscale>
<asrwt>0</asrwt>
<pdfrwt beam="2">  1        5 0.46360287E-01 0.14030109E+03</pdfrwt>
<pdfrwt beam="1">  1       -5 0.10439972E-01 0.14030109E+03</pdfrwt>
<totfact> 0.24236218E+02</totfact>
</mgrwt>
</event>
<event>
 8    1  0.3573290E-007  0.1503774E+03  0.7546771E-02  0.1200013E+00
          5   -1    0    0  501    0  0.00000000000E+00  0.00000000000E+00  0.10355823236E+03  0.10366483247E+03  0.47000000000E+01 0.  1.
         -5   -1    0    0    0  501 -0.00000000000E+00 -0.00000000000E+00 -0.21833911373E+03  0.21838969432E+03  0.47000000000E+01 0.  1.
         25    2    1    2    0    0  0.80172388925E+02 -0.23548842822E+02 -0.62686246740E+02  0.16292003248E+03  0.12502484357E+03 0.  0.
         25    2    1    2    0    0 -0.80172388925E+02  0.23548842822E+02 -0.52094634625E+02  0.15913449430E+03  0.12501110501E+03 0.  0.
          5    1    3    3  502    0  0.59433034698E+02  0.47403124684E+02 -0.28264473316E+02  0.81242306067E+02  0.47000000000E+01 0.  1.
         -5    1    3    3    0  502  0.20739354227E+02 -0.70951967506E+02 -0.34421773424E+02  0.81677726415E+02  0.47000000000E+01 0.  1.
          5    1    4    4  503    0  0.23040459700E+02  0.74972065211E+01 -0.48610334374E+02  0.54517203677E+02  0.47000000000E+01 0. -1.
         -5    1    4    4    0  503 -0.10321284863E+03  0.16051636301E+02 -0.34843002511E+01  0.10461729062E+03  0.47000000000E+01 0. -1.
<mgrwt>
<rscale>  0 0.15037457E+03</rscale>
<asrwt>0</asrwt>
<pdfrwt beam="1">  1        5 0.15944127E-01 0.15037743E+03</pdfrwt>
<pdfrwt beam="2">  1       -5 0.33602724E-01 0.15037743E+03</pdfrwt>
<totfact> 0.22470029E+02</totfact>
</mgrwt>
</event>
<event>
 8    1  0.3573290E-007  0.1310544E+03  0.7546771E-02  0.1225924E+00
         -5   -1    0    0    0  501 -0.00000000000E+00  0.00000000000E+00  0.90531698799E+02  0.90653618171E+02  0.47000000000E+01 0. -1.
          5   -1    0    0  501    0  0.00000000000E+00 -0.00000000000E+00 -0.21397745276E+03  0.21402906412E+03  0.47000000000E+01 0. -1.
         25    2    1    2    0    0 -0.73297839730E+01  0.38436961576E+02 -0.10064611332E+02  0.13144031688E+03  0.12507651559E+03 0.  0.
         25    2    1    2    0    0  0.73297839730E+01 -0.38436961576E+02 -0.11338114263E+03  0.17324236541E+03  0.12500603154E+03 0.  0.
          5    1    3    3  502    0  0.11759158165E+01  0.66257739040E+02  0.36900855315E+02  0.75994959594E+02  0.47000000000E+01 0. -1.
         -5    1    3    3    0  502 -0.85056997894E+01 -0.27820777463E+02 -0.46965466647E+02  0.55445357289E+02  0.47000000000E+01 0. -1.
          5    1    4    4  503    0  0.56532321860E+02  0.73154085905E+01 -0.79253946746E+02  0.97737897934E+02  0.47000000000E+01 0.  1.
         -5    1    4    4    0  503 -0.49202537887E+02 -0.45752370167E+02 -0.34127195884E+02  0.75504467479E+02  0.47000000000E+01 0.  1.
<mgrwt>
<rscale>  0 0.13103760E+03</rscale>
<asrwt>0</asrwt>
<pdfrwt beam="2">  1        5 0.32932956E-01 0.13105442E+03</pdfrwt>
<pdfrwt beam="1">  1       -5 0.13941302E-01 0.13105442E+03</pdfrwt>
<totfact> 0.28461053E+02</totfact>
</mgrwt>
</event>
<event>
 8    1  0.3573290E-007  0.1317251E+03  0.7546771E-02  0.1224918E+00
         -5   -1    0    0    0  501 -0.00000000000E+00  0.00000000000E+00  0.27899583475E+03  0.27903542034E+03  0.47000000000E+01 0. -1.
          5   -1    0    0  501    0  0.00000000000E+00 -0.00000000000E+00 -0.68777242284E+02  0.68937646146E+02  0.47000000000E+01 0. -1.
         25    2    1    2    0    0 -0.11648939445E+00 -0.41542831230E+02  0.15940262138E+03  0.20678659581E+03  0.12500272040E+03 0.  0.
         25    2    1    2    0    0  0.11648939445E+00  0.41542831230E+02  0.50815971083E+02  0.14118647068E+03  0.12500214474E+03 0.  0.
          5    1    4    4  502    0 -0.30821595366E+02  0.64657346991E+02  0.67797386275E+02  0.98737626296E+02  0.47000000000E+01 0.  1.
         -5    1    4    4    0  502  0.30938084760E+02 -0.23114515761E+02 -0.16981415193E+02  0.42448844383E+02  0.47000000000E+01 0.  1.
          5    1    3    3  503    0 -0.34708141431E+02 -0.70190930996E+02  0.64016314468E+02  0.10125018713E+03  0.47000000000E+01 0. -1.
         -5    1    3    3    0  503  0.34591652036E+02  0.28648099766E+02  0.95386306912E+02  0.10553640868E+03  0.47000000000E+01 0. -1.
<mgrwt>
<rscale>  0 0.13172496E+03</rscale>
<asrwt>0</asrwt>
<pdfrwt beam="2">  1        5 0.10596498E-01 0.13172509E+03</pdfrwt>
<pdfrwt beam="1">  1       -5 0.42937819E-01 0.13172509E+03</pdfrwt>
<totfact> 0.27105759E+02</totfact>
</mgrwt>
</event>
<event>
 8    1  0.3573290E-007  0.1910839E+03  0.7546771E-02  0.1157487E+00
          5   -1    0    0  501    0  0.00000000000E+00  0.00000000000E+00  0.87462595213E+03  0.87463858030E+03  0.47000000000E+01 0.  1.
         -5   -1    0    0    0  501 -0.00000000000E+00 -0.00000000000E+00 -0.45954077953E+02  0.46193801321E+02  0.47000000000E+01 0.  1.
         25    2    1    2    0    0  0.69751105732E+02 -0.12658040285E+03  0.27304897213E+03  0.33326983210E+03  0.12500089869E+03 0.  0.
         25    2    1    2    0    0 -0.69751105732E+02  0.12658040285E+03  0.55562290206E+03  0.58756254952E+03  0.12500050067E+03 0.  0.
          5    1    3    3  502    0 -0.95671581608E+01 -0.10699724679E+03  0.13259792148E+03  0.17071684192E+03  0.47000000000E+01 0.  1.
         -5    1    3    3    0  502  0.79318263893E+02 -0.19583156066E+02  0.14045105065E+03  0.16255299018E+03  0.47000000000E+01 0.  1.
          5    1    4    4  503    0 -0.63547446491E+02  0.85821757727E+02  0.17772397128E+03  0.20739226606E+03  0.47000000000E+01 0.  1.
         -5    1    4    4    0  503 -0.62036592416E+01  0.40758645128E+02  0.37789893078E+03  0.38017028346E+03  0.47000000000E+01 0.  1.
<mgrwt>
<rscale>  0 0.19108379E+03</rscale>
<asrwt>0</asrwt>
<pdfrwt beam="1">  1        5 0.13457723E+00 0.19108386E+03</pdfrwt>
<pdfrwt beam="2">  1       -5 0.70892707E-02 0.19108386E+03</pdfrwt>
<totfact> 0.43154643E+01</totfact>
</mgrwt>
</event>
<event>
 8    1  0.3573290E-007  0.1429240E+03  0.7546771E-02  0.1209448E+00
         -5   -1    0    0    0  501 -0.00000000000E+00  0.00000000000E+00  0.11152723468E+03  0.11162622485E+03  0.47000000000E+01 0. -1.
          5   -1    0    0  501    0  0.00000000000E+00 -0.00000000000E+00 -0.18313531661E+03  0.18319561728E+03  0.47000000000E+01 0. -1.
         25    2    1    2    0    0  0.11032363309E+02 -0.68419964308E+02 -0.31076113274E+02  0.14626341003E+03  0.12499702293E+03 0.  0.
         25    2    1    2    0    0 -0.11032363309E+02  0.68419964308E+02 -0.40531968660E+02  0.14855843210E+03  0.12499505074E+03 0.  0.
          5    1    4    4  502    0  0.28802544276E+02  0.77515842799E+02  0.99719653678E+01  0.83425550852E+02  0.47000000000E+01 0. -1.
         -5    1    4    4    0  502 -0.39834907585E+02 -0.90958784910E+01 -0.50503934028E+02  0.65132881252E+02  0.47000000000E+01 0. -1.
          5    1    3    3  503    0 -0.12400831774E+02 -0.62800972485E+02 -0.73293721805E+02  0.97425881724E+02  0.47000000000E+01 0. -1.
         -5    1    3    3    0  503  0.23433195082E+02 -0.56189918231E+01  0.42217608530E+02  0.48837528305E+02  0.47000000000E+01 0. -1.
<mgrwt>
<rscale>  0 0.14292354E+03</rscale>
<asrwt>0</asrwt>
<pdfrwt beam="2">  1        5 0.28186917E-01 0.14292397E+03</pdfrwt>
<pdfrwt beam="1">  1       -5 0.17170289E-01 0.14292397E+03</pdfrwt>
<totfact> 0.27277588E+02</totfact>
</mgrwt>
</event>
<event>
 8    1  0.3573290E-007  0.1360689E+03  0.7546771E-02  0.1218719E+00
          5   -1    0    0  501    0  0.00000000000E+00  0.00000000000E+00  0.63911788546E+02  0.64084371848E+02  0.47000000000E+01 0.  1.
         -5   -1    0    0    0  501 -0.00000000000E+00 -0.00000000000E+00 -0.28940866890E+03  0.28944683041E+03  0.47000000000E+01 0.  1.
         25    2    1    2    0    0 -0.23360360659E+02 -0.48411901422E+02 -0.11847088045E+03  0.18041473688E+03  0.12499883648E+03 0.  0.
         25    2    1    2    0    0  0.23360360659E+02  0.48411901422E+02 -0.10702599991E+03  0.17311646538E+03  0.12500130911E+03 0.  0.
          5    1    3    3  502    0 -0.54393713259E+02 -0.57630371087E+02 -0.27946273427E+02  0.84160679133E+02  0.47000000000E+01 0.  1.
         -5    1    3    3    0  502  0.31033352601E+02  0.92184696650E+01 -0.90524607023E+02  0.96254057750E+02  0.47000000000E+01 0.  1.
          5    1    4    4  503    0  0.38313063013E+02  0.33009717185E+02  0.11909754120E+02  0.52167657311E+02  0.47000000000E+01 0. -1.
         -5    1    4    4    0  503 -0.14952702355E+02  0.15402184237E+02 -0.11893575403E+03  0.12094880807E+03  0.47000000000E+01 0. -1.
<mgrwt>
<rscale>  0 0.13606833E+03</rscale>
<asrwt>0</asrwt>
<pdfrwt beam="1">  1        5 0.98487941E-02 0.13606890E+03</pdfrwt>
<pdfrwt beam="2">  1       -5 0.44540621E-01 0.13606890E+03</pdfrwt>
<totfact> 0.28871862E+02</totfact>
</mgrwt>
</event>
<event>
 8    1  0.3573290E-007  0.3109429E+03  0.7546771E-02  0.1079895E+00
         -5   -1    0    0    0  501 -0.00000000000E+00  0.00000000000E+00  0.15671569279E+03  0.15678615490E+03  0.47000000000E+01 0.  1.
          5   -1    0    0  501    0  0.00000000000E+00 -0.00000000000E+00 -0.66485000540E+03  0.66486661796E+03  0.47000000000E+01 0.  1.
         25    2    1    2    0    0 -0.24606953662E+03 -0.14321742327E+03 -0.14354435988E+03  0.34247503633E+03  0.12499087996E+03 0.  0.
         25    2    1    2    0    0  0.24606953662E+03  0.14321742327E+03 -0.36458995272E+03  0.47917773653E+03  0.12499608945E+03 0.  0.
          5    1    3    3  502    0 -0.92052614540E+01 -0.16235472282E+02 -0.56888786250E+02  0.60056235310E+02  0.47000000000E+01 0.  1.
         -5    1    3    3    0  502 -0.23686427517E+03 -0.12698195099E+03 -0.86655573630E+02  0.28241880102E+03  0.47000000000E+01 0.  1.
          5    1    4    4  503    0  0.10055418536E+03  0.93999956329E+02 -0.25698768726E+03  0.29156799787E+03  0.47000000000E+01 0. -1.
         -5    1    4    4    0  503  0.14551535126E+03  0.49217466941E+02 -0.10760226547E+03  0.18760973866E+03  0.47000000000E+01 0. -1.
<mgrwt>
<rscale>  0 0.31094235E+03</rscale>
<asrwt>0</asrwt>
<pdfrwt beam="2">  1        5 0.10229131E+00 0.31094287E+03</pdfrwt>
<pdfrwt beam="1">  1       -5 0.24116805E-01 0.31094287E+03</pdfrwt>
<totfact> 0.10593786E+01</totfact>
</mgrwt>
</event>
<event>
 8    1  0.3573290E-007  0.1319525E+03  0.7546771E-02  0.1224593E+00
         -5   -1    0    0    0  501 -0.00000000000E+00  0.00000000000E+00  0.59009367554E+02  0.59196245312E+02  0.47000000000E+01 0.  1.
          5   -1    0    0  501    0  0.00000000000E+00 -0.00000000000E+00 -0.29590078350E+03  0.29593810784E+03  0.47000000000E+01 0.  1.
         25    2    1    2    0    0  0.21011632518E+02 -0.36590488133E+02 -0.10562479543E+03  0.16902091156E+03  0.12502447206E+03 0.  0.
         25    2    1    2    0    0 -0.21011632518E+02  0.36590488133E+02 -0.13126662051E+03  0.18611344159E+03  0.12500773959E+03 0.  0.
          5    1    3    3  502    0  0.30021159245E+02 -0.31914522342E+02  0.16000802890E+02  0.46882005416E+02  0.47000000000E+01 0. -1.
         -5    1    3    3    0  502 -0.90095267268E+01 -0.46759657912E+01 -0.12162559832E+03  0.12213890614E+03  0.47000000000E+01 0. -1.
          5    1    4    4  503    0 -0.69553923755E+02 -0.16973812227E+01 -0.64357010557E+02  0.94892276928E+02  0.47000000000E+01 0.  1.
         -5    1    4    4    0  503  0.48542291238E+02  0.38287869356E+02 -0.66909609958E+02  0.91221164666E+02  0.47000000000E+01 0.  1.
<mgrwt>
<rscale>  0 0.13194857E+03</rscale>
<asrwt>0</asrwt>
<pdfrwt beam="2">  1        5 0.45540443E-01 0.13195253E+03</pdfrwt>
<pdfrwt beam="1">  1       -5 0.90956108E-02 0.13195253E+03</pdfrwt>
<totfact> 0.31316909E+02</totfact>
</mgrwt>
</event>
<event>
 8    1  0.3573290E-007  0.1413242E+03  0.7546771E-02  0.1211566E+00
          5   -1    0    0  501    0  0.00000000000E+00  0.00000000000E+00  0.42770311211E+03  0.42772893531E+03  0.47000000000E+01 0. -1.
         -5   -1    0    0    0  501 -0.00000000000E+00 -0.00000000000E+00 -0.50226396040E+02  0.50445821028E+02  0.47000000000E+01 0. -1.
         25    2    1    2    0    0  0.48969584742E+02 -0.44081770977E+02  0.12414521273E+03  0.18808965277E+03  0.12499784347E+03 0.  0.
         25    2    1    2    0    0 -0.48969584742E+02  0.44081770977E+02  0.25333150333E+03  0.29008510357E+03  0.12502517335E+03 0.  0.
          5    1    3    3  502    0 -0.17185181716E+02 -0.44454353426E+00  0.10489638993E+03  0.10639958041E+03  0.47000000000E+01 0. -1.
         -5    1    3    3    0  502  0.66154766458E+02 -0.43637227442E+02  0.19248822801E+02  0.81690072366E+02  0.47000000000E+01 0. -1.
          5    1    4    4  503    0 -0.12499601457E+02  0.78452045606E+02  0.20662194667E+03  0.22141743911E+03  0.47000000000E+01 0.  1.
         -5    1    4    4    0  503 -0.36469983285E+02 -0.34370274629E+02  0.46709556660E+02  0.68667664459E+02  0.47000000000E+01 0.  1.
<mgrwt>
<rscale>  0 0.14131811E+03</rscale>
<asrwt>0</asrwt>
<pdfrwt beam="1">  1        5 0.65819347E-01 0.14132415E+03</pdfrwt>
<pdfrwt beam="2">  1       -5 0.77460028E-02 0.14132415E+03</pdfrwt>
<totfact> 0.19116128E+02</totfact>
</mgrwt>
</event>
<event>
 8    1  0.3573290E-007  0.1362690E+03  0.7546771E-02  0.1218441E+00
         -5   -1    0    0    0  501 -0.00000000000E+00  0.00000000000E+00  0.57170462756E+02  0.57363331596E+02  0.47000000000E+01 0. -1.
          5   -1    0    0  501    0  0.00000000000E+00 -0.00000000000E+00 -0.32519985783E+03  0.32523381978E+03  0.47000000000E+01 0. -1.
         25    2    1    2    0    0 -0.20490732094E+02 -0.50240182395E+02 -0.12259258129E+03  0.18329808884E+03  0.12500120941E+03 0.  0.
         25    2    1    2    0    0  0.20490732094E+02  0.50240182395E+02 -0.14543681377E+03  0.19929906254E+03  0.12499721397E+03 0.  0.
          5    1    3    3  502    0  0.19801247843E+02 -0.56413990786E+02 -0.66875744588E+01  0.60344357024E+02  0.47000000000E+01 0.  1.
         -5    1    3    3    0  502 -0.40291979937E+02  0.61738083907E+01 -0.11590500684E+03  0.12295373181E+03  0.47000000000E+01 0.  1.
          5    1    4    4  503    0  0.60713648873E+02  0.44985749716E+02 -0.13855022955E+03  0.15788641786E+03  0.47000000000E+01 0.  1.
         -5    1    4    4    0  503 -0.40222916779E+02  0.52544326793E+01 -0.68865842263E+01  0.41412644679E+02  0.47000000000E+01 0.  1.
<mgrwt>
<rscale>  0 0.13626811E+03</rscale>
<asrwt>0</asrwt>
<pdfrwt beam="2">  1        5 0.50048195E-01 0.13626903E+03</pdfrwt>
<pdfrwt beam="1">  1       -5 0.88129045E-02 0.13626903E+03</pdfrwt>
<totfact> 0.27424472E+02</totfact>
</mgrwt>
</event>
<event>
 8    1  0.3573290E-007  0.1537104E+03  0.7546771E-02  0.1195995E+00
         -5   -1    0    0    0  501 -0.00000000000E+00  0.00000000000E+00  0.88279139318E+03  0.88280390454E+03  0.47000000000E+01 0.  1.
          5   -1    0    0  501    0  0.00000000000E+00 -0.00000000000E+00 -0.29300418293E+02  0.29674981249E+02  0.47000000000E+01 0.  1.
         25    2    1    2    0    0  0.70823005929E+02 -0.54570692049E+02  0.56586138817E+03  0.58636676819E+03  0.12503206639E+03 0.  0.
         25    2    1    2    0    0 -0.70823005929E+02  0.54570692049E+02  0.28762958672E+03  0.32611211760E+03  0.12499790193E+03 0.  0.
          5    1    3    3  502    0  0.90613846308E+02 -0.70240104516E+02  0.52988822095E+03  0.54216986095E+03  0.47000000000E+01 0. -1.
         -5    1    3    3    0  502 -0.19790840379E+02  0.15669412467E+02  0.35973167217E+02  0.44196907240E+02  0.47000000000E+01 0. -1.
          5    1    4    4  503    0 -0.90902075224E+02  0.14941935252E+02  0.25389690689E+03  0.27013362997E+03  0.47000000000E+01 0. -1.
         -5    1    4    4    0  503  0.20079069295E+02  0.39628756797E+02  0.33732679828E+02  0.55978487630E+02  0.47000000000E+01 0. -1.
<mgrwt>
<rscale>  0 0.15370342E+03</rscale>
<asrwt>0</asrwt>
<pdfrwt beam="2">  1        5 0.45375322E-02 0.15371036E+03</pdfrwt>
<pdfrwt beam="1">  1       -5 0.13584382E+00 0.15371036E+03</pdfrwt>
<totfact> 0.83928163E+01</totfact>
</mgrwt>
</event>
<event>
 8    1  0.3573290E-007  0.1317053E+03  0.7546771E-02  0.1224949E+00
         -5   -1    0    0    0  501 -0.00000000000E+00  0.00000000000E+00  0.12360342157E+03  0.12369274766E+03  0.47000000000E+01 0. -1.
          5   -1    0    0  501    0  0.00000000000E+00 -0.00000000000E+00 -0.15412435439E+03  0.15419600065E+03  0.47000000000E+01 0. -1.
         25    2    1    2    0    0 -0.37128310528E+02 -0.18319828636E+02  0.26550269451E+02  0.13435475454E+03  0.12502861951E+03 0.  0.
         25    2    1    2    0    0  0.37128310528E+02  0.18319828636E+02 -0.57071202270E+02  0.14353399377E+03  0.12502302858E+03 0.  0.
          5    1    3    3  502    0 -0.53977954149E+02  0.29677272549E+01 -0.36601740524E+02  0.65453833720E+02  0.47000000000E+01 0. -1.
         -5    1    3    3    0  502  0.16849643622E+02 -0.21287555891E+02  0.63152009974E+02  0.68900920820E+02  0.47000000000E+01 0. -1.
          5    1    4    4  503    0  0.12564326355E+02  0.62787365951E+02  0.35489415948E+01  0.64302415244E+02  0.47000000000E+01 0.  1.
         -5    1    4    4    0  503  0.24563984173E+02 -0.44467537314E+02 -0.60620143864E+02  0.79231578524E+02  0.47000000000E+01 0.  1.
<mgrwt>
<rscale>  0 0.13170396E+03</rscale>
<asrwt>0</asrwt>
<pdfrwt beam="2">  1        5 0.23723822E-01 0.13170529E+03</pdfrwt>
<pdfrwt beam="1">  1       -5 0.19028293E-01 0.13170529E+03</pdfrwt>
<totfact> 0.30572713E+02</totfact>
</mgrwt>
</event>
<event>
 8    1  0.3573290E-007  0.1275150E+03  0.7546771E-02  0.1231190E+00
          5   -1    0    0  501    0  0.00000000000E+00  0.00000000000E+00  0.21332999838E+04  0.21333051612E+04  0.47000000000E+01 0. -1.
         -5   -1    0    0    0  501 -0.00000000000E+00 -0.00000000000E+00 -0.71381691043E+01  0.85465465634E+01  0.47000000000E+01 0. -1.
         25    2    1    2    0    0  0.21408839822E+02  0.13291086979E+02  0.12446323073E+04  0.12511473012E+04  0.12499998953E+03 0.  0.
         25    2    1    2    0    0 -0.21408839822E+02 -0.13291086979E+02  0.88152950737E+03  0.89070440661E+03  0.12500030468E+03 0.  0.
          5    1    3    3  502    0  0.45924183792E+02  0.59277388448E+02  0.71507843703E+03  0.71901467338E+03  0.47000000000E+01 0.  1.
         -5    1    3    3    0  502 -0.24515343970E+02 -0.45986301469E+02  0.52955387030E+03  0.53213262779E+03  0.47000000000E+01 0.  1.
          5    1    4    4  503    0  0.18015935712E+02  0.26563346875E+02  0.69783812853E+03  0.69859167542E+03  0.47000000000E+01 0. -1.
         -5    1    4    4    0  503 -0.39424775535E+02 -0.39854433854E+02  0.18369137884E+03  0.19211273119E+03  0.47000000000E+01 0. -1.
<mgrwt>
<rscale>  0 0.12751489E+03</rscale>
<asrwt>0</asrwt>
<pdfrwt beam="1">  1        5 0.32830900E+00 0.12751497E+03</pdfrwt>
<pdfrwt beam="2">  1       -5 0.12069139E-02 0.12751497E+03</pdfrwt>
<totfact> 0.33267025E+01</totfact>
</mgrwt>
</event>
<event>
 8    1  0.3573290E-007  0.1681839E+03  0.7546771E-02  0.1179756E+00
          5   -1    0    0  501    0  0.00000000000E+00  0.00000000000E+00  0.31371862472E+03  0.31375382945E+03  0.47000000000E+01 0.  1.
         -5   -1    0    0    0  501 -0.00000000000E+00 -0.00000000000E+00 -0.18777429718E+03  0.18783310859E+03  0.47000000000E+01 0.  1.
         25    2    1    2    0    0 -0.89834641748E+02 -0.67748465266E+02 -0.11788314414E+03  0.20538316932E+03  0.12500277263E+03 0.  0.
         25    2    1    2    0    0  0.89834641748E+02  0.67748465266E+02  0.24382747167E+03  0.29620376872E+03  0.12499887703E+03 0.  0.
          5    1    3    3  502    0  0.25672187151E+02  0.69430861266E+01 -0.36785325650E+02  0.45634612097E+02  0.47000000000E+01 0.  1.
         -5    1    3    3    0  502 -0.11550682890E+03 -0.74691551393E+02 -0.81097818486E+02  0.15974855722E+03  0.47000000000E+01 0.  1.
          5    1    4    4  503    0  0.39860359520E+02 -0.23889140749E+02  0.14518024692E+03  0.15250879779E+03  0.47000000000E+01 0.  1.
         -5    1    4    4    0  503  0.49974282228E+02  0.91637606015E+02  0.98647224752E+02  0.14369497093E+03  0.47000000000E+01 0.  1.
<mgrwt>
<rscale>  0 0.16818314E+03</rscale>
<asrwt>0</asrwt>
<pdfrwt beam="1">  1        5 0.48271636E-01 0.16818386E+03</pdfrwt>
<pdfrwt beam="2">  1       -5 0.28895586E-01 0.16818386E+03</pdfrwt>
<totfact> 0.35954014E+01</totfact>
</mgrwt>
</event>
<event>
 8    1  0.3573290E-007  0.1286710E+03  0.7546771E-02  0.1229443E+00
          5   -1    0    0  501    0  0.00000000000E+00  0.00000000000E+00  0.28275044506E+02  0.28663009992E+02  0.47000000000E+01 0.  1.
         -5   -1    0    0    0  501 -0.00000000000E+00 -0.00000000000E+00 -0.74754735959E+03  0.74756213443E+03  0.47000000000E+01 0.  1.
         25    2    1    2    0    0 -0.89452249516E+01  0.29160464602E+02 -0.54270775303E+03  0.55775257916E+03  0.12500353839E+03 0.  0.
         25    2    1    2    0    0  0.89452249516E+01 -0.29160464602E+02 -0.17656456206E+03  0.21847256527E+03  0.12499946982E+03 0.  0.
          5    1    4    4  502    0 -0.37340581316E+02 -0.59256174359E+02 -0.12171193030E+03  0.14050443833E+03  0.47000000000E+01 0.  1.
         -5    1    4    4    0  502  0.46285806267E+02  0.30095709757E+02 -0.54852631752E+02  0.77968126935E+02  0.47000000000E+01 0.  1.
          5    1    3    3  503    0 -0.63678968714E+02  0.97243970776E+01 -0.20131463756E+03  0.21142196729E+03  0.47000000000E+01 0.  1.
         -5    1    3    3    0  503  0.54733743763E+02  0.19436067524E+02 -0.34139311547E+03  0.34633061187E+03  0.47000000000E+01 0.  1.
<mgrwt>
<rscale>  0 0.12867004E+03</rscale>
<asrwt>0</asrwt>
<pdfrwt beam="1">  1        5 0.43809874E-02 0.12867103E+03</pdfrwt>
<pdfrwt beam="2">  1       -5 0.11503825E+00 0.12867103E+03</pdfrwt>
<totfact> 0.12904742E+02</totfact>
</mgrwt>
</event>
<event>
 8    1  0.3573290E-007  0.1536914E+03  0.7546771E-02  0.1196011E+00
          5   -1    0    0  501    0  0.00000000000E+00  0.00000000000E+00  0.33533878097E+02  0.33861644677E+02  0.47000000000E+01 0.  1.
         -5   -1    0    0    0  501 -0.00000000000E+00 -0.00000000000E+00 -0.80732119116E+03  0.80733487210E+03  0.47000000000E+01 0.  1.
         25    2    1    2    0    0 -0.60408188316E+02 -0.65933094673E+02 -0.53978950214E+03  0.56124304458E+03  0.12499890509E+03 0.  0.
         25    2    1    2    0    0  0.60408188316E+02  0.65933094673E+02 -0.23399781093E+03  0.27995347220E+03  0.12499059520E+03 0.  0.
          5    1    3    3  502    0 -0.17791374660E+02  0.52877852718E+00 -0.29928293322E+01  0.18650995856E+02  0.47000000000E+01 0.  1.
         -5    1    3    3    0  502 -0.42616813657E+02 -0.66461873200E+02 -0.53679667281E+03  0.54259204872E+03  0.47000000000E+01 0.  1.
          5    1    4    4  503    0  0.97086065222E+02  0.33640661155E+02 -0.13781995883E+03  0.17197043116E+03  0.47000000000E+01 0. -1.
         -5    1    4    4    0  503 -0.36677876905E+02  0.32292433518E+02 -0.96177852098E+02  0.10798304103E+03  0.47000000000E+01 0. -1.
<mgrwt>
<rscale>  0 0.15368972E+03</rscale>
<asrwt>0</asrwt>
<pdfrwt beam="1">  1        5 0.51853240E-02 0.15369141E+03</pdfrwt>
<pdfrwt beam="2">  1       -5 0.12422951E+00 0.15369141E+03</pdfrwt>
<totfact> 0.84897098E+01</totfact>
</mgrwt>
</event>
<event>
 8    1  0.3573290E-007  0.1381964E+03  0.7546771E-02  0.1215779E+00
          5   -1    0    0  501    0  0.00000000000E+00  0.00000000000E+00  0.78362483125E+03  0.78363892587E+03  0.47000000000E+01 0.  1.
         -5   -1    0    0    0  501 -0.00000000000E+00 -0.00000000000E+00 -0.26346935692E+02  0.26762866445E+02  0.47000000000E+01 0.  1.
         25    2    1    2    0    0  0.43415644160E+02  0.39842037196E+02  0.26208365971E+03  0.29628715178E+03  0.12500370212E+03 0.  0.
         25    2    1    2    0    0 -0.43415644160E+02 -0.39842037196E+02  0.49519423585E+03  0.51411464053E+03  0.12499690519E+03 0.  0.
          5    1    3    3  502    0 -0.32379729419E+02 -0.16753535606E+02  0.12021383814E+03  0.12570833192E+03  0.47000000000E+01 0. -1.
         -5    1    3    3    0  502  0.75795373580E+02  0.56595572803E+02  0.14186982156E+03  0.17057881987E+03  0.47000000000E+01 0. -1.
          5    1    4    4  503    0 -0.47085242385E+02  0.22124421710E+02  0.89152441456E+02  0.10332839834E+03  0.47000000000E+01 0. -1.
         -5    1    4    4    0  503  0.36695982247E+01 -0.61966458906E+02  0.40604179439E+03  0.41078624219E+03  0.47000000000E+01 0. -1.
<mgrwt>
<rscale>  0 0.13819481E+03</rscale>
<asrwt>0</asrwt>
<pdfrwt beam="1">  1        5 0.12059075E+00 0.13819635E+03</pdfrwt>
<pdfrwt beam="2">  1       -5 0.40864533E-02 0.13819635E+03</pdfrwt>
<totfact> 0.13148623E+02</totfact>
</mgrwt>
</event>
<event>
 8    1  0.3573290E-007  0.2074167E+03  0.7546771E-02  0.1143631E+00
          5   -1    0    0  501    0  0.00000000000E+00  0.00000000000E+00  0.81196138310E+02  0.81332053192E+02  0.47000000000E+01 0.  1.
         -5   -1    0    0    0  501 -0.00000000000E+00 -0.00000000000E+00 -0.11298260521E+04  0.11298358279E+04  0.47000000000E+01 0.  1.
         25    2    1    2    0    0  0.16150369875E+03  0.36211388274E+02 -0.96582246468E+03  0.98784347471E+03  0.12500795131E+03 0.  0.
         25    2    1    2    0    0 -0.16150369875E+03 -0.36211388274E+02 -0.82807449073E+02  0.22332440635E+03  0.12498802942E+03 0.  0.
          5    1    3    3  502    0  0.47563131051E+02  0.50556151103E+02 -0.16878229018E+03  0.18255883251E+03  0.47000000000E+01 0. -1.
         -5    1    3    3    0  502  0.11394056770E+03 -0.14344762829E+02 -0.79704017450E+03  0.80528464220E+03  0.47000000000E+01 0. -1.
          5    1    4    4  503    0 -0.66851836616E+02 -0.40278595415E+02 -0.99983189524E+02  0.12692620492E+03  0.47000000000E+01 0.  1.
         -5    1    4    4    0  503 -0.94651862131E+02  0.40672071408E+01  0.17175740451E+02  0.96398201429E+02  0.47000000000E+01 0.  1.
<mgrwt>
<rscale>  0 0.20741372E+03</rscale>
<asrwt>0</asrwt>
<pdfrwt beam="1">  1        5 0.12502921E-01 0.20741672E+03</pdfrwt>
<pdfrwt beam="2">  1       -5 0.17383059E+00 0.20741672E+03</pdfrwt>
<totfact> 0.79945127E+00</totfact>
</mgrwt>
</event>
<event>
 8    1  0.3573290E-007  0.1279300E+03  0.7546771E-02  0.1230569E+00
          5   -1    0    0  501    0  0.00000000000E+00  0.00000000000E+00  0.20216122633E+03  0.20221585357E+03  0.47000000000E+01 0.  1.
         -5   -1    0    0    0  501 -0.00000000000E+00 -0.00000000000E+00 -0.96060254629E+02  0.96175165814E+02  0.47000000000E+01 0.  1.
         25    2    1    2    0    0 -0.79303723721E+00  0.27208026786E+02 -0.63426563081E+01  0.12808710741E+03  0.12500068867E+03 0.  0.
         25    2    1    2    0    0  0.79303723721E+00 -0.27208026786E+02  0.11244362801E+03  0.17030391197E+03  0.12497578694E+03 0.  0.
          5    1    3    3  502    0  0.52900351909E+02  0.73527967633E+00  0.26807446425E+02  0.59495521278E+02  0.47000000000E+01 0.  1.
         -5    1    3    3    0  502 -0.53693389146E+02  0.26472747110E+02 -0.33150102733E+02  0.68591586137E+02  0.47000000000E+01 0.  1.
          5    1    4    4  503    0 -0.34557391800E+02 -0.63560706663E+02  0.43350848232E+02  0.84472260547E+02  0.47000000000E+01 0.  1.
         -5    1    4    4    0  503  0.35350429037E+02  0.36352679876E+02  0.69092779781E+02  0.85831651418E+02  0.47000000000E+01 0.  1.
<mgrwt>
<rscale>  0 0.12792389E+03</rscale>
<asrwt>0</asrwt>
<pdfrwt beam="1">  1        5 0.31114768E-01 0.12792997E+03</pdfrwt>
<pdfrwt beam="2">  1       -5 0.14791542E-01 0.12792997E+03</pdfrwt>
<totfact> 0.28373988E+02</totfact>
</mgrwt>
</event>
<event>
 8    1  0.3573290E-007  0.1357681E+03  0.7546771E-02  0.1219141E+00
         -5   -1    0    0    0  501 -0.00000000000E+00  0.00000000000E+00  0.20535756425E+03  0.20541134144E+03  0.47000000000E+01 0.  1.
          5   -1    0    0  501    0  0.00000000000E+00 -0.00000000000E+00 -0.96878197016E+02  0.96992139151E+02  0.47000000000E+01 0.  1.
         25    2    1    2    0    0  0.35380599654E+02 -0.39452879507E+02  0.95559738528E+02  0.16602603004E+03  0.12499864995E+03 0.  0.
         25    2    1    2    0    0 -0.35380599654E+02  0.39452879507E+02  0.12919628702E+02  0.13637745056E+03  0.12499430260E+03 0.  0.
          5    1    4    4  502    0 -0.42643615227E+02 -0.42974177307E+01  0.58457801333E+02  0.72638490179E+02  0.47000000000E+01 0.  1.
         -5    1    4    4    0  502  0.72630155734E+01  0.43750297237E+02 -0.45538172631E+02  0.63738960379E+02  0.47000000000E+01 0.  1.
          5    1    3    3  503    0  0.63412468878E+02 -0.69146764719E+02  0.74163485345E+02  0.11968595924E+03  0.47000000000E+01 0. -1.
         -5    1    3    3    0  503 -0.28031869224E+02  0.29693885212E+02  0.21396253183E+02  0.46340070797E+02  0.47000000000E+01 0. -1.
<mgrwt>
<rscale>  0 0.13576711E+03</rscale>
<asrwt>0</asrwt>
<pdfrwt beam="2">  1        5 0.14917240E-01 0.13576811E+03</pdfrwt>
<pdfrwt beam="1">  1       -5 0.31606372E-01 0.13576811E+03</pdfrwt>
<totfact> 0.27670184E+02</totfact>
</mgrwt>
</event>
<event>
 8    1  0.3573290E-007  0.1514985E+03  0.7546771E-02  0.1198645E+00
         -5   -1    0    0    0  501 -0.00000000000E+00  0.00000000000E+00  0.17148439666E+03  0.17154879276E+03  0.47000000000E+01 0.  1.
          5   -1    0    0  501    0  0.00000000000E+00 -0.00000000000E+00 -0.13404728729E+03  0.13412965828E+03  0.47000000000E+01 0.  1.
         25    2    1    2    0    0 -0.55223284033E+02 -0.65398643622E+02  0.11032581263E+02  0.15189970324E+03  0.12500083323E+03 0.  0.
         25    2    1    2    0    0  0.55223284033E+02  0.65398643622E+02  0.26404528102E+02  0.15377874780E+03  0.12499644189E+03 0.  0.
          5    1    3    3  502    0 -0.70414923749E+02 -0.62819899084E+02  0.52023315993E+02  0.10785692659E+03  0.47000000000E+01 0.  1.
         -5    1    3    3    0  502  0.15191639716E+02 -0.25787445375E+01 -0.40990734730E+02  0.44042776642E+02  0.47000000000E+01 0.  1.
          5    1    4    4  503    0  0.74426221111E+02  0.91923148705E+02  0.19095741453E+02  0.11989939532E+03  0.47000000000E+01 0. -1.
         -5    1    4    4    0  503 -0.19202937079E+02 -0.26524505083E+02  0.73087866488E+01  0.33879352483E+02  0.47000000000E+01 0. -1.
<mgrwt>
<rscale>  0 0.15149762E+03</rscale>
<asrwt>0</asrwt>
<pdfrwt beam="2">  1        5 0.20633949E-01 0.15149852E+03</pdfrwt>
<pdfrwt beam="1">  1       -5 0.26393505E-01 0.15149852E+03</pdfrwt>
<totfact> 0.22467055E+02</totfact>
</mgrwt>
</event>
<event>
 8    1  0.3573290E-007  0.1304186E+03  0.7546771E-02  0.1226839E+00
         -5   -1    0    0    0  501 -0.00000000000E+00  0.00000000000E+00  0.16489970508E+03  0.16496667159E+03  0.47000000000E+01 0. -1.
          5   -1    0    0  501    0  0.00000000000E+00 -0.00000000000E+00 -0.12162421797E+03  0.12171499659E+03  0.47000000000E+01 0. -1.
         25    2    1    2    0    0 -0.88171366733E+01 -0.36112731687E+02  0.77691777671E+02  0.15180583329E+03  0.12500850937E+03 0.  0.
         25    2    1    2    0    0  0.88171366733E+01  0.36112731687E+02 -0.34416290560E+02  0.13487583489E+03  0.12500055397E+03 0.  0.
          5    1    4    4  502    0 -0.36140456903E+02 -0.20888610169E+02  0.17495462999E+02  0.45504372158E+02  0.47000000000E+01 0.  1.
         -5    1    4    4    0  502  0.44957593576E+02  0.57001341856E+02 -0.51911753558E+02  0.89371462733E+02  0.47000000000E+01 0.  1.
          5    1    3    3  503    0  0.14843337575E+02 -0.58629562793E+02 -0.68547417484E+01  0.61047750066E+02  0.47000000000E+01 0.  1.
         -5    1    3    3    0  503 -0.23660474249E+02  0.22516831106E+02  0.84546519420E+02  0.90758083225E+02  0.47000000000E+01 0.  1.
<mgrwt>
<rscale>  0 0.13041665E+03</rscale>
<asrwt>0</asrwt>
<pdfrwt beam="2">  1        5 0.18723552E-01 0.13041855E+03</pdfrwt>
<pdfrwt beam="1">  1       -5 0.25381320E-01 0.13041855E+03</pdfrwt>
<totfact> 0.27590550E+02</totfact>
</mgrwt>
</event>
<event>
 8    1  0.3573290E-007  0.1356876E+03  0.7546771E-02  0.1219252E+00
         -5   -1    0    0    0  501 -0.00000000000E+00  0.00000000000E+00  0.22966022689E+03  0.22970831464E+03  0.47000000000E+01 0. -1.
          5   -1    0    0  501    0  0.00000000000E+00 -0.00000000000E+00 -0.80445138555E+02  0.80582320128E+02  0.47000000000E+01 0. -1.
         25    2    1    2    0    0  0.42772805685E+02  0.30926300041E+02  0.85586565698E+02  0.16042497322E+03  0.12500065146E+03 0.  0.
         25    2    1    2    0    0 -0.42772805685E+02 -0.30926300041E+02  0.63628522635E+02  0.14986566154E+03  0.12500071471E+03 0.  0.
          5    1    3    3  502    0  0.14249327693E+02 -0.38372725572E+02  0.73655298868E+02  0.84396104524E+02  0.47000000000E+01 0.  1.
         -5    1    3    3    0  502  0.28523477992E+02  0.69299025612E+02  0.11931266830E+02  0.76028868700E+02  0.47000000000E+01 0.  1.
          5    1    4    4  503    0 -0.77066411564E+01  0.44908881990E+02  0.18402047501E+01  0.45844043812E+02  0.47000000000E+01 0. -1.
         -5    1    4    4    0  503 -0.35066164529E+02 -0.75835182031E+02  0.61788317884E+02  0.10402161773E+03  0.47000000000E+01 0. -1.
<mgrwt>
<rscale>  0 0.13568760E+03</rscale>
<asrwt>0</asrwt>
<pdfrwt beam="2">  1        5 0.12390427E-01 0.13568761E+03</pdfrwt>
<pdfrwt beam="1">  1       -5 0.35346594E-01 0.13568761E+03</pdfrwt>
<totfact> 0.30882291E+02</totfact>
</mgrwt>
</event>
<event>
 8    1  0.3573290E-007  0.2273609E+03  0.7546771E-02  0.1128511E+00
         -5   -1    0    0    0  501 -0.00000000000E+00  0.00000000000E+00  0.49309552256E+03  0.49311792137E+03  0.47000000000E+01 0.  1.
          5   -1    0    0  501    0  0.00000000000E+00 -0.00000000000E+00 -0.12008498619E+03  0.12017692752E+03  0.47000000000E+01 0.  1.
         25    2    1    2    0    0 -0.14421101302E+03  0.12357352517E+03  0.29601276628E+03  0.37325132510E+03  0.12500304594E+03 0.  0.
         25    2    1    2    0    0  0.14421101302E+03 -0.12357352517E+03  0.76997770102E+02  0.24004352378E+03  0.12500001723E+03 0.  0.
          5    1    3    3  502    0 -0.56571779060E+02  0.62505483471E+02  0.23597777776E+03  0.25062901517E+03  0.47000000000E+01 0. -1.
         -5    1    3    3    0  502 -0.87639233963E+02  0.61068041702E+02  0.60034988516E+02  0.12262230993E+03  0.47000000000E+01 0. -1.
          5    1    4    4  503    0 -0.26376017390E+00 -0.17933599010E+01 -0.24838066423E+02  0.25343741887E+02  0.47000000000E+01 0. -1.
         -5    1    4    4    0  503  0.14447477320E+03 -0.12178016527E+03  0.10183583653E+03  0.21469978189E+03  0.47000000000E+01 0. -1.
<mgrwt>
<rscale>  0 0.22736052E+03</rscale>
<asrwt>0</asrwt>
<pdfrwt beam="2">  1        5 0.18483409E-01 0.22736093E+03</pdfrwt>
<pdfrwt beam="1">  1       -5 0.75869645E-01 0.22736093E+03</pdfrwt>
<totfact> 0.33632220E+01</totfact>
</mgrwt>
</event>
<event>
 8    1  0.3573290E-007  0.1651396E+03  0.7546771E-02  0.1183016E+00
         -5   -1    0    0    0  501 -0.00000000000E+00  0.00000000000E+00  0.64507449698E+03  0.64509161881E+03  0.47000000000E+01 0.  1.
          5   -1    0    0  501    0  0.00000000000E+00 -0.00000000000E+00 -0.42256624902E+02  0.42517200615E+02  0.47000000000E+01 0.  1.
         25    2    1    2    0    0 -0.81286657569E+02 -0.70983211685E+02  0.28223898491E+03  0.32699555557E+03  0.12498444590E+03 0.  0.
         25    2    1    2    0    0  0.81286657569E+02  0.70983211685E+02  0.32057888717E+03  0.36061326386E+03  0.12499986452E+03 0.  0.
          5    1    4    4  502    0 -0.12960016212E+02  0.40741148100E+01 -0.49012511098E+01  0.15187912764E+02  0.47000000000E+01 0. -1.
         -5    1    4    4    0  502  0.94246673781E+02  0.66909096875E+02  0.32548013828E+03  0.34542535109E+03  0.47000000000E+01 0. -1.
          5    1    3    3  503    0 -0.24805568408E+02 -0.94380577585E+02  0.21405312876E+03  0.23529522218E+03  0.47000000000E+01 0. -1.
         -5    1    3    3    0  503 -0.56481089161E+02  0.23397365900E+02  0.68185856151E+02  0.91700333386E+02  0.47000000000E+01 0. -1.
<mgrwt>
<rscale>  0 0.16513673E+03</rscale>
<asrwt>0</asrwt>
<pdfrwt beam="2">  1        5 0.65223809E-02 0.16513965E+03</pdfrwt>
<pdfrwt beam="1">  1       -5 0.99263586E-01 0.16513965E+03</pdfrwt>
<totfact> 0.10348085E+02</totfact>
</mgrwt>
</event>
<event>
 8    1  0.3573290E-007  0.1255380E+03  0.7546771E-02  0.1234231E+00
         -5   -1    0    0    0  501 -0.00000000000E+00  0.00000000000E+00  0.88941735782E+02  0.89065831629E+02  0.47000000000E+01 0.  1.
          5   -1    0    0  501    0  0.00000000000E+00 -0.00000000000E+00 -0.17844561171E+03  0.17850749659E+03  0.47000000000E+01 0.  1.
         25    2    1    2    0    0 -0.34323491719E+01 -0.11015046842E+02 -0.32359174055E+02  0.12964140320E+03  0.12500665982E+03 0.  0.
         25    2    1    2    0    0  0.34323491719E+01  0.11015046842E+02 -0.57144701873E+02  0.13793192502E+03  0.12500634668E+03 0.  0.
          5    1    4    4  502    0  0.34005370532E+02  0.56371267084E+02 -0.12508495527E+02  0.67176167188E+02  0.47000000000E+01 0. -1.
         -5    1    4    4    0  502 -0.30573021360E+02 -0.45356220242E+02 -0.44636206346E+02  0.70755757834E+02  0.47000000000E+01 0. -1.
          5    1    3    3  503    0  0.15130448064E+01 -0.20173883299E+01 -0.80255236161E+02  0.80432282645E+02  0.47000000000E+01 0.  1.
         -5    1    3    3    0  503 -0.49453939782E+01 -0.89976585122E+01  0.47896062106E+02  0.49209120552E+02  0.47000000000E+01 0.  1.
<mgrwt>
<rscale>  0 0.12553787E+03</rscale>
<asrwt>0</asrwt>
<pdfrwt beam="2">  1        5 0.27467477E-01 0.12553795E+03</pdfrwt>
<pdfrwt beam="1">  1       -5 0.13697650E-01 0.12553795E+03</pdfrwt>
<totfact> 0.41270555E+02</totfact>
</mgrwt>
</event>
<event>
 8    1  0.3573290E-007  0.1444976E+03  0.7546771E-02  0.1207402E+00
         -5   -1    0    0    0  501 -0.00000000000E+00  0.00000000000E+00  0.20113235931E+03  0.20118726590E+03  0.47000000000E+01 0. -1.
          5   -1    0    0  501    0  0.00000000000E+00 -0.00000000000E+00 -0.10657441533E+03  0.10667800149E+03  0.47000000000E+01 0. -1.
         25    2    1    2    0    0 -0.64661102334E+02  0.32780771657E+02  0.72596578563E+02  0.16170904717E+03  0.12499566221E+03 0.  0.
         25    2    1    2    0    0  0.64661102334E+02 -0.32780771657E+02  0.21961365418E+02  0.14615622022E+03  0.12499480786E+03 0.  0.
          5    1    3    3  502    0  0.37502224238E+02  0.47935653166E+01  0.24363179838E+02  0.45222224879E+02  0.47000000000E+01 0.  1.
         -5    1    3    3    0  502 -0.10216332657E+03  0.27987206340E+02  0.48233398725E+02  0.11648682229E+03  0.47000000000E+01 0.  1.
          5    1    4    4  503    0  0.38789117049E+02  0.10701738297E+02  0.66972826125E+02  0.78272423261E+02  0.47000000000E+01 0. -1.
         -5    1    4    4    0  503  0.25871985285E+02 -0.43482509954E+02 -0.45011460707E+02  0.67883796958E+02  0.47000000000E+01 0. -1.
<mgrwt>
<rscale>  0 0.14449740E+03</rscale>
<asrwt>0</asrwt>
<pdfrwt beam="2">  1        5 0.16408256E-01 0.14449759E+03</pdfrwt>
<pdfrwt beam="1">  1       -5 0.30955632E-01 0.14449759E+03</pdfrwt>
<totfact> 0.24761652E+02</totfact>
</mgrwt>
</event>
<event>
 8    1  0.3573290E-007  0.2268679E+03  0.7546771E-02  0.1128864E+00
         -5   -1    0    0    0  501 -0.00000000000E+00  0.00000000000E+00  0.36936630547E+03  0.36939620682E+03  0.47000000000E+01 0. -1.
          5   -1    0    0  501    0  0.00000000000E+00 -0.00000000000E+00 -0.17747167124E+03  0.17753389562E+03  0.47000000000E+01 0. -1.
         25    2    1    2    0    0 -0.15690869652E+03 -0.10593511216E+03  0.22279055789E+03  0.31796806738E+03  0.12500188862E+03 0.  0.
         25    2    1    2    0    0  0.15690869652E+03  0.10593511216E+03 -0.30895923663E+02  0.22896203506E+03  0.12500587333E+03 0.  0.
          5    1    4    4  502    0  0.85888075140E+02  0.12143139059E+03  0.24932683498E+01  0.14883094590E+03  0.47000000000E+01 0. -1.
         -5    1    4    4    0  502  0.71020621378E+02 -0.15496278424E+02 -0.33389192012E+02  0.80131089155E+02  0.47000000000E+01 0. -1.
          5    1    3    3  503    0 -0.10687355401E+03 -0.11353273155E+03  0.21636804275E+03  0.26673743195E+03  0.47000000000E+01 0.  1.
         -5    1    3    3    0  503 -0.50035142505E+02  0.75976193874E+01  0.64225151369E+01  0.51230635430E+02  0.47000000000E+01 0.  1.
<mgrwt>
<rscale>  0 0.22686738E+03</rscale>
<asrwt>0</asrwt>
<pdfrwt beam="2">  1        5 0.27310421E-01 0.22686793E+03</pdfrwt>
<pdfrwt beam="1">  1       -5 0.56832671E-01 0.22686793E+03</pdfrwt>
<totfact> 0.30544065E+01</totfact>
</mgrwt>
</event>
<event>
 8    1  0.3573290E-007  0.1998458E+03  0.7546771E-02  0.1149871E+00
         -5   -1    0    0    0  501 -0.00000000000E+00  0.00000000000E+00  0.80737001648E+02  0.80873688151E+02  0.47000000000E+01 0.  1.
          5   -1    0    0  501    0  0.00000000000E+00 -0.00000000000E+00 -0.49418319770E+03  0.49420554721E+03  0.47000000000E+01 0.  1.
         25    2    1    2    0    0 -0.11351796091E+03 -0.10693146449E+03 -0.21071950423E+03  0.29041022456E+03  0.12495888731E+03 0.  0.
         25    2    1    2    0    0  0.11351796091E+03  0.10693146449E+03 -0.20272669182E+03  0.28466901080E+03  0.12497067089E+03 0.  0.
          5    1    3    3  502    0 -0.94917163597E+01 -0.24447465215E+02  0.13442334141E+02  0.29842211414E+02  0.47000000000E+01 0. -1.
         -5    1    3    3    0  502 -0.10402624455E+03 -0.82483999280E+02 -0.22416183837E+03  0.26056801315E+03  0.47000000000E+01 0. -1.
          5    1    4    4  503    0 -0.20148713778E+02  0.47694528659E+02 -0.69649283468E+02  0.86912895583E+02  0.47000000000E+01 0.  1.
         -5    1    4    4    0  503  0.13366667469E+03  0.59236935836E+02 -0.13307740836E+03  0.19775611522E+03  0.47000000000E+01 0.  1.
<mgrwt>
<rscale>  0 0.19984393E+03</rscale>
<asrwt>0</asrwt>
<pdfrwt beam="2">  1        5 0.76040416E-01 0.19984578E+03</pdfrwt>
<pdfrwt beam="1">  1       -5 0.12433311E-01 0.19984578E+03</pdfrwt>
<totfact> 0.66811921E+01</totfact>
</mgrwt>
</event>
<event>
 8    1  0.3573290E-007  0.1304930E+03  0.7546771E-02  0.1226726E+00
         -5   -1    0    0    0  501 -0.00000000000E+00  0.00000000000E+00  0.25200676480E+02  0.25635212015E+02  0.47000000000E+01 0.  1.
          5   -1    0    0  501    0  0.00000000000E+00 -0.00000000000E+00 -0.67998754077E+03  0.68000378352E+03  0.47000000000E+01 0.  1.
         25    2    1    2    0    0  0.21027302894E+01 -0.37405098972E+02 -0.28356886550E+03  0.31215299645E+03  0.12499851523E+03 0.  0.
         25    2    1    2    0    0 -0.21027302894E+01  0.37405098972E+02 -0.37121799878E+03  0.39348599908E+03  0.12499946378E+03 0.  0.
          5    1    3    3  502    0 -0.27876718245E+02 -0.72705030848E+01 -0.41539229579E+01  0.29484177302E+02  0.47000000000E+01 0.  1.
         -5    1    3    3    0  502  0.29979448534E+02 -0.30134595887E+02 -0.27941494255E+03  0.28266881915E+03  0.47000000000E+01 0.  1.
          5    1    4    4  503    0 -0.57464843655E+02  0.20825555488E+02 -0.11017847962E+03  0.12608449306E+03  0.47000000000E+01 0. -1.
         -5    1    4    4    0  503  0.55362113365E+02  0.16579543483E+02 -0.26103951916E+03  0.26740150602E+03  0.47000000000E+01 0. -1.
<mgrwt>
<rscale>  0 0.13049280E+03</rscale>
<asrwt>0</asrwt>
<pdfrwt beam="2">  1        5 0.10464813E+00 0.13049302E+03</pdfrwt>
<pdfrwt beam="1">  1       -5 0.39117029E-02 0.13049302E+03</pdfrwt>
<totfact> 0.19753833E+02</totfact>
</mgrwt>
</event>
<event>
 8    1  0.3573290E-007  0.1270153E+03  0.7546771E-02  0.1231964E+00
          5   -1    0    0  501    0  0.00000000000E+00  0.00000000000E+00  0.24309268819E+04  0.24309314255E+04  0.47000000000E+01 0. -1.
         -5   -1    0    0    0  501 -0.00000000000E+00 -0.00000000000E+00 -0.57996167812E+01  0.74649551109E+01  0.47000000000E+01 0. -1.
         25    2    1    2    0    0 -0.22096668477E+02 -0.45016115044E+01  0.11925861107E+04  0.11993308650E+04  0.12499745963E+03 0.  0.
         25    2    1    2    0    0  0.22096668477E+02  0.45016115044E+01  0.12325411544E+04  0.12390655156E+04  0.12496850538E+03 0.  0.
          5    1    3    3  502    0 -0.68293091975E+02  0.19013800055E+02  0.53656672402E+03  0.54124985943E+03  0.47000000000E+01 0. -1.
         -5    1    3    3    0  502  0.46196423498E+02 -0.23515411559E+02  0.65601938671E+03  0.65808100555E+03  0.47000000000E+01 0. -1.
          5    1    4    4  503    0  0.64869060508E+02  0.12912141165E+02  0.10142278310E+04  0.10163930841E+04  0.47000000000E+01 0.  1.
         -5    1    4    4    0  503 -0.42772392031E+02 -0.84105296603E+01  0.21831332347E+03  0.22267243146E+03  0.47000000000E+01 0.  1.
<mgrwt>
<rscale>  0 0.12700820E+03</rscale>
<asrwt>0</asrwt>
<pdfrwt beam="1">  1        5 0.37411740E+00 0.12701532E+03</pdfrwt>
<pdfrwt beam="2">  1       -5 0.10207006E-02 0.12701532E+03</pdfrwt>
<totfact> 0.21517180E+01</totfact>
</mgrwt>
</event>
<event>
 8    1  0.3573290E-007  0.1269649E+03  0.7546771E-02  0.1232037E+00
         -5   -1    0    0    0  501 -0.00000000000E+00  0.00000000000E+00  0.68048787017E+02  0.68210903927E+02  0.47000000000E+01 0.  1.
          5   -1    0    0  501    0  0.00000000000E+00 -0.00000000000E+00 -0.23658322828E+03  0.23662990914E+03  0.47000000000E+01 0.  1.
         25    2    1    2    0    0  0.12635618390E+02  0.18074736113E+02 -0.88645970841E+02  0.15484896217E+03  0.12503494712E+03 0.  0.
         25    2    1    2    0    0 -0.12635618390E+02 -0.18074736113E+02 -0.79888470418E+02  0.14999185090E+03  0.12501612973E+03 0.  0.
          5    1    3    3  502    0 -0.24071730294E+02 -0.12571099353E+02  0.21319888786E+02  0.34844058261E+02  0.47000000000E+01 0.  1.
         -5    1    3    3    0  502  0.36707348684E+02  0.30645835466E+02 -0.10996585963E+03  0.12000490391E+03  0.47000000000E+01 0.  1.
          5    1    4    4  503    0 -0.20669651867E+02  0.28930127909E+02  0.18647290562E+02  0.40422744271E+02  0.47000000000E+01 0.  1.
         -5    1    4    4    0  503  0.80340334769E+01 -0.47004864021E+02 -0.98535760980E+02  0.10956910663E+03  0.47000000000E+01 0.  1.
<mgrwt>
<rscale>  0 0.12696029E+03</rscale>
<asrwt>0</asrwt>
<pdfrwt beam="2">  1        5 0.36413481E-01 0.12696493E+03</pdfrwt>
<pdfrwt beam="1">  1       -5 0.10485106E-01 0.12696493E+03</pdfrwt>
<totfact> 0.38125619E+02</totfact>
</mgrwt>
</event>
<event>
 8    1  0.3573290E-007  0.1716973E+03  0.7546771E-02  0.1176090E+00
          5   -1    0    0  501    0  0.00000000000E+00  0.00000000000E+00  0.97520122056E+02  0.97633315040E+02  0.47000000000E+01 0.  1.
         -5   -1    0    0    0  501 -0.00000000000E+00 -0.00000000000E+00 -0.32231896148E+03  0.32235322696E+03  0.47000000000E+01 0.  1.
         25    2    1    2    0    0  0.85165790289E+02  0.81247542088E+02 -0.16512909756E+03  0.23821625227E+03  0.12499995621E+03 0.  0.
         25    2    1    2    0    0 -0.85165790289E+02 -0.81247542088E+02 -0.59669741863E+02  0.18177028973E+03  0.12500234080E+03 0.  0.
          5    1    3    3  502    0  0.21324357239E+02 -0.14651959015E+02 -0.10487158310E+03  0.10811820872E+03  0.47000000000E+01 0. -1.
         -5    1    3    3    0  502  0.63841433050E+02  0.95899501103E+02 -0.60257514461E+02  0.13009804355E+03  0.47000000000E+01 0. -1.
          5    1    4    4  503    0 -0.88291629404E+02 -0.17347059883E+02 -0.73343854256E+02  0.11617978855E+03  0.47000000000E+01 0. -1.
         -5    1    4    4    0  503  0.31258391147E+01 -0.63900482205E+02  0.13674112393E+02  0.65590501187E+02  0.47000000000E+01 0. -1.
<mgrwt>
<rscale>  0 0.17169686E+03</rscale>
<asrwt>0</asrwt>
<pdfrwt beam="1">  1        5 0.15014439E-01 0.17169729E+03</pdfrwt>
<pdfrwt beam="2">  1       -5 0.49598875E-01 0.17169729E+03</pdfrwt>
<totfact> 0.11722530E+02</totfact>
</mgrwt>
</event>
<event>
 8    1  0.3573290E-007  0.1338201E+03  0.7546771E-02  0.1221910E+00
          5   -1    0    0  501    0  0.00000000000E+00  0.00000000000E+00  0.10372731068E+03  0.10383373720E+03  0.47000000000E+01 0. -1.
         -5   -1    0    0    0  501 -0.00000000000E+00 -0.00000000000E+00 -0.18669127647E+03  0.18675042895E+03  0.47000000000E+01 0. -1.
         25    2    1    2    0    0 -0.46763641354E+02  0.97784359299E+01 -0.81721292910E+02  0.15679986072E+03  0.12500148257E+03 0.  0.
         25    2    1    2    0    0  0.46763641354E+02 -0.97784359299E+01 -0.12426728856E+01  0.13378430542E+03  0.12495695331E+03 0.  0.
          5    1    4    4  502    0  0.14331085515E+02  0.24754611345E+02  0.53737175464E+02  0.61056898233E+02  0.47000000000E+01 0. -1.
         -5    1    4    4    0  502  0.32432555838E+02 -0.34533047275E+02 -0.54979848350E+02  0.72727407192E+02  0.47000000000E+01 0. -1.
          5    1    3    3  503    0  0.28856682490E+01 -0.37947913079E+02  0.12199680016E+02  0.40240444589E+02  0.47000000000E+01 0.  1.
         -5    1    3    3    0  503 -0.49649309603E+02  0.47726349009E+02 -0.93920972926E+02  0.11655941613E+03  0.47000000000E+01 0.  1.
<mgrwt>
<rscale>  0 0.13380973E+03</rscale>
<asrwt>0</asrwt>
<pdfrwt beam="1">  1        5 0.15970785E-01 0.13382013E+03</pdfrwt>
<pdfrwt beam="2">  1       -5 0.28734472E-01 0.13382013E+03</pdfrwt>
<totfact> 0.29327881E+02</totfact>
</mgrwt>
</event>
<event>
 8    1  0.3573290E-007  0.1338621E+03  0.7546771E-02  0.1221836E+00
         -5   -1    0    0    0  501 -0.00000000000E+00  0.00000000000E+00  0.40539070423E+02  0.40810614192E+02  0.47000000000E+01 0. -1.
          5   -1    0    0  501    0  0.00000000000E+00 -0.00000000000E+00 -0.44151886359E+03  0.44154387880E+03  0.47000000000E+01 0. -1.
         25    2    1    2    0    0 -0.46721544429E+02 -0.10554369852E+02 -0.18758925123E+03  0.23045254320E+03  0.12499740019E+03 0.  0.
         25    2    1    2    0    0  0.46721544429E+02  0.10554369852E+02 -0.21339054194E+03  0.25190194980E+03  0.12499908593E+03 0.  0.
          5    1    4    4  502    0  0.56938757065E+02  0.46488198926E+02 -0.63170371370E+02  0.97034841756E+02  0.47000000000E+01 0.  1.
         -5    1    4    4    0  502 -0.10217212637E+02 -0.35933829074E+02 -0.15022017057E+03  0.15486710804E+03  0.47000000000E+01 0.  1.
          5    1    3    3  503    0 -0.81436500216E+01  0.53111937442E+02 -0.48087643882E+02  0.72261389612E+02  0.47000000000E+01 0. -1.
         -5    1    3    3    0  503 -0.38577894407E+02 -0.63666307294E+02 -0.13950160734E+03  0.15819115359E+03  0.47000000000E+01 0. -1.
<mgrwt>
<rscale>  0 0.13386173E+03</rscale>
<asrwt>0</asrwt>
<pdfrwt beam="2">  1        5 0.67948788E-01 0.13386213E+03</pdfrwt>
<pdfrwt beam="1">  1       -5 0.62595926E-02 0.13386213E+03</pdfrwt>
<totfact> 0.25103430E+02</totfact>
</mgrwt>
</event>
<event>
 8    1  0.3573290E-007  0.1344123E+03  0.7546771E-02  0.1221058E+00
          5   -1    0    0  501    0  0.00000000000E+00  0.00000000000E+00  0.15917783302E+03  0.15924720570E+03  0.47000000000E+01 0.  1.
         -5   -1    0    0    0  501 -0.00000000000E+00 -0.00000000000E+00 -0.22290993829E+03  0.22295948194E+03  0.47000000000E+01 0.  1.
         25    2    1    2    0    0  0.48504595886E+02 -0.91483474621E+01 -0.16580359170E+03  0.21343090673E+03  0.12500213135E+03 0.  0.
         25    2    1    2    0    0 -0.48504595886E+02  0.91483474621E+01  0.10207148643E+03  0.16877578092E+03  0.12502114941E+03 0.  0.
          5    1    4    4  502    0 -0.63002158170E+02 -0.45382059810E+02  0.59773729283E+02  0.98100927615E+02  0.47000000000E+01 0. -1.
         -5    1    4    4    0  502  0.14497562284E+02  0.54530407272E+02  0.42297757150E+02  0.70674853303E+02  0.47000000000E+01 0. -1.
          5    1    3    3  503    0  0.59516057043E+02  0.45124123005E+02 -0.11994570670E+03  0.14137683714E+03  0.47000000000E+01 0. -1.
         -5    1    3    3    0  503 -0.11011461158E+02 -0.54272470467E+02 -0.45857885000E+02  0.72054069587E+02  0.47000000000E+01 0. -1.
<mgrwt>
<rscale>  0 0.13440791E+03</rscale>
<asrwt>0</asrwt>
<pdfrwt beam="1">  1        5 0.24498045E-01 0.13441234E+03</pdfrwt>
<pdfrwt beam="2">  1       -5 0.34302984E-01 0.13441234E+03</pdfrwt>
<totfact> 0.93278092E+01</totfact>
</mgrwt>
</event>
<event>
 8    1  0.3573290E-007  0.1267143E+03  0.7546771E-02  0.1232416E+00
         -5   -1    0    0    0  501 -0.00000000000E+00  0.00000000000E+00  0.25642373079E+03  0.25646680041E+03  0.47000000000E+01 0. -1.
          5   -1    0    0  501    0  0.00000000000E+00 -0.00000000000E+00 -0.70117902116E+02  0.70275245977E+02  0.47000000000E+01 0. -1.
         25    2    1    2    0    0 -0.35596284315E+01 -0.20455937533E+02  0.14699821574E+03  0.19407101627E+03  0.12499587031E+03 0.  0.
         25    2    1    2    0    0  0.35596284315E+01  0.20455937533E+02  0.39307612936E+02  0.13267103011E+03  0.12500158983E+03 0.  0.
          5    1    4    4  502    0 -0.14339467351E+01  0.71076815196E+02  0.55943424859E+01  0.71465771734E+02  0.47000000000E+01 0. -1.
         -5    1    4    4    0  502  0.49935751666E+01 -0.50620877664E+02  0.33713270450E+02  0.61205258376E+02  0.47000000000E+01 0. -1.
          5    1    3    3  503    0  0.20711832558E+01  0.29786374123E+02 -0.77517140485E+01  0.31204117584E+02  0.47000000000E+01 0.  1.
         -5    1    3    3    0  503 -0.56308116873E+01 -0.50242311656E+02  0.15474992978E+03  0.16286689869E+03  0.47000000000E+01 0.  1.
<mgrwt>
<rscale>  0 0.12671289E+03</rscale>
<asrwt>0</asrwt>
<pdfrwt beam="2">  1        5 0.10802786E-01 0.12671430E+03</pdfrwt>
<pdfrwt beam="1">  1       -5 0.39465221E-01 0.12671430E+03</pdfrwt>
<totfact> 0.30719473E+02</totfact>
</mgrwt>
</event>
<event>
 8    1  0.3573290E-007  0.1520348E+03  0.7546771E-02  0.1197997E+00
         -5   -1    0    0    0  501 -0.00000000000E+00  0.00000000000E+00  0.58537738077E+03  0.58539624864E+03  0.47000000000E+01 0. -1.
          5   -1    0    0  501    0  0.00000000000E+00 -0.00000000000E+00 -0.49466858752E+02  0.49689637902E+02  0.47000000000E+01 0. -1.
         25    2    1    2    0    0  0.71367373696E+02  0.48935634772E+02  0.41134623171E+03  0.43854339165E+03  0.12500634240E+03 0.  0.
         25    2    1    2    0    0 -0.71367373696E+02 -0.48935634772E+02  0.12456429032E+03  0.19654249489E+03  0.12499876599E+03 0.  0.
          5    1    4    4  502    0 -0.89041034920E+02 -0.66213322737E+02  0.57813506647E+02  0.12520783345E+03  0.47000000000E+01 0. -1.
         -5    1    4    4    0  502  0.17673661224E+02  0.17277687965E+02  0.66750783668E+02  0.71334661440E+02  0.47000000000E+01 0. -1.
          5    1    3    3  503    0  0.70571592146E+02  0.83393869925E+02  0.36209744755E+03  0.37824798570E+03  0.47000000000E+01 0. -1.
         -5    1    3    3    0  503  0.79578154950E+00 -0.34458235153E+02  0.49248784153E+02  0.60295405950E+02  0.47000000000E+01 0. -1.
<mgrwt>
<rscale>  0 0.15203325E+03</rscale>
<asrwt>0</asrwt>
<pdfrwt beam="2">  1        5 0.76288740E-02 0.15203481E+03</pdfrwt>
<pdfrwt beam="1">  1       -5 0.90076649E-01 0.15203481E+03</pdfrwt>
<totfact> 0.97621684E+01</totfact>
</mgrwt>
</event>
<event>
 8    1  0.3573290E-007  0.1291622E+03  0.7546771E-02  0.1228709E+00
          5   -1    0    0  501    0  0.00000000000E+00  0.00000000000E+00  0.85004487261E+03  0.85005786594E+03  0.47000000000E+01 0. -1.
         -5   -1    0    0    0  501 -0.00000000000E+00 -0.00000000000E+00 -0.19597371863E+02  0.20153088695E+02  0.47000000000E+01 0. -1.
         25    2    1    2    0    0  0.14482409682E+02  0.29107599554E+02  0.36502031631E+03  0.38719402899E+03  0.12498956845E+03 0.  0.
         25    2    1    2    0    0 -0.14482409682E+02 -0.29107599554E+02  0.46542718444E+03  0.48301692565E+03  0.12500357559E+03 0.  0.
          5    1    3    3  502    0  0.37789359532E+02 -0.28154247724E+02  0.62666793119E+02  0.78548802146E+02  0.47000000000E+01 0. -1.
         -5    1    3    3    0  502 -0.23306949850E+02  0.57261847278E+02  0.30235352319E+03  0.30864522684E+03  0.47000000000E+01 0. -1.
          5    1    4    4  503    0  0.21180831095E+02  0.14501292114E+02  0.37803605703E+03  0.37893570100E+03  0.47000000000E+01 0. -1.
         -5    1    4    4    0  503 -0.35663240777E+02 -0.43608891668E+02  0.87391127410E+02  0.10408122465E+03  0.47000000000E+01 0. -1.
<mgrwt>
<rscale>  0 0.12915886E+03</rscale>
<asrwt>0</asrwt>
<pdfrwt beam="1">  1        5 0.13081994E+00 0.12916225E+03</pdfrwt>
<pdfrwt beam="2">  1       -5 0.30587259E-02 0.12916225E+03</pdfrwt>
<totfact> 0.16704980E+02</totfact>
</mgrwt>
</event>
<event>
 8    1  0.3573290E-007  0.1613340E+03  0.7546771E-02  0.1187200E+00
         -5   -1    0    0    0  501 -0.00000000000E+00  0.00000000000E+00  0.27184339788E+03  0.27188402485E+03  0.47000000000E+01 0.  1.
          5   -1    0    0  501    0  0.00000000000E+00 -0.00000000000E+00 -0.95958576695E+02  0.96073609495E+02  0.47000000000E+01 0.  1.
         25    2    1    2    0    0  0.11574754700E+02 -0.10133576911E+03  0.98527583021E+02  0.18903645831E+03  0.12499673958E+03 0.  0.
         25    2    1    2    0    0 -0.11574754700E+02  0.10133576911E+03  0.77357238163E+02  0.17892117604E+03  0.12500292753E+03 0.  0.
          5    1    3    3  502    0 -0.18160794765E+02 -0.73968231555E+02 -0.63206455451E+01  0.76571236806E+02  0.47000000000E+01 0. -1.
         -5    1    3    3    0  502  0.29735549465E+02 -0.27367537559E+02  0.10484822857E+03  0.11246522150E+03  0.47000000000E+01 0. -1.
          5    1    4    4  503    0 -0.53232151322E+02  0.48193367352E+02 -0.52176303314E+01  0.72149679537E+02  0.47000000000E+01 0. -1.
         -5    1    4    4    0  503  0.41657396622E+02  0.53142401763E+02  0.82574868495E+02  0.10677149650E+03  0.47000000000E+01 0. -1.
<mgrwt>
<rscale>  0 0.16133276E+03</rscale>
<asrwt>0</asrwt>
<pdfrwt beam="2">  1        5 0.14774832E-01 0.16133395E+03</pdfrwt>
<pdfrwt beam="1">  1       -5 0.41834035E-01 0.16133395E+03</pdfrwt>
<totfact> 0.16923793E+02</totfact>
</mgrwt>
</event>
<event>
 8    1  0.3573290E-007  0.1348302E+03  0.7546771E-02  0.1220461E+00
          5   -1    0    0  501    0  0.00000000000E+00  0.00000000000E+00  0.26428110032E+03  0.26432288964E+03  0.47000000000E+01 0. -1.
         -5   -1    0    0    0  501 -0.00000000000E+00 -0.00000000000E+00 -0.71058540202E+02  0.71213805794E+02  0.47000000000E+01 0. -1.
         25    2    1    2    0    0  0.47397649378E+02  0.17527677666E+02  0.65820609336E+02  0.15003844824E+03  0.12500170674E+03 0.  0.
         25    2    1    2    0    0 -0.47397649378E+02 -0.17527677666E+02  0.12740195079E+03  0.18549824719E+03  0.12499834397E+03 0.  0.
          5    1    3    3  502    0  0.87584637964E+02  0.10029494686E+02  0.63643162110E+02  0.10883106934E+03  0.47000000000E+01 0.  1.
         -5    1    3    3    0  502 -0.40186988585E+02  0.74981829803E+01  0.21774472261E+01  0.41207378902E+02  0.47000000000E+01 0.  1.
          5    1    4    4  503    0  0.84542070655E+01 -0.22038138132E+01  0.12700371347E+03  0.12739059482E+03  0.47000000000E+01 0.  1.
         -5    1    4    4    0  503 -0.55851856444E+02 -0.15323863853E+02  0.39823731530E+00  0.58107652375E+02  0.47000000000E+01 0.  1.
<mgrwt>
<rscale>  0 0.13482942E+03</rscale>
<asrwt>0</asrwt>
<pdfrwt beam="1">  1        5 0.40673789E-01 0.13483020E+03</pdfrwt>
<pdfrwt beam="2">  1       -5 0.10947241E-01 0.13483020E+03</pdfrwt>
<totfact> 0.28851861E+02</totfact>
</mgrwt>
</event>
<event>
 8    1  0.3573290E-007  0.1326543E+03  0.7546771E-02  0.1223573E+00
          5   -1    0    0  501    0  0.00000000000E+00  0.00000000000E+00  0.25293416863E+03  0.25297783235E+03  0.47000000000E+01 0.  1.
         -5   -1    0    0    0  501 -0.00000000000E+00 -0.00000000000E+00 -0.77661879709E+02  0.77803968793E+02  0.47000000000E+01 0.  1.
         25    2    1    2    0    0  0.53262264622E+01  0.44093277515E+02  0.33883975373E+02  0.13691347705E+03  0.12499836239E+03 0.  0.
         25    2    1    2    0    0 -0.53262264622E+01 -0.44093277515E+02  0.14138831355E+03  0.19386832410E+03  0.12498674357E+03 0.  0.
          5    1    3    3  502    0 -0.37748633160E+02  0.14058439221E+02 -0.32620577274E+02  0.52046047693E+02  0.47000000000E+01 0. -1.
         -5    1    3    3    0  502  0.43074859622E+02  0.30034838295E+02  0.66504552647E+02  0.84867429357E+02  0.47000000000E+01 0. -1.
          5    1    4    4  503    0 -0.39004572041E+02 -0.37365392272E+01 -0.35481295463E+01  0.39623195085E+02  0.47000000000E+01 0. -1.
         -5    1    4    4    0  503  0.33678345579E+02 -0.40356738288E+02  0.14493644310E+03  0.15424512901E+03  0.47000000000E+01 0. -1.
<mgrwt>
<rscale>  0 0.13265161E+03</rscale>
<asrwt>0</asrwt>
<pdfrwt beam="1">  1        5 0.38927238E-01 0.13265435E+03</pdfrwt>
<pdfrwt beam="2">  1       -5 0.11962270E-01 0.13265435E+03</pdfrwt>
<totfact> 0.26837909E+02</totfact>
</mgrwt>
</event>
<event>
 8    1  0.3573290E-007  0.1273862E+03  0.7546771E-02  0.1231388E+00
          5   -1    0    0  501    0  0.00000000000E+00  0.00000000000E+00  0.68891889172E+03  0.68893492390E+03  0.47000000000E+01 0.  1.
         -5   -1    0    0    0  501 -0.00000000000E+00 -0.00000000000E+00 -0.26186960758E+02  0.26605392568E+02  0.47000000000E+01 0.  1.
         25    2    1    2    0    0 -0.23193615259E+02 -0.79916266336E+01  0.21366321831E+03  0.24875348262E+03  0.12499805748E+03 0.  0.
         25    2    1    2    0    0  0.23193615259E+02  0.79916266336E+01  0.44906871266E+03  0.46678683385E+03  0.12500171872E+03 0.  0.
          5    1    3    3  502    0  0.14932136652E+02 -0.15406100999E+01  0.20892246636E+03  0.20951379223E+03  0.47000000000E+01 0.  1.
         -5    1    3    3    0  502 -0.38125751911E+02 -0.64510165338E+01  0.47407519488E+01  0.39239690393E+02  0.47000000000E+01 0.  1.
          5    1    4    4  503    0  0.97511830068E+01  0.17158139000E+02  0.31308841843E+01  0.20527536135E+02  0.47000000000E+01 0.  1.
         -5    1    4    4    0  503  0.13442432252E+02 -0.91665123666E+01  0.44593782847E+03  0.44625929771E+03  0.47000000000E+01 0.  1.
<mgrwt>
<rscale>  0 0.12738528E+03</rscale>
<asrwt>0</asrwt>
<pdfrwt beam="1">  1        5 0.10602093E+00 0.12738618E+03</pdfrwt>
<pdfrwt beam="2">  1       -5 0.40621839E-02 0.12738618E+03</pdfrwt>
<totfact> 0.17832612E+02</totfact>
</mgrwt>
</event>
<event>
 8    1  0.3573290E-007  0.1358440E+03  0.7546771E-02  0.1219041E+00
         -5   -1    0    0    0  501 -0.00000000000E+00  0.00000000000E+00  0.73778582919E+02  0.73928136035E+02  0.47000000000E+01 0. -1.
          5   -1    0    0  501    0  0.00000000000E+00 -0.00000000000E+00 -0.25105828820E+03  0.25110227812E+03  0.47000000000E+01 0. -1.
         25    2    1    2    0    0  0.50901704761E+02  0.15226810294E+02 -0.76493628409E+02  0.15588127202E+03  0.12499942592E+03 0.  0.
         25    2    1    2    0    0 -0.50901704761E+02 -0.15226810294E+02 -0.10078607687E+03  0.16914914213E+03  0.12502303665E+03 0.  0.
          5    1    4    4  502    0 -0.89584731341E+01  0.37791372722E+02 -0.93053816409E+02  0.10094327537E+03  0.47000000000E+01 0. -1.
         -5    1    4    4    0  502 -0.41943231627E+02 -0.53018183016E+02 -0.77322604652E+01  0.68205866768E+02  0.47000000000E+01 0. -1.
          5    1    3    3  503    0  0.45440587423E+02 -0.36038902062E+02 -0.85412468566E+02  0.10334906499E+03  0.47000000000E+01 0. -1.
         -5    1    3    3    0  503  0.54611173374E+01  0.51265712355E+02  0.89188401568E+01  0.52532207032E+02  0.47000000000E+01 0. -1.
<mgrwt>
<rscale>  0 0.13583859E+03</rscale>
<asrwt>0</asrwt>
<pdfrwt beam="2">  1        5 0.38639240E-01 0.13584402E+03</pdfrwt>
<pdfrwt beam="1">  1       -5 0.11365439E-01 0.13584402E+03</pdfrwt>
<totfact> 0.30069306E+02</totfact>
</mgrwt>
</event>
<event>
 8    1  0.3573290E-007  0.1388188E+03  0.7546771E-02  0.1214928E+00
          5   -1    0    0  501    0  0.00000000000E+00  0.00000000000E+00  0.91528941704E+03  0.91530148418E+03  0.47000000000E+01 0. -1.
         -5   -1    0    0    0  501 -0.00000000000E+00 -0.00000000000E+00 -0.20797023363E+02  0.21321495744E+02  0.47000000000E+01 0. -1.
         25    2    1    2    0    0  0.46369076456E+02 -0.38660108069E+02  0.43375358403E+03  0.45542560679E+03  0.12500246580E+03 0.  0.
         25    2    1    2    0    0 -0.46369076456E+02  0.38660108069E+02  0.46073880965E+03  0.48119737313E+03  0.12500386389E+03 0.  0.
          5    1    3    3  502    0  0.16170355105E+02 -0.34459113644E+02  0.41983190887E+03  0.42158016154E+03  0.47000000000E+01 0. -1.
         -5    1    3    3    0  502  0.30198721350E+02 -0.42009944252E+01  0.13921675164E+02  0.33845445258E+02  0.47000000000E+01 0. -1.
          5    1    4    4  503    0 -0.82274248966E+02  0.36483982331E+01  0.34923362770E+03  0.35884339142E+03  0.47000000000E+01 0. -1.
         -5    1    4    4    0  503  0.35905172510E+02  0.35011709836E+02  0.11150518195E+03  0.12235398171E+03  0.47000000000E+01 0. -1.
<mgrwt>
<rscale>  0 0.13881849E+03</rscale>
<asrwt>0</asrwt>
<pdfrwt beam="1">  1        5 0.14085504E+00 0.13881881E+03</pdfrwt>
<pdfrwt beam="2">  1       -5 0.32408140E-02 0.13881881E+03</pdfrwt>
<totfact> 0.12817241E+02</totfact>
</mgrwt>
</event>
<event>
 8    1  0.3573290E-007  0.1704127E+03  0.7546771E-02  0.1177421E+00
         -5   -1    0    0    0  501 -0.00000000000E+00  0.00000000000E+00  0.60678311503E+03  0.60680131731E+03  0.47000000000E+01 0. -1.
          5   -1    0    0  501    0  0.00000000000E+00 -0.00000000000E+00 -0.48144375136E+02  0.48373245263E+02  0.47000000000E+01 0. -1.
         25    2    1    2    0    0  0.21162789381E+02 -0.11385796408E+03  0.24872754155E+03  0.30150035913E+03  0.12500230795E+03 0.  0.
         25    2    1    2    0    0 -0.21162789381E+02  0.11385796408E+03  0.30991119835E+03  0.35367420344E+03  0.12501596571E+03 0.  0.
          5    1    3    3  502    0  0.30620564282E+01 -0.11120879896E+03  0.25759735926E+03  0.28063368054E+03  0.47000000000E+01 0. -1.
         -5    1    3    3    0  502  0.18100732952E+02 -0.26491651166E+01 -0.88698177102E+01  0.20866678591E+02  0.47000000000E+01 0. -1.
          5    1    4    4  503    0  0.51386836667E+02  0.35979615491E+02  0.97319908588E+02  0.11588094891E+03  0.47000000000E+01 0.  1.
         -5    1    4    4    0  503 -0.72549626047E+02  0.77878348584E+02  0.21259128976E+03  0.23779325453E+03  0.47000000000E+01 0.  1.
<mgrwt>
<rscale>  0 0.17041020E+03</rscale>
<asrwt>0</asrwt>
<pdfrwt beam="2">  1        5 0.74258323E-02 0.17041271E+03</pdfrwt>
<pdfrwt beam="1">  1       -5 0.93370257E-01 0.17041271E+03</pdfrwt>
<totfact> 0.97084446E+01</totfact>
</mgrwt>
</event>
<event>
 8    1  0.3573290E-007  0.1351724E+03  0.7546771E-02  0.1219981E+00
          5   -1    0    0  501    0  0.00000000000E+00  0.00000000000E+00  0.14594322516E+03  0.14601888566E+03  0.47000000000E+01 0.  1.
         -5   -1    0    0    0  501 -0.00000000000E+00 -0.00000000000E+00 -0.13292181944E+03  0.13300488744E+03  0.47000000000E+01 0.  1.
         25    2    1    2    0    0 -0.10628950096E+02  0.50328525227E+02 -0.27455247860E+02  0.13792118809E+03  0.12499011344E+03 0.  0.
         25    2    1    2    0    0  0.10628950096E+02 -0.50328525227E+02  0.40476653574E+02  0.14110258501E+03  0.12500257990E+03 0.  0.
          5    1    4    4  502    0 -0.30762839020E+02  0.29314412120E+02  0.55599879438E+00  0.42756124206E+02  0.47000000000E+01 0. -1.
         -5    1    4    4    0  502  0.41391789116E+02 -0.79642937346E+02  0.39920654779E+02  0.98346460808E+02  0.47000000000E+01 0. -1.
          5    1    3    3  503    0  0.17874140772E+02 -0.14818208584E+02  0.35603019785E+02  0.42763643808E+02  0.47000000000E+01 0.  1.
         -5    1    3    3    0  503 -0.28503090868E+02  0.65146733810E+02 -0.63058267645E+02  0.95157544281E+02  0.47000000000E+01 0.  1.
<mgrwt>
<rscale>  0 0.13516953E+03</rscale>
<asrwt>0</asrwt>
<pdfrwt beam="1">  1        5 0.22465014E-01 0.13517241E+03</pdfrwt>
<pdfrwt beam="2">  1       -5 0.20461721E-01 0.13517241E+03</pdfrwt>
<totfact> 0.29883516E+02</totfact>
</mgrwt>
</event>
<event>
 8    1  0.3573290E-007  0.1334381E+03  0.7546771E-02  0.1222444E+00
         -5   -1    0    0    0  501 -0.00000000000E+00  0.00000000000E+00  0.33840106211E+03  0.33843369932E+03  0.47000000000E+01 0.  1.
          5   -1    0    0  501    0  0.00000000000E+00 -0.00000000000E+00 -0.75591939921E+02  0.75737912441E+02  0.47000000000E+01 0.  1.
         25    2    1    2    0    0  0.78961956092E+01 -0.45991276242E+02  0.24576965515E+03  0.27965774357E+03  0.12501273036E+03 0.  0.
         25    2    1    2    0    0 -0.78961956092E+01  0.45991276242E+02  0.17039467035E+02  0.13451386819E+03  0.12500435954E+03 0.  0.
          5    1    4    4  502    0  0.10338712065E+02  0.38932384867E+02  0.68309284465E+02  0.79440971184E+02  0.47000000000E+01 0. -1.
         -5    1    4    4    0  502 -0.18234907674E+02  0.70588913748E+01 -0.51269817430E+02  0.55072897005E+02  0.47000000000E+01 0. -1.
          5    1    3    3  503    0 -0.50024939506E+01 -0.33751131396E+02  0.12680977129E+01  0.34465372304E+02  0.47000000000E+01 0.  1.
         -5    1    3    3    0  503  0.12898689560E+02 -0.12240144846E+02  0.24450155744E+03  0.24519237127E+03  0.47000000000E+01 0.  1.
<mgrwt>
<rscale>  0 0.13343615E+03</rscale>
<asrwt>0</asrwt>
<pdfrwt beam="2">  1        5 0.11643268E-01 0.13343811E+03</pdfrwt>
<pdfrwt beam="1">  1       -5 0.52075442E-01 0.13343811E+03</pdfrwt>
<totfact> 0.15387132E+02</totfact>
</mgrwt>
</event>
<event>
 8    1  0.3573290E-007  0.1407585E+03  0.7546771E-02  0.1212329E+00
          5   -1    0    0  501    0  0.00000000000E+00  0.00000000000E+00  0.82426218523E+03  0.82427558499E+03  0.47000000000E+01 0. -1.
         -5   -1    0    0    0  501 -0.00000000000E+00 -0.00000000000E+00 -0.24663973154E+02  0.25107799022E+02  0.47000000000E+01 0. -1.
         25    2    1    2    0    0  0.58882036346E+02 -0.26849240328E+02  0.32044532798E+03  0.34999737937E+03  0.12499992572E+03 0.  0.
         25    2    1    2    0    0 -0.58882036346E+02  0.26849240328E+02  0.47915288410E+03  0.49938600464E+03  0.12494366482E+03 0.  0.
          5    1    3    3  502    0  0.11773974082E+02 -0.36905405199E+02  0.29044631707E+03  0.29305594772E+03  0.47000000000E+01 0.  1.
         -5    1    3    3    0  502  0.47108062264E+02  0.10056164871E+02  0.29999010916E+02  0.56941431648E+02  0.47000000000E+01 0.  1.
          5    1    4    4  503    0 -0.58961528294E+02 -0.20947835360E+01  0.81872828665E+02  0.10102524442E+03  0.47000000000E+01 0. -1.
         -5    1    4    4    0  503  0.79491947952E-01  0.28944023864E+02  0.39728005543E+03  0.39836076022E+03  0.47000000000E+01 0. -1.
<mgrwt>
<rscale>  0 0.14074602E+03</rscale>
<asrwt>0</asrwt>
<pdfrwt beam="1">  1        5 0.12684473E+00 0.14075851E+03</pdfrwt>
<pdfrwt beam="2">  1       -5 0.38296289E-02 0.14075851E+03</pdfrwt>
<totfact> 0.12915276E+02</totfact>
</mgrwt>
</event>
<event>
 8    1  0.3573290E-007  0.1325764E+03  0.7546771E-02  0.1223687E+00
          5   -1    0    0  501    0  0.00000000000E+00  0.00000000000E+00  0.33993555420E+03  0.33996804410E+03  0.47000000000E+01 0.  1.
         -5   -1    0    0    0  501 -0.00000000000E+00 -0.00000000000E+00 -0.51589528364E+02  0.51803179795E+02  0.47000000000E+01 0.  1.
         25    2    1    2    0    0  0.37658854623E+02 -0.23035833016E+02  0.13939175552E+03  0.19237093286E+03  0.12501070101E+03 0.  0.
         25    2    1    2    0    0 -0.37658854623E+02  0.23035833016E+02  0.14895427031E+03  0.19940029104E+03  0.12499704991E+03 0.  0.
          5    1    4    4  502    0 -0.38309473717E+02  0.34488996666E+02  0.18702391325E+01  0.51794733921E+02  0.47000000000E+01 0. -1.
         -5    1    4    4    0  502  0.65061909446E+00 -0.11453163650E+02  0.14708403118E+03  0.14760555712E+03  0.47000000000E+01 0. -1.
          5    1    3    3  503    0  0.10868877749E+02 -0.54060539315E+02  0.95867677108E+01  0.56166453775E+02  0.47000000000E+01 0. -1.
         -5    1    3    3    0  503  0.26789976873E+02  0.31024706299E+02  0.12980498781E+03  0.13620447908E+03  0.47000000000E+01 0. -1.
<mgrwt>
<rscale>  0 0.13257323E+03</rscale>
<asrwt>0</asrwt>
<pdfrwt beam="1">  1        5 0.52316713E-01 0.13257645E+03</pdfrwt>
<pdfrwt beam="2">  1       -5 0.79557843E-02 0.13257645E+03</pdfrwt>
<totfact> 0.29480159E+02</totfact>
</mgrwt>
</event>
<event>
 8    1  0.3573290E-007  0.1361570E+03  0.7546771E-02  0.1218598E+00
          5   -1    0    0  501    0  0.00000000000E+00  0.00000000000E+00  0.86730763683E+03  0.86732037155E+03  0.47000000000E+01 0.  1.
         -5   -1    0    0    0  501 -0.00000000000E+00 -0.00000000000E+00 -0.21375951362E+02  0.21886555156E+02  0.47000000000E+01 0.  1.
         25    2    1    2    0    0 -0.35196126244E+02 -0.40952744100E+02  0.37330001131E+03  0.39735387115E+03  0.12498522279E+03 0.  0.
         25    2    1    2    0    0  0.35196126244E+02  0.40952744100E+02  0.47263167416E+03  0.49185305556E+03  0.12499133689E+03 0.  0.
          5    1    3    3  502    0  0.67764190399E+01 -0.76097347894E+02  0.26614631575E+03  0.27693442833E+03  0.47000000000E+01 0. -1.
         -5    1    3    3    0  502 -0.41972545284E+02  0.35144603793E+02  0.10715369557E+03  0.12041944281E+03  0.47000000000E+01 0. -1.
          5    1    4    4  503    0  0.82510214042E+01  0.75064172794E+02  0.39986712921E+03  0.40696255407E+03  0.47000000000E+01 0.  1.
         -5    1    4    4    0  503  0.26945104840E+02 -0.34111428694E+02  0.72764544952E+02  0.84890501498E+02  0.47000000000E+01 0.  1.
<mgrwt>
<rscale>  0 0.13615560E+03</rscale>
<asrwt>0</asrwt>
<pdfrwt beam="1">  1        5 0.13347220E+00 0.13615700E+03</pdfrwt>
<pdfrwt beam="2">  1       -5 0.33288648E-02 0.13615700E+03</pdfrwt>
<totfact> 0.14065249E+02</totfact>
</mgrwt>
</event>
<event>
 8    1  0.3573290E-007  0.1824514E+03  0.7546771E-02  0.1165453E+00
         -5   -1    0    0    0  501 -0.00000000000E+00  0.00000000000E+00  0.71605648698E+02  0.71759730528E+02  0.47000000000E+01 0.  1.
          5   -1    0    0  501    0  0.00000000000E+00 -0.00000000000E+00 -0.47209034395E+03  0.47211373932E+03  0.47000000000E+01 0.  1.
         25    2    1    2    0    0  0.87458270565E+02 -0.10007335810E+03 -0.16511450945E+03  0.24607178126E+03  0.12499957683E+03 0.  0.
         25    2    1    2    0    0 -0.87458270565E+02  0.10007335810E+03 -0.23537018580E+03  0.29780168858E+03  0.12499238084E+03 0.  0.
          5    1    3    3  502    0 -0.31395444101E+02 -0.32956240687E+02 -0.37676749850E+02  0.59274068443E+02  0.47000000000E+01 0.  1.
         -5    1    3    3    0  502  0.11885371467E+03 -0.67117117417E+02 -0.12743775960E+03  0.18679771282E+03  0.47000000000E+01 0.  1.
          5    1    4    4  503    0 -0.54870215010E+02  0.12388638626E+03 -0.14387016192E+03  0.19768482665E+03  0.47000000000E+01 0.  1.
         -5    1    4    4    0  503 -0.32588055556E+02 -0.23813028155E+02 -0.91500023874E+02  0.10011686194E+03  0.47000000000E+01 0.  1.
<mgrwt>
<rscale>  0 0.18245019E+03</rscale>
<asrwt>0</asrwt>
<pdfrwt beam="2">  1        5 0.72642934E-01 0.18245142E+03</pdfrwt>
<pdfrwt beam="1">  1       -5 0.11029906E-01 0.18245142E+03</pdfrwt>
<totfact> 0.89541609E+01</totfact>
</mgrwt>
</event>
<event>
 8    1  0.3573290E-007  0.1549855E+03  0.7546771E-02  0.1194481E+00
         -5   -1    0    0    0  501 -0.00000000000E+00  0.00000000000E+00  0.41540763128E+02  0.41805801048E+02  0.47000000000E+01 0.  1.
          5   -1    0    0  501    0  0.00000000000E+00 -0.00000000000E+00 -0.57756226860E+03  0.57758139176E+03  0.47000000000E+01 0.  1.
         25    2    1    2    0    0  0.63886726794E+02 -0.65682960148E+02 -0.28371521821E+03  0.32328755159E+03  0.12499900342E+03 0.  0.
         25    2    1    2    0    0 -0.63886726794E+02  0.65682960148E+02 -0.25230628727E+03  0.29609964122E+03  0.12498307815E+03 0.  0.
          5    1    4    4  502    0  0.14133735272E+02 -0.25540112581E+02 -0.86029161837E+02  0.90967942209E+02  0.47000000000E+01 0.  1.
         -5    1    4    4    0  502 -0.78020462066E+02  0.91223072729E+02 -0.16627712543E+03  0.20513169901E+03  0.47000000000E+01 0.  1.
          5    1    3    3  503    0  0.52884712738E+02  0.52325447989E+01 -0.33626267826E+02  0.63063366976E+02  0.47000000000E+01 0. -1.
         -5    1    3    3    0  503  0.11002014056E+02 -0.70915504947E+02 -0.25008895038E+03  0.26022418461E+03  0.47000000000E+01 0. -1.
<mgrwt>
<rscale>  0 0.15498232E+03</rscale>
<asrwt>0</asrwt>
<pdfrwt beam="2">  1        5 0.88877586E-01 0.15498553E+03</pdfrwt>
<pdfrwt beam="1">  1       -5 0.64127456E-02 0.15498553E+03</pdfrwt>
<totfact> 0.13624160E+02</totfact>
</mgrwt>
</event>
<event>
 8    1  0.3573290E-007  0.1355791E+03  0.7546771E-02  0.1219406E+00
          5   -1    0    0  501    0  0.00000000000E+00  0.00000000000E+00  0.22099832279E+03  0.22104829489E+03  0.47000000000E+01 0. -1.
         -5   -1    0    0    0  501 -0.00000000000E+00 -0.00000000000E+00 -0.15568079065E+03  0.15575172094E+03  0.47000000000E+01 0. -1.
         25    2    1    2    0    0 -0.20664872650E+02 -0.48253311630E+02 -0.95964202872E+02  0.16610487823E+03  0.12500513307E+03 0.  0.
         25    2    1    2    0    0  0.20664872650E+02  0.48253311630E+02  0.16128173501E+03  0.21069513760E+03  0.12500089566E+03 0.  0.
          5    1    3    3  502    0  0.24316643064E+02  0.71917905097E+01  0.18064020081E+02  0.31486819499E+02  0.47000000000E+01 0. -1.
         -5    1    3    3    0  502 -0.44981515714E+02 -0.55445102140E+02 -0.11402822295E+03  0.13461805873E+03  0.47000000000E+01 0. -1.
          5    1    4    4  503    0  0.59115663373E+02 -0.56868923436E+01  0.37991187424E+02  0.70657078360E+02  0.47000000000E+01 0.  1.
         -5    1    4    4    0  503 -0.38450790723E+02  0.53940203974E+02  0.12329054759E+03  0.14003805924E+03  0.47000000000E+01 0.  1.
<mgrwt>
<rscale>  0 0.13557816E+03</rscale>
<asrwt>0</asrwt>
<pdfrwt beam="1">  1        5 0.34009042E-01 0.13557914E+03</pdfrwt>
<pdfrwt beam="2">  1       -5 0.23960191E-01 0.13557914E+03</pdfrwt>
<totfact> 0.99276987E+01</totfact>
</mgrwt>
</event>
<event>
 8    1  0.3573290E-007  0.1459325E+03  0.7546771E-02  0.1205568E+00
         -5   -1    0    0    0  501 -0.00000000000E+00  0.00000000000E+00  0.71904264760E+02  0.72057708059E+02  0.47000000000E+01 0. -1.
          5   -1    0    0  501    0  0.00000000000E+00 -0.00000000000E+00 -0.46051957723E+03  0.46054356039E+03  0.47000000000E+01 0. -1.
         25    2    1    2    0    0 -0.88361980424E+01 -0.74786444902E+02 -0.34994651731E+02  0.15005208398E+03  0.12497964443E+03 0.  0.
         25    2    1    2    0    0  0.88361980424E+01  0.74786444902E+02 -0.35362066074E+03  0.38254918446E+03  0.12500086437E+03 0.  0.
          5    1    4    4  502    0  0.19071174928E+02  0.51034740151E+02 -0.35198952177E+03  0.35621197040E+03  0.47000000000E+01 0. -1.
         -5    1    4    4    0  502 -0.10234976886E+02  0.23751704752E+02 -0.16311389675E+01  0.26337214067E+02  0.47000000000E+01 0. -1.
          5    1    3    3  503    0 -0.55215950419E+02  0.12355910081E+01 -0.37351092277E+01  0.55555097936E+02  0.47000000000E+01 0.  1.
         -5    1    3    3    0  503  0.46379752376E+02 -0.76022035911E+02 -0.31259542504E+02  0.94496986047E+02  0.47000000000E+01 0.  1.
<mgrwt>
<rscale>  0 0.14592800E+03</rscale>
<asrwt>0</asrwt>
<pdfrwt beam="2">  1        5 0.70862812E-01 0.14593254E+03</pdfrwt>
<pdfrwt beam="1">  1       -5 0.11075843E-01 0.14593254E+03</pdfrwt>
<totfact> 0.87973515E+01</totfact>
</mgrwt>
</event>
<event>
 8    1  0.3573290E-007  0.1516212E+03  0.7546771E-02  0.1198497E+00
         -5   -1    0    0    0  501 -0.00000000000E+00  0.00000000000E+00  0.55785367155E+02  0.55983008034E+02  0.47000000000E+01 0. -1.
          5   -1    0    0  501    0  0.00000000000E+00 -0.00000000000E+00 -0.50988453718E+03  0.50990619849E+03  0.47000000000E+01 0. -1.
         25    2    1    2    0    0 -0.46937508184E+02  0.71823534483E+02 -0.10255454444E+03  0.18304118734E+03  0.12499956759E+03 0.  0.
         25    2    1    2    0    0  0.46937508184E+02 -0.71823534483E+02 -0.35154462558E+03  0.38284801918E+03  0.12500892862E+03 0.  0.
          5    1    3    3  502    0  0.42061044906E+02  0.35597210426E+02 -0.40763727091E+02  0.68702724364E+02  0.47000000000E+01 0.  1.
         -5    1    3    3    0  502 -0.88998553090E+02  0.36226324058E+02 -0.61790817354E+02  0.11433846298E+03  0.47000000000E+01 0.  1.
          5    1    4    4  503    0  0.88583477469E+02 -0.50030018888E+02 -0.27056260664E+03  0.28909557137E+03  0.47000000000E+01 0. -1.
         -5    1    4    4    0  503 -0.41645969285E+02 -0.21793515595E+02 -0.80982018938E+02  0.93752447813E+02  0.47000000000E+01 0. -1.
<mgrwt>
<rscale>  0 0.15161925E+03</rscale>
<asrwt>0</asrwt>
<pdfrwt beam="2">  1        5 0.78460641E-01 0.15162118E+03</pdfrwt>
<pdfrwt beam="1">  1       -5 0.85992339E-02 0.15162118E+03</pdfrwt>
<totfact> 0.10970953E+02</totfact>
</mgrwt>
</event>
<event>
 8    1  0.3573290E-007  0.1335001E+03  0.7546771E-02  0.1222353E+00
          5   -1    0    0  501    0  0.00000000000E+00  0.00000000000E+00  0.17887861523E+02  0.18495015270E+02  0.47000000000E+01 0.  1.
         -5   -1    0    0    0  501 -0.00000000000E+00 -0.00000000000E+00 -0.15396913297E+04  0.15396985032E+04  0.47000000000E+01 0.  1.
         25    2    1    2    0    0 -0.28221680239E+02  0.37413913441E+02 -0.12309196432E+04  0.12381378950E+04  0.12500405920E+03 0.  0.
         25    2    1    2    0    0  0.28221680239E+02 -0.37413913441E+02 -0.29088382491E+03  0.32005562342E+03  0.12500375328E+03 0.  0.
          5    1    3    3  502    0  0.49722515427E+02  0.13222364315E+02 -0.45496394481E+03  0.45788802183E+03  0.47000000000E+01 0. -1.
         -5    1    3    3    0  502 -0.77944195666E+02  0.24191549125E+02 -0.77595569843E+03  0.78024987319E+03  0.47000000000E+01 0. -1.
          5    1    4    4  503    0  0.71577830680E+00 -0.59376221987E+02 -0.53607542006E+02  0.80136799511E+02  0.47000000000E+01 0.  1.
         -5    1    4    4    0  503  0.27505901933E+02  0.21962308546E+02 -0.23727628290E+03  0.23991882391E+03  0.47000000000E+01 0.  1.
<mgrwt>
<rscale>  0 0.13350004E+03</rscale>
<asrwt>0</asrwt>
<pdfrwt beam="1">  1        5 0.27992359E-02 0.13350011E+03</pdfrwt>
<pdfrwt beam="2">  1       -5 0.23692274E+00 0.13350011E+03</pdfrwt>
<totfact> 0.33720189E+01</totfact>
</mgrwt>
</event>
<event>
 8    1  0.3573290E-007  0.1839806E+03  0.7546771E-02  0.1164008E+00
          5   -1    0    0  501    0  0.00000000000E+00  0.00000000000E+00  0.20572311909E+03  0.20577680076E+03  0.47000000000E+01 0.  1.
         -5   -1    0    0    0  501 -0.00000000000E+00 -0.00000000000E+00 -0.20517609286E+03  0.20522991761E+03  0.47000000000E+01 0.  1.
         25    2    1    2    0    0  0.51743295983E+02 -0.12468570392E+03 -0.91293933182E+02  0.20538608852E+03  0.12499987872E+03 0.  0.
         25    2    1    2    0    0 -0.51743295983E+02  0.12468570392E+03  0.91840959415E+02  0.20562062985E+03  0.12498475167E+03 0.  0.
          5    1    4    4  502    0 -0.68393477961E+02  0.55416167790E+02 -0.14257061754E+01  0.88163156240E+02  0.47000000000E+01 0.  1.
         -5    1    4    4    0  502  0.16650181978E+02  0.69269536130E+02  0.93266665590E+02  0.11745747361E+03  0.47000000000E+01 0.  1.
          5    1    3    3  503    0 -0.13186743634E+02 -0.10835805460E+03 -0.27225847203E+02  0.11259971119E+03  0.47000000000E+01 0.  1.
         -5    1    3    3    0  503  0.64930039617E+02 -0.16327649321E+02 -0.64068085979E+02  0.92786377330E+02  0.47000000000E+01 0.  1.
<mgrwt>
<rscale>  0 0.18397804E+03</rscale>
<asrwt>0</asrwt>
<pdfrwt beam="1">  1        5 0.31657980E-01 0.18398061E+03</pdfrwt>
<pdfrwt beam="2">  1       -5 0.31573822E-01 0.18398061E+03</pdfrwt>
<totfact> 0.73455937E+01</totfact>
</mgrwt>
</event>
<event>
 8    1  0.3573290E-007  0.1297082E+03  0.7546771E-02  0.1227894E+00
         -5   -1    0    0    0  501 -0.00000000000E+00  0.00000000000E+00  0.41643182319E+01  0.62794543025E+01  0.47000000000E+01 0. -1.
          5   -1    0    0  501    0  0.00000000000E+00 -0.00000000000E+00 -0.32409285149E+04  0.32409319229E+04  0.47000000000E+01 0. -1.
         25    2    1    2    0    0  0.21288548164E+02 -0.27316061949E+02 -0.14862052915E+04  0.14918536647E+04  0.12498727505E+03 0.  0.
         25    2    1    2    0    0 -0.21288548164E+02  0.27316061949E+02 -0.17505589052E+04  0.17553577125E+04  0.12499939479E+03 0.  0.
          5    1    3    3  502    0 -0.17887579287E+02  0.32519218814E+02 -0.18883702278E+03  0.19250708106E+03  0.47000000000E+01 0.  1.
         -5    1    3    3    0  502  0.39176127452E+02 -0.59835280763E+02 -0.12973682687E+04  0.12993465836E+04  0.47000000000E+01 0.  1.
          5    1    4    4  503    0  0.22700105762E+02  0.55289679039E+02 -0.13582562384E+04  0.13595787371E+04  0.47000000000E+01 0.  1.
         -5    1    4    4    0  503 -0.43988653926E+02 -0.27973617089E+02 -0.39230266685E+03  0.39577897537E+03  0.47000000000E+01 0.  1.
<mgrwt>
<rscale>  0 0.12970528E+03</rscale>
<asrwt>0</asrwt>
<pdfrwt beam="2">  1        5 0.49876574E+00 0.12970820E+03</pdfrwt>
<pdfrwt beam="1">  1       -5 0.80363186E-03 0.12970820E+03</pdfrwt>
<totfact> 0.37798902E+00</totfact>
</mgrwt>
</event>
<event>
 8    1  0.3573290E-007  0.1273003E+03  0.7546771E-02  0.1231519E+00
          5   -1    0    0  501    0  0.00000000000E+00  0.00000000000E+00  0.24117801826E+02  0.24571494967E+02  0.47000000000E+01 0.  1.
         -5   -1    0    0    0  501 -0.00000000000E+00 -0.00000000000E+00 -0.69078124570E+03  0.69079723465E+03  0.47000000000E+01 0.  1.
         25    2    1    2    0    0  0.27039437910E+01 -0.23921958169E+02 -0.40216106135E+03  0.42182802814E+03  0.12500317862E+03 0.  0.
         25    2    1    2    0    0 -0.27039437910E+01  0.23921958169E+02 -0.26450238252E+03  0.29354070148E+03  0.12500024668E+03 0.  0.
          5    1    3    3  502    0 -0.29433768188E+02 -0.46922089750E+02 -0.35836235855E+03  0.36264817557E+03  0.47000000000E+01 0. -1.
         -5    1    3    3    0  502  0.32137711979E+02  0.23000131581E+02 -0.43798702799E+02  0.59179852576E+02  0.47000000000E+01 0. -1.
          5    1    4    4  503    0 -0.39949925064E+01 -0.33542873877E+02 -0.14649753705E+02  0.37118588829E+02  0.47000000000E+01 0.  1.
         -5    1    4    4    0  503  0.12910487154E+01  0.57464832046E+02 -0.24985262882E+03  0.25642211265E+03  0.47000000000E+01 0.  1.
<mgrwt>
<rscale>  0 0.12729958E+03</rscale>
<asrwt>0</asrwt>
<pdfrwt beam="1">  1        5 0.37465610E-02 0.12730030E+03</pdfrwt>
<pdfrwt beam="2">  1       -5 0.10631015E+00 0.12730030E+03</pdfrwt>
<totfact> 0.20212699E+02</totfact>
</mgrwt>
</event>
<event>
 8    1  0.3573290E-007  0.1408605E+03  0.7546771E-02  0.1212187E+00
          5   -1    0    0  501    0  0.00000000000E+00  0.00000000000E+00  0.26769597770E+03  0.26773723401E+03  0.47000000000E+01 0.  1.
         -5   -1    0    0    0  501 -0.00000000000E+00 -0.00000000000E+00 -0.73987347947E+02  0.74136479929E+02  0.47000000000E+01 0.  1.
         25    2    1    2    0    0 -0.64698645977E+02  0.46260034497E+01  0.95274452601E+02  0.17005555758E+03  0.12503742098E+03 0.  0.
         25    2    1    2    0    0  0.64698645977E+02 -0.46260034497E+01  0.98434177149E+02  0.17181815636E+03  0.12499950770E+03 0.  0.
          5    1    3    3  502    0 -0.27908104524E+02 -0.57833731564E+02  0.64584164238E+02  0.91196529951E+02  0.47000000000E+01 0.  1.
         -5    1    3    3    0  502 -0.36790541453E+02  0.62459735014E+02  0.30690288363E+02  0.78859027627E+02  0.47000000000E+01 0.  1.
          5    1    4    4  503    0  0.33604954455E+02 -0.64434310148E+02  0.44325533110E+02  0.85252074307E+02  0.47000000000E+01 0. -1.
         -5    1    4    4    0  503  0.31093691521E+02  0.59808306698E+02  0.54108644039E+02  0.86566082055E+02  0.47000000000E+01 0. -1.
<mgrwt>
<rscale>  0 0.14085205E+03</rscale>
<asrwt>0</asrwt>
<pdfrwt beam="1">  1        5 0.41198642E-01 0.14086047E+03</pdfrwt>
<pdfrwt beam="2">  1       -5 0.11397314E-01 0.14086047E+03</pdfrwt>
<totfact> 0.26570110E+02</totfact>
</mgrwt>
</event>
<event>
 8    1  0.3573290E-007  0.1395100E+03  0.7546771E-02  0.1213990E+00
          5   -1    0    0  501    0  0.00000000000E+00  0.00000000000E+00  0.63745442792E+02  0.63918475238E+02  0.47000000000E+01 0. -1.
         -5   -1    0    0    0  501 -0.00000000000E+00 -0.00000000000E+00 -0.31944021755E+03  0.31947479179E+03  0.47000000000E+01 0. -1.
         25    2    1    2    0    0  0.31032955286E+02 -0.53617567645E+02 -0.16898543157E+03  0.21913266580E+03  0.12500064505E+03 0.  0.
         25    2    1    2    0    0 -0.31032955286E+02  0.53617567645E+02 -0.86709343189E+02  0.16426060123E+03  0.12500058818E+03 0.  0.
          5    1    4    4  502    0 -0.34320860360E+02  0.11949391180E+02 -0.11016625087E+03  0.11610082789E+03  0.47000000000E+01 0. -1.
         -5    1    4    4    0  502  0.32879050738E+01  0.41668176465E+02  0.23456907685E+02  0.48159773337E+02  0.47000000000E+01 0. -1.
          5    1    3    3  503    0 -0.36403462701E+02  0.25801241501E+01 -0.11117640799E+02  0.38439056625E+02  0.47000000000E+01 0.  1.
         -5    1    3    3    0  503  0.67436417987E+02 -0.56197691795E+02 -0.15786779077E+03  0.18069360917E+03  0.47000000000E+01 0.  1.
<mgrwt>
<rscale>  0 0.13951002E+03</rscale>
<asrwt>0</asrwt>
<pdfrwt beam="1">  1        5 0.98229612E-02 0.13951003E+03</pdfrwt>
<pdfrwt beam="2">  1       -5 0.49160618E-01 0.13951003E+03</pdfrwt>
<totfact> 0.23783698E+02</totfact>
</mgrwt>
</event>
<event>
 8    1  0.3573290E-007  0.1384041E+03  0.7546771E-02  0.1215493E+00
         -5   -1    0    0    0  501 -0.00000000000E+00  0.00000000000E+00  0.21348180077E+03  0.21353353193E+03  0.47000000000E+01 0. -1.
          5   -1    0    0  501    0  0.00000000000E+00 -0.00000000000E+00 -0.18958399336E+03  0.18964224355E+03  0.47000000000E+01 0. -1.
         25    2    1    2    0    0  0.57282674573E+02 -0.15807645828E+02  0.15828625502E+03  0.21026227724E+03  0.12499800091E+03 0.  0.
         25    2    1    2    0    0 -0.57282674573E+02  0.15807645828E+02 -0.13438844761E+03  0.19291349824E+03  0.12499670588E+03 0.  0.
          5    1    4    4  502    0 -0.59594491651E+02  0.62842515436E+02 -0.10870874037E+03  0.13906964232E+03  0.47000000000E+01 0.  1.
         -5    1    4    4    0  502  0.23118170781E+01 -0.47034869608E+02 -0.25679707242E+02  0.53843855929E+02  0.47000000000E+01 0.  1.
          5    1    3    3  503    0  0.58039647981E+02 -0.73398226164E+01  0.75048730579E+01  0.59168292635E+02  0.47000000000E+01 0.  1.
         -5    1    3    3    0  503 -0.75697340740E+00 -0.84678232118E+01  0.15078138196E+03  0.15109398461E+03  0.47000000000E+01 0.  1.
<mgrwt>
<rscale>  0 0.13840378E+03</rscale>
<asrwt>0</asrwt>
<pdfrwt beam="2">  1        5 0.29175228E-01 0.13840407E+03</pdfrwt>
<pdfrwt beam="1">  1       -5 0.32851814E-01 0.13840407E+03</pdfrwt>
<totfact> 0.73216257E+01</totfact>
</mgrwt>
</event>
<event>
 8    1  0.3573290E-007  0.1654773E+03  0.7546771E-02  0.1182648E+00
          5   -1    0    0  501    0  0.00000000000E+00  0.00000000000E+00  0.86718522694E+02  0.86845795397E+02  0.47000000000E+01 0.  1.
         -5   -1    0    0    0  501 -0.00000000000E+00 -0.00000000000E+00 -0.32940170343E+03  0.32943523221E+03  0.47000000000E+01 0.  1.
         25    2    1    2    0    0  0.77627126767E+02  0.75719761710E+02 -0.16426204583E+03  0.23316187805E+03  0.12499195395E+03 0.  0.
         25    2    1    2    0    0 -0.77627126767E+02 -0.75719761710E+02 -0.78421134905E+02  0.18311914956E+03  0.12499318146E+03 0.  0.
          5    1    3    3  502    0  0.74044901086E+02  0.10355864800E+03 -0.96975319225E+02  0.16010416451E+03  0.47000000000E+01 0. -1.
         -5    1    3    3    0  502  0.35822256810E+01 -0.27838886293E+02 -0.67286726606E+02  0.73057713544E+02  0.47000000000E+01 0. -1.
          5    1    4    4  503    0 -0.14390762798E+02 -0.91346128365E+02 -0.18365265338E+02  0.94395880165E+02  0.47000000000E+01 0. -1.
         -5    1    4    4    0  503 -0.63236363969E+02  0.15626366655E+02 -0.60055869567E+02  0.88723269395E+02  0.47000000000E+01 0. -1.
<mgrwt>
<rscale>  0 0.16547710E+03</rscale>
<asrwt>0</asrwt>
<pdfrwt beam="1">  1        5 0.13353681E-01 0.16547734E+03</pdfrwt>
<pdfrwt beam="2">  1       -5 0.50689554E-01 0.16547734E+03</pdfrwt>
<totfact> 0.13681133E+02</totfact>
</mgrwt>
</event>
<event>
 8    1  0.3573290E-007  0.1444815E+03  0.7546771E-02  0.1207423E+00
          5   -1    0    0  501    0  0.00000000000E+00  0.00000000000E+00  0.85456989060E+02  0.85586137775E+02  0.47000000000E+01 0. -1.
         -5   -1    0    0    0  501 -0.00000000000E+00 -0.00000000000E+00 -0.24600996254E+03  0.24605485500E+03  0.47000000000E+01 0. -1.
         25    2    1    2    0    0 -0.65325153683E+02  0.31334509972E+02 -0.95498050837E+02  0.17319004035E+03  0.12500274054E+03 0.  0.
         25    2    1    2    0    0  0.65325153683E+02 -0.31334509972E+02 -0.65054922640E+02  0.15845095243E+03  0.12500133658E+03 0.  0.
          5    1    3    3  502    0 -0.35300860733E+02  0.23194646563E+02 -0.12378779292E+03  0.13088028910E+03  0.47000000000E+01 0.  1.
         -5    1    3    3    0  502 -0.30024292950E+02  0.81398634090E+01  0.28289742085E+02  0.42309751248E+02  0.47000000000E+01 0.  1.
          5    1    4    4  503    0  0.28959134597E+02 -0.71989286546E+02 -0.68475602118E+02  0.10359578630E+03  0.47000000000E+01 0. -1.
         -5    1    4    4    0  503  0.36366019086E+02  0.40654776575E+02  0.34206794775E+01  0.54855166125E+02  0.47000000000E+01 0. -1.
<mgrwt>
<rscale>  0 0.14448123E+03</rscale>
<asrwt>0</asrwt>
<pdfrwt beam="1">  1        5 0.13160617E-01 0.14448153E+03</pdfrwt>
<pdfrwt beam="2">  1       -5 0.37861074E-01 0.14448153E+03</pdfrwt>
<totfact> 0.24662496E+02</totfact>
</mgrwt>
</event>
<event>
 8    1  0.3573290E-007  0.1346849E+03  0.7546771E-02  0.1220667E+00
         -5   -1    0    0    0  501 -0.00000000000E+00  0.00000000000E+00  0.56143673316E+02  0.56340057272E+02  0.47000000000E+01 0. -1.
          5   -1    0    0  501    0  0.00000000000E+00 -0.00000000000E+00 -0.32965987526E+03  0.32969337779E+03  0.47000000000E+01 0. -1.
         25    2    1    2    0    0  0.32708019363E+02 -0.38016389679E+02 -0.10795482523E+03  0.17261012367E+03  0.12499980035E+03 0.  0.
         25    2    1    2    0    0 -0.32708019363E+02  0.38016389679E+02 -0.16556137671E+03  0.21342331139E+03  0.12499551981E+03 0.  0.
          5    1    3    3  502    0  0.64444323024E+02 -0.34660658411E+02 -0.11791135172E+03  0.13885103124E+03  0.47000000000E+01 0.  1.
         -5    1    3    3    0  502 -0.31736303661E+02 -0.33557312678E+01  0.99565264818E+01  0.33759092434E+02  0.47000000000E+01 0.  1.
          5    1    4    4  503    0 -0.38537533184E+02  0.35185767216E+02 -0.18506584939E+03  0.19233990300E+03  0.47000000000E+01 0. -1.
         -5    1    4    4    0  503  0.58295138202E+01  0.28306224635E+01  0.19504472675E+02  0.21083408387E+02  0.47000000000E+01 0. -1.
<mgrwt>
<rscale>  0 0.13468386E+03</rscale>
<asrwt>0</asrwt>
<pdfrwt beam="2">  1        5 0.50734586E-01 0.13468486E+03</pdfrwt>
<pdfrwt beam="1">  1       -5 0.86551720E-02 0.13468486E+03</pdfrwt>
<totfact> 0.27377242E+02</totfact>
</mgrwt>
</event>
<event>
 8    1  0.3573290E-007  0.1332274E+03  0.7546771E-02  0.1222745E+00
          5   -1    0    0  501    0  0.00000000000E+00  0.00000000000E+00  0.89640734159E+01  0.10121492588E+02  0.47000000000E+01 0.  1.
         -5   -1    0    0    0  501 -0.00000000000E+00 -0.00000000000E+00 -0.20694820039E+04  0.20694873409E+04  0.47000000000E+01 0.  1.
         25    2    1    2    0    0 -0.12350403799E+02 -0.44405328351E+02 -0.13619200248E+04  0.13684206932E+04  0.12499869497E+03 0.  0.
         25    2    1    2    0    0  0.12350403799E+02  0.44405328351E+02 -0.69859790562E+03  0.71118814038E+03  0.12500068649E+03 0.  0.
          5    1    4    4  502    0  0.61074973952E+02  0.35063550305E+02 -0.24816539591E+03  0.25800728426E+03  0.47000000000E+01 0.  1.
         -5    1    4    4    0  502 -0.48724570153E+02  0.93417780464E+01 -0.45043250970E+03  0.45318085612E+03  0.47000000000E+01 0.  1.
          5    1    3    3  503    0  0.35920755067E+02 -0.65557704644E+02 -0.97919139280E+03  0.98205192684E+03  0.47000000000E+01 0. -1.
         -5    1    3    3    0  503 -0.48271158866E+02  0.21152376292E+02 -0.38272863204E+03  0.38636876631E+03  0.47000000000E+01 0. -1.
<mgrwt>
<rscale>  0 0.13322692E+03</rscale>
<asrwt>0</asrwt>
<pdfrwt beam="1">  1        5 0.14685327E-02 0.13322739E+03</pdfrwt>
<pdfrwt beam="2">  1       -5 0.31847093E+00 0.13322739E+03</pdfrwt>
<totfact> 0.28645494E+01</totfact>
</mgrwt>
</event>
<event>
 8    1  0.3573290E-007  0.1489679E+03  0.7546771E-02  0.1201750E+00
          5   -1    0    0  501    0  0.00000000000E+00  0.00000000000E+00  0.52513920381E+02  0.52723826054E+02  0.47000000000E+01 0.  1.
         -5   -1    0    0    0  501 -0.00000000000E+00 -0.00000000000E+00 -0.44678576482E+03  0.44681048515E+03  0.47000000000E+01 0.  1.
         25    2    1    2    0    0 -0.91979941366E-01 -0.81038103444E+02 -0.25656426008E+03  0.29667600680E+03  0.12499700313E+03 0.  0.
         25    2    1    2    0    0  0.91979941366E-01  0.81038103444E+02 -0.13770758436E+03  0.20285830441E+03  0.12498371977E+03 0.  0.
          5    1    4    4  502    0 -0.39858610598E+02  0.94661624295E+02 -0.11651404772E+03  0.15539351746E+03  0.47000000000E+01 0.  1.
         -5    1    4    4    0  502  0.39950590540E+02 -0.13623520851E+02 -0.21193536643E+02  0.47464786951E+02  0.47000000000E+01 0.  1.
          5    1    3    3  503    0  0.44006279496E+02  0.98028094807E+01 -0.55743054168E+02  0.71847239312E+02  0.47000000000E+01 0. -1.
         -5    1    3    3    0  503 -0.44098259438E+02 -0.90840912924E+02 -0.20082120591E+03  0.22482876749E+03  0.47000000000E+01 0. -1.
<mgrwt>
<rscale>  0 0.14896511E+03</rscale>
<asrwt>0</asrwt>
<pdfrwt beam="1">  1        5 0.80971131E-02 0.14896789E+03</pdfrwt>
<pdfrwt beam="2">  1       -5 0.68754317E-01 0.14896789E+03</pdfrwt>
<totfact> 0.16348243E+02</totfact>
</mgrwt>
</event>
<event>
 8    1  0.3573290E-007  0.1270080E+03  0.7546771E-02  0.1231964E+00
          5   -1    0    0  501    0  0.00000000000E+00  0.00000000000E+00  0.16848763353E+03  0.16855317455E+03  0.47000000000E+01 0.  1.
         -5   -1    0    0    0  501 -0.00000000000E+00 -0.00000000000E+00 -0.10311504401E+03  0.10322210180E+03  0.47000000000E+01 0.  1.
         25    2    1    2    0    0  0.18561948979E+02 -0.12707221590E+02 -0.39715221776E+01  0.12707012224E+03  0.12500009419E+03 0.  0.
         25    2    1    2    0    0 -0.18561948979E+02  0.12707221590E+02  0.69344111696E+02  0.14470515411E+03  0.12499982548E+03 0.  0.
          5    1    4    4  502    0 -0.26349830543E+02  0.63005826113E+02  0.14960770364E+02  0.70071123466E+02  0.47000000000E+01 0. -1.
         -5    1    4    4    0  502  0.77878815642E+01 -0.50298604523E+02  0.54383341332E+02  0.74634030647E+02  0.47000000000E+01 0. -1.
          5    1    3    3  503    0  0.17513649221E+02  0.53527313947E+02 -0.17768276095E+02  0.59242745402E+02  0.47000000000E+01 0.  1.
         -5    1    3    3    0  503  0.10482997583E+01 -0.66234535537E+02  0.13796753917E+02  0.67827376839E+02  0.47000000000E+01 0.  1.
<mgrwt>
<rscale>  0 0.12700798E+03</rscale>
<asrwt>0</asrwt>
<pdfrwt beam="1">  1        5 0.25934451E-01 0.12700804E+03</pdfrwt>
<pdfrwt beam="2">  1       -5 0.15877130E-01 0.12700804E+03</pdfrwt>
<totfact> 0.35473640E+02</totfact>
</mgrwt>
</event>
<event>
 8    1  0.3573290E-007  0.1389321E+03  0.7546771E-02  0.1214775E+00
          5   -1    0    0  501    0  0.00000000000E+00  0.00000000000E+00  0.11257161639E+03  0.11266968899E+03  0.47000000000E+01 0.  1.
         -5   -1    0    0    0  501 -0.00000000000E+00 -0.00000000000E+00 -0.17233536552E+03  0.17239944376E+03  0.47000000000E+01 0.  1.
         25    2    1    2    0    0  0.53750483572E+02 -0.28050579717E+02 -0.41176046290E+02  0.14490549165E+03  0.12500474077E+03 0.  0.
         25    2    1    2    0    0 -0.53750483572E+02  0.28050579717E+02 -0.18587702844E+02  0.14016364110E+03  0.12499757631E+03 0.  0.
          5    1    4    4  502    0 -0.52530931367E+02 -0.38696954103E+02 -0.30520698226E+02  0.72184181282E+02  0.47000000000E+01 0. -1.
         -5    1    4    4    0  502 -0.12195522055E+01  0.66747533821E+02  0.11932995382E+02  0.67979459820E+02  0.47000000000E+01 0. -1.
          5    1    3    3  503    0 -0.40428142549E+02 -0.14942054765E+02 -0.80036059207E+01  0.44089085025E+02  0.47000000000E+01 0. -1.
         -5    1    3    3    0  503  0.94178626121E+02 -0.13108524952E+02 -0.33172440369E+02  0.10081640662E+03  0.47000000000E+01 0. -1.
<mgrwt>
<rscale>  0 0.13893051E+03</rscale>
<asrwt>0</asrwt>
<pdfrwt beam="1">  1        5 0.17331183E-01 0.13893212E+03</pdfrwt>
<pdfrwt beam="2">  1       -5 0.26525606E-01 0.13893212E+03</pdfrwt>
<totfact> 0.29877162E+02</totfact>
</mgrwt>
</event>
<event>
 8    1  0.3573290E-007  0.1285570E+03  0.7546771E-02  0.1229613E+00
          5   -1    0    0  501    0  0.00000000000E+00  0.00000000000E+00  0.16381804414E+03  0.16388545264E+03  0.47000000000E+01 0.  1.
         -5   -1    0    0    0  501 -0.00000000000E+00 -0.00000000000E+00 -0.17325084214E+03  0.17331458191E+03  0.47000000000E+01 0.  1.
         25    2    1    2    0    0  0.72852747274E+01 -0.29134277439E+02 -0.11374070182E+03  0.17165034405E+03  0.12500004805E+03 0.  0.
         25    2    1    2    0    0 -0.72852747274E+01  0.29134277439E+02  0.10430790382E+03  0.16554969050E+03  0.12499871949E+03 0.  0.
          5    1    4    4  502    0 -0.34279737983E+02  0.70073504523E+02  0.53039440335E+02  0.94449291703E+02  0.47000000000E+01 0. -1.
         -5    1    4    4    0  502  0.26994463255E+02 -0.40939227084E+02  0.51268463483E+02  0.71100398793E+02  0.47000000000E+01 0. -1.
          5    1    3    3  503    0  0.50377755019E+02 -0.57131421104E+02 -0.59363668829E+02  0.96685328023E+02  0.47000000000E+01 0.  1.
         -5    1    3    3    0  503 -0.43092480291E+02  0.27997143665E+02 -0.54377032994E+02  0.74965016029E+02  0.47000000000E+01 0.  1.
<mgrwt>
<rscale>  0 0.12855664E+03</rscale>
<asrwt>0</asrwt>
<pdfrwt beam="1">  1        5 0.25212864E-01 0.12855697E+03</pdfrwt>
<pdfrwt beam="2">  1       -5 0.26664064E-01 0.12855697E+03</pdfrwt>
<totfact> 0.14258626E+02</totfact>
</mgrwt>
</event>
<event>
 8    1  0.3573290E-007  0.1332924E+03  0.7546771E-02  0.1222654E+00
         -5   -1    0    0    0  501 -0.00000000000E+00  0.00000000000E+00  0.51679099785E+03  0.51681236968E+03  0.47000000000E+01 0.  1.
          5   -1    0    0  501    0  0.00000000000E+00 -0.00000000000E+00 -0.48328164025E+02  0.48556167868E+02  0.47000000000E+01 0.  1.
         25    2    1    2    0    0  0.43138934125E+02 -0.16747144820E+02  0.38663465072E+03  0.40896293097E+03  0.12499156484E+03 0.  0.
         25    2    1    2    0    0 -0.43138934125E+02  0.16747144820E+02  0.81828183107E+02  0.15640560658E+03  0.12500171087E+03 0.  0.
          5    1    4    4  502    0 -0.94027946920E+01  0.65271850996E+02  0.16408721342E+02  0.68118743504E+02  0.47000000000E+01 0. -1.
         -5    1    4    4    0  502 -0.33736139433E+02 -0.48524706176E+02  0.65419461765E+02  0.88286863071E+02  0.47000000000E+01 0. -1.
          5    1    3    3  503    0 -0.21104383967E+02 -0.42463807615E+01  0.29732184575E+03  0.29813721125E+03  0.47000000000E+01 0.  1.
         -5    1    3    3    0  503  0.64243318092E+02 -0.12500764059E+02  0.89312804967E+02  0.11082571973E+03  0.47000000000E+01 0.  1.
<mgrwt>
<rscale>  0 0.13329001E+03</rscale>
<asrwt>0</asrwt>
<pdfrwt beam="2">  1        5 0.74542847E-02 0.13329239E+03</pdfrwt>
<pdfrwt beam="1">  1       -5 0.79525492E-01 0.13329239E+03</pdfrwt>
<totfact> 0.13039309E+02</totfact>
</mgrwt>
</event>
<event>
 8    1  0.3573290E-007  0.1642742E+03  0.7546771E-02  0.1183969E+00
         -5   -1    0    0    0  501 -0.00000000000E+00  0.00000000000E+00  0.24823955188E+03  0.24828404121E+03  0.47000000000E+01 0. -1.
          5   -1    0    0  501    0  0.00000000000E+00 -0.00000000000E+00 -0.14603672118E+03  0.14611233326E+03  0.47000000000E+01 0. -1.
         25    2    1    2    0    0 -0.86647244662E+02  0.62085802968E+02  0.15093650271E+03  0.22304590786E+03  0.12492100394E+03 0.  0.
         25    2    1    2    0    0  0.86647244662E+02 -0.62085802968E+02 -0.48733672004E+02  0.17135046661E+03  0.12499447861E+03 0.  0.
          5    1    3    3  502    0  0.31225727449E+02  0.17549761871E+01  0.32103418530E+02  0.45064902945E+02  0.47000000000E+01 0. -1.
         -5    1    3    3    0  502 -0.11787297211E+03  0.60330826780E+02  0.11883308418E+03  0.17798100491E+03  0.47000000000E+01 0. -1.
          5    1    4    4  503    0  0.25689042335E+02 -0.12302979883E+02 -0.81128107763E+02  0.86111265693E+02  0.47000000000E+01 0. -1.
         -5    1    4    4    0  503  0.60958202328E+02 -0.49782823084E+02  0.32394435758E+02  0.85239200919E+02  0.47000000000E+01 0. -1.
<mgrwt>
<rscale>  0 0.16426022E+03</rscale>
<asrwt>0</asrwt>
<pdfrwt beam="2">  1        5 0.22476427E-01 0.16427420E+03</pdfrwt>
<pdfrwt beam="1">  1       -5 0.38199939E-01 0.16427420E+03</pdfrwt>
<totfact> 0.94210578E+01</totfact>
</mgrwt>
</event>
<event>
 8    1  0.3573290E-007  0.1327110E+03  0.7546771E-02  0.1223489E+00
          5   -1    0    0  501    0  0.00000000000E+00  0.00000000000E+00  0.75297388251E+02  0.75443930686E+02  0.47000000000E+01 0.  1.
         -5   -1    0    0    0  501 -0.00000000000E+00 -0.00000000000E+00 -0.23466917212E+03  0.23471623366E+03  0.47000000000E+01 0.  1.
         25    2    1    2    0    0 -0.35265063251E+02  0.27256487113E+02 -0.90630301838E+02  0.16070248093E+03  0.12499957995E+03 0.  0.
         25    2    1    2    0    0  0.35265063251E+02 -0.27256487113E+02 -0.68741482033E+02  0.14945768342E+03  0.12500266799E+03 0.  0.
          5    1    4    4  502    0 -0.32665394622E+00 -0.73239968106E+02 -0.47253659873E+02  0.87288017518E+02  0.47000000000E+01 0. -1.
         -5    1    4    4    0  502  0.35591717197E+02  0.45983480993E+02 -0.21487822160E+02  0.62169665903E+02  0.47000000000E+01 0. -1.
          5    1    3    3  503    0 -0.73644231666E+02  0.82350389167E+01 -0.91203607183E+02  0.11760729861E+03  0.47000000000E+01 0. -1.
         -5    1    3    3    0  503  0.38379168415E+02  0.19021448196E+02  0.57330534512E+00  0.43095182315E+02  0.47000000000E+01 0. -1.
<mgrwt>
<rscale>  0 0.13271027E+03</rscale>
<asrwt>0</asrwt>
<pdfrwt beam="1">  1        5 0.11599106E-01 0.13271099E+03</pdfrwt>
<pdfrwt beam="2">  1       -5 0.36117842E-01 0.13271099E+03</pdfrwt>
<totfact> 0.32985044E+02</totfact>
</mgrwt>
</event>
<event>
 8    1  0.3573290E-007  0.1500614E+03  0.7546771E-02  0.1200406E+00
         -5   -1    0    0    0  501 -0.00000000000E+00  0.00000000000E+00  0.56057389868E+02  0.56254075041E+02  0.47000000000E+01 0. -1.
          5   -1    0    0  501    0  0.00000000000E+00 -0.00000000000E+00 -0.43502311201E+03  0.43504850073E+03  0.47000000000E+01 0. -1.
         25    2    1    2    0    0 -0.70841666189E+02 -0.43310586723E+02 -0.25846969391E+03  0.29887290487E+03  0.12499632797E+03 0.  0.
         25    2    1    2    0    0  0.70841666189E+02  0.43310586723E+02 -0.12049602823E+03  0.19242967090E+03  0.12496214159E+03 0.  0.
          5    1    4    4  502    0  0.84143237096E+02  0.23554375259E+02 -0.20964667781E+02  0.89980554777E+02  0.47000000000E+01 0. -1.
         -5    1    4    4    0  502 -0.13301570906E+02  0.19756211463E+02 -0.99531360452E+02  0.10244911612E+03  0.47000000000E+01 0. -1.
          5    1    3    3  503    0 -0.16235803744E+01 -0.24646405114E+02  0.51274036410E+01  0.25660505965E+02  0.47000000000E+01 0.  1.
         -5    1    3    3    0  503 -0.69218085815E+02 -0.18664181608E+02 -0.26359709755E+03  0.27321239891E+03  0.47000000000E+01 0.  1.
<mgrwt>
<rscale>  0 0.15005430E+03</rscale>
<asrwt>0</asrwt>
<pdfrwt beam="2">  1        5 0.66943713E-01 0.15006142E+03</pdfrwt>
<pdfrwt beam="1">  1       -5 0.86412967E-02 0.15006142E+03</pdfrwt>
<totfact> 0.15553465E+02</totfact>
</mgrwt>
</event>
<event>
 8    1  0.3573290E-007  0.1366214E+03  0.7546771E-02  0.1217949E+00
         -5   -1    0    0    0  501 -0.00000000000E+00  0.00000000000E+00  0.27756168775E+03  0.27760147785E+03  0.47000000000E+01 0.  1.
          5   -1    0    0  501    0  0.00000000000E+00 -0.00000000000E+00 -0.72376108146E+02  0.72528553207E+02  0.47000000000E+01 0.  1.
         25    2    1    2    0    0 -0.22508818582E+02 -0.50346919893E+02  0.55481299919E+02  0.14745593199E+03  0.12499447180E+03 0.  0.
         25    2    1    2    0    0  0.22508818582E+02  0.50346919893E+02  0.14970427968E+03  0.20267409908E+03  0.12499583923E+03 0.  0.
          5    1    4    4  502    0 -0.13551151703E+02 -0.87176428329E+01  0.12928406715E+03  0.13036905702E+03  0.47000000000E+01 0. -1.
         -5    1    4    4    0  502  0.36059970285E+02  0.59064562726E+02  0.20420212535E+02  0.72305042058E+02  0.47000000000E+01 0. -1.
          5    1    3    3  503    0 -0.22199999462E+02 -0.13964971840E+02 -0.38355894898E+02  0.46702516934E+02  0.47000000000E+01 0.  1.
         -5    1    3    3    0  503 -0.30881912089E+00 -0.36381948053E+02  0.93837194817E+02  0.10075341505E+03  0.47000000000E+01 0.  1.
<mgrwt>
<rscale>  0 0.13662113E+03</rscale>
<asrwt>0</asrwt>
<pdfrwt beam="2">  1        5 0.11149573E-01 0.13662144E+03</pdfrwt>
<pdfrwt beam="1">  1       -5 0.42716586E-01 0.13662144E+03</pdfrwt>
<totfact> 0.25371303E+02</totfact>
</mgrwt>
</event>
<event>
 8    1  0.3573290E-007  0.1291156E+03  0.7546771E-02  0.1228779E+00
          5   -1    0    0  501    0  0.00000000000E+00  0.00000000000E+00  0.28824678758E+02  0.29205343783E+02  0.47000000000E+01 0.  1.
         -5   -1    0    0    0  501 -0.00000000000E+00 -0.00000000000E+00 -0.59837243100E+03  0.59839088912E+03  0.47000000000E+01 0.  1.
         25    2    1    2    0    0  0.25399522285E+02 -0.19960187700E+02 -0.34792663217E+03  0.37110693003E+03  0.12499546919E+03 0.  0.
         25    2    1    2    0    0 -0.25399522285E+02  0.19960187700E+02 -0.22162112008E+03  0.25648930288E+03  0.12500918686E+03 0.  0.
          5    1    4    4  502    0 -0.56709686409E+02  0.55333156510E+02 -0.16091196071E+03  0.17942267371E+03  0.47000000000E+01 0. -1.
         -5    1    4    4    0  502  0.31310164124E+02 -0.35372968810E+02 -0.60709159366E+02  0.77066629165E+02  0.47000000000E+01 0. -1.
          5    1    3    3  503    0  0.57803175468E+02  0.23299815367E+02 -0.26304224907E+03  0.27036531450E+03  0.47000000000E+01 0.  1.
         -5    1    3    3    0  503 -0.32403653183E+02 -0.43260003067E+02 -0.84884383093E+02  0.10074161552E+03  0.47000000000E+01 0.  1.
<mgrwt>
<rscale>  0 0.12911229E+03</rscale>
<asrwt>0</asrwt>
<pdfrwt beam="1">  1        5 0.44652682E-02 0.12911561E+03</pdfrwt>
<pdfrwt beam="2">  1       -5 0.92087989E-01 0.12911561E+03</pdfrwt>
<totfact> 0.21578611E+02</totfact>
</mgrwt>
</event>
<event>
 8    1  0.3573290E-007  0.1581780E+03  0.7546771E-02  0.1190773E+00
         -5   -1    0    0    0  501 -0.00000000000E+00  0.00000000000E+00  0.15479818898E+04  0.15479890249E+04  0.47000000000E+01 0. -1.
          5   -1    0    0  501    0  0.00000000000E+00 -0.00000000000E+00 -0.18101019643E+02  0.18701254293E+02  0.47000000000E+01 0. -1.
         25    2    1    2    0    0 -0.69257985372E+02  0.67784278611E+02  0.10386275182E+04  0.10506033474E+04  0.12501557891E+03 0.  0.
         25    2    1    2    0    0  0.69257985372E+02 -0.67784278611E+02  0.49125335195E+03  0.51608693180E+03  0.12499795362E+03 0.  0.
          5    1    3    3  502    0 -0.30402874734E+02  0.35465753509E+02  0.98606972090E+02  0.10921345800E+03  0.47000000000E+01 0. -1.
         -5    1    3    3    0  502 -0.38855110638E+02  0.32318525102E+02  0.94002054610E+03  0.94138988935E+03  0.47000000000E+01 0. -1.
          5    1    4    4  503    0  0.32471703318E+01 -0.53122025764E+02  0.39362780848E+03  0.39723725322E+03  0.47000000000E+01 0.  1.
         -5    1    4    4    0  503  0.66010815040E+02 -0.14662252847E+02  0.97625543466E+02  0.11884967858E+03  0.47000000000E+01 0.  1.
<mgrwt>
<rscale>  0 0.15817449E+03</rscale>
<asrwt>0</asrwt>
<pdfrwt beam="2">  1        5 0.28314926E-02 0.15817798E+03</pdfrwt>
<pdfrwt beam="1">  1       -5 0.23819782E+00 0.15817798E+03</pdfrwt>
<totfact> 0.33953914E+01</totfact>
</mgrwt>
</event>
<event>
 8    1  0.3573290E-007  0.1258063E+03  0.7546771E-02  0.1233816E+00
         -5   -1    0    0    0  501 -0.00000000000E+00  0.00000000000E+00  0.89132643469E+02  0.89256473893E+02  0.47000000000E+01 0.  1.
          5   -1    0    0  501    0  0.00000000000E+00 -0.00000000000E+00 -0.17898407939E+03  0.17904577816E+03  0.47000000000E+01 0.  1.
         25    2    1    2    0    0 -0.13832115600E+02  0.30902892025E+01 -0.31867406870E+02  0.12977968628E+03  0.12500543205E+03 0.  0.
         25    2    1    2    0    0  0.13832115600E+02 -0.30902892025E+01 -0.57984029055E+02  0.13852256577E+03  0.12500190515E+03 0.  0.
          5    1    4    4  502    0 -0.72445738831E+00  0.38220186914E+02 -0.80360610028E+02  0.89113552114E+02  0.47000000000E+01 0. -1.
         -5    1    4    4    0  502  0.14556572988E+02 -0.41310476117E+02  0.22376580972E+02  0.49409013653E+02  0.47000000000E+01 0. -1.
          5    1    3    3  503    0 -0.10238557593E+02 -0.39453205541E+02  0.32537441166E+02  0.52365623902E+02  0.47000000000E+01 0. -1.
         -5    1    3    3    0  503 -0.35935580076E+01  0.42543494743E+02 -0.64404848036E+02  0.77414062383E+02  0.47000000000E+01 0. -1.
<mgrwt>
<rscale>  0 0.12580546E+03</rscale>
<asrwt>0</asrwt>
<pdfrwt beam="2">  1        5 0.27550284E-01 0.12580634E+03</pdfrwt>
<pdfrwt beam="1">  1       -5 0.13726986E-01 0.12580634E+03</pdfrwt>
<totfact> 0.40906205E+02</totfact>
</mgrwt>
</event>
<event>
 8    1  0.3573290E-007  0.1251488E+03  0.7546771E-02  0.1234843E+00
         -5   -1    0    0    0  501 -0.00000000000E+00  0.00000000000E+00  0.25864686599E+02  0.26288248570E+02  0.47000000000E+01 0.  1.
          5   -1    0    0  501    0  0.00000000000E+00 -0.00000000000E+00 -0.61359686233E+03  0.61361486249E+03  0.47000000000E+01 0.  1.
         25    2    1    2    0    0  0.52420780673E+01  0.23623858566E+01 -0.24644358620E+03  0.27639228507E+03  0.12500077526E+03 0.  0.
         25    2    1    2    0    0 -0.52420780673E+01 -0.23623858566E+01 -0.34128858953E+03  0.36351082599E+03  0.12501663496E+03 0.  0.
          5    1    3    3  502    0  0.85236524833E+01  0.56368020995E+02 -0.63074527313E+02  0.85149823478E+02  0.47000000000E+01 0.  1.
         -5    1    3    3    0  502 -0.32815744160E+01 -0.54005635138E+02 -0.18336905889E+03  0.19124246159E+03  0.47000000000E+01 0.  1.
          5    1    4    4  503    0 -0.92776396025E+01  0.58981270524E+02 -0.21159553895E+03  0.21990822398E+03  0.47000000000E+01 0. -1.
         -5    1    4    4    0  503  0.40355615352E+01 -0.61343656381E+02 -0.12969305058E+03  0.14360260201E+03  0.47000000000E+01 0. -1.
<mgrwt>
<rscale>  0 0.12514483E+03</rscale>
<asrwt>0</asrwt>
<pdfrwt beam="2">  1        5 0.94433473E-01 0.12514879E+03</pdfrwt>
<pdfrwt beam="1">  1       -5 0.40131493E-02 0.12514879E+03</pdfrwt>
<totfact> 0.23949436E+02</totfact>
</mgrwt>
</event>
<event>
 8    1  0.3573290E-007  0.1489620E+03  0.7546771E-02  0.1201757E+00
          5   -1    0    0  501    0  0.00000000000E+00  0.00000000000E+00  0.34402599723E+02  0.34722166806E+02  0.47000000000E+01 0. -1.
         -5   -1    0    0    0  501 -0.00000000000E+00 -0.00000000000E+00 -0.64370303366E+03  0.64372019197E+03  0.47000000000E+01 0. -1.
         25    2    1    2    0    0 -0.30505687839E+02 -0.75058843947E+02 -0.28551678176E+03  0.32203959762E+03  0.12500097087E+03 0.  0.
         25    2    1    2    0    0  0.30505687839E+02  0.75058843947E+02 -0.32378365218E+03  0.35640276116E+03  0.12499059044E+03 0.  0.
          5    1    4    4  502    0  0.76332802955E+02  0.26204761232E+02 -0.19681719582E+03  0.21277331808E+03  0.47000000000E+01 0. -1.
         -5    1    4    4    0  502 -0.45827115116E+02  0.48854082716E+02 -0.12696645636E+03  0.14362944308E+03  0.47000000000E+01 0. -1.
          5    1    3    3  503    0 -0.19973350035E+02 -0.97028045035E+02 -0.27940725340E+03  0.29648588413E+03  0.47000000000E+01 0. -1.
         -5    1    3    3    0  503 -0.10532337804E+02  0.21969201087E+02 -0.61095283575E+01  0.25553713483E+02  0.47000000000E+01 0. -1.
<mgrwt>
<rscale>  0 0.14895980E+03</rscale>
<asrwt>0</asrwt>
<pdfrwt beam="1">  1        5 0.53186101E-02 0.14896197E+03</pdfrwt>
<pdfrwt beam="2">  1       -5 0.99057129E-01 0.14896197E+03</pdfrwt>
<totfact> 0.14202168E+02</totfact>
</mgrwt>
</event>
<event>
 8    1  0.3573290E-007  0.1277284E+03  0.7546771E-02  0.1230869E+00
          5   -1    0    0  501    0  0.00000000000E+00  0.00000000000E+00  0.22577297727E+03  0.22582189280E+03  0.47000000000E+01 0.  1.
         -5   -1    0    0    0  501 -0.00000000000E+00 -0.00000000000E+00 -0.72173561105E+02  0.72326433084E+02  0.47000000000E+01 0.  1.
         25    2    1    2    0    0 -0.10841317796E+02 -0.23895321119E+02  0.72860981229E+02  0.14704160504E+03  0.12499596188E+03 0.  0.
         25    2    1    2    0    0  0.10841317796E+02  0.23895321119E+02  0.80738434937E+02  0.15110672084E+03  0.12500410258E+03 0.  0.
          5    1    4    4  502    0 -0.15798448008E+02  0.70265148724E+02  0.58880219518E+02  0.93143718710E+02  0.47000000000E+01 0. -1.
         -5    1    4    4    0  502  0.26639765805E+02 -0.46369827604E+02  0.21858215419E+02  0.57963002126E+02  0.47000000000E+01 0. -1.
          5    1    3    3  503    0 -0.18676202564E+01  0.34729118565E+02 -0.17216363498E+02  0.39090828257E+02  0.47000000000E+01 0.  1.
         -5    1    3    3    0  503 -0.89736975400E+01 -0.58624439684E+02  0.90077344727E+02  0.10795077679E+03  0.47000000000E+01 0.  1.
<mgrwt>
<rscale>  0 0.12772642E+03</rscale>
<asrwt>0</asrwt>
<pdfrwt beam="1">  1        5 0.34749826E-01 0.12772841E+03</pdfrwt>
<pdfrwt beam="2">  1       -5 0.11119147E-01 0.12772841E+03</pdfrwt>
<totfact> 0.37862533E+02</totfact>
</mgrwt>
</event>
<event>
 8    1  0.3573290E-007  0.1557907E+03  0.7546771E-02  0.1193534E+00
         -5   -1    0    0    0  501 -0.00000000000E+00  0.00000000000E+00  0.45326870541E+02  0.45569893494E+02  0.47000000000E+01 0.  1.
          5   -1    0    0  501    0  0.00000000000E+00 -0.00000000000E+00 -0.54706462353E+03  0.54708481273E+03  0.47000000000E+01 0.  1.
         25    2    1    2    0    0 -0.90217906019E+02  0.22488786106E+02 -0.20465477838E+03  0.25720123792E+03  0.12499552955E+03 0.  0.
         25    2    1    2    0    0  0.90217906019E+02 -0.22488786106E+02 -0.29708297461E+03  0.33545346830E+03  0.12500287807E+03 0.  0.
          5    1    3    3  502    0 -0.96440320948E+02 -0.12119279149E+01 -0.21048572287E+03  0.23157835349E+03  0.47000000000E+01 0.  1.
         -5    1    3    3    0  502  0.62224149288E+01  0.23700714021E+02  0.58309444948E+01  0.25622884427E+02  0.47000000000E+01 0.  1.
          5    1    4    4  503    0  0.95336426977E+02 -0.58218657748E+02 -0.17169840403E+03  0.20489235799E+03  0.47000000000E+01 0. -1.
         -5    1    4    4    0  503 -0.51185209583E+01  0.35729871642E+02 -0.12538457059E+03  0.13056111031E+03  0.47000000000E+01 0. -1.
<mgrwt>
<rscale>  0 0.15578920E+03</rscale>
<asrwt>0</asrwt>
<pdfrwt beam="2">  1        5 0.84184030E-01 0.15579068E+03</pdfrwt>
<pdfrwt beam="1">  1       -5 0.69936122E-02 0.15579068E+03</pdfrwt>
<totfact> 0.13386947E+02</totfact>
</mgrwt>
</event>
<event>
 8    1  0.3573290E-007  0.1253134E+03  0.7546771E-02  0.1234583E+00
         -5   -1    0    0    0  501 -0.00000000000E+00  0.00000000000E+00  0.44759387809E+03  0.44761855380E+03  0.47000000000E+01 0.  1.
          5   -1    0    0  501    0  0.00000000000E+00 -0.00000000000E+00 -0.34899402567E+02  0.35214461511E+02  0.47000000000E+01 0.  1.
         25    2    1    2    0    0  0.67141856582E+00  0.87118146314E+01  0.20564312690E+03  0.24081296077E+03  0.12500175966E+03 0.  0.
         25    2    1    2    0    0 -0.67141856582E+00 -0.87118146314E+01  0.20705134862E+03  0.24202005454E+03  0.12500839697E+03 0.  0.
          5    1    4    4  502    0  0.23479840988E+02 -0.44010922074E+02  0.18870648006E+03  0.19524469214E+03  0.47000000000E+01 0. -1.
         -5    1    4    4    0  502 -0.24151259554E+02  0.35299107443E+02  0.18344868567E+02  0.46775362393E+02  0.47000000000E+01 0. -1.
          5    1    3    3  503    0 -0.52789461188E+02 -0.11635885312E+02  0.45895613326E+02  0.71067702665E+02  0.47000000000E+01 0. -1.
         -5    1    3    3    0  503  0.53460879754E+02  0.20347699943E+02  0.15974751357E+03  0.16974525811E+03  0.47000000000E+01 0. -1.
<mgrwt>
<rscale>  0 0.12531174E+03</rscale>
<asrwt>0</asrwt>
<pdfrwt beam="2">  1        5 0.53952726E-02 0.12531339E+03</pdfrwt>
<pdfrwt beam="1">  1       -5 0.68886725E-01 0.12531339E+03</pdfrwt>
<totfact> 0.30495614E+02</totfact>
</mgrwt>
</event>
<event>
 8    1  0.3573290E-007  0.1429090E+03  0.7546771E-02  0.1209468E+00
          5   -1    0    0  501    0  0.00000000000E+00  0.00000000000E+00  0.32716044311E+03  0.32719420156E+03  0.47000000000E+01 0. -1.
         -5   -1    0    0    0  501 -0.00000000000E+00 -0.00000000000E+00 -0.73163833489E+02  0.73314640631E+02  0.47000000000E+01 0. -1.
         25    2    1    2    0    0  0.26516714608E+02 -0.63990082685E+02  0.49932196951E+02  0.15137980226E+03  0.12499901362E+03 0.  0.
         25    2    1    2    0    0 -0.26516714608E+02  0.63990082685E+02  0.20406441267E+03  0.24912903993E+03  0.12500050873E+03 0.  0.
          5    1    4    4  502    0  0.71251184994E+01  0.91213387649E+02  0.96352353514E+02  0.13295305723E+03  0.47000000000E+01 0. -1.
         -5    1    4    4    0  502 -0.33641833107E+02 -0.27223304964E+02  0.10771205915E+03  0.11617598269E+03  0.47000000000E+01 0. -1.
          5    1    3    3  503    0  0.27593157226E+02 -0.79594273927E+02  0.80568579264E+02  0.11666197638E+03  0.47000000000E+01 0. -1.
         -5    1    3    3    0  503 -0.10764426177E+01  0.15604191241E+02 -0.30636382313E+02  0.34717825886E+02  0.47000000000E+01 0. -1.
<mgrwt>
<rscale>  0 0.14290871E+03</rscale>
<asrwt>0</asrwt>
<pdfrwt beam="1">  1        5 0.50346572E-01 0.14290904E+03</pdfrwt>
<pdfrwt beam="2">  1       -5 0.11270172E-01 0.14290904E+03</pdfrwt>
<totfact> 0.17913164E+02</totfact>
</mgrwt>
</event>
<event>
 8    1  0.3573290E-007  0.1262628E+03  0.7546771E-02  0.1233112E+00
          5   -1    0    0  501    0  0.00000000000E+00  0.00000000000E+00  0.66565455529E+03  0.66567114778E+03  0.47000000000E+01 0.  1.
         -5   -1    0    0    0  501 -0.00000000000E+00 -0.00000000000E+00 -0.23701669516E+02  0.24163177313E+02  0.47000000000E+01 0.  1.
         25    2    1    2    0    0  0.17496005285E+02  0.32440534915E+01  0.31860491675E+03  0.34270871212E+03  0.12499413706E+03 0.  0.
         25    2    1    2    0    0 -0.17496005285E+02 -0.32440534915E+01  0.32334796903E+03  0.34712561297E+03  0.12500259207E+03 0.  0.
          5    1    3    3  502    0 -0.45032748479E+02 -0.29111605430E+02  0.10941785722E+03  0.12194175448E+03  0.47000000000E+01 0. -1.
         -5    1    3    3    0  502  0.62528753764E+02  0.32355658922E+02  0.20918705953E+03  0.22076695764E+03  0.47000000000E+01 0. -1.
          5    1    4    4  503    0 -0.60341774147E+02  0.15805152435E+02  0.26417773084E+03  0.27148277297E+03  0.47000000000E+01 0. -1.
         -5    1    4    4    0  503  0.42845768862E+02 -0.19049205926E+02  0.59170238193E+02  0.75642840002E+02  0.47000000000E+01 0. -1.
<mgrwt>
<rscale>  0 0.12626066E+03</rscale>
<asrwt>0</asrwt>
<pdfrwt beam="1">  1        5 0.10244516E+00 0.12626275E+03</pdfrwt>
<pdfrwt beam="2">  1       -5 0.36831879E-02 0.12626275E+03</pdfrwt>
<totfact> 0.22698086E+02</totfact>
</mgrwt>
</event>
<event>
 8    1  0.3573290E-007  0.1311953E+03  0.7546771E-02  0.1225693E+00
         -5   -1    0    0    0  501 -0.00000000000E+00  0.00000000000E+00  0.57731068433E+02  0.57922070598E+02  0.47000000000E+01 0.  1.
          5   -1    0    0  501    0  0.00000000000E+00 -0.00000000000E+00 -0.30070807531E+03  0.30074480304E+03  0.47000000000E+01 0.  1.
         25    2    1    2    0    0  0.21350750531E+02  0.33624437138E+02 -0.10280358384E+03  0.16667523632E+03  0.12500240090E+03 0.  0.
         25    2    1    2    0    0 -0.21350750531E+02 -0.33624437138E+02 -0.14017342304E+03  0.19199163732E+03  0.12500297178E+03 0.  0.
          5    1    4    4  502    0 -0.71032313108E+02 -0.38690327715E+02 -0.87889456739E+02  0.11953734801E+03  0.47000000000E+01 0.  1.
         -5    1    4    4    0  502  0.49681562576E+02  0.50658905777E+01 -0.52283966297E+02  0.72454289308E+02  0.47000000000E+01 0.  1.
          5    1    3    3  503    0  0.23822504409E+02  0.80132227074E+02 -0.73772231768E+02  0.11159353795E+03  0.47000000000E+01 0.  1.
         -5    1    3    3    0  503 -0.24717538779E+01 -0.46507789936E+02 -0.29031352071E+02  0.55081698367E+02  0.47000000000E+01 0.  1.
<mgrwt>
<rscale>  0 0.13119514E+03</rscale>
<asrwt>0</asrwt>
<pdfrwt beam="2">  1        5 0.46280298E-01 0.13119528E+03</pdfrwt>
<pdfrwt beam="1">  1       -5 0.88992207E-02 0.13119528E+03</pdfrwt>
<totfact> 0.31379594E+02</totfact>
</mgrwt>
</event>
<event>
 8    1  0.3573290E-007  0.1455126E+03  0.7546771E-02  0.1206100E+00
          5   -1    0    0  501    0  0.00000000000E+00  0.00000000000E+00  0.11197761190E+03  0.11207620429E+03  0.47000000000E+01 0.  1.
         -5   -1    0    0    0  501 -0.00000000000E+00 -0.00000000000E+00 -0.19419593805E+03  0.19425280526E+03  0.47000000000E+01 0.  1.
         25    2    1    2    0    0 -0.72071410494E+02  0.18776134220E+02 -0.66465899612E+02  0.15997385404E+03  0.12500834667E+03 0.  0.
         25    2    1    2    0    0  0.72071410494E+02 -0.18776134220E+02 -0.15752426529E+02  0.14635515552E+03  0.12499944471E+03 0.  0.
          5    1    3    3  502    0 -0.91391076798E+02  0.45887373136E+02 -0.22828214057E+02  0.10488659251E+03  0.47000000000E+01 0.  1.
         -5    1    3    3    0  502  0.19319666304E+02 -0.27111238916E+02 -0.43637685555E+02  0.55087261525E+02  0.47000000000E+01 0.  1.
          5    1    4    4  503    0  0.48485910791E+02  0.31153516275E+02  0.37966251644E+02  0.69173343026E+02  0.47000000000E+01 0.  1.
         -5    1    4    4    0  503  0.23585499702E+02 -0.49929650495E+02 -0.53718678173E+02  0.77181812492E+02  0.47000000000E+01 0.  1.
<mgrwt>
<rscale>  0 0.14551069E+03</rscale>
<asrwt>0</asrwt>
<pdfrwt beam="1">  1        5 0.17239283E-01 0.14551260E+03</pdfrwt>
<pdfrwt beam="2">  1       -5 0.29888257E-01 0.14551260E+03</pdfrwt>
<totfact> 0.24291771E+02</totfact>
</mgrwt>
</event>
<event>
 8    1  0.3573290E-007  0.1377834E+03  0.7546771E-02  0.1216345E+00
          5   -1    0    0  501    0  0.00000000000E+00  0.00000000000E+00  0.73895213666E+02  0.74044531214E+02  0.47000000000E+01 0.  1.
         -5   -1    0    0    0  501 -0.00000000000E+00 -0.00000000000E+00 -0.27691025077E+03  0.27695013447E+03  0.47000000000E+01 0.  1.
         25    2    1    2    0    0 -0.55149870517E+02  0.17809555578E+02 -0.14917774103E+03  0.20307205964E+03  0.12500229798E+03 0.  0.
         25    2    1    2    0    0  0.55149870517E+02 -0.17809555578E+02 -0.53837296071E+02  0.14792260604E+03  0.12499581769E+03 0.  0.
          5    1    4    4  502    0  0.66100400798E+02  0.16780089795E+02 -0.78278076972E+02  0.10392488505E+03  0.47000000000E+01 0.  1.
         -5    1    4    4    0  502 -0.10950530280E+02 -0.34589645373E+02  0.24440780901E+02  0.43997720981E+02  0.47000000000E+01 0.  1.
          5    1    3    3  503    0 -0.83385478878E+02  0.84941297012E+01 -0.15115829567E+03  0.17290520141E+03  0.47000000000E+01 0.  1.
         -5    1    3    3    0  503  0.28235608361E+02  0.93154258767E+01  0.19805546365E+01  0.30166858230E+02  0.47000000000E+01 0.  1.
<mgrwt>
<rscale>  0 0.13778192E+03</rscale>
<asrwt>0</asrwt>
<pdfrwt beam="1">  1        5 0.11383048E-01 0.13778339E+03</pdfrwt>
<pdfrwt beam="2">  1       -5 0.42616131E-01 0.13778339E+03</pdfrwt>
<totfact> 0.24651179E+02</totfact>
</mgrwt>
</event>
<event>
 8    1  0.3573290E-007  0.1632377E+03  0.7546771E-02  0.1185091E+00
         -5   -1    0    0    0  501 -0.00000000000E+00  0.00000000000E+00  0.20002909885E+03  0.20008430819E+03  0.47000000000E+01 0.  1.
          5   -1    0    0  501    0  0.00000000000E+00 -0.00000000000E+00 -0.13333391198E+03  0.13341672340E+03  0.47000000000E+01 0.  1.
         25    2    1    2    0    0  0.61604782575E+02 -0.84994655589E+02  0.26273691616E+02  0.16533309039E+03  0.12500193275E+03 0.  0.
         25    2    1    2    0    0 -0.61604782575E+02  0.84994655589E+02  0.40421495255E+02  0.16816794120E+03  0.12500927348E+03 0.  0.
          5    1    3    3  502    0  0.18248866513E+02 -0.10516521505E+02 -0.47256607028E+02  0.51950892787E+02  0.47000000000E+01 0.  1.
         -5    1    3    3    0  502  0.43355916062E+02 -0.74478134084E+02  0.73530298644E+02  0.11338219760E+03  0.47000000000E+01 0.  1.
          5    1    4    4  503    0 -0.15312946480E+02  0.81272409156E+02  0.73672228094E+02  0.11085746710E+03  0.47000000000E+01 0. -1.
         -5    1    4    4    0  503 -0.46291836095E+02  0.37222464326E+01 -0.33250732839E+02  0.57310474103E+02  0.47000000000E+01 0. -1.
<mgrwt>
<rscale>  0 0.16323633E+03</rscale>
<asrwt>0</asrwt>
<pdfrwt beam="2">  1        5 0.20523527E-01 0.16323774E+03</pdfrwt>
<pdfrwt beam="1">  1       -5 0.30784324E-01 0.16323774E+03</pdfrwt>
<totfact> 0.17210051E+02</totfact>
</mgrwt>
</event>
<event>
 8    1  0.3573290E-007  0.1277483E+03  0.7546771E-02  0.1230839E+00
          5   -1    0    0  501    0  0.00000000000E+00  0.00000000000E+00  0.91130267701E+03  0.91131479694E+03  0.47000000000E+01 0. -1.
         -5   -1    0    0    0  501 -0.00000000000E+00 -0.00000000000E+00 -0.20961888539E+02  0.21482336259E+02  0.47000000000E+01 0. -1.
         25    2    1    2    0    0 -0.18921558576E+02 -0.18299320215E+02  0.26055527205E+03  0.29018731462E+03  0.12500694891E+03 0.  0.
         25    2    1    2    0    0  0.18921558576E+02  0.18299320215E+02  0.62978551642E+03  0.64260981858E+03  0.12499876695E+03 0.  0.
          5    1    3    3  502    0 -0.58222624642E+02 -0.11127517342E+02  0.23528543504E+03  0.24268296521E+03  0.47000000000E+01 0.  1.
         -5    1    3    3    0  502  0.39301066066E+02 -0.71718028737E+01  0.25269837008E+02  0.47504349409E+02  0.47000000000E+01 0.  1.
          5    1    4    4  503    0 -0.33944442061E+01  0.52229782190E+02  0.11774354195E+03  0.12893837315E+03  0.47000000000E+01 0. -1.
         -5    1    4    4    0  503  0.22316002783E+02 -0.33930461974E+02  0.51204197447E+03  0.51367144543E+03  0.47000000000E+01 0. -1.
<mgrwt>
<rscale>  0 0.12774630E+03</rscale>
<asrwt>0</asrwt>
<pdfrwt beam="1">  1        5 0.14024139E+00 0.12774830E+03</pdfrwt>
<pdfrwt beam="2">  1       -5 0.32658723E-02 0.12774830E+03</pdfrwt>
<totfact> 0.12467117E+02</totfact>
</mgrwt>
</event>
<event>
 8    1  0.3573290E-007  0.1269779E+03  0.7546771E-02  0.1232011E+00
         -5   -1    0    0    0  501 -0.00000000000E+00  0.00000000000E+00  0.16460980628E+03  0.16467689068E+03  0.47000000000E+01 0.  1.
          5   -1    0    0  501    0  0.00000000000E+00 -0.00000000000E+00 -0.10969366526E+03  0.10979430859E+03  0.47000000000E+01 0.  1.
         25    2    1    2    0    0  0.21829269000E+02  0.46818650017E+01  0.72601877700E+02  0.14626759584E+03  0.12499896040E+03 0.  0.
         25    2    1    2    0    0 -0.21829269000E+02 -0.46818650017E+01 -0.17685736678E+02  0.12820360343E+03  0.12499976722E+03 0.  0.
          5    1    4    4  502    0 -0.71724626637E+02 -0.92199160055E+01 -0.26413611725E+02  0.77131043049E+02  0.47000000000E+01 0. -1.
         -5    1    4    4    0  502  0.49895357637E+02  0.45380510038E+01  0.87278750467E+01  0.51072560377E+02  0.47000000000E+01 0. -1.
          5    1    3    3  503    0 -0.51666061046E+02 -0.19763764394E-01  0.40390317733E+02  0.65748384172E+02  0.47000000000E+01 0.  1.
         -5    1    3    3    0  503  0.73495330046E+02  0.47016287661E+01  0.32211559967E+02  0.80519211665E+02  0.47000000000E+01 0.  1.
<mgrwt>
<rscale>  0 0.12697767E+03</rscale>
<asrwt>0</asrwt>
<pdfrwt beam="2">  1        5 0.16888851E-01 0.12697787E+03</pdfrwt>
<pdfrwt beam="1">  1       -5 0.25337488E-01 0.12697787E+03</pdfrwt>
<totfact> 0.33140138E+02</totfact>
</mgrwt>
</event>
<event>
 8    1  0.3573290E-007  0.1806159E+03  0.7546771E-02  0.1167209E+00
         -5   -1    0    0    0  501 -0.00000000000E+00  0.00000000000E+00  0.75992185116E+03  0.75993638541E+03  0.47000000000E+01 0.  1.
          5   -1    0    0  501    0  0.00000000000E+00 -0.00000000000E+00 -0.43223714138E+02  0.43478494269E+02  0.47000000000E+01 0.  1.
         25    2    1    2    0    0  0.86246532787E+02  0.97769426364E+02  0.31796793847E+03  0.36568524515E+03  0.12499905392E+03 0.  0.
         25    2    1    2    0    0 -0.86246532787E+02 -0.97769426364E+02  0.39873019855E+03  0.43772963452E+03  0.12499654616E+03 0.  0.
          5    1    4    4  502    0 -0.18735732316E+02 -0.95132877469E+02  0.31729524618E+03  0.33181268102E+03  0.47000000000E+01 0. -1.
         -5    1    4    4    0  502 -0.67510800471E+02 -0.26365488947E+01  0.81434952372E+02  0.10591695350E+03  0.47000000000E+01 0. -1.
          5    1    3    3  503    0  0.11727487075E+02 -0.30018939588E+02  0.60467929170E+02  0.68681374077E+02  0.47000000000E+01 0.  1.
         -5    1    3    3    0  503  0.74519045712E+02  0.12778836595E+03  0.25750000930E+03  0.29700387108E+03  0.47000000000E+01 0.  1.
<mgrwt>
<rscale>  0 0.18061543E+03</rscale>
<asrwt>0</asrwt>
<pdfrwt beam="2">  1        5 0.66705193E-02 0.18061586E+03</pdfrwt>
<pdfrwt beam="1">  1       -5 0.11693176E+00 0.18061586E+03</pdfrwt>
<totfact> 0.67943210E+01</totfact>
</mgrwt>
</event>
<event>
 8    1  0.3573290E-007  0.1361879E+03  0.7546771E-02  0.1218555E+00
          5   -1    0    0  501    0  0.00000000000E+00  0.00000000000E+00  0.37792610688E+03  0.37795533104E+03  0.47000000000E+01 0. -1.
         -5   -1    0    0    0  501 -0.00000000000E+00 -0.00000000000E+00 -0.49005590729E+02  0.49230457267E+02  0.47000000000E+01 0. -1.
         25    2    1    2    0    0 -0.50275309911E+02 -0.19866786569E+02  0.15610179456E+03  0.20715913292E+03  0.12499936036E+03 0.  0.
         25    2    1    2    0    0  0.50275309911E+02  0.19866786569E+02  0.17281872159E+03  0.22002665539E+03  0.12499249000E+03 0.  0.
          5    1    3    3  502    0  0.41462139082E-01 -0.28840330226E+02  0.15297154600E+03  0.15573744011E+03  0.47000000000E+01 0. -1.
         -5    1    3    3    0  502 -0.50316772050E+02  0.89735436573E+01  0.31302485665E+01  0.51421692810E+02  0.47000000000E+01 0. -1.
          5    1    4    4  503    0 -0.12267481574E+02  0.36018098881E+01 -0.15640126896E+02  0.20740484757E+02  0.47000000000E+01 0. -1.
         -5    1    4    4    0  503  0.62542791485E+02  0.16264976681E+02  0.18845884849E+03  0.19928617063E+03  0.47000000000E+01 0. -1.
<mgrwt>
<rscale>  0 0.13618629E+03</rscale>
<asrwt>0</asrwt>
<pdfrwt beam="1">  1        5 0.58162025E-01 0.13618787E+03</pdfrwt>
<pdfrwt beam="2">  1       -5 0.75588669E-02 0.13618787E+03</pdfrwt>
<totfact> 0.25847089E+02</totfact>
</mgrwt>
</event>
<event>
 8    1  0.3573290E-007  0.1595860E+03  0.7546771E-02  0.1189166E+00
         -5   -1    0    0    0  501 -0.00000000000E+00  0.00000000000E+00  0.10537805397E+03  0.10548281499E+03  0.47000000000E+01 0.  1.
          5   -1    0    0  501    0  0.00000000000E+00 -0.00000000000E+00 -0.74815205894E+03  0.74816682183E+03  0.47000000000E+01 0.  1.
         25    2    1    2    0    0 -0.72581277153E+02  0.67634658146E+02  0.29850200490E+02  0.16235368584E+03  0.12500078424E+03 0.  0.
         25    2    1    2    0    0  0.72581277153E+02 -0.67634658146E+02 -0.67262420546E+03  0.69129595098E+03  0.12499712513E+03 0.  0.
          5    1    4    4  502    0  0.33239129832E+02 -0.10179328411E+03 -0.44137795864E+03  0.45420623599E+03  0.47000000000E+01 0.  1.
         -5    1    4    4    0  502  0.39342147321E+02  0.34158625960E+02 -0.23124624682E+03  0.23708971498E+03  0.47000000000E+01 0.  1.
          5    1    3    3  503    0 -0.71325252949E+02 -0.18070764242E+02  0.12727570542E+02  0.74819284148E+02  0.47000000000E+01 0.  1.
         -5    1    3    3    0  503 -0.12560242038E+01  0.85705422388E+02  0.17122629948E+02  0.87534401694E+02  0.47000000000E+01 0.  1.
<mgrwt>
<rscale>  0 0.15958526E+03</rscale>
<asrwt>0</asrwt>
<pdfrwt beam="2">  1        5 0.11510951E+00 0.15958598E+03</pdfrwt>
<pdfrwt beam="1">  1       -5 0.16221203E-01 0.15958598E+03</pdfrwt>
<totfact> 0.14318552E+01</totfact>
</mgrwt>
</event>
<event>
 8    1  0.3573290E-007  0.1526992E+03  0.7546771E-02  0.1197195E+00
         -5   -1    0    0    0  501 -0.00000000000E+00  0.00000000000E+00  0.17415563757E+03  0.17421904631E+03  0.47000000000E+01 0.  1.
          5   -1    0    0  501    0  0.00000000000E+00 -0.00000000000E+00 -0.16089946964E+03  0.16096810035E+03  0.47000000000E+01 0.  1.
         25    2    1    2    0    0 -0.47782299873E+02 -0.73542712452E+02  0.75433790344E+02  0.17031414630E+03  0.12499989187E+03 0.  0.
         25    2    1    2    0    0  0.47782299873E+02  0.73542712452E+02 -0.62177622414E+02  0.16487300036E+03  0.12500148313E+03 0.  0.
          5    1    3    3  502    0 -0.36747853542E+02  0.30200373747E+02  0.29948973581E+02  0.56404772253E+02  0.47000000000E+01 0.  1.
         -5    1    3    3    0  502 -0.11034446331E+02 -0.10374308620E+03  0.45484816764E+02  0.11390937405E+03  0.47000000000E+01 0.  1.
          5    1    4    4  503    0  0.32084777304E+02  0.57767535987E+02  0.27963338240E+02  0.71906602160E+02  0.47000000000E+01 0. -1.
         -5    1    4    4    0  503  0.15697522569E+02  0.15775176465E+02 -0.90140960654E+02  0.92966398204E+02  0.47000000000E+01 0. -1.
<mgrwt>
<rscale>  0 0.15269889E+03</rscale>
<asrwt>0</asrwt>
<pdfrwt beam="2">  1        5 0.24763921E-01 0.15269921E+03</pdfrwt>
<pdfrwt beam="1">  1       -5 0.26803332E-01 0.15269921E+03</pdfrwt>
<totfact> 0.15468663E+02</totfact>
</mgrwt>
</event>
<event>
 8    1  0.3573290E-007  0.1522559E+03  0.7546771E-02  0.1197730E+00
         -5   -1    0    0    0  501 -0.00000000000E+00  0.00000000000E+00  0.28539555292E+03  0.28543425097E+03  0.47000000000E+01 0.  1.
          5   -1    0    0  501    0  0.00000000000E+00 -0.00000000000E+00 -0.82282356566E+02  0.82416480160E+02  0.47000000000E+01 0.  1.
         25    2    1    2    0    0 -0.62207026325E+02 -0.60715735909E+02  0.12347184632E+03  0.19602350587E+03  0.12499521313E+03 0.  0.
         25    2    1    2    0    0  0.62207026325E+02  0.60715735909E+02  0.79641350029E+02  0.17182722526E+03  0.12500294395E+03 0.  0.
          5    1    4    4  502    0  0.66319365193E+02  0.30669712394E+02 -0.12885571900E+02  0.74343913141E+02  0.47000000000E+01 0. -1.
         -5    1    4    4    0  502 -0.41123388682E+01  0.30046023515E+02  0.92526921929E+02  0.97483312120E+02  0.47000000000E+01 0. -1.
          5    1    3    3  503    0 -0.61440418440E+02 -0.54000338770E+00  0.35001780903E+01  0.61721615893E+02  0.47000000000E+01 0.  1.
         -5    1    3    3    0  503 -0.76660788496E+00 -0.60175732522E+02  0.11997166823E+03  0.13430188997E+03  0.47000000000E+01 0.  1.
<mgrwt>
<rscale>  0 0.15225429E+03</rscale>
<asrwt>0</asrwt>
<pdfrwt beam="2">  1        5 0.12672118E-01 0.15225587E+03</pdfrwt>
<pdfrwt beam="1">  1       -5 0.43920301E-01 0.15225587E+03</pdfrwt>
<totfact> 0.19792402E+02</totfact>
</mgrwt>
</event>
<event>
 8    1  0.3573290E-007  0.1364950E+03  0.7546771E-02  0.1218125E+00
          5   -1    0    0  501    0  0.00000000000E+00  0.00000000000E+00  0.20451647624E+03  0.20457047454E+03  0.47000000000E+01 0. -1.
         -5   -1    0    0    0  501 -0.00000000000E+00 -0.00000000000E+00 -0.11258728054E+03  0.11268533951E+03  0.47000000000E+01 0. -1.
         25    2    1    2    0    0 -0.28263606342E+02  0.46974640312E+02 -0.23494506141E+02  0.13850228113E+03  0.12500176712E+03 0.  0.
         25    2    1    2    0    0  0.28263606342E+02 -0.46974640312E+02  0.11542370184E+03  0.17875353292E+03  0.12499898523E+03 0.  0.
          5    1    4    4  502    0 -0.31874556280E+02 -0.65745831159E+02  0.58514459509E+02  0.93725842885E+02  0.47000000000E+01 0. -1.
         -5    1    4    4    0  502  0.60138162622E+02  0.18771190848E+02  0.56909242330E+02  0.85027690031E+02  0.47000000000E+01 0. -1.
          5    1    3    3  503    0 -0.45982985268E+02 -0.20600284561E+02  0.21810980707E+02  0.55105494623E+02  0.47000000000E+01 0.  1.
         -5    1    3    3    0  503  0.17719378926E+02  0.67574924873E+02 -0.45305486849E+02  0.83396786507E+02  0.47000000000E+01 0.  1.
<mgrwt>
<rscale>  0 0.13649438E+03</rscale>
<asrwt>0</asrwt>
<pdfrwt beam="1">  1        5 0.31475770E-01 0.13649502E+03</pdfrwt>
<pdfrwt beam="2">  1       -5 0.17332817E-01 0.13649502E+03</pdfrwt>
<totfact> 0.21259563E+02</totfact>
</mgrwt>
</event>
<event>
 8    1  0.3573290E-007  0.2149696E+03  0.7546771E-02  0.1137690E+00
         -5   -1    0    0    0  501 -0.00000000000E+00  0.00000000000E+00  0.95574615729E+02  0.95690110104E+02  0.47000000000E+01 0. -1.
          5   -1    0    0  501    0  0.00000000000E+00 -0.00000000000E+00 -0.52631709521E+03  0.52633808024E+03  0.47000000000E+01 0. -1.
         25    2    1    2    0    0  0.13527451591E+03 -0.11085356360E+03 -0.12625827997E+03  0.24930516491E+03  0.12499681906E+03 0.  0.
         25    2    1    2    0    0 -0.13527451591E+03  0.11085356360E+03 -0.30448419952E+03  0.37272302543E+03  0.12499647481E+03 0.  0.
          5    1    4    4  502    0 -0.35285338508E+02  0.95518660344E+02 -0.21349878405E+03  0.23658548218E+03  0.47000000000E+01 0.  1.
         -5    1    4    4    0  502 -0.99989177400E+02  0.15334903255E+02 -0.90985415470E+02  0.13613754325E+03  0.47000000000E+01 0.  1.
          5    1    3    3  503    0  0.22456800375E+02  0.27384781244E+02 -0.29131909767E+02  0.46097638698E+02  0.47000000000E+01 0.  1.
         -5    1    3    3    0  503  0.11281771553E+03 -0.13823834484E+03 -0.97126370200E+02  0.20320752622E+03  0.47000000000E+01 0.  1.
<mgrwt>
<rscale>  0 0.21496951E+03</rscale>
<asrwt>0</asrwt>
<pdfrwt beam="2">  1        5 0.80982357E-01 0.21496956E+03</pdfrwt>
<pdfrwt beam="1">  1       -5 0.14714286E-01 0.21496956E+03</pdfrwt>
<totfact> 0.43386911E+01</totfact>
</mgrwt>
</event>
<event>
 8    1  0.3573290E-007  0.1278868E+03  0.7546771E-02  0.1230628E+00
         -5   -1    0    0    0  501 -0.00000000000E+00  0.00000000000E+00  0.41327283346E+02  0.41593681597E+02  0.47000000000E+01 0.  1.
          5   -1    0    0  501    0  0.00000000000E+00 -0.00000000000E+00 -0.73168174671E+03  0.73169684191E+03  0.47000000000E+01 0.  1.
         25    2    1    2    0    0  0.16325280871E+02  0.21475605149E+02 -0.82622592816E+02  0.15224861608E+03  0.12500172735E+03 0.  0.
         25    2    1    2    0    0 -0.16325280871E+02 -0.21475605149E+02 -0.60773187054E+03  0.62104190743E+03  0.12500923125E+03 0.  0.
          5    1    4    4  502    0 -0.63654327481E+02  0.12997451679E+02 -0.24155259107E+03  0.25018103727E+03  0.47000000000E+01 0. -1.
         -5    1    4    4    0  502  0.47329046610E+02 -0.34473056828E+02 -0.36617927947E+03  0.37086087016E+03  0.47000000000E+01 0. -1.
          5    1    3    3  503    0  0.25063299319E+02 -0.41265544185E+02 -0.60880665112E+00  0.48512624699E+02  0.47000000000E+01 0. -1.
         -5    1    3    3    0  503 -0.87380184488E+01  0.62741149334E+02 -0.82013786165E+02  0.10373599138E+03  0.47000000000E+01 0. -1.
<mgrwt>
<rscale>  0 0.12788493E+03</rscale>
<asrwt>0</asrwt>
<pdfrwt beam="2">  1        5 0.11258807E+00 0.12788676E+03</pdfrwt>
<pdfrwt beam="1">  1       -5 0.63796975E-02 0.12788676E+03</pdfrwt>
<totfact> 0.72682986E+01</totfact>
</mgrwt>
</event>
<event>
 8    1  0.3573290E-007  0.2316846E+03  0.7546771E-02  0.1125460E+00
          5   -1    0    0  501    0  0.00000000000E+00  0.00000000000E+00  0.11279627586E+03  0.11289415329E+03  0.47000000000E+01 0. -1.
         -5   -1    0    0    0  501 -0.00000000000E+00 -0.00000000000E+00 -0.48097910534E+03  0.48100206837E+03  0.47000000000E+01 0. -1.
         25    2    1    2    0    0  0.16942657730E+02  0.19433071395E+03 -0.21558935669E+03  0.31647517038E+03  0.12500513075E+03 0.  0.
         25    2    1    2    0    0 -0.16942657730E+02 -0.19433071395E+03 -0.15259347279E+03  0.27742105129E+03  0.12500476680E+03 0.  0.
          5    1    4    4  502    0  0.29186796810E+02 -0.13701394212E+02  0.53723745127E+01  0.33023472248E+02  0.47000000000E+01 0. -1.
         -5    1    4    4    0  502 -0.46129454540E+02 -0.18062931974E+03 -0.15796584731E+03  0.24439757904E+03  0.47000000000E+01 0. -1.
          5    1    3    3  503    0  0.51824004974E+02  0.10323919436E+03 -0.53843123412E+02  0.12753521350E+03  0.47000000000E+01 0.  1.
         -5    1    3    3    0  503 -0.34881347244E+02  0.91091519593E+02 -0.16174623327E+03  0.18893995688E+03  0.47000000000E+01 0.  1.
<mgrwt>
<rscale>  0 0.23168457E+03</rscale>
<asrwt>0</asrwt>
<pdfrwt beam="1">  1        5 0.17362569E-01 0.23168462E+03</pdfrwt>
<pdfrwt beam="2">  1       -5 0.74006080E-01 0.23168462E+03</pdfrwt>
<totfact> 0.40198605E+01</totfact>
</mgrwt>
</event>
<event>
 8    1  0.3573290E-007  0.1422315E+03  0.7546771E-02  0.1210359E+00
          5   -1    0    0  501    0  0.00000000000E+00  0.00000000000E+00  0.40182577905E+02  0.40456514520E+02  0.47000000000E+01 0.  1.
         -5   -1    0    0    0  501 -0.00000000000E+00 -0.00000000000E+00 -0.54613258352E+03  0.54615280717E+03  0.47000000000E+01 0.  1.
         25    2    1    2    0    0 -0.64348546804E+02  0.21571084406E+02 -0.33686178189E+03  0.36565783635E+03  0.12499498401E+03 0.  0.
         25    2    1    2    0    0  0.64348546804E+02 -0.21571084406E+02 -0.16908822373E+03  0.22095148535E+03  0.12499073691E+03 0.  0.
          5    1    3    3  502    0 -0.88068075274E+02  0.93525718548E+00 -0.13466274770E+03  0.16097517264E+03  0.47000000000E+01 0. -1.
         -5    1    3    3    0  502  0.23719528471E+02  0.20635827221E+02 -0.20219903419E+03  0.20468266371E+03  0.47000000000E+01 0. -1.
          5    1    4    4  503    0  0.46940229617E+02 -0.72909421167E+02 -0.11625757604E+03  0.14511058831E+03  0.47000000000E+01 0. -1.
         -5    1    4    4    0  503  0.17408317186E+02  0.51338336761E+02 -0.52830647688E+02  0.75840897040E+02  0.47000000000E+01 0. -1.
<mgrwt>
<rscale>  0 0.14223054E+03</rscale>
<asrwt>0</asrwt>
<pdfrwt beam="1">  1        5 0.62045632E-02 0.14223148E+03</pdfrwt>
<pdfrwt beam="2">  1       -5 0.84043020E-01 0.14223148E+03</pdfrwt>
<totfact> 0.15986403E+02</totfact>
</mgrwt>
</event>
<event>
 8    1  0.3573290E-007  0.1377541E+03  0.7546771E-02  0.1216388E+00
          5   -1    0    0  501    0  0.00000000000E+00  0.00000000000E+00  0.24030297593E+03  0.24034893435E+03  0.47000000000E+01 0.  1.
         -5   -1    0    0    0  501 -0.00000000000E+00 -0.00000000000E+00 -0.79684767034E+02  0.79823255366E+02  0.47000000000E+01 0.  1.
         25    2    1    2    0    0  0.18344251784E+02 -0.54878788474E+02  0.96795521817E+02  0.16835151228E+03  0.12499866258E+03 0.  0.
         25    2    1    2    0    0 -0.18344251784E+02  0.54878788474E+02  0.63822687080E+02  0.15182067743E+03  0.12501195827E+03 0.  0.
          5    1    4    4  502    0 -0.61821879985E+02  0.47157450832E+02  0.72681251146E+02  0.10653837000E+03  0.47000000000E+01 0. -1.
         -5    1    4    4    0  502  0.43477628200E+02  0.77213376412E+01 -0.88585640660E+01  0.45282307430E+02  0.47000000000E+01 0. -1.
          5    1    3    3  503    0 -0.17907051612E+02 -0.83850477953E+02  0.83678342229E+02  0.11989879111E+03  0.47000000000E+01 0.  1.
         -5    1    3    3    0  503  0.36251303396E+02  0.28971689479E+02  0.13117179587E+02  0.48452721178E+02  0.47000000000E+01 0.  1.
<mgrwt>
<rscale>  0 0.13775105E+03</rscale>
<asrwt>0</asrwt>
<pdfrwt beam="1">  1        5 0.36983876E-01 0.13775407E+03</pdfrwt>
<pdfrwt beam="2">  1       -5 0.12273383E-01 0.13775407E+03</pdfrwt>
<totfact> 0.28818911E+02</totfact>
</mgrwt>
</event>
<event>
 8    1  0.3573290E-007  0.1353533E+03  0.7546771E-02  0.1219723E+00
         -5   -1    0    0    0  501 -0.00000000000E+00  0.00000000000E+00  0.97425699602E+02  0.97539002163E+02  0.47000000000E+01 0.  1.
          5   -1    0    0  501    0  0.00000000000E+00 -0.00000000000E+00 -0.19272414691E+03  0.19278144829E+03  0.47000000000E+01 0.  1.
         25    2    1    2    0    0  0.34153901578E+02 -0.39105979679E+02 -0.24428385271E+02  0.13753603082E+03  0.12499458839E+03 0.  0.
         25    2    1    2    0    0 -0.34153901578E+02  0.39105979679E+02 -0.70870062040E+02  0.15278441963E+03  0.12499898619E+03 0.  0.
          5    1    4    4  502    0 -0.38307354625E+02 -0.30778119163E+02 -0.66043634774E+02  0.82453609574E+02  0.47000000000E+01 0.  1.
         -5    1    4    4    0  502  0.41534530475E+01  0.69884098842E+02 -0.48264272655E+01  0.70330810058E+02  0.47000000000E+01 0.  1.
          5    1    3    3  503    0  0.14134537187E+02  0.42308282834E+02 -0.29047402677E+02  0.53437978444E+02  0.47000000000E+01 0. -1.
         -5    1    3    3    0  503  0.20019364391E+02 -0.81414262513E+02  0.46190174067E+01  0.84098052373E+02  0.47000000000E+01 0. -1.
<mgrwt>
<rscale>  0 0.13535227E+03</rscale>
<asrwt>0</asrwt>
<pdfrwt beam="2">  1        5 0.29662992E-01 0.13535329E+03</pdfrwt>
<pdfrwt beam="1">  1       -5 0.15001693E-01 0.13535329E+03</pdfrwt>
<totfact> 0.30998182E+02</totfact>
</mgrwt>
</event>
<event>
 8    1  0.3573290E-007  0.1583546E+03  0.7546771E-02  0.1190569E+00
         -5   -1    0    0    0  501 -0.00000000000E+00  0.00000000000E+00  0.58913464532E+02  0.59100645539E+02  0.47000000000E+01 0.  1.
          5   -1    0    0  501    0  0.00000000000E+00 -0.00000000000E+00 -0.42777709618E+03  0.42780291493E+03  0.47000000000E+01 0.  1.
         25    2    1    2    0    0  0.91606785641E+02  0.32527947409E+02 -0.16395699897E+03  0.22793847325E+03  0.12499671811E+03 0.  0.
         25    2    1    2    0    0 -0.91606785641E+02 -0.32527947409E+02 -0.20490663268E+03  0.25896508721E+03  0.12500527085E+03 0.  0.
          5    1    4    4  502    0  0.17137620784E+02  0.26225542765E+02 -0.64408979964E+02  0.71778017801E+02  0.47000000000E+01 0. -1.
         -5    1    4    4    0  502 -0.10874440643E+03 -0.58753490175E+02 -0.14049765272E+03  0.18718706941E+03  0.47000000000E+01 0. -1.
          5    1    3    3  503    0  0.12122996975E+03  0.35055487501E+02 -0.11694269101E+03  0.17211413583E+03  0.47000000000E+01 0. -1.
         -5    1    3    3    0  503 -0.29623184113E+02 -0.25275400915E+01 -0.47014307958E+02  0.55824337423E+02  0.47000000000E+01 0. -1.
<mgrwt>
<rscale>  0 0.15835294E+03</rscale>
<asrwt>0</asrwt>
<pdfrwt beam="2">  1        5 0.65828244E-01 0.15835463E+03</pdfrwt>
<pdfrwt beam="1">  1       -5 0.90799948E-02 0.15835463E+03</pdfrwt>
<totfact> 0.15080029E+02</totfact>
</mgrwt>
</event>
<event>
 8    1  0.3573290E-007  0.1579786E+03  0.7546771E-02  0.1190998E+00
         -5   -1    0    0    0  501 -0.00000000000E+00  0.00000000000E+00  0.14508176162E+03  0.14515787114E+03  0.47000000000E+01 0.  1.
          5   -1    0    0  501    0  0.00000000000E+00 -0.00000000000E+00 -0.17302241226E+03  0.17308623615E+03  0.47000000000E+01 0.  1.
         25    2    1    2    0    0  0.25542890900E+02 -0.93173899118E+02 -0.97392036293E+00  0.15798045571E+03  0.12499224421E+03 0.  0.
         25    2    1    2    0    0 -0.25542890900E+02  0.93173899118E+02 -0.26966730281E+02  0.16026365158E+03  0.12499367473E+03 0.  0.
          5    1    4    4  502    0 -0.40177492577E+02  0.12015691370E+03 -0.24342775014E+02  0.12909909185E+03  0.47000000000E+01 0. -1.
         -5    1    4    4    0  502  0.14634601677E+02 -0.26983014583E+02 -0.26239552667E+01  0.31164559735E+02  0.47000000000E+01 0. -1.
          5    1    3    3  503    0  0.54645396753E+02 -0.41680687171E+02  0.45546562786E+02  0.82583160820E+02  0.47000000000E+01 0.  1.
         -5    1    3    3    0  503 -0.29102505854E+02 -0.51493211947E+02 -0.46520483149E+02  0.75397294885E+02  0.47000000000E+01 0.  1.
<mgrwt>
<rscale>  0 0.15797830E+03</rscale>
<asrwt>0</asrwt>
<pdfrwt beam="2">  1        5 0.26629597E-01 0.15797859E+03</pdfrwt>
<pdfrwt beam="1">  1       -5 0.22331035E-01 0.15797859E+03</pdfrwt>
<totfact> 0.19289446E+02</totfact>
</mgrwt>
</event>
<event>
 8    1  0.3573290E-007  0.1291420E+03  0.7546771E-02  0.1228742E+00
          5   -1    0    0  501    0  0.00000000000E+00  0.00000000000E+00  0.54960348372E+03  0.54962357966E+03  0.47000000000E+01 0. -1.
         -5   -1    0    0    0  501 -0.00000000000E+00 -0.00000000000E+00 -0.31261263801E+02  0.31612602146E+02  0.47000000000E+01 0. -1.
         25    2    1    2    0    0 -0.29856168916E+02 -0.12675006024E+02  0.20437627206E+03  0.24174794608E+03  0.12498144764E+03 0.  0.
         25    2    1    2    0    0  0.29856168916E+02  0.12675006024E+02  0.31396594787E+03  0.33948823572E+03  0.12500239668E+03 0.  0.
          5    1    4    4  502    0  0.50081242874E+02  0.10718523058E+02  0.31444849630E+03  0.31862668508E+03  0.47000000000E+01 0.  1.
         -5    1    4    4    0  502 -0.20225073958E+02  0.19564829661E+01 -0.48254842959E+00  0.20861550642E+02  0.47000000000E+01 0.  1.
          5    1    3    3  503    0 -0.44578916481E+02 -0.28082563354E+02  0.21210154776E+03  0.21859795681E+03  0.47000000000E+01 0. -1.
         -5    1    3    3    0  503  0.14722747566E+02  0.15407557330E+02 -0.77252757018E+01  0.23149989275E+02  0.47000000000E+01 0. -1.
<mgrwt>
<rscale>  0 0.12913689E+03</rscale>
<asrwt>0</asrwt>
<pdfrwt beam="1">  1        5 0.84582944E-01 0.12914196E+03</pdfrwt>
<pdfrwt beam="2">  1       -5 0.48379976E-02 0.12914196E+03</pdfrwt>
<totfact> 0.23099569E+02</totfact>
</mgrwt>
</event>
<event>
 8    1  0.3573290E-007  0.1286056E+03  0.7546771E-02  0.1229540E+00
         -5   -1    0    0    0  501 -0.00000000000E+00  0.00000000000E+00  0.25981056934E+03  0.25985307761E+03  0.47000000000E+01 0.  1.
          5   -1    0    0  501    0  0.00000000000E+00 -0.00000000000E+00 -0.77689824428E+02  0.77831862496E+02  0.47000000000E+01 0.  1.
         25    2    1    2    0    0 -0.27475357297E+02  0.12610256359E+02  0.16306369866E+03  0.20767501192E+03  0.12500090772E+03 0.  0.
         25    2    1    2    0    0  0.27475357297E+02 -0.12610256359E+02  0.19057046252E+02  0.13000992818E+03  0.12500198634E+03 0.  0.
          5    1    4    4  502    0  0.67686712661E+02 -0.18470655775E+01 -0.22002340052E+02  0.71351914410E+02  0.47000000000E+01 0.  1.
         -5    1    4    4    0  502 -0.40211355365E+02 -0.10763190782E+02  0.41059386304E+02  0.58658013773E+02  0.47000000000E+01 0.  1.
          5    1    3    3  503    0 -0.94848927510E+01  0.68042828835E+02  0.10259431097E+03  0.12356161374E+03  0.47000000000E+01 0.  1.
         -5    1    3    3    0  503 -0.17990464546E+02 -0.55432572476E+02  0.60469387696E+02  0.84113398185E+02  0.47000000000E+01 0.  1.
<mgrwt>
<rscale>  0 0.12860538E+03</rscale>
<asrwt>0</asrwt>
<pdfrwt beam="2">  1        5 0.11966476E-01 0.12860564E+03</pdfrwt>
<pdfrwt beam="1">  1       -5 0.39985053E-01 0.12860564E+03</pdfrwt>
<totfact> 0.25112377E+02</totfact>
</mgrwt>
</event>
<event>
 8    1  0.3573290E-007  0.1406120E+03  0.7546771E-02  0.1212510E+00
         -5   -1    0    0    0  501 -0.00000000000E+00  0.00000000000E+00  0.23098844986E+03  0.23103626115E+03  0.47000000000E+01 0. -1.
          5   -1    0    0  501    0  0.00000000000E+00 -0.00000000000E+00 -0.88957398166E+02  0.89081472196E+02  0.47000000000E+01 0. -1.
         25    2    1    2    0    0 -0.53400476383E+02 -0.35998209279E+02  0.10266743657E+03  0.17409986459E+03  0.12499071314E+03 0.  0.
         25    2    1    2    0    0  0.53400476383E+02  0.35998209279E+02  0.39363615124E+02  0.14601786875E+03  0.12499696736E+03 0.  0.
          5    1    3    3  502    0 -0.41929169075E+02 -0.68259682513E+02  0.11248126925E+03  0.13817223096E+03  0.47000000000E+01 0. -1.
         -5    1    3    3    0  502 -0.11471307308E+02  0.32261473234E+02 -0.98138326849E+01  0.35927633634E+02  0.47000000000E+01 0. -1.
          5    1    4    4  503    0  0.31912241182E+02  0.17562250763E+02 -0.44313720205E+02  0.57555361066E+02  0.47000000000E+01 0.  1.
         -5    1    4    4    0  503  0.21488235202E+02  0.18435958516E+02  0.83677335328E+02  0.88462507686E+02  0.47000000000E+01 0.  1.
<mgrwt>
<rscale>  0 0.14061057E+03</rscale>
<asrwt>0</asrwt>
<pdfrwt beam="2">  1        5 0.13698976E-01 0.14061196E+03</pdfrwt>
<pdfrwt beam="1">  1       -5 0.35549906E-01 0.14061196E+03</pdfrwt>
<totfact> 0.25829022E+02</totfact>
</mgrwt>
</event>
<event>
 8    1  0.3573290E-007  0.1627123E+03  0.7546771E-02  0.1185670E+00
          5   -1    0    0  501    0  0.00000000000E+00  0.00000000000E+00  0.23157636780E+02  0.23629772348E+02  0.47000000000E+01 0.  1.
         -5   -1    0    0    0  501 -0.00000000000E+00 -0.00000000000E+00 -0.11834869513E+04  0.11834962839E+04  0.47000000000E+01 0.  1.
         25    2    1    2    0    0 -0.73943104519E+02 -0.73364903051E+02 -0.45334562877E+03  0.48166124603E+03  0.12500122041E+03 0.  0.
         25    2    1    2    0    0  0.73943104519E+02  0.73364903051E+02 -0.70698368580E+03  0.72546481022E+03  0.12499306847E+03 0.  0.
          5    1    3    3  502    0  0.12968362318E+02 -0.60047388658E+02 -0.99550374060E+02  0.11707362761E+03  0.47000000000E+01 0. -1.
         -5    1    3    3    0  502 -0.86911466836E+02 -0.13317514393E+02 -0.35379525471E+03  0.36458761843E+03  0.47000000000E+01 0. -1.
          5    1    4    4  503    0  0.36340943805E+02  0.62194094230E+02 -0.14384228403E+03  0.16093931226E+03  0.47000000000E+01 0. -1.
         -5    1    4    4    0  503  0.37602160714E+02  0.11170808821E+02 -0.56314140177E+03  0.56452549796E+03  0.47000000000E+01 0. -1.
<mgrwt>
<rscale>  0 0.16271075E+03</rscale>
<asrwt>0</asrwt>
<pdfrwt beam="1">  1        5 0.35997503E-02 0.16271231E+03</pdfrwt>
<pdfrwt beam="2">  1       -5 0.18211190E+00 0.16271231E+03</pdfrwt>
<totfact> 0.54957940E+01</totfact>
</mgrwt>
</event>
<event>
 8    1  0.3573290E-007  0.1665425E+03  0.7546771E-02  0.1181503E+00
         -5   -1    0    0    0  501 -0.00000000000E+00  0.00000000000E+00  0.28359333434E+03  0.28363227828E+03  0.47000000000E+01 0.  1.
          5   -1    0    0  501    0  0.00000000000E+00 -0.00000000000E+00 -0.97700536381E+02  0.97813520584E+02  0.47000000000E+01 0.  1.
         25    2    1    2    0    0  0.85989579490E+02  0.68680424134E+02  0.93044548525E+02  0.19077127912E+03  0.12500073794E+03 0.  0.
         25    2    1    2    0    0 -0.85989579490E+02 -0.68680424134E+02  0.92848249438E+02  0.19067451975E+03  0.12499906647E+03 0.  0.
          5    1    4    4  502    0 -0.11299095130E+03 -0.65180649692E+02  0.50179544316E+02  0.13984115573E+03  0.47000000000E+01 0.  1.
         -5    1    4    4    0  502  0.27001371807E+02 -0.34997744414E+01  0.42668705122E+02  0.50833364018E+02  0.47000000000E+01 0.  1.
          5    1    3    3  503    0 -0.21788311120E+02  0.34294636273E+02 -0.47251063690E+01  0.41173647018E+02  0.47000000000E+01 0. -1.
         -5    1    3    3    0  503  0.10777789061E+03  0.34385787860E+02  0.97769654894E+02  0.14959763210E+03  0.47000000000E+01 0. -1.
<mgrwt>
<rscale>  0 0.16654215E+03</rscale>
<asrwt>0</asrwt>
<pdfrwt beam="2">  1        5 0.15042539E-01 0.16654247E+03</pdfrwt>
<pdfrwt beam="1">  1       -5 0.43641430E-01 0.16654247E+03</pdfrwt>
<totfact> 0.15151406E+02</totfact>
</mgrwt>
</event>
<event>
 8    1  0.3573290E-007  0.1256317E+03  0.7546771E-02  0.1234089E+00
         -5   -1    0    0    0  501 -0.00000000000E+00  0.00000000000E+00  0.96799547002E+02  0.96913581607E+02  0.47000000000E+01 0. -1.
          5   -1    0    0  501    0  0.00000000000E+00 -0.00000000000E+00 -0.18776672799E+03  0.18782554177E+03  0.47000000000E+01 0. -1.
         25    2    1    2    0    0  0.12513508627E+02 -0.36555560070E+00  0.64128806220E+01  0.12578566181E+03  0.12499674456E+03 0.  0.
         25    2    1    2    0    0 -0.12513508627E+02  0.36555560070E+00 -0.97380061614E+02  0.15895346156E+03  0.12500641989E+03 0.  0.
          5    1    3    3  502    0  0.10351664661E+02  0.18436036476E+02  0.62636852674E+02  0.66276011611E+02  0.47000000000E+01 0.  1.
         -5    1    3    3    0  502  0.21618439652E+01 -0.18801592076E+02 -0.56223972052E+02  0.59509650203E+02  0.47000000000E+01 0.  1.
          5    1    4    4  503    0 -0.66956945616E+02  0.15580068967E+02 -0.53745011715E+02  0.87387570052E+02  0.47000000000E+01 0.  1.
         -5    1    4    4    0  503  0.54443436990E+02 -0.15214513366E+02 -0.43635049899E+02  0.71565891512E+02  0.47000000000E+01 0.  1.
<mgrwt>
<rscale>  0 0.12562930E+03</rscale>
<asrwt>0</asrwt>
<pdfrwt beam="2">  1        5 0.28900485E-01 0.12563171E+03</pdfrwt>
<pdfrwt beam="1">  1       -5 0.14905534E-01 0.12563171E+03</pdfrwt>
<totfact> 0.32124252E+02</totfact>
</mgrwt>
</event>
<event>
 8    1  0.3573290E-007  0.1409342E+03  0.7546771E-02  0.1212082E+00
         -5   -1    0    0    0  501 -0.00000000000E+00  0.00000000000E+00  0.45071196370E+02  0.45315590498E+02  0.47000000000E+01 0. -1.
          5   -1    0    0  501    0  0.00000000000E+00 -0.00000000000E+00 -0.59128258492E+03  0.59130126436E+03  0.47000000000E+01 0. -1.
         25    2    1    2    0    0  0.64450993496E+02  0.91508737031E+01 -0.11170293220E+03  0.17982363935E+03  0.12498530775E+03 0.  0.
         25    2    1    2    0    0 -0.64450993496E+02 -0.91508737031E+01 -0.43450845635E+03  0.45679321551E+03  0.12499909618E+03 0.  0.
          5    1    4    4  502    0 -0.67652129375E+02 -0.59514330867E+02 -0.28224705284E+03  0.29631782772E+03  0.47000000000E+01 0. -1.
         -5    1    4    4    0  502  0.32011358792E+01  0.50363457164E+02 -0.15226140351E+03  0.16047538780E+03  0.47000000000E+01 0. -1.
          5    1    3    3  503    0  0.36586706435E+02  0.57857713563E+02 -0.18728465478E+02  0.71126278728E+02  0.47000000000E+01 0. -1.
         -5    1    3    3    0  503  0.27864287061E+02 -0.48706839860E+02 -0.92974466724E+02  0.10869736062E+03  0.47000000000E+01 0. -1.
<mgrwt>
<rscale>  0 0.14093112E+03</rscale>
<asrwt>0</asrwt>
<pdfrwt beam="2">  1        5 0.90986782E-01 0.14093418E+03</pdfrwt>
<pdfrwt beam="1">  1       -5 0.69542671E-02 0.14093418E+03</pdfrwt>
<totfact> 0.10898048E+02</totfact>
</mgrwt>
</event>
<event>
 8    1  0.3573290E-007  0.1298149E+03  0.7546771E-02  0.1227731E+00
         -5   -1    0    0    0  501 -0.00000000000E+00  0.00000000000E+00  0.10491935996E+04  0.10492041267E+04  0.47000000000E+01 0. -1.
          5   -1    0    0  501    0  0.00000000000E+00 -0.00000000000E+00 -0.16203212664E+02  0.16871102532E+02  0.47000000000E+01 0. -1.
         25    2    1    2    0    0  0.21044579220E+01  0.34947072677E+02  0.60785761920E+03  0.62156479271E+03  0.12500471866E+03 0.  0.
         25    2    1    2    0    0 -0.21044579220E+01 -0.34947072677E+02  0.42513276771E+03  0.44451043648E+03  0.12500372523E+03 0.  0.
          5    1    4    4  502    0  0.65183329552E+01 -0.36066818216E+02  0.25827240653E+02  0.45082595317E+02  0.47000000000E+01 0.  1.
         -5    1    4    4    0  502 -0.86227908772E+01  0.11197455394E+01  0.39930552706E+03  0.39942784116E+03  0.47000000000E+01 0.  1.
          5    1    3    3  503    0 -0.55008183948E+02 -0.50971961552E+01  0.19095327774E+03  0.19883944777E+03  0.47000000000E+01 0. -1.
         -5    1    3    3    0  503  0.57112641870E+02  0.40044268832E+02  0.41690434146E+03  0.42272534494E+03  0.47000000000E+01 0. -1.
<mgrwt>
<rscale>  0 0.12981465E+03</rscale>
<asrwt>0</asrwt>
<pdfrwt beam="2">  1        5 0.25449872E-02 0.12981489E+03</pdfrwt>
<pdfrwt beam="1">  1       -5 0.16146663E+00 0.12981489E+03</pdfrwt>
<totfact> 0.12746847E+02</totfact>
</mgrwt>
</event>
<event>
 8    1  0.3573290E-007  0.1288399E+03  0.7546771E-02  0.1229200E+00
         -5   -1    0    0    0  501 -0.00000000000E+00  0.00000000000E+00  0.15271488665E+03  0.15278719385E+03  0.47000000000E+01 0.  1.
          5   -1    0    0  501    0  0.00000000000E+00 -0.00000000000E+00 -0.11442776137E+03  0.11452424448E+03  0.47000000000E+01 0.  1.
         25    2    1    2    0    0  0.18953591422E+02  0.24626403377E+02  0.49485571984E+02  0.13798575147E+03  0.12500218959E+03 0.  0.
         25    2    1    2    0    0 -0.18953591422E+02 -0.24626403377E+02 -0.11198446706E+02  0.12932568686E+03  0.12503611359E+03 0.  0.
          5    1    3    3  502    0  0.68647951084E+02  0.12447318394E-01  0.44856856063E+02  0.82138717295E+02  0.47000000000E+01 0.  1.
         -5    1    3    3    0  502 -0.49694359662E+02  0.24613956058E+02  0.46287159217E+01  0.55847034175E+02  0.47000000000E+01 0.  1.
          5    1    4    4  503    0 -0.67832141593E+02 -0.35964010383E+02  0.29654918198E+01  0.76977227916E+02  0.47000000000E+01 0.  1.
         -5    1    4    4    0  503  0.48878550171E+02  0.11337607007E+02 -0.14163938525E+02  0.52348458946E+02  0.47000000000E+01 0.  1.
<mgrwt>
<rscale>  0 0.12883170E+03</rscale>
<asrwt>0</asrwt>
<pdfrwt beam="2">  1        5 0.17617255E-01 0.12883993E+03</pdfrwt>
<pdfrwt beam="1">  1       -5 0.23507582E-01 0.12883993E+03</pdfrwt>
<totfact> 0.35576668E+02</totfact>
</mgrwt>
</event>
<event>
 8    1  0.3573290E-007  0.1362924E+03  0.7546771E-02  0.1218419E+00
          5   -1    0    0  501    0  0.00000000000E+00  0.00000000000E+00  0.25169974842E+03  0.25174362624E+03  0.47000000000E+01 0. -1.
         -5   -1    0    0    0  501 -0.00000000000E+00 -0.00000000000E+00 -0.84314837987E+02  0.84445733491E+02  0.47000000000E+01 0. -1.
         25    2    1    2    0    0  0.28847679720E+01  0.54244084299E+02  0.24003587000E+02  0.13838997588E+03  0.12499948267E+03 0.  0.
         25    2    1    2    0    0 -0.28847679720E+01 -0.54244084299E+02  0.14338132343E+03  0.19779938386E+03  0.12496259351E+03 0.  0.
          5    1    4    4  502    0 -0.30974734814E+02  0.23375734751E+02  0.93242923203E+02  0.10110485596E+03  0.47000000000E+01 0.  1.
         -5    1    4    4    0  502  0.28089966842E+02 -0.77619819050E+02  0.50138400230E+02  0.96694527892E+02  0.47000000000E+01 0.  1.
          5    1    3    3  503    0  0.39375549843E+01  0.49399792049E+02  0.73309694772E+02  0.88612894893E+02  0.47000000000E+01 0. -1.
         -5    1    3    3    0  503 -0.10527870123E+01  0.48442922501E+01 -0.49306107773E+02  0.49777080987E+02  0.47000000000E+01 0. -1.
<mgrwt>
<rscale>  0 0.13628392E+03</rscale>
<asrwt>0</asrwt>
<pdfrwt beam="1">  1        5 0.38736482E-01 0.13629238E+03</pdfrwt>
<pdfrwt beam="2">  1       -5 0.12984958E-01 0.13629238E+03</pdfrwt>
<totfact> 0.23645965E+02</totfact>
</mgrwt>
</event>
<event>
 8    1  0.3573290E-007  0.1264043E+03  0.7546771E-02  0.1232891E+00
         -5   -1    0    0    0  501 -0.00000000000E+00  0.00000000000E+00  0.20818666287E+02  0.21342606822E+02  0.47000000000E+01 0. -1.
          5   -1    0    0  501    0  0.00000000000E+00 -0.00000000000E+00 -0.75818310353E+03  0.75819767111E+03  0.47000000000E+01 0. -1.
         25    2    1    2    0    0  0.70628746452E+01 -0.17434217167E+02 -0.35629553394E+03  0.37805363156E+03  0.12499681878E+03 0.  0.
         25    2    1    2    0    0 -0.70628746452E+01  0.17434217167E+02 -0.38106890330E+03  0.40148664637E+03  0.12499672804E+03 0.  0.
          5    1    3    3  502    0  0.96814832041E+01 -0.52450141835E+02 -0.32900700023E+03  0.33333533371E+03  0.47000000000E+01 0. -1.
         -5    1    3    3    0  502 -0.26186085589E+01  0.35015924669E+02 -0.27288533704E+02  0.44718297854E+02  0.47000000000E+01 0. -1.
          5    1    4    4  503    0  0.15235575279E+02  0.66815149698E+02 -0.16606749836E+03  0.17971335786E+03  0.47000000000E+01 0. -1.
         -5    1    4    4    0  503 -0.22298449924E+02 -0.49380932532E+02 -0.21500140494E+03  0.22177328851E+03  0.47000000000E+01 0. -1.
<mgrwt>
<rscale>  0 0.12640425E+03</rscale>
<asrwt>0</asrwt>
<pdfrwt beam="2">  1        5 0.11668496E+00 0.12640428E+03</pdfrwt>
<pdfrwt beam="1">  1       -5 0.32442960E-02 0.12640428E+03</pdfrwt>
<totfact> 0.20208543E+02</totfact>
</mgrwt>
</event>
<event>
 8    1  0.3573290E-007  0.1390908E+03  0.7546771E-02  0.1214561E+00
         -5   -1    0    0    0  501 -0.00000000000E+00  0.00000000000E+00  0.20459339857E+02  0.20992250651E+02  0.47000000000E+01 0.  1.
          5   -1    0    0  501    0  0.00000000000E+00 -0.00000000000E+00 -0.96485749930E+03  0.96486894652E+03  0.47000000000E+01 0.  1.
         25    2    1    2    0    0  0.36388184752E+02 -0.48950716924E+02 -0.38241095851E+03  0.40691745148E+03  0.12499359366E+03 0.  0.
         25    2    1    2    0    0 -0.36388184752E+02  0.48950716924E+02 -0.56198720094E+03  0.57894374569E+03  0.12500389586E+03 0.  0.
          5    1    4    4  502    0  0.21959549101E+02  0.63062805421E+02 -0.41059955554E+03  0.41602070169E+03  0.47000000000E+01 0.  1.
         -5    1    4    4    0  502 -0.58347733853E+02 -0.14112088497E+02 -0.15138764540E+03  0.16292304400E+03  0.47000000000E+01 0.  1.
          5    1    3    3  503    0  0.48847516047E+02 -0.44389671827E+02 -0.38660742556E+03  0.39222941538E+03  0.47000000000E+01 0. -1.
         -5    1    3    3    0  503 -0.12459331295E+02 -0.45610450965E+01  0.41964670570E+01  0.14688036099E+02  0.47000000000E+01 0. -1.
<mgrwt>
<rscale>  0 0.13908847E+03</rscale>
<asrwt>0</asrwt>
<pdfrwt beam="2">  1        5 0.14848145E+00 0.13909079E+03</pdfrwt>
<pdfrwt beam="1">  1       -5 0.31894652E-02 0.13909079E+03</pdfrwt>
<totfact> 0.11416363E+02</totfact>
</mgrwt>
</event>
<event>
 8    1  0.3573290E-007  0.1853638E+03  0.7546771E-02  0.1162715E+00
          5   -1    0    0  501    0  0.00000000000E+00  0.00000000000E+00  0.67288575250E+02  0.67452519295E+02  0.47000000000E+01 0. -1.
         -5   -1    0    0    0  501 -0.00000000000E+00 -0.00000000000E+00 -0.52056254259E+03  0.52058375959E+03  0.47000000000E+01 0. -1.
         25    2    1    2    0    0 -0.74531572345E+01  0.13665070695E+03 -0.26891580337E+03  0.32660239495E+03  0.12499779928E+03 0.  0.
         25    2    1    2    0    0  0.74531572345E+01 -0.13665070695E+03 -0.18435816397E+03  0.26143388393E+03  0.12502310899E+03 0.  0.
          5    1    3    3  502    0  0.22651353929E+02  0.14085223280E+03 -0.16471864056E+03  0.21796044565E+03  0.47000000000E+01 0. -1.
         -5    1    3    3    0  502 -0.30104511164E+02 -0.42015258437E+01 -0.10419716280E+03  0.10864194930E+03  0.47000000000E+01 0. -1.
          5    1    4    4  503    0 -0.87106405517E+01  0.22857109854E+02 -0.22516646531E+02  0.33576957883E+02  0.47000000000E+01 0. -1.
         -5    1    4    4    0  503  0.16163797786E+02 -0.15950781681E+03 -0.16184151744E+03  0.22785692605E+03  0.47000000000E+01 0. -1.
<mgrwt>
<rscale>  0 0.18535955E+03</rscale>
<asrwt>0</asrwt>
<pdfrwt beam="1">  1        5 0.10366332E-01 0.18536381E+03</pdfrwt>
<pdfrwt beam="2">  1       -5 0.80100786E-01 0.18536381E+03</pdfrwt>
<totfact> 0.80107891E+01</totfact>
</mgrwt>
</event>
<event>
 8    1  0.3573290E-007  0.3873935E+03  0.7546771E-02  0.1048235E+00
         -5   -1    0    0    0  501 -0.00000000000E+00  0.00000000000E+00  0.75516044842E+02  0.75662163785E+02  0.47000000000E+01 0. -1.
          5   -1    0    0  501    0  0.00000000000E+00 -0.00000000000E+00 -0.20359591819E+04  0.20359646069E+04  0.47000000000E+01 0. -1.
         25    2    1    2    0    0  0.36434451248E+03  0.41171369084E+02 -0.11469164339E+04  0.12105721598E+04  0.12500256961E+03 0.  0.
         25    2    1    2    0    0 -0.36434451248E+03 -0.41171369084E+02 -0.81352670316E+03  0.90105461081E+03  0.12502683513E+03 0.  0.
          5    1    4    4  502    0 -0.36280316112E+03 -0.42277705169E+02 -0.71974443749E+03  0.80713548018E+03  0.47000000000E+01 0. -1.
         -5    1    4    4    0  502 -0.15413513590E+01  0.11063360854E+01 -0.93782265674E+02  0.93919130631E+02  0.47000000000E+01 0. -1.
          5    1    3    3  503    0  0.26493474097E+03  0.18129888869E+02 -0.63064094990E+03  0.68428737204E+03  0.47000000000E+01 0.  1.
         -5    1    3    3    0  503  0.99409771505E+02  0.23041480215E+02 -0.51627548402E+03  0.52628478781E+03  0.47000000000E+01 0.  1.
<mgrwt>
<rscale>  0 0.38739153E+03</rscale>
<asrwt>0</asrwt>
<pdfrwt beam="2">  1        5 0.31323611E+00 0.38739349E+03</pdfrwt>
<pdfrwt beam="1">  1       -5 0.11629512E-01 0.38739349E+03</pdfrwt>
<totfact> 0.11729747E+00</totfact>
</mgrwt>
</event>
<event>
 8    1  0.3573290E-007  0.1748308E+03  0.7546771E-02  0.1172903E+00
          5   -1    0    0  501    0  0.00000000000E+00  0.00000000000E+00  0.13427629937E+03  0.13435852995E+03  0.47000000000E+01 0.  1.
         -5   -1    0    0    0  501 -0.00000000000E+00 -0.00000000000E+00 -0.22834245390E+03  0.22839081911E+03  0.47000000000E+01 0.  1.
         25    2    1    2    0    0 -0.90059144023E+02  0.82646220056E+02 -0.58351263373E+02  0.18431139375E+03  0.12499909127E+03 0.  0.
         25    2    1    2    0    0  0.90059144023E+02 -0.82646220056E+02 -0.35714891157E+02  0.17843795531E+03  0.12499401318E+03 0.  0.
          5    1    4    4  502    0 -0.97394709535E+01 -0.30135306861E+02 -0.55283916432E+02  0.63885799910E+02  0.47000000000E+01 0.  1.
         -5    1    4    4    0  502  0.99798614977E+02 -0.52510913194E+02  0.19569025275E+02  0.11455215540E+03  0.47000000000E+01 0.  1.
          5    1    3    3  503    0  0.27692053286E+02 -0.31220529070E+01 -0.30674189751E+01  0.28427030952E+02  0.47000000000E+01 0. -1.
         -5    1    3    3    0  503 -0.11775119731E+03  0.85768272963E+02 -0.55283844398E+02  0.15588436280E+03  0.47000000000E+01 0. -1.
<mgrwt>
<rscale>  0 0.17482992E+03</rscale>
<asrwt>0</asrwt>
<pdfrwt beam="1">  1        5 0.20667938E-01 0.17483083E+03</pdfrwt>
<pdfrwt beam="2">  1       -5 0.35139654E-01 0.17483083E+03</pdfrwt>
<totfact> 0.13316896E+02</totfact>
</mgrwt>
</event>
<event>
 8    1  0.3573290E-007  0.1530502E+03  0.7546771E-02  0.1196774E+00
          5   -1    0    0  501    0  0.00000000000E+00  0.00000000000E+00  0.17337693941E+03  0.17344063284E+03  0.47000000000E+01 0. -1.
         -5   -1    0    0    0  501 -0.00000000000E+00 -0.00000000000E+00 -0.26192120304E+03  0.26196336881E+03  0.47000000000E+01 0. -1.
         25    2    1    2    0    0  0.74771978781E+02  0.46997972026E+02 -0.19579555495E+03  0.24851575430E+03  0.12499809043E+03 0.  0.
         25    2    1    2    0    0 -0.74771978781E+02 -0.46997972026E+02  0.10725129133E+03  0.18688824736E+03  0.12499887729E+03 0.  0.
          5    1    3    3  502    0  0.26794046332E+01  0.73451930488E+02 -0.73636613515E+02  0.10414800119E+03  0.47000000000E+01 0. -1.
         -5    1    3    3    0  502  0.72092574148E+02 -0.26453958462E+02 -0.12215894144E+03  0.14436775311E+03  0.47000000000E+01 0. -1.
          5    1    4    4  503    0 -0.20702875774E+02  0.41762000775E+02  0.19347025210E+02  0.50686005549E+02  0.47000000000E+01 0.  1.
         -5    1    4    4    0  503 -0.54069103007E+02 -0.88759972801E+02  0.87904266118E+02  0.13620224181E+03  0.47000000000E+01 0.  1.
<mgrwt>
<rscale>  0 0.15305008E+03</rscale>
<asrwt>0</asrwt>
<pdfrwt beam="1">  1        5 0.26681518E-01 0.15305025E+03</pdfrwt>
<pdfrwt beam="2">  1       -5 0.40303713E-01 0.15305025E+03</pdfrwt>
<totfact> 0.59494833E+01</totfact>
</mgrwt>
</event>
<event>
 8    1  0.3573290E-007  0.1391003E+03  0.7546771E-02  0.1214545E+00
         -5   -1    0    0    0  501 -0.00000000000E+00  0.00000000000E+00  0.59946387388E+03  0.59948229840E+03  0.47000000000E+01 0. -1.
          5   -1    0    0  501    0  0.00000000000E+00 -0.00000000000E+00 -0.33297896969E+02  0.33627963700E+02  0.47000000000E+01 0. -1.
         25    2    1    2    0    0 -0.70627401076E+01  0.60614117851E+02  0.34313742819E+03  0.37025961959E+03  0.12499975077E+03 0.  0.
         25    2    1    2    0    0  0.70627401076E+01 -0.60614117851E+02  0.22302854872E+03  0.26285064251E+03  0.12499909256E+03 0.  0.
          5    1    3    3  502    0 -0.15504283964E+02 -0.13482371067E+02  0.21566340440E+01  0.21187218346E+02  0.47000000000E+01 0.  1.
         -5    1    3    3    0  502  0.84415438565E+01  0.74096488918E+02  0.34098079415E+03  0.34907240124E+03  0.47000000000E+01 0.  1.
          5    1    4    4  503    0 -0.30221022832E+02 -0.85101464333E+02  0.17593640671E+03  0.19781627501E+03  0.47000000000E+01 0. -1.
         -5    1    4    4    0  503  0.37283762939E+02  0.24487346482E+02  0.47092142019E+02  0.65034367503E+02  0.47000000000E+01 0. -1.
<mgrwt>
<rscale>  0 0.13910014E+03</rscale>
<asrwt>0</asrwt>
<pdfrwt beam="2">  1        5 0.51495608E-02 0.13910029E+03</pdfrwt>
<pdfrwt beam="1">  1       -5 0.92252012E-01 0.13910029E+03</pdfrwt>
<totfact> 0.17399804E+02</totfact>
</mgrwt>
</event>
<event>
 8    1  0.3573290E-007  0.1279489E+03  0.7546771E-02  0.1230537E+00
          5   -1    0    0  501    0  0.00000000000E+00  0.00000000000E+00  0.12983630618E+03  0.12992134698E+03  0.47000000000E+01 0.  1.
         -5   -1    0    0    0  501 -0.00000000000E+00 -0.00000000000E+00 -0.12958839660E+03  0.12967359998E+03  0.47000000000E+01 0.  1.
         25    2    1    2    0    0  0.25960056595E+02 -0.83155741129E+01 -0.21744130484E+02  0.12978338456E+03  0.12501138502E+03 0.  0.
         25    2    1    2    0    0 -0.25960056595E+02  0.83155741129E+01  0.21992040064E+02  0.12981156241E+03  0.12499727436E+03 0.  0.
          5    1    3    3  502    0 -0.10068061844E+01  0.52015245377E+02  0.14573311385E+02  0.54231640350E+02  0.47000000000E+01 0.  1.
         -5    1    3    3    0  502  0.26966862779E+02 -0.60330819490E+02 -0.36317441869E+02  0.75551744205E+02  0.47000000000E+01 0.  1.
          5    1    4    4  503    0 -0.38535368905E+02  0.40070160212E+02 -0.33063241174E+02  0.64852604520E+02  0.47000000000E+01 0. -1.
         -5    1    4    4    0  503  0.12575312310E+02 -0.31754586099E+02  0.55055281239E+02  0.64958957891E+02  0.47000000000E+01 0. -1.
<mgrwt>
<rscale>  0 0.12794545E+03</rscale>
<asrwt>0</asrwt>
<pdfrwt beam="1">  1        5 0.19987912E-01 0.12794889E+03</pdfrwt>
<pdfrwt beam="2">  1       -5 0.19949772E-01 0.12794889E+03</pdfrwt>
<totfact> 0.38251577E+02</totfact>
</mgrwt>
</event>
<event>
 8    1  0.3573290E-007  0.1336179E+03  0.7546771E-02  0.1222184E+00
         -5   -1    0    0    0  501 -0.00000000000E+00  0.00000000000E+00  0.25246207258E+02  0.25679972370E+02  0.47000000000E+01 0.  1.
          5   -1    0    0  501    0  0.00000000000E+00 -0.00000000000E+00 -0.80293740541E+03  0.80295116104E+03  0.47000000000E+01 0.  1.
         25    2    1    2    0    0 -0.43493273433E+02 -0.18352488445E+02 -0.24105757905E+03  0.27561270932E+03  0.12500052182E+03 0.  0.
         25    2    1    2    0    0  0.43493273433E+02  0.18352488445E+02 -0.53663361911E+03  0.55301842409E+03  0.12500103023E+03 0.  0.
          5    1    3    3  502    0 -0.83562302549E+02  0.85875782770E+01 -0.16841841201E+03  0.18826379474E+03  0.47000000000E+01 0.  1.
         -5    1    3    3    0  502  0.40069029116E+02 -0.26940066722E+02 -0.72639167037E+02  0.87348914573E+02  0.47000000000E+01 0.  1.
          5    1    4    4  503    0  0.86960129575E+02  0.21566035567E+02 -0.36832145651E+03  0.37909094338E+03  0.47000000000E+01 0.  1.
         -5    1    4    4    0  503 -0.43466856142E+02 -0.32135471224E+01 -0.16831216260E+03  0.17392748071E+03  0.47000000000E+01 0.  1.
<mgrwt>
<rscale>  0 0.13361775E+03</rscale>
<asrwt>0</asrwt>
<pdfrwt beam="2">  1        5 0.12356324E+00 0.13361787E+03</pdfrwt>
<pdfrwt beam="1">  1       -5 0.39184572E-02 0.13361787E+03</pdfrwt>
<totfact> 0.13091493E+02</totfact>
</mgrwt>
</event>
<event>
 8    1  0.3573290E-007  0.1647599E+03  0.7546771E-02  0.1183430E+00
         -5   -1    0    0    0  501 -0.00000000000E+00  0.00000000000E+00  0.14132188836E+03  0.14140002167E+03  0.47000000000E+01 0.  1.
          5   -1    0    0  501    0  0.00000000000E+00 -0.00000000000E+00 -0.20240770786E+03  0.20246226859E+03  0.47000000000E+01 0.  1.
         25    2    1    2    0    0  0.81055174019E+02  0.70387484033E+02  0.86074208192E+01  0.16496850693E+03  0.12496472079E+03 0.  0.
         25    2    1    2    0    0 -0.81055174019E+02 -0.70387484033E+02 -0.69693240327E+02  0.17889378333E+03  0.12498599450E+03 0.  0.
          5    1    3    3  502    0 -0.18978650773E+02  0.60117184255E+02  0.11515881366E+02  0.64257066160E+02  0.47000000000E+01 0.  1.
         -5    1    3    3    0  502  0.10003382479E+03  0.10270299777E+02 -0.29084605467E+01  0.10071144077E+03  0.47000000000E+01 0.  1.
          5    1    4    4  503    0 -0.10970101824E+02 -0.90560438865E+02 -0.33038133939E+02  0.97134672057E+02  0.47000000000E+01 0. -1.
         -5    1    4    4    0  503 -0.70085072196E+02  0.20172954832E+02 -0.36655106388E+02  0.81759111270E+02  0.47000000000E+01 0. -1.
<mgrwt>
<rscale>  0 0.16475591E+03</rscale>
<asrwt>0</asrwt>
<pdfrwt beam="2">  1        5 0.31149855E-01 0.16475994E+03</pdfrwt>
<pdfrwt beam="1">  1       -5 0.21752036E-01 0.16475994E+03</pdfrwt>
<totfact> 0.15111392E+02</totfact>
</mgrwt>
</event>
<event>
 8    1  0.3573290E-007  0.1265914E+03  0.7546771E-02  0.1232604E+00
          5   -1    0    0  501    0  0.00000000000E+00  0.00000000000E+00  0.25739137928E+02  0.26164732394E+02  0.47000000000E+01 0.  1.
         -5   -1    0    0    0  501 -0.00000000000E+00 -0.00000000000E+00 -0.62861175997E+03  0.62862933019E+03  0.47000000000E+01 0.  1.
         25    2    1    2    0    0  0.34819070518E+01  0.19698579713E+02 -0.25705944875E+03  0.28653960136E+03  0.12500090094E+03 0.  0.
         25    2    1    2    0    0 -0.34819070518E+01 -0.19698579713E+02 -0.34581317329E+03  0.36825446123E+03  0.12499775866E+03 0.  0.
          5    1    4    4  502    0 -0.43901318825E+02  0.29770310285E+02 -0.22818815682E+03  0.23431927382E+03  0.47000000000E+01 0.  1.
         -5    1    4    4    0  502  0.40419411773E+02 -0.49468889998E+02 -0.11762501647E+03  0.13393518741E+03  0.47000000000E+01 0.  1.
          5    1    3    3  503    0 -0.42411857636E+01  0.41133750993E+02 -0.16359382111E+02  0.44717921581E+02  0.47000000000E+01 0. -1.
         -5    1    3    3    0  503  0.77230928154E+01 -0.21435171280E+02 -0.24070006664E+03  0.24182167978E+03  0.47000000000E+01 0. -1.
<mgrwt>
<rscale>  0 0.12659063E+03</rscale>
<asrwt>0</asrwt>
<pdfrwt beam="1">  1        5 0.39939575E-02 0.12659140E+03</pdfrwt>
<pdfrwt beam="2">  1       -5 0.96743579E-01 0.12659140E+03</pdfrwt>
<totfact> 0.22871382E+02</totfact>
</mgrwt>
</event>
<event>
 8    1  0.3573290E-007  0.1372331E+03  0.7546771E-02  0.1217101E+00
         -5   -1    0    0    0  501 -0.00000000000E+00  0.00000000000E+00  0.20612062983E+02  0.21141124389E+02  0.47000000000E+01 0. -1.
          5   -1    0    0  501    0  0.00000000000E+00 -0.00000000000E+00 -0.96429429335E+03  0.96430574725E+03  0.47000000000E+01 0. -1.
         25    2    1    2    0    0 -0.55541319954E+02 -0.11092335763E+02 -0.34621064455E+03  0.37241742074E+03  0.12500018696E+03 0.  0.
         25    2    1    2    0    0  0.55541319954E+02  0.11092335763E+02 -0.59747158582E+03  0.61302945090E+03  0.12499973470E+03 0.  0.
          5    1    3    3  502    0 -0.14952497411E+02  0.43274467858E+02 -0.47805935084E+02  0.66360787943E+02  0.47000000000E+01 0.  1.
         -5    1    3    3    0  502 -0.40588822543E+02 -0.54366803620E+02 -0.29840470946E+03  0.30605663280E+03  0.47000000000E+01 0.  1.
          5    1    4    4  503    0  0.24824557780E+02 -0.36352462490E+02 -0.48549318741E+03  0.48750742068E+03  0.47000000000E+01 0.  1.
         -5    1    4    4    0  503  0.30716762174E+02  0.47444798253E+02 -0.11197839841E+03  0.12552203022E+03  0.47000000000E+01 0.  1.
<mgrwt>
<rscale>  0 0.13723300E+03</rscale>
<asrwt>0</asrwt>
<pdfrwt beam="2">  1        5 0.14839451E+00 0.13723310E+03</pdfrwt>
<pdfrwt beam="1">  1       -5 0.32126655E-02 0.13723310E+03</pdfrwt>
<totfact> 0.11254092E+02</totfact>
</mgrwt>
</event>
<event>
 8    1  0.3573290E-007  0.1286941E+03  0.7546771E-02  0.1229407E+00
          5   -1    0    0  501    0  0.00000000000E+00  0.00000000000E+00  0.76225343620E+01  0.89550561193E+01  0.47000000000E+01 0.  1.
         -5   -1    0    0    0  501 -0.00000000000E+00 -0.00000000000E+00 -0.20007976367E+04  0.20008031570E+04  0.47000000000E+01 0.  1.
         25    2    1    2    0    0 -0.29484468780E+02  0.81378675828E+01 -0.95158692334E+03  0.96024988924E+03  0.12500647316E+03 0.  0.
         25    2    1    2    0    0  0.29484468780E+02 -0.81378675828E+01 -0.10415881790E+04  0.10495083239E+04  0.12500491370E+03 0.  0.
          5    1    4    4  502    0  0.32673232099E+01  0.29490176628E+02 -0.90208576885E+03  0.90258582433E+03  0.47000000000E+01 0.  1.
         -5    1    4    4    0  502  0.26217145570E+02 -0.37628044211E+02 -0.13950241013E+03  0.14692249952E+03  0.47000000000E+01 0.  1.
          5    1    3    3  503    0 -0.74357525206E+02 -0.16873478018E+02 -0.61655476460E+03  0.62126936474E+03  0.47000000000E+01 0.  1.
         -5    1    3    3    0  503  0.44873056426E+02  0.25011345600E+02 -0.33503215874E+03  0.33898052450E+03  0.47000000000E+01 0.  1.
<mgrwt>
<rscale>  0 0.12869374E+03</rscale>
<asrwt>0</asrwt>
<pdfrwt beam="1">  1        5 0.12756255E-02 0.12869412E+03</pdfrwt>
<pdfrwt beam="2">  1       -5 0.30791756E+00 0.12869412E+03</pdfrwt>
<totfact> 0.41278062E+01</totfact>
</mgrwt>
</event>
<event>
 8    1  0.3573290E-007  0.2164757E+03  0.7546771E-02  0.1136539E+00
         -5   -1    0    0    0  501 -0.00000000000E+00  0.00000000000E+00  0.21355540887E+03  0.21360712221E+03  0.47000000000E+01 0. -1.
          5   -1    0    0  501    0  0.00000000000E+00 -0.00000000000E+00 -0.23213202008E+03  0.23217959589E+03  0.47000000000E+01 0. -1.
         25    2    1    2    0    0 -0.17467963607E+03 -0.26873222474E+02  0.43049911235E+02  0.22070992583E+03  0.12499772461E+03 0.  0.
         25    2    1    2    0    0  0.17467963607E+03  0.26873222474E+02 -0.61626522449E+02  0.22507679227E+03  0.12500635506E+03 0.  0.
          5    1    3    3  502    0 -0.77646643950E+02 -0.52607648469E+02 -0.27581603209E+02  0.97874413560E+02  0.47000000000E+01 0.  1.
         -5    1    3    3    0  502 -0.97032992124E+02  0.25734425995E+02  0.70631514444E+02  0.12283551227E+03  0.47000000000E+01 0.  1.
          5    1    4    4  503    0  0.76074068095E+02  0.49880747083E+02 -0.80980737707E+02  0.12188241319E+03  0.47000000000E+01 0. -1.
         -5    1    4    4    0  503  0.98605567979E+02 -0.23007524609E+02  0.19354215258E+02  0.10319437908E+03  0.47000000000E+01 0. -1.
<mgrwt>
<rscale>  0 0.21647447E+03</rscale>
<asrwt>0</asrwt>
<pdfrwt beam="2">  1        5 0.35720256E-01 0.21647571E+03</pdfrwt>
<pdfrwt beam="1">  1       -5 0.32862316E-01 0.21647571E+03</pdfrwt>
<totfact> 0.55596840E+01</totfact>
</mgrwt>
</event>
<event>
 8    1  0.3573290E-007  0.1304939E+03  0.7546771E-02  0.1226726E+00
          5   -1    0    0  501    0  0.00000000000E+00  0.00000000000E+00  0.81954581320E+02  0.82089240460E+02  0.47000000000E+01 0.  1.
         -5   -1    0    0    0  501 -0.00000000000E+00 -0.00000000000E+00 -0.20951581326E+03  0.20956852341E+03  0.47000000000E+01 0.  1.
         25    2    1    2    0    0  0.35808393331E+02  0.11005690624E+02 -0.78268852337E+02  0.15216656129E+03  0.12500113148E+03 0.  0.
         25    2    1    2    0    0 -0.35808393331E+02 -0.11005690624E+02 -0.49292379602E+02  0.13949120258E+03  0.12499876260E+03 0.  0.
          5    1    3    3  502    0  0.57248302506E+02 -0.42003765485E+02 -0.56269667245E+02  0.90719622500E+02  0.47000000000E+01 0. -1.
         -5    1    3    3    0  502 -0.21439909175E+02  0.53009456109E+02 -0.21999185091E+02  0.61446938793E+02  0.47000000000E+01 0. -1.
          5    1    4    4  503    0 -0.31563724213E+02  0.30236051480E+02 -0.77518080139E+02  0.89115824878E+02  0.47000000000E+01 0.  1.
         -5    1    4    4    0  503 -0.42446691178E+01 -0.41241742104E+02  0.28225700537E+02  0.50375377701E+02  0.47000000000E+01 0.  1.
<mgrwt>
<rscale>  0 0.13049330E+03</rscale>
<asrwt>0</asrwt>
<pdfrwt beam="1">  1        5 0.12622810E-01 0.13049387E+03</pdfrwt>
<pdfrwt beam="2">  1       -5 0.32247615E-01 0.13049387E+03</pdfrwt>
<totfact> 0.35383618E+02</totfact>
</mgrwt>
</event>
<event>
 8    1  0.3573290E-007  0.1273365E+03  0.7546771E-02  0.1231464E+00
         -5   -1    0    0    0  501 -0.00000000000E+00  0.00000000000E+00  0.24279911386E+03  0.24284459988E+03  0.47000000000E+01 0.  1.
          5   -1    0    0  501    0  0.00000000000E+00 -0.00000000000E+00 -0.82580183816E+02  0.82713824474E+02  0.47000000000E+01 0.  1.
         25    2    1    2    0    0 -0.19870192946E+02  0.13868101774E+02  0.15153336378E+03  0.19793165223E+03  0.12500971883E+03 0.  0.
         25    2    1    2    0    0  0.19870192946E+02 -0.13868101774E+02  0.86855662637E+01  0.12762677213E+03  0.12500402028E+03 0.  0.
          5    1    3    3  502    0 -0.45910505068E+02  0.32446039822E+02  0.15544389762E+03  0.16536449220E+03  0.47000000000E+01 0. -1.
         -5    1    3    3    0  502  0.26040312122E+02 -0.18577938048E+02 -0.39105338328E+01  0.32567160029E+02  0.47000000000E+01 0. -1.
          5    1    4    4  503    0 -0.25215584329E+02 -0.58281898943E+02  0.84183198924E+00  0.63682054918E+02  0.47000000000E+01 0.  1.
         -5    1    4    4    0  503  0.45085777274E+02  0.44413797169E+02  0.78437342745E+01  0.63944717208E+02  0.47000000000E+01 0.  1.
<mgrwt>
<rscale>  0 0.12733508E+03</rscale>
<asrwt>0</asrwt>
<pdfrwt beam="2">  1        5 0.12718423E-01 0.12733648E+03</pdfrwt>
<pdfrwt beam="1">  1       -5 0.37367488E-01 0.12733648E+03</pdfrwt>
<totfact> 0.25769018E+02</totfact>
</mgrwt>
</event>
<event>
 8    1  0.3573290E-007  0.1844755E+03  0.7546771E-02  0.1163543E+00
         -5   -1    0    0    0  501 -0.00000000000E+00  0.00000000000E+00  0.24587694584E+02  0.25032872887E+02  0.47000000000E+01 0. -1.
          5   -1    0    0  501    0  0.00000000000E+00 -0.00000000000E+00 -0.13714797099E+04  0.13714877633E+04  0.47000000000E+01 0. -1.
         25    2    1    2    0    0 -0.40583275831E+02  0.12944994865E+03 -0.66250142399E+03  0.68770353079E+03  0.12499487186E+03 0.  0.
         25    2    1    2    0    0  0.40583275831E+02 -0.12944994865E+03 -0.68439059137E+03  0.70881710536E+03  0.12500766303E+03 0.  0.
          5    1    3    3  502    0  0.27028986333E+02  0.11077043822E+03 -0.40235870821E+03  0.41822873665E+03  0.47000000000E+01 0. -1.
         -5    1    3    3    0  502 -0.67612262163E+02  0.18679510424E+02 -0.26014271578E+03  0.26947479415E+03  0.47000000000E+01 0. -1.
          5    1    4    4  503    0  0.74128742879E+02 -0.11572017218E+03 -0.42062061525E+03  0.44252685879E+03  0.47000000000E+01 0. -1.
         -5    1    4    4    0  503 -0.33545467048E+02 -0.13729776464E+02 -0.26376997611E+03  0.26629024657E+03  0.47000000000E+01 0. -1.
<mgrwt>
<rscale>  0 0.18447333E+03</rscale>
<asrwt>0</asrwt>
<pdfrwt beam="2">  1        5 0.21103168E+00 0.18447549E+03</pdfrwt>
<pdfrwt beam="1">  1       -5 0.38175873E-02 0.18447549E+03</pdfrwt>
<totfact> 0.32602872E+01</totfact>
</mgrwt>
</event>
<event>
 8    1  0.3573290E-007  0.1280722E+03  0.7546771E-02  0.1230345E+00
         -5   -1    0    0    0  501 -0.00000000000E+00  0.00000000000E+00  0.95225528492E+01  0.10619275529E+02  0.47000000000E+01 0.  1.
          5   -1    0    0  501    0  0.00000000000E+00 -0.00000000000E+00 -0.16281613775E+04  0.16281681612E+04  0.47000000000E+01 0.  1.
         25    2    1    2    0    0 -0.10860049494E+02  0.25662949096E+02 -0.82480589296E+03  0.83468967106E+03  0.12500223315E+03 0.  0.
         25    2    1    2    0    0  0.10860049494E+02 -0.25662949096E+02 -0.79383293171E+03  0.80409776569E+03  0.12500386272E+03 0.  0.
          5    1    4    4  502    0  0.62252007993E+02  0.84302875846E+01 -0.49002968193E+03  0.49406230520E+03  0.47000000000E+01 0.  1.
         -5    1    4    4    0  502 -0.51391958499E+02 -0.34093236680E+02 -0.30380324978E+03  0.31003546049E+03  0.47000000000E+01 0.  1.
          5    1    3    3  503    0 -0.74948455580E+01 -0.36769667250E+02 -0.95834378292E+02  0.10302669170E+03  0.47000000000E+01 0. -1.
         -5    1    3    3    0  503 -0.33652039362E+01  0.62432616346E+02 -0.72897151466E+03  0.73166297937E+03  0.47000000000E+01 0. -1.
<mgrwt>
<rscale>  0 0.12807182E+03</rscale>
<asrwt>0</asrwt>
<pdfrwt beam="2">  1        5 0.25057104E+00 0.12807222E+03</pdfrwt>
<pdfrwt beam="1">  1       -5 0.15498945E-02 0.12807222E+03</pdfrwt>
<totfact> 0.69759855E+01</totfact>
</mgrwt>
</event>
<event>
 8    1  0.3573290E-007  0.1445108E+03  0.7546771E-02  0.1207385E+00
         -5   -1    0    0    0  501 -0.00000000000E+00  0.00000000000E+00  0.36246802193E+02  0.36550248552E+02  0.47000000000E+01 0. -1.
          5   -1    0    0  501    0  0.00000000000E+00 -0.00000000000E+00 -0.58644231163E+03  0.58646114524E+03  0.47000000000E+01 0. -1.
         25    2    1    2    0    0  0.69521399348E+02  0.20621022144E+02 -0.22869960402E+03  0.27053020883E+03  0.12499853394E+03 0.  0.
         25    2    1    2    0    0 -0.69521399348E+02 -0.20621022144E+02 -0.32149590542E+03  0.35248118496E+03  0.12499966812E+03 0.  0.
          5    1    3    3  502    0  0.36900071744E+02 -0.21458621395E+02 -0.82957787208E+01  0.43737828838E+02  0.47000000000E+01 0. -1.
         -5    1    3    3    0  502  0.32621327605E+02  0.42079643539E+02 -0.22040382530E+03  0.22679237999E+03  0.47000000000E+01 0. -1.
          5    1    4    4  503    0 -0.65857892089E+01 -0.46141444374E+02 -0.36273878472E+02  0.59247698418E+02  0.47000000000E+01 0.  1.
         -5    1    4    4    0  503 -0.62935610140E+02  0.25520422231E+02 -0.28522202695E+03  0.29323348654E+03  0.47000000000E+01 0.  1.
<mgrwt>
<rscale>  0 0.14451055E+03</rscale>
<asrwt>0</asrwt>
<pdfrwt beam="2">  1        5 0.90246678E-01 0.14451079E+03</pdfrwt>
<pdfrwt beam="1">  1       -5 0.56012223E-02 0.14451079E+03</pdfrwt>
<totfact> 0.16132704E+02</totfact>
</mgrwt>
</event>
<event>
 8    1  0.3573290E-007  0.1300638E+03  0.7546771E-02  0.1227362E+00
         -5   -1    0    0    0  501 -0.00000000000E+00  0.00000000000E+00  0.39196389114E+02  0.39477169600E+02  0.47000000000E+01 0. -1.
          5   -1    0    0  501    0  0.00000000000E+00 -0.00000000000E+00 -0.43027265681E+03  0.43029832581E+03  0.47000000000E+01 0. -1.
         25    2    1    2    0    0  0.24601481119E+02 -0.26173226929E+02 -0.18730402234E+03  0.22803373949E+03  0.12500527541E+03 0.  0.
         25    2    1    2    0    0 -0.24601481119E+02  0.26173226929E+02 -0.20377224535E+03  0.24174175592E+03  0.12500271156E+03 0.  0.
          5    1    4    4  502    0  0.22033726852E+02  0.77994393390E+01 -0.18724134127E+03  0.18875308276E+03  0.47000000000E+01 0.  1.
         -5    1    4    4    0  502 -0.46635207972E+02  0.18373787590E+02 -0.16530904086E+02  0.52988673156E+02  0.47000000000E+01 0.  1.
          5    1    3    3  503    0  0.31684311885E+02 -0.73247030507E+02 -0.13698221081E+03  0.15860403266E+03  0.47000000000E+01 0.  1.
         -5    1    3    3    0  503 -0.70828307662E+01  0.47073803578E+02 -0.50321811531E+02  0.69429706832E+02  0.47000000000E+01 0.  1.
<mgrwt>
<rscale>  0 0.13006317E+03</rscale>
<asrwt>0</asrwt>
<pdfrwt beam="2">  1        5 0.66219363E-01 0.13006379E+03</pdfrwt>
<pdfrwt beam="1">  1       -5 0.60537871E-02 0.13006379E+03</pdfrwt>
<totfact> 0.27844792E+02</totfact>
</mgrwt>
</event>
<event>
 8    1  0.3573290E-007  0.1325631E+03  0.7546771E-02  0.1223710E+00
          5   -1    0    0  501    0  0.00000000000E+00  0.00000000000E+00  0.34663304870E+03  0.34666491090E+03  0.47000000000E+01 0.  1.
         -5   -1    0    0    0  501 -0.00000000000E+00 -0.00000000000E+00 -0.50867703128E+02  0.51084373555E+02  0.47000000000E+01 0.  1.
         25    2    1    2    0    0  0.43622325586E+02 -0.61708850105E+01  0.13203203036E+03  0.18707996717E+03  0.12500187985E+03 0.  0.
         25    2    1    2    0    0 -0.43622325586E+02  0.61708850105E+01  0.16373331522E+03  0.21066931729E+03  0.12502789937E+03 0.  0.
          5    1    4    4  502    0 -0.19667249638E+02 -0.54675551115E+02  0.40184706735E+02  0.70803370354E+02  0.47000000000E+01 0.  1.
         -5    1    4    4    0  502 -0.23955075948E+02  0.60846436126E+02  0.12354860848E+03  0.13986594693E+03  0.47000000000E+01 0.  1.
          5    1    3    3  503    0 -0.33338374699E+02  0.31093833292E+02  0.35025189929E+02  0.57681258880E+02  0.47000000000E+01 0.  1.
         -5    1    3    3    0  503  0.76960700286E+02 -0.37264718303E+02  0.97006840427E+02  0.12939870829E+03  0.47000000000E+01 0.  1.
<mgrwt>
<rscale>  0 0.13255692E+03</rscale>
<asrwt>0</asrwt>
<pdfrwt beam="1">  1        5 0.53347277E-01 0.13256305E+03</pdfrwt>
<pdfrwt beam="2">  1       -5 0.78449187E-02 0.13256305E+03</pdfrwt>
<totfact> 0.28962532E+02</totfact>
</mgrwt>
</event>
<event>
 8    1  0.3573290E-007  0.1421103E+03  0.7546771E-02  0.1210518E+00
         -5   -1    0    0    0  501 -0.00000000000E+00  0.00000000000E+00  0.50871356351E+03  0.50873527468E+03  0.47000000000E+01 0. -1.
          5   -1    0    0  501    0  0.00000000000E+00 -0.00000000000E+00 -0.42746768439E+02  0.43004374336E+02  0.47000000000E+01 0. -1.
         25    2    1    2    0    0 -0.41389661531E+02 -0.53451595512E+02  0.30832794801E+03  0.33950074993E+03  0.12499783411E+03 0.  0.
         25    2    1    2    0    0  0.41389661531E+02  0.53451595512E+02  0.15763884706E+03  0.21223889908E+03  0.12500066815E+03 0.  0.
          5    1    4    4  502    0  0.13605283177E+02 -0.34531125180E+02  0.11125417923E+02  0.39030337694E+02  0.47000000000E+01 0. -1.
         -5    1    4    4    0  502  0.27784378354E+02  0.87982720692E+02  0.14651342914E+03  0.17320856139E+03  0.47000000000E+01 0. -1.
          5    1    3    3  503    0 -0.17965862478E+02 -0.52932395160E+02  0.31048087560E+03  0.31550764616E+03  0.47000000000E+01 0. -1.
         -5    1    3    3    0  503 -0.23423799053E+02 -0.51920035170E+00 -0.21529275918E+01  0.23993103766E+02  0.47000000000E+01 0. -1.
<mgrwt>
<rscale>  0 0.14210970E+03</rscale>
<asrwt>0</asrwt>
<pdfrwt beam="2">  1        5 0.65979120E-02 0.14211032E+03</pdfrwt>
<pdfrwt beam="1">  1       -5 0.78285109E-01 0.14211032E+03</pdfrwt>
<totfact> 0.16986659E+02</totfact>
</mgrwt>
</event>
<event>
 8    1  0.3573290E-007  0.1483194E+03  0.7546771E-02  0.1202554E+00
         -5   -1    0    0    0  501 -0.00000000000E+00  0.00000000000E+00  0.12504685689E+03  0.12513515261E+03  0.47000000000E+01 0. -1.
          5   -1    0    0  501    0  0.00000000000E+00 -0.00000000000E+00 -0.17825988675E+03  0.17832183609E+03  0.47000000000E+01 0. -1.
         25    2    1    2    0    0 -0.66638565554E+02  0.43958323594E+02 -0.85722492026E+01  0.14856696329E+03  0.12500250595E+03 0.  0.
         25    2    1    2    0    0  0.66638565554E+02 -0.43958323594E+02 -0.44640780656E+02  0.15489002541E+03  0.12500035216E+03 0.  0.
          5    1    4    4  502    0  0.99884384022E+02 -0.21696985568E+02 -0.50627871330E+02  0.11416181809E+03  0.47000000000E+01 0. -1.
         -5    1    4    4    0  502 -0.33245818469E+02 -0.22261338027E+02  0.59870906739E+01  0.40728207316E+02  0.47000000000E+01 0. -1.
          5    1    3    3  503    0 -0.58046341881E+01 -0.79494432274E+01  0.48818803300E+02  0.50022524740E+02  0.47000000000E+01 0.  1.
         -5    1    3    3    0  503 -0.60833931366E+02  0.51907766822E+02 -0.57391052503E+02  0.98544438550E+02  0.47000000000E+01 0.  1.
<mgrwt>
<rscale>  0 0.14831900E+03</rscale>
<asrwt>0</asrwt>
<pdfrwt beam="2">  1        5 0.27436155E-01 0.14831945E+03</pdfrwt>
<pdfrwt beam="1">  1       -5 0.19249535E-01 0.14831945E+03</pdfrwt>
<totfact> 0.23564280E+02</totfact>
</mgrwt>
</event>
<event>
 8    1  0.3573290E-007  0.1552697E+03  0.7546771E-02  0.1194144E+00
          5   -1    0    0  501    0  0.00000000000E+00  0.00000000000E+00  0.23305707554E+03  0.23310446254E+03  0.47000000000E+01 0. -1.
         -5   -1    0    0    0  501 -0.00000000000E+00 -0.00000000000E+00 -0.11139003229E+03  0.11148914428E+03  0.47000000000E+01 0. -1.
         25    2    1    2    0    0 -0.86082742154E+02  0.32764914460E+02  0.14521454542E+02  0.15594352942E+03  0.12499493434E+03 0.  0.
         25    2    1    2    0    0  0.86082742154E+02 -0.32764914460E+02  0.10714558871E+03  0.18865007740E+03  0.12499958563E+03 0.  0.
          5    1    4    4  502    0  0.44909227554E+01 -0.28180336304E+02 -0.21592877998E+02  0.36092133792E+02  0.47000000000E+01 0. -1.
         -5    1    4    4    0  502  0.81591819398E+02 -0.45845781562E+01  0.12873846670E+03  0.15255794361E+03  0.47000000000E+01 0. -1.
          5    1    3    3  503    0 -0.11813831262E+03  0.19462266835E+02  0.16016607277E+02  0.12088863656E+03  0.47000000000E+01 0.  1.
         -5    1    3    3    0  503  0.32055570471E+02  0.13302647625E+02 -0.14951527351E+01  0.35054892865E+02  0.47000000000E+01 0.  1.
<mgrwt>
<rscale>  0 0.15526875E+03</rscale>
<asrwt>0</asrwt>
<pdfrwt beam="1">  1        5 0.35866204E-01 0.15526968E+03</pdfrwt>
<pdfrwt beam="2">  1       -5 0.17148197E-01 0.15526968E+03</pdfrwt>
<totfact> 0.17436481E+02</totfact>
</mgrwt>
</event>
<event>
 8    1  0.3573290E-007  0.1419027E+03  0.7546771E-02  0.1210801E+00
          5   -1    0    0  501    0  0.00000000000E+00  0.00000000000E+00  0.25422553447E+03  0.25426897644E+03  0.47000000000E+01 0. -1.
         -5   -1    0    0    0  501 -0.00000000000E+00 -0.00000000000E+00 -0.80687697692E+02  0.80824467575E+02  0.47000000000E+01 0. -1.
         25    2    1    2    0    0  0.94451341328E+01 -0.66495125707E+02  0.63087251146E+02  0.15529445392E+03  0.12500221542E+03 0.  0.
         25    2    1    2    0    0 -0.94451341328E+01  0.66495125707E+02  0.11045058563E+03  0.17979899009E+03  0.12497012711E+03 0.  0.
          5    1    4    4  502    0  0.19764112558E+02  0.89614156612E+02  0.40518586518E+02  0.10042491257E+03  0.47000000000E+01 0.  1.
         -5    1    4    4    0  502 -0.29209246691E+02 -0.23119030905E+02  0.69931999117E+02  0.79374077524E+02  0.47000000000E+01 0.  1.
          5    1    3    3  503    0 -0.33769999901E+02 -0.58555467684E+02  0.82729477341E+02  0.10693648634E+03  0.47000000000E+01 0. -1.
         -5    1    3    3    0  503  0.43215134033E+02 -0.79396580231E+01 -0.19642226195E+02  0.48357967585E+02  0.47000000000E+01 0. -1.
<mgrwt>
<rscale>  0 0.14189560E+03</rscale>
<asrwt>0</asrwt>
<pdfrwt beam="1">  1        5 0.39125482E-01 0.14190266E+03</pdfrwt>
<pdfrwt beam="2">  1       -5 0.12427355E-01 0.14190266E+03</pdfrwt>
<totfact> 0.25398101E+02</totfact>
</mgrwt>
</event>
<event>
 8    1  0.3573290E-007  0.1483763E+03  0.7546771E-02  0.1202483E+00
         -5   -1    0    0    0  501 -0.00000000000E+00  0.00000000000E+00  0.11960900424E+03  0.11970131116E+03  0.47000000000E+01 0. -1.
          5   -1    0    0  501    0  0.00000000000E+00 -0.00000000000E+00 -0.33822402353E+03  0.33825667783E+03  0.47000000000E+01 0. -1.
         25    2    1    2    0    0 -0.63156259402E+02  0.48988588864E+02  0.45349481500E+02  0.15514981602E+03  0.12500517989E+03 0.  0.
         25    2    1    2    0    0  0.63156259402E+02 -0.48988588864E+02 -0.26396450080E+03  0.30280817297E+03  0.12500774774E+03 0.  0.
          5    1    3    3  502    0 -0.91988906471E+02  0.65555790707E+02  0.44664809944E+02  0.12155885758E+03  0.47000000000E+01 0.  1.
         -5    1    3    3    0  502  0.28832647069E+02 -0.16567201843E+02  0.68467155627E+00  0.33590958442E+02  0.47000000000E+01 0.  1.
          5    1    4    4  503    0  0.38126918034E+02  0.11211345478E+01 -0.23766110439E+03  0.24074843584E+03  0.47000000000E+01 0. -1.
         -5    1    4    4    0  503  0.25029341368E+02 -0.50109723412E+02 -0.26303396411E+02  0.62059737129E+02  0.47000000000E+01 0. -1.
<mgrwt>
<rscale>  0 0.14837578E+03</rscale>
<asrwt>0</asrwt>
<pdfrwt beam="2">  1        5 0.52044077E-01 0.14837632E+03</pdfrwt>
<pdfrwt beam="1">  1       -5 0.18410998E-01 0.14837632E+03</pdfrwt>
<totfact> 0.69632970E+01</totfact>
</mgrwt>
</event>
<event>
 8    1  0.3573290E-007  0.1316586E+03  0.7546771E-02  0.1225015E+00
         -5   -1    0    0    0  501 -0.00000000000E+00  0.00000000000E+00  0.29915393854E+02  0.30282351122E+02  0.47000000000E+01 0. -1.
          5   -1    0    0  501    0  0.00000000000E+00 -0.00000000000E+00 -0.87151846332E+03  0.87153113651E+03  0.47000000000E+01 0. -1.
         25    2    1    2    0    0  0.13049549074E+02 -0.39222398069E+02 -0.15808054221E+03  0.20572654634E+03  0.12500106721E+03 0.  0.
         25    2    1    2    0    0 -0.13049549074E+02  0.39222398069E+02 -0.68352252725E+03  0.69608694129E+03  0.12500118930E+03 0.  0.
          5    1    3    3  502    0 -0.25807887772E+01 -0.34832822279E+02  0.10129174470E+02  0.36669826208E+02  0.47000000000E+01 0. -1.
         -5    1    3    3    0  502  0.15630337851E+02 -0.43895757896E+01 -0.16820971668E+03  0.16905672014E+03  0.47000000000E+01 0. -1.
          5    1    4    4  503    0  0.74619529279E+00 -0.53547719523E+01 -0.60195503951E+03  0.60199766610E+03  0.47000000000E+01 0.  1.
         -5    1    4    4    0  503 -0.13795744367E+02  0.44577170021E+02 -0.81567487737E+02  0.94089275188E+02  0.47000000000E+01 0.  1.
<mgrwt>
<rscale>  0 0.13165856E+03</rscale>
<asrwt>0</asrwt>
<pdfrwt beam="2">  1        5 0.13410895E+00 0.13165859E+03</pdfrwt>
<pdfrwt beam="1">  1       -5 0.46315713E-02 0.13165859E+03</pdfrwt>
<totfact> 0.80033675E+01</totfact>
</mgrwt>
</event>
<event>
 8    1  0.3573290E-007  0.1305903E+03  0.7546771E-02  0.1226585E+00
         -5   -1    0    0    0  501 -0.00000000000E+00  0.00000000000E+00  0.14237844502E+03  0.14245599884E+03  0.47000000000E+01 0. -1.
          5   -1    0    0  501    0  0.00000000000E+00 -0.00000000000E+00 -0.12323548845E+03  0.12332508104E+03  0.47000000000E+01 0. -1.
         25    2    1    2    0    0 -0.30202122335E+02  0.22693003199E+02  0.32329714926E+02  0.13453270207E+03  0.12500678730E+03 0.  0.
         25    2    1    2    0    0  0.30202122335E+02 -0.22693003199E+02 -0.13186758358E+02  0.13124837781E+03  0.12500042198E+03 0.  0.
          5    1    4    4  502    0  0.10274622029E+02 -0.74000334838E+02 -0.19952891236E+01  0.74884501686E+02  0.47000000000E+01 0. -1.
         -5    1    4    4    0  502  0.19927500306E+02  0.51307331639E+02 -0.11191469234E+02  0.56363876126E+02  0.47000000000E+01 0. -1.
          5    1    3    3  503    0  0.40661899455E+02  0.36038793205E+02 -0.19060905613E+01  0.54570210410E+02  0.47000000000E+01 0.  1.
         -5    1    3    3    0  503 -0.70864021791E+02 -0.13345790006E+02  0.34235805487E+02  0.79962491661E+02  0.47000000000E+01 0.  1.
<mgrwt>
<rscale>  0 0.13058882E+03</rscale>
<asrwt>0</asrwt>
<pdfrwt beam="2">  1        5 0.18972163E-01 0.13059034E+03</pdfrwt>
<pdfrwt beam="1">  1       -5 0.21917234E-01 0.13059034E+03</pdfrwt>
<totfact> 0.35602891E+02</totfact>
</mgrwt>
</event>
<event>
 8    1  0.3573290E-007  0.1312665E+03  0.7546771E-02  0.1225590E+00
         -5   -1    0    0    0  501 -0.00000000000E+00  0.00000000000E+00  0.34434928676E+02  0.34754198493E+02  0.47000000000E+01 0.  1.
          5   -1    0    0  501    0  0.00000000000E+00 -0.00000000000E+00 -0.50337722335E+03  0.50339916467E+03  0.47000000000E+01 0.  1.
         25    2    1    2    0    0 -0.10662171462E+02 -0.38611824183E+02 -0.20599626058E+03  0.24426490416E+03  0.12500531653E+03 0.  0.
         25    2    1    2    0    0  0.10662171462E+02  0.38611824183E+02 -0.26294603409E+03  0.29388845901E+03  0.12500101849E+03 0.  0.
          5    1    3    3  502    0  0.94030695600E+01 -0.77670124147E+02 -0.85787767796E+02  0.11620110587E+03  0.47000000000E+01 0.  1.
         -5    1    3    3    0  502 -0.20065241022E+02  0.39058299964E+02 -0.12020849279E+03  0.12806379829E+03  0.47000000000E+01 0.  1.
          5    1    4    4  503    0  0.64178046835E+02  0.40198949556E+02 -0.17620514287E+03  0.19184660438E+03  0.47000000000E+01 0.  1.
         -5    1    4    4    0  503 -0.53515875373E+02 -0.15871253734E+01 -0.86740891226E+02  0.10204185462E+03  0.47000000000E+01 0.  1.
<mgrwt>
<rscale>  0 0.13126544E+03</rscale>
<asrwt>0</asrwt>
<pdfrwt beam="2">  1        5 0.77468891E-01 0.13126646E+03</pdfrwt>
<pdfrwt beam="1">  1       -5 0.53239287E-02 0.13126646E+03</pdfrwt>
<totfact> 0.24292091E+02</totfact>
</mgrwt>
</event>
<event>
 8    1  0.3573290E-007  0.1356919E+03  0.7546771E-02  0.1219250E+00
         -5   -1    0    0    0  501 -0.00000000000E+00  0.00000000000E+00  0.87959033872E+02  0.88084514188E+02  0.47000000000E+01 0.  1.
          5   -1    0    0  501    0  0.00000000000E+00 -0.00000000000E+00 -0.20900954118E+03  0.20906237898E+03  0.47000000000E+01 0.  1.
         25    2    1    2    0    0  0.52743781829E+02 -0.15825109700E+01 -0.60254574314E+02  0.14846853457E+03  0.12501152414E+03 0.  0.
         25    2    1    2    0    0 -0.52743781829E+02  0.15825109700E+01 -0.60795932993E+02  0.14867835860E+03  0.12499879193E+03 0.  0.
          5    1    4    4  502    0 -0.40708833691E+02 -0.59986086405E+02 -0.35737207331E+02  0.80961581571E+02  0.47000000000E+01 0. -1.
         -5    1    4    4    0  502 -0.12034948139E+02  0.61568597375E+02 -0.25058725662E+02  0.67716777029E+02  0.47000000000E+01 0. -1.
          5    1    3    3  503    0  0.18197560233E+02 -0.13435253256E+02  0.37479146507E+02  0.44027646444E+02  0.47000000000E+01 0.  1.
         -5    1    3    3    0  503  0.34546221596E+02  0.11852742286E+02 -0.97733720821E+02  0.10444088812E+03  0.47000000000E+01 0.  1.
<mgrwt>
<rscale>  0 0.13568897E+03</rscale>
<asrwt>0</asrwt>
<pdfrwt beam="2">  1        5 0.32169031E-01 0.13569190E+03</pdfrwt>
<pdfrwt beam="1">  1       -5 0.13545876E-01 0.13569190E+03</pdfrwt>
<totfact> 0.31781590E+02</totfact>
</mgrwt>
</event>
<event>
 8    1  0.3573290E-007  0.1301890E+03  0.7546771E-02  0.1227177E+00
          5   -1    0    0  501    0  0.00000000000E+00  0.00000000000E+00  0.47110182219E+03  0.47112526665E+03  0.47000000000E+01 0. -1.
         -5   -1    0    0    0  501 -0.00000000000E+00 -0.00000000000E+00 -0.36446079847E+02  0.36747880704E+02  0.47000000000E+01 0. -1.
         25    2    1    2    0    0 -0.31297450675E+02  0.18562941533E+02  0.18364297735E+03  0.22510719031E+03  0.12499756310E+03 0.  0.
         25    2    1    2    0    0  0.31297450675E+02 -0.18562941533E+02  0.25101276500E+03  0.28276595704E+03  0.12500026022E+03 0.  0.
          5    1    3    3  502    0  0.21892285099E+02 -0.65001489063E+01 -0.79546349127E+01  0.24635143581E+02  0.47000000000E+01 0. -1.
         -5    1    3    3    0  502 -0.53189735774E+02  0.25063090440E+02  0.19159761226E+03  0.20047204673E+03  0.47000000000E+01 0. -1.
          5    1    4    4  503    0 -0.11431253264E+02  0.12436962055E+02  0.22132611231E+03  0.22201957023E+03  0.47000000000E+01 0.  1.
         -5    1    4    4    0  503  0.42728703939E+02 -0.30999903588E+02  0.29686652686E+02  0.60746386810E+02  0.47000000000E+01 0.  1.
<mgrwt>
<rscale>  0 0.13018836E+03</rscale>
<asrwt>0</asrwt>
<pdfrwt beam="1">  1        5 0.72502221E-01 0.13018901E+03</pdfrwt>
<pdfrwt beam="2">  1       -5 0.56321082E-02 0.13018901E+03</pdfrwt>
<totfact> 0.25646587E+02</totfact>
</mgrwt>
</event>
<event>
 8    1  0.3573290E-007  0.1371449E+03  0.7546771E-02  0.1217233E+00
          5   -1    0    0  501    0  0.00000000000E+00  0.00000000000E+00  0.55992381014E+02  0.56189293745E+02  0.47000000000E+01 0.  1.
         -5   -1    0    0    0  501 -0.00000000000E+00 -0.00000000000E+00 -0.33927000324E+03  0.33930255687E+03  0.47000000000E+01 0.  1.
         25    2    1    2    0    0 -0.56349270368E+02 -0.69828037030E+00 -0.11958388648E+03  0.18195885035E+03  0.12503195372E+03 0.  0.
         25    2    1    2    0    0  0.56349270368E+02  0.69828037030E+00 -0.16369373575E+03  0.21353300027E+03  0.12499990085E+03 0.  0.
          5    1    3    3  502    0 -0.39728429321E+02  0.60880304543E+02 -0.57255781684E+02  0.92655675022E+02  0.47000000000E+01 0. -1.
         -5    1    3    3    0  502 -0.16620841047E+02 -0.61578584913E+02 -0.62328104795E+02  0.89303175332E+02  0.47000000000E+01 0. -1.
          5    1    4    4  503    0  0.65237645436E+02  0.11266813720E+02 -0.17988585500E+03  0.19173915172E+03  0.47000000000E+01 0. -1.
         -5    1    4    4    0  503 -0.88883750684E+01 -0.10568533349E+02  0.16192119251E+02  0.21793848544E+02  0.47000000000E+01 0. -1.
<mgrwt>
<rscale>  0 0.13713757E+03</rscale>
<asrwt>0</asrwt>
<pdfrwt beam="1">  1        5 0.86318639E-02 0.13714488E+03</pdfrwt>
<pdfrwt beam="2">  1       -5 0.52213035E-01 0.13714488E+03</pdfrwt>
<totfact> 0.26032718E+02</totfact>
</mgrwt>
</event>
<event>
 8    1  0.3573290E-007  0.1305543E+03  0.7546771E-02  0.1226638E+00
         -5   -1    0    0    0  501 -0.00000000000E+00  0.00000000000E+00  0.17957690062E+04  0.17957751567E+04  0.47000000000E+01 0. -1.
          5   -1    0    0  501    0  0.00000000000E+00 -0.00000000000E+00 -0.89026788882E+01  0.10067159052E+02  0.47000000000E+01 0. -1.
         25    2    1    2    0    0  0.24393711177E+02  0.28683173331E+02  0.89666790682E+03  0.90612237047E+03  0.12500655006E+03 0.  0.
         25    2    1    2    0    0 -0.24393711177E+02 -0.28683173331E+02  0.89019842044E+03  0.89971994530E+03  0.12499989852E+03 0.  0.
          5    1    4    4  502    0  0.47412565587E+02 -0.32160221271E+02  0.34004697654E+03  0.34487137814E+03  0.47000000000E+01 0.  1.
         -5    1    4    4    0  502 -0.71806276765E+02  0.34770479400E+01  0.55015144390E+03  0.55484856716E+03  0.47000000000E+01 0.  1.
          5    1    3    3  503    0 -0.35196299694E+02  0.45988271162E+02  0.25960610377E+03  0.26602841900E+03  0.47000000000E+01 0. -1.
         -5    1    3    3    0  503  0.59590010871E+02 -0.17305097831E+02  0.63706180305E+03  0.64009395147E+03  0.47000000000E+01 0. -1.
<mgrwt>
<rscale>  0 0.13055267E+03</rscale>
<asrwt>0</asrwt>
<pdfrwt beam="2">  1        5 0.14596902E-02 0.13055426E+03</pdfrwt>
<pdfrwt beam="1">  1       -5 0.27636244E+00 0.13055426E+03</pdfrwt>
<totfact> 0.53052492E+01</totfact>
</mgrwt>
</event>
<event>
 8    1  0.3573290E-007  0.1474710E+03  0.7546771E-02  0.1203619E+00
         -5   -1    0    0    0  501 -0.00000000000E+00  0.00000000000E+00  0.89189110652E+02  0.89312862785E+02  0.47000000000E+01 0.  1.
          5   -1    0    0  501    0  0.00000000000E+00 -0.00000000000E+00 -0.29659492766E+03  0.29663216466E+03  0.47000000000E+01 0.  1.
         25    2    1    2    0    0 -0.77893189596E+02  0.72580182174E+01 -0.22078205230E+02  0.14910327933E+03  0.12499725175E+03 0.  0.
         25    2    1    2    0    0  0.77893189596E+02 -0.72580182174E+01 -0.18532761177E+03  0.23684174812E+03  0.12501064816E+03 0.  0.
          5    1    3    3  502    0 -0.51887780787E+02  0.33395085774E+02  0.42164323536E+02  0.74883200573E+02  0.47000000000E+01 0. -1.
         -5    1    3    3    0  502 -0.26005408809E+02 -0.26137067556E+02 -0.64242528767E+02  0.74220078753E+02  0.47000000000E+01 0. -1.
          5    1    4    4  503    0  0.25774495798E+00 -0.54332543489E+02 -0.51185180921E+02  0.74793746131E+02  0.47000000000E+01 0.  1.
         -5    1    4    4    0  503  0.77635444638E+02  0.47074525271E+02 -0.13414243085E+03  0.16204800199E+03  0.47000000000E+01 0.  1.
<mgrwt>
<rscale>  0 0.14746814E+03</rscale>
<asrwt>0</asrwt>
<pdfrwt beam="2">  1        5 0.45642372E-01 0.14747098E+03</pdfrwt>
<pdfrwt beam="1">  1       -5 0.13733786E-01 0.14747098E+03</pdfrwt>
<totfact> 0.15651811E+02</totfact>
</mgrwt>
</event>
<event>
 8    1  0.3573290E-007  0.1402261E+03  0.7546771E-02  0.1213026E+00
          5   -1    0    0  501    0  0.00000000000E+00  0.00000000000E+00  0.14461410581E+03  0.14469046133E+03  0.47000000000E+01 0. -1.
         -5   -1    0    0    0  501 -0.00000000000E+00 -0.00000000000E+00 -0.13604311002E+03  0.13612427331E+03  0.47000000000E+01 0. -1.
         25    2    1    2    0    0  0.49903369930E+02 -0.39339324281E+02 -0.14703351451E+01  0.14023384017E+03  0.12500175710E+03 0.  0.
         25    2    1    2    0    0 -0.49903369930E+02  0.39339324281E+02  0.10041330937E+02  0.14058089447E+03  0.12499692315E+03 0.  0.
          5    1    3    3  502    0 -0.20909965336E+02  0.32679596753E+02  0.99975948909E+00  0.39093122328E+02  0.47000000000E+01 0. -1.
         -5    1    3    3    0  502  0.70813335265E+02 -0.72018921034E+02 -0.24700946342E+01  0.10114071784E+03  0.47000000000E+01 0. -1.
          5    1    4    4  503    0  0.32748319353E+02 -0.17674460976E+02 -0.82655324726E+01  0.38408957527E+02  0.47000000000E+01 0.  1.
         -5    1    4    4    0  503 -0.82651689282E+02  0.57013785257E+02  0.18306863410E+02  0.10217193694E+03  0.47000000000E+01 0.  1.
<mgrwt>
<rscale>  0 0.14022505E+03</rscale>
<asrwt>0</asrwt>
<pdfrwt beam="1">  1        5 0.22260441E-01 0.14022613E+03</pdfrwt>
<pdfrwt beam="2">  1       -5 0.20941826E-01 0.14022613E+03</pdfrwt>
<totfact> 0.29479992E+02</totfact>
</mgrwt>
</event>
<event>
 8    1  0.3573290E-007  0.1626966E+03  0.7546771E-02  0.1185687E+00
         -5   -1    0    0    0  501 -0.00000000000E+00  0.00000000000E+00  0.10109540134E+03  0.10120459561E+03  0.47000000000E+01 0. -1.
          5   -1    0    0  501    0  0.00000000000E+00 -0.00000000000E+00 -0.29713228180E+03  0.29716945147E+03  0.47000000000E+01 0. -1.
         25    2    1    2    0    0  0.29849199986E+02  0.99770587367E+02 -0.29109846519E+02  0.16528030738E+03  0.12500020800E+03 0.  0.
         25    2    1    2    0    0 -0.29849199986E+02 -0.99770587367E+02 -0.16692703394E+03  0.23309373970E+03  0.12499164765E+03 0.  0.
          5    1    3    3  502    0  0.51297801025E+02  0.11281331870E+03 -0.48551971452E+02  0.13318293133E+03  0.47000000000E+01 0.  1.
         -5    1    3    3    0  502 -0.21448601040E+02 -0.13042731336E+02  0.19442124933E+02  0.32097376048E+02  0.47000000000E+01 0.  1.
          5    1    4    4  503    0  0.24210416294E+01 -0.63301838555E+02 -0.47514634697E+01  0.63699690833E+02  0.47000000000E+01 0.  1.
         -5    1    4    4    0  503 -0.32270241615E+02 -0.36468748812E+02 -0.16217557047E+03  0.16939404886E+03  0.47000000000E+01 0.  1.
<mgrwt>
<rscale>  0 0.16269500E+03</rscale>
<asrwt>0</asrwt>
<pdfrwt beam="2">  1        5 0.45723917E-01 0.16269664E+03</pdfrwt>
<pdfrwt beam="1">  1       -5 0.15564398E-01 0.16269664E+03</pdfrwt>
<totfact> 0.12828619E+02</totfact>
</mgrwt>
</event>
<event>
 8    1  0.3573290E-007  0.1321083E+03  0.7546771E-02  0.1224366E+00
          5   -1    0    0  501    0  0.00000000000E+00  0.00000000000E+00  0.61909173873E+03  0.61910957912E+03  0.47000000000E+01 0.  1.
         -5   -1    0    0    0  501 -0.00000000000E+00 -0.00000000000E+00 -0.28055421227E+02  0.28446382199E+02  0.47000000000E+01 0.  1.
         25    2    1    2    0    0 -0.40008570742E+02 -0.15015665229E+02  0.31293274888E+03  0.33967558148E+03  0.12500575746E+03 0.  0.
         25    2    1    2    0    0  0.40008570742E+02  0.15015665229E+02  0.27810356862E+03  0.30788037984E+03  0.12499030953E+03 0.  0.
          5    1    4    4  502    0 -0.19550002506E+01 -0.34587772657E+02  0.21275847793E+03  0.21561167866E+03  0.47000000000E+01 0. -1.
         -5    1    4    4    0  502  0.41963570992E+02  0.49603437886E+02  0.65345090695E+02  0.92268701185E+02  0.47000000000E+01 0. -1.
          5    1    3    3  503    0 -0.17301712305E+02 -0.46612129015E+02  0.28999625035E+03  0.29426511013E+03  0.47000000000E+01 0. -1.
         -5    1    3    3    0  503 -0.22706858437E+02  0.31596463785E+02  0.22936498528E+02  0.45410471354E+02  0.47000000000E+01 0. -1.
<mgrwt>
<rscale>  0 0.13210462E+03</rscale>
<asrwt>0</asrwt>
<pdfrwt beam="1">  1        5 0.95276327E-01 0.13210827E+03</pdfrwt>
<pdfrwt beam="2">  1       -5 0.43476650E-02 0.13210827E+03</pdfrwt>
<totfact> 0.20954952E+02</totfact>
</mgrwt>
</event>
<event>
 8    1  0.3573290E-007  0.1262544E+03  0.7546771E-02  0.1233123E+00
         -5   -1    0    0    0  501 -0.00000000000E+00  0.00000000000E+00  0.30739268564E+03  0.30742861478E+03  0.47000000000E+01 0. -1.
          5   -1    0    0  501    0  0.00000000000E+00 -0.00000000000E+00 -0.53102981407E+02  0.53310567754E+02  0.47000000000E+01 0. -1.
         25    2    1    2    0    0  0.11857894498E+02 -0.13154516977E+02  0.15630181704E+03  0.20092392159E+03  0.12500605297E+03 0.  0.
         25    2    1    2    0    0 -0.11857894498E+02  0.13154516977E+02  0.97987887188E+02  0.15981526094E+03  0.12500256243E+03 0.  0.
          5    1    3    3  502    0 -0.12928908627E+02 -0.64681624536E+02  0.62633632323E+02  0.91082002222E+02  0.47000000000E+01 0.  1.
         -5    1    3    3    0  502  0.24786803125E+02  0.51527107559E+02  0.93668184720E+02  0.10984191937E+03  0.47000000000E+01 0.  1.
          5    1    4    4  503    0  0.60743624594E+01  0.44534493300E+02  0.11199540188E+03  0.12076952850E+03  0.47000000000E+01 0. -1.
         -5    1    4    4    0  503 -0.17932256957E+02 -0.31379976323E+02 -0.14007514690E+02  0.39045732435E+02  0.47000000000E+01 0. -1.
<mgrwt>
<rscale>  0 0.12625350E+03</rscale>
<asrwt>0</asrwt>
<pdfrwt beam="2">  1        5 0.81884215E-02 0.12625436E+03</pdfrwt>
<pdfrwt beam="1">  1       -5 0.47309914E-01 0.12625436E+03</pdfrwt>
<totfact> 0.34100230E+02</totfact>
</mgrwt>
</event>
<event>
 8    1  0.3573290E-007  0.1503907E+03  0.7546771E-02  0.1199994E+00
         -5   -1    0    0    0  501 -0.00000000000E+00  0.00000000000E+00  0.11215991547E+03  0.11225834775E+03  0.47000000000E+01 0.  1.
          5   -1    0    0  501    0  0.00000000000E+00 -0.00000000000E+00 -0.22397096501E+03  0.22402027401E+03  0.47000000000E+01 0.  1.
         25    2    1    2    0    0 -0.18369797491E+02 -0.81556250148E+02 -0.25919578780E+01  0.15041261534E+03  0.12501346011E+03 0.  0.
         25    2    1    2    0    0  0.18369797491E+02  0.81556250148E+02 -0.10921909166E+03  0.18586600642E+03  0.12501396306E+03 0.  0.
          5    1    4    4  502    0  0.14552418736E+02  0.19474287462E+02  0.26640884889E+02  0.36370970717E+02  0.47000000000E+01 0.  1.
         -5    1    4    4    0  502  0.38173787556E+01  0.62081962686E+02 -0.13585997655E+03  0.14949503570E+03  0.47000000000E+01 0.  1.
          5    1    3    3  503    0 -0.36107140035E+02  0.16468270028E+02  0.24748753382E+02  0.47005534495E+02  0.47000000000E+01 0. -1.
         -5    1    3    3    0  503  0.17737342543E+02 -0.98024520175E+02 -0.27340711260E+02  0.10340708084E+03  0.47000000000E+01 0. -1.
<mgrwt>
<rscale>  0 0.15039059E+03</rscale>
<asrwt>0</asrwt>
<pdfrwt beam="2">  1        5 0.34468436E-01 0.15039070E+03</pdfrwt>
<pdfrwt beam="1">  1       -5 0.17266736E-01 0.15039070E+03</pdfrwt>
<totfact> 0.18455662E+02</totfact>
</mgrwt>
</event>
<event>
 8    1  0.3573290E-007  0.2099965E+03  0.7546771E-02  0.1141570E+00
         -5   -1    0    0    0  501 -0.00000000000E+00  0.00000000000E+00  0.43079238484E+03  0.43081802288E+03  0.47000000000E+01 0. -1.
          5   -1    0    0  501    0  0.00000000000E+00 -0.00000000000E+00 -0.10265586345E+03  0.10276339962E+03  0.47000000000E+01 0. -1.
         25    2    1    2    0    0  0.12580044736E+03  0.11245730957E+03  0.14795084982E+03  0.25687688852E+03  0.12499553136E+03 0.  0.
         25    2    1    2    0    0 -0.12580044736E+03 -0.11245730957E+03  0.18018567156E+03  0.27670453397E+03  0.12500449532E+03 0.  0.
          5    1    4    4  502    0 -0.36101860699E+01 -0.81630695439E+02  0.52462666901E+02  0.97216383906E+02  0.47000000000E+01 0.  1.
         -5    1    4    4    0  502 -0.12219026129E+03 -0.30826614136E+02  0.12772300466E+03  0.17948815006E+03  0.47000000000E+01 0.  1.
          5    1    3    3  503    0  0.14427630035E+03  0.69090545579E+02  0.96225103717E+02  0.18673648523E+03  0.47000000000E+01 0.  1.
         -5    1    3    3    0  503 -0.18475852991E+02  0.43366763996E+02  0.51725746107E+02  0.70140403289E+02  0.47000000000E+01 0.  1.
<mgrwt>
<rscale>  0 0.20999515E+03</rscale>
<asrwt>0</asrwt>
<pdfrwt beam="2">  1        5 0.15803454E-01 0.20999648E+03</pdfrwt>
<pdfrwt beam="1">  1       -5 0.66285996E-01 0.20999648E+03</pdfrwt>
<totfact> 0.59917776E+01</totfact>
</mgrwt>
</event>
<event>
 8    1  0.3573290E-007  0.1310667E+03  0.7546771E-02  0.1225890E+00
          5   -1    0    0  501    0  0.00000000000E+00  0.00000000000E+00  0.38836566466E+03  0.38839410331E+03  0.47000000000E+01 0.  1.
         -5   -1    0    0    0  501 -0.00000000000E+00 -0.00000000000E+00 -0.46907771575E+02  0.47142645599E+02  0.47000000000E+01 0.  1.
         25    2    1    2    0    0  0.32717255623E+02  0.21995600310E+02  0.11730256835E+03  0.17587526890E+03  0.12497196653E+03 0.  0.
         25    2    1    2    0    0 -0.32717255623E+02 -0.21995600310E+02  0.22415532473E+03  0.25966148001E+03  0.12499699736E+03 0.  0.
          5    1    3    3  502    0  0.19425183490E+02  0.48473846442E+02  0.13231913264E+03  0.14232882493E+03  0.47000000000E+01 0.  1.
         -5    1    3    3    0  502  0.13292072133E+02 -0.26478246131E+02 -0.15016564289E+02  0.33546443967E+02  0.47000000000E+01 0.  1.
          5    1    4    4  503    0 -0.33653530430E+02  0.28090231608E+02  0.19820476284E+03  0.20304885923E+03  0.47000000000E+01 0. -1.
         -5    1    4    4    0  503  0.93627480735E+00 -0.50085831919E+02  0.25950561891E+02  0.56612620783E+02  0.47000000000E+01 0. -1.
<mgrwt>
<rscale>  0 0.13106071E+03</rscale>
<asrwt>0</asrwt>
<pdfrwt beam="1">  1        5 0.59768816E-01 0.13106668E+03</pdfrwt>
<pdfrwt beam="2">  1       -5 0.72368354E-02 0.13106668E+03</pdfrwt>
<totfact> 0.25886708E+02</totfact>
</mgrwt>
</event>
<event>
 8    1  0.3573290E-007  0.1458660E+03  0.7546771E-02  0.1205648E+00
         -5   -1    0    0    0  501 -0.00000000000E+00  0.00000000000E+00  0.21733877383E+02  0.22236263762E+02  0.47000000000E+01 0. -1.
          5   -1    0    0  501    0  0.00000000000E+00 -0.00000000000E+00 -0.15742176641E+04  0.15742246802E+04  0.47000000000E+01 0. -1.
         25    2    1    2    0    0  0.69898680085E+02  0.27671236826E+02 -0.28067762938E+03  0.31631757499E+03  0.12500141515E+03 0.  0.
         25    2    1    2    0    0 -0.69898680085E+02 -0.27671236826E+02 -0.12718061573E+04  0.12801433690E+04  0.12499848248E+03 0.  0.
          5    1    4    4  502    0 -0.10449774017E+03 -0.33408935044E+02 -0.90619714292E+03  0.91282598916E+03  0.47000000000E+01 0. -1.
         -5    1    4    4    0  502  0.34599060083E+02  0.57376982183E+01 -0.36560901439E+03  0.36731737986E+03  0.47000000000E+01 0. -1.
          5    1    3    3  503    0  0.94421820260E+02  0.37942661355E+02 -0.14038641446E+03  0.17345189839E+03  0.47000000000E+01 0.  1.
         -5    1    3    3    0  503 -0.24523140175E+02 -0.10271424529E+02 -0.14029121493E+03  0.14286567660E+03  0.47000000000E+01 0.  1.
<mgrwt>
<rscale>  0 0.14586533E+03</rscale>
<asrwt>0</asrwt>
<pdfrwt beam="2">  1        5 0.24222643E+00 0.14586595E+03</pdfrwt>
<pdfrwt beam="1">  1       -5 0.33828595E-02 0.14586595E+03</pdfrwt>
<totfact> 0.23496417E+01</totfact>
</mgrwt>
</event>
<event>
 8    1  0.3573290E-007  0.1292647E+03  0.7546771E-02  0.1228553E+00
          5   -1    0    0  501    0  0.00000000000E+00  0.00000000000E+00  0.51187886646E+02  0.51403207480E+02  0.47000000000E+01 0.  1.
         -5   -1    0    0    0  501 -0.00000000000E+00 -0.00000000000E+00 -0.35030795586E+03  0.35033948384E+03  0.47000000000E+01 0.  1.
         25    2    1    2    0    0  0.28708014877E+02 -0.16109164426E+02 -0.20299868289E+03  0.24066120465E+03  0.12500277946E+03 0.  0.
         25    2    1    2    0    0 -0.28708014877E+02  0.16109164426E+02 -0.96121386326E+02  0.16108148667E+03  0.12499707654E+03 0.  0.
          5    1    4    4  502    0 -0.57809588819E+02 -0.29397225999E+02 -0.82741384399E+02  0.10523484284E+03  0.47000000000E+01 0.  1.
         -5    1    4    4    0  502  0.29101573942E+02  0.45506390425E+02 -0.13380001927E+02  0.55846643829E+02  0.47000000000E+01 0.  1.
          5    1    3    3  503    0 -0.45463262183E+02  0.15827809628E+02 -0.74984188473E+02  0.89230859499E+02  0.47000000000E+01 0.  1.
         -5    1    3    3    0  503  0.74171277060E+02 -0.31936974054E+02 -0.12801449442E+03  0.15143034515E+03  0.47000000000E+01 0.  1.
<mgrwt>
<rscale>  0 0.12926327E+03</rscale>
<asrwt>0</asrwt>
<pdfrwt beam="1">  1        5 0.78940481E-02 0.12926465E+03</pdfrwt>
<pdfrwt beam="2">  1       -5 0.53912518E-01 0.12926465E+03</pdfrwt>
<totfact> 0.27761076E+02</totfact>
</mgrwt>
</event>
<event>
 8    1  0.3573290E-007  0.1270585E+03  0.7546771E-02  0.1231893E+00
          5   -1    0    0  501    0  0.00000000000E+00  0.00000000000E+00  0.17028105333E+02  0.17664834311E+02  0.47000000000E+01 0. -1.
         -5   -1    0    0    0  501 -0.00000000000E+00 -0.00000000000E+00 -0.11890069719E+04  0.11890162612E+04  0.47000000000E+01 0. -1.
         25    2    1    2    0    0 -0.19747178713E+02 -0.11203661455E+02 -0.86759015796E+03  0.87684465132E+03  0.12501354830E+03 0.  0.
         25    2    1    2    0    0  0.19747178713E+02  0.11203661455E+02 -0.30438870864E+03  0.32983644415E+03  0.12499648334E+03 0.  0.
          5    1    3    3  502    0  0.10054996832E+02 -0.55502527787E+02 -0.22451615024E+03  0.23154097968E+03  0.47000000000E+01 0. -1.
         -5    1    3    3    0  502 -0.29802175545E+02  0.44298866332E+02 -0.64307400772E+03  0.64530367164E+03  0.47000000000E+01 0. -1.
          5    1    4    4  503    0  0.13312860285E+02  0.67928942758E+02 -0.17931554190E+03  0.19226993286E+03  0.47000000000E+01 0. -1.
         -5    1    4    4    0  503  0.64343184283E+01 -0.56725281303E+02 -0.12507316674E+03  0.13756651130E+03  0.47000000000E+01 0. -1.
<mgrwt>
<rscale>  0 0.12705429E+03</rscale>
<asrwt>0</asrwt>
<pdfrwt beam="1">  1        5 0.26694031E-02 0.12705849E+03</pdfrwt>
<pdfrwt beam="2">  1       -5 0.18297378E+00 0.12705849E+03</pdfrwt>
<totfact> 0.81823332E+01</totfact>
</mgrwt>
</event>
<event>
 8    1  0.3573290E-007  0.1458195E+03  0.7546771E-02  0.1205708E+00
          5   -1    0    0  501    0  0.00000000000E+00  0.00000000000E+00  0.13328503584E+03  0.13336787762E+03  0.47000000000E+01 0. -1.
         -5   -1    0    0    0  501 -0.00000000000E+00 -0.00000000000E+00 -0.15968595664E+03  0.15975510868E+03  0.47000000000E+01 0. -1.
         25    2    1    2    0    0 -0.75085385819E+02  0.26810307244E+00 -0.19811136330E+02  0.14715910496E+03  0.12500173601E+03 0.  0.
         25    2    1    2    0    0  0.75085385819E+02 -0.26810307244E+00 -0.65897844666E+01  0.14596388133E+03  0.12499656936E+03 0.  0.
          5    1    4    4  502    0 -0.23745516247E+02  0.32864056992E+02 -0.80899972502E+01  0.41610501551E+02  0.47000000000E+01 0. -1.
         -5    1    4    4    0  502  0.98830902066E+02 -0.33132160064E+02  0.15002127836E+01  0.10435337978E+03  0.47000000000E+01 0. -1.
          5    1    3    3  503    0 -0.75672274441E+02 -0.41359621895E+02 -0.45898987478E+02  0.97804491174E+02  0.47000000000E+01 0.  1.
         -5    1    3    3    0  503  0.58688862180E+00  0.41627724968E+02  0.26087851148E+02  0.49354613784E+02  0.47000000000E+01 0.  1.
<mgrwt>
<rscale>  0 0.14581837E+03</rscale>
<asrwt>0</asrwt>
<pdfrwt beam="1">  1        5 0.20517082E-01 0.14581948E+03</pdfrwt>
<pdfrwt beam="2">  1       -5 0.24578762E-01 0.14581948E+03</pdfrwt>
<totfact> 0.25711781E+02</totfact>
</mgrwt>
</event>
<event>
 8    1  0.3573290E-007  0.1252431E+03  0.7546771E-02  0.1234713E+00
          5   -1    0    0  501    0  0.00000000000E+00  0.00000000000E+00  0.47814638383E+02  0.48045079287E+02  0.47000000000E+01 0.  1.
         -5   -1    0    0    0  501 -0.00000000000E+00 -0.00000000000E+00 -0.34251256474E+03  0.34254481021E+03  0.47000000000E+01 0.  1.
         25    2    1    2    0    0 -0.21400769506E+01 -0.68417019213E+01 -0.18911101001E+03  0.22682329837E+03  0.12503777734E+03 0.  0.
         25    2    1    2    0    0  0.21400769506E+01  0.68417019213E+01 -0.10558691634E+03  0.16376659113E+03  0.12497804068E+03 0.  0.
          5    1    4    4  502    0  0.91447015415E+01 -0.46192130870E+02 -0.98916308470E+02  0.10965338391E+03  0.47000000000E+01 0. -1.
         -5    1    4    4    0  502 -0.70046245909E+01  0.53033832792E+02 -0.66706078707E+01  0.54113207220E+02  0.47000000000E+01 0. -1.
          5    1    3    3  503    0 -0.34197031802E+02  0.20358964930E+01 -0.19009564303E+03  0.19321497187E+03  0.47000000000E+01 0.  1.
         -5    1    3    3    0  503  0.32056954852E+02 -0.88775984143E+01  0.98463301181E+00  0.33608326500E+02  0.47000000000E+01 0.  1.
<mgrwt>
<rscale>  0 0.12522819E+03</rscale>
<asrwt>0</asrwt>
<pdfrwt beam="1">  1        5 0.73763051E-02 0.12524310E+03</pdfrwt>
<pdfrwt beam="2">  1       -5 0.52714446E-01 0.12524310E+03</pdfrwt>
<totfact> 0.32328363E+02</totfact>
</mgrwt>
</event>
<event>
 8    1  0.3573290E-007  0.1286090E+03  0.7546771E-02  0.1229536E+00
         -5   -1    0    0    0  501 -0.00000000000E+00  0.00000000000E+00  0.58360061580E+02  0.58549011842E+02  0.47000000000E+01 0. -1.
          5   -1    0    0  501    0  0.00000000000E+00 -0.00000000000E+00 -0.28389059421E+03  0.28392949737E+03  0.47000000000E+01 0. -1.
         25    2    1    2    0    0 -0.12305992452E+02 -0.27606123804E+02 -0.10187411692E+03  0.16406554143E+03  0.12500252263E+03 0.  0.
         25    2    1    2    0    0  0.12305992452E+02  0.27606123804E+02 -0.12365641570E+03  0.17841296779E+03  0.12500696944E+03 0.  0.
          5    1    4    4  502    0  0.34198433647E+02  0.53368136478E+02 -0.16094680624E+02  0.65565384155E+02  0.47000000000E+01 0.  1.
         -5    1    4    4    0  502 -0.21892441194E+02 -0.25762012673E+02 -0.10756173508E+03  0.11284758363E+03  0.47000000000E+01 0.  1.
          5    1    3    3  503    0  0.74328674281E+01 -0.69642152222E+02 -0.93056891025E+02  0.11656308100E+03  0.47000000000E+01 0. -1.
         -5    1    3    3    0  503 -0.19738859880E+02  0.42036028417E+02 -0.88172258976E+01  0.47502460431E+02  0.47000000000E+01 0. -1.
<mgrwt>
<rscale>  0 0.12860793E+03</rscale>
<asrwt>0</asrwt>
<pdfrwt beam="2">  1        5 0.43693002E-01 0.12860901E+03</pdfrwt>
<pdfrwt beam="1">  1       -5 0.89959984E-02 0.12860901E+03</pdfrwt>
<totfact> 0.34463516E+02</totfact>
</mgrwt>
</event>
<event>
 8    1  0.3573290E-007  0.1586347E+03  0.7546771E-02  0.1190264E+00
          5   -1    0    0  501    0  0.00000000000E+00  0.00000000000E+00  0.45074126860E+03  0.45076577201E+03  0.47000000000E+01 0. -1.
         -5   -1    0    0    0  501 -0.00000000000E+00 -0.00000000000E+00 -0.62555381820E+02  0.62731696890E+02  0.47000000000E+01 0. -1.
         25    2    1    2    0    0 -0.96546509633E+02  0.14073130899E+02  0.10911155498E+03  0.19248744000E+03  0.12500720616E+03 0.  0.
         25    2    1    2    0    0  0.96546509633E+02 -0.14073130899E+02  0.27907433179E+03  0.32101002890E+03  0.12508267048E+03 0.  0.
          5    1    4    4  502    0  0.11793221634E+03 -0.40067628961E+02  0.21816878151E+03  0.25126306885E+03  0.47000000000E+01 0. -1.
         -5    1    4    4    0  502 -0.21385706712E+02  0.25994498062E+02  0.60905550286E+02  0.69746960053E+02  0.47000000000E+01 0. -1.
          5    1    3    3  503    0 -0.11289917104E+03 -0.13310645412E+02  0.11258054876E+03  0.16006206941E+03  0.47000000000E+01 0. -1.
         -5    1    3    3    0  503  0.16352661411E+02  0.27383776311E+02 -0.34689937755E+01  0.32425370593E+02  0.47000000000E+01 0. -1.
<mgrwt>
<rscale>  0 0.15861979E+03</rscale>
<asrwt>0</asrwt>
<pdfrwt beam="1">  1        5 0.69360256E-01 0.15863466E+03</pdfrwt>
<pdfrwt beam="2">  1       -5 0.96393527E-02 0.15863466E+03</pdfrwt>
<totfact> 0.12093062E+02</totfact>
</mgrwt>
</event>
<event>
 8    1  0.3573290E-007  0.1633737E+03  0.7546771E-02  0.1184940E+00
         -5   -1    0    0    0  501 -0.00000000000E+00  0.00000000000E+00  0.71029699846E+02  0.71185028343E+02  0.47000000000E+01 0.  1.
          5   -1    0    0  501    0  0.00000000000E+00 -0.00000000000E+00 -0.47789274029E+03  0.47791585162E+03  0.47000000000E+01 0.  1.
         25    2    1    2    0    0  0.63516489134E+02 -0.83857349589E+02 -0.76178685669E+02  0.18026064510E+03  0.12499723417E+03 0.  0.
         25    2    1    2    0    0 -0.63516489134E+02  0.83857349589E+02 -0.33068435478E+03  0.36884023486E+03  0.12499830752E+03 0.  0.
          5    1    4    4  502    0 -0.16986331349E+02 -0.50675792315E+00  0.59889467156E+01  0.18621217443E+02  0.47000000000E+01 0.  1.
         -5    1    4    4    0  502 -0.46530157785E+02  0.84364107512E+02 -0.33667330149E+03  0.35021901741E+03  0.47000000000E+01 0.  1.
          5    1    3    3  503    0  0.58734957552E+02 -0.97853485717E+02 -0.12718256069E+02  0.11493016986E+03  0.47000000000E+01 0.  1.
         -5    1    3    3    0  503  0.47815315820E+01  0.13996136128E+02 -0.63460429600E+02  0.65330475245E+02  0.47000000000E+01 0.  1.
<mgrwt>
<rscale>  0 0.16337353E+03</rscale>
<asrwt>0</asrwt>
<pdfrwt beam="2">  1        5 0.73535684E-01 0.16337373E+03</pdfrwt>
<pdfrwt beam="1">  1       -5 0.10941373E-01 0.16337373E+03</pdfrwt>
<totfact> 0.85558398E+01</totfact>
</mgrwt>
</event>
<event>
 8    1  0.3573290E-007  0.1314398E+03  0.7546771E-02  0.1225343E+00
         -5   -1    0    0    0  501 -0.00000000000E+00  0.00000000000E+00  0.10927061421E+03  0.10937164683E+03  0.47000000000E+01 0.  1.
          5   -1    0    0  501    0  0.00000000000E+00 -0.00000000000E+00 -0.34564007869E+03  0.34567203242E+03  0.47000000000E+01 0.  1.
         25    2    1    2    0    0 -0.28248954182E+01  0.40547402014E+02  0.49479815295E+02  0.14042289399E+03  0.12497305786E+03 0.  0.
         25    2    1    2    0    0  0.28248954182E+01 -0.40547402014E+02 -0.28584927977E+03  0.31462078526E+03  0.12499742368E+03 0.  0.
          5    1    4    4  502    0  0.43424897904E+02 -0.27330031143E+02 -0.40490611790E+02  0.65530389922E+02  0.47000000000E+01 0. -1.
         -5    1    4    4    0  502 -0.40600002485E+02 -0.13217370871E+02 -0.24535866798E+03  0.24909039534E+03  0.47000000000E+01 0. -1.
          5    1    3    3  503    0  0.71059237330E+01 -0.30397702604E+02  0.60065126378E+02  0.67855905289E+02  0.47000000000E+01 0.  1.
         -5    1    3    3    0  503 -0.99308191511E+01  0.70945104619E+02 -0.10585311084E+02  0.72566988701E+02  0.47000000000E+01 0.  1.
<mgrwt>
<rscale>  0 0.13143403E+03</rscale>
<asrwt>0</asrwt>
<pdfrwt beam="2">  1        5 0.53185626E-01 0.13143983E+03</pdfrwt>
<pdfrwt beam="1">  1       -5 0.16821094E-01 0.13143983E+03</pdfrwt>
<totfact> 0.75547710E+01</totfact>
</mgrwt>
</event>
<event>
 8    1  0.3573290E-007  0.1538794E+03  0.7546771E-02  0.1195786E+00
          5   -1    0    0  501    0  0.00000000000E+00  0.00000000000E+00  0.24334638160E+03  0.24339176534E+03  0.47000000000E+01 0. -1.
         -5   -1    0    0    0  501 -0.00000000000E+00 -0.00000000000E+00 -0.10357019335E+03  0.10367678115E+03  0.47000000000E+01 0. -1.
         25    2    1    2    0    0 -0.88714787616E+02  0.13508742653E+02  0.26856855968E+02  0.15620300768E+03  0.12500115690E+03 0.  0.
         25    2    1    2    0    0  0.88714787616E+02 -0.13508742653E+02  0.11291933228E+03  0.19086553881E+03  0.12500431446E+03 0.  0.
          5    1    4    4  502    0  0.11080217006E+02  0.44664911420E+02  0.71762636962E+02  0.85379690704E+02  0.47000000000E+01 0. -1.
         -5    1    4    4    0  502  0.77634570609E+02 -0.58173654073E+02  0.41156695316E+02  0.10548584811E+03  0.47000000000E+01 0. -1.
          5    1    3    3  503    0 -0.48548774404E+02  0.64784055963E+02 -0.91888747554E+01  0.81611781150E+02  0.47000000000E+01 0. -1.
         -5    1    3    3    0  503 -0.40166013211E+02 -0.51275313309E+02  0.36045730723E+02  0.74591226532E+02  0.47000000000E+01 0. -1.
<mgrwt>
<rscale>  0 0.15387879E+03</rscale>
<asrwt>0</asrwt>
<pdfrwt beam="1">  1        5 0.37449594E-01 0.15387943E+03</pdfrwt>
<pdfrwt beam="2">  1       -5 0.15945566E-01 0.15387943E+03</pdfrwt>
<totfact> 0.18200751E+02</totfact>
</mgrwt>
</event>
<event>
 8    1  0.3573290E-007  0.1467284E+03  0.7546771E-02  0.1204553E+00
          5   -1    0    0  501    0  0.00000000000E+00  0.00000000000E+00  0.14756981824E+02  0.15487366224E+02  0.47000000000E+01 0.  1.
         -5   -1    0    0    0  501 -0.00000000000E+00 -0.00000000000E+00 -0.14292470022E+04  0.14292547300E+04  0.47000000000E+01 0.  1.
         25    2    1    2    0    0 -0.76577226850E+02  0.61780616299E+01 -0.75533473063E+03  0.76945333584E+03  0.12500256243E+03 0.  0.
         25    2    1    2    0    0  0.76577226850E+02 -0.61780616299E+01 -0.65915528971E+03  0.67528876038E+03  0.12500789505E+03 0.  0.
          5    1    3    3  502    0  0.16946402378E+02  0.35386421198E+02 -0.35866536298E+03  0.36083557469E+03  0.47000000000E+01 0.  1.
         -5    1    3    3    0  502 -0.93523629228E+02 -0.29208359568E+02 -0.39666936765E+03  0.40861776115E+03  0.47000000000E+01 0.  1.
          5    1    4    4  503    0  0.10657196762E+03 -0.26767045251E+02 -0.48562377106E+03  0.49792227909E+03  0.47000000000E+01 0. -1.
         -5    1    4    4    0  503 -0.29994740771E+02  0.20588983621E+02 -0.17353151865E+03  0.17736648129E+03  0.47000000000E+01 0. -1.
<mgrwt>
<rscale>  0 0.14672723E+03</rscale>
<asrwt>0</asrwt>
<pdfrwt beam="1">  1        5 0.23270839E-02 0.14672837E+03</pdfrwt>
<pdfrwt beam="2">  1       -5 0.21994083E+00 0.14672837E+03</pdfrwt>
<totfact> 0.59860073E+01</totfact>
</mgrwt>
</event>
<event>
 8    1  0.3573290E-007  0.1317110E+03  0.7546771E-02  0.1224939E+00
         -5   -1    0    0    0  501 -0.00000000000E+00  0.00000000000E+00  0.95342329976E+02  0.95458105393E+02  0.47000000000E+01 0.  1.
          5   -1    0    0  501    0  0.00000000000E+00 -0.00000000000E+00 -0.18194925885E+03  0.18200995246E+03  0.47000000000E+01 0.  1.
         25    2    1    2    0    0 -0.37654708635E+02  0.17447029884E+02 -0.48493035968E+02  0.14035437365E+03  0.12500199891E+03 0.  0.
         25    2    1    2    0    0  0.37654708635E+02 -0.17447029884E+02 -0.38113892906E+02  0.13711368421E+03  0.12500087052E+03 0.  0.
          5    1    3    3  502    0 -0.59795907271E+02 -0.37037556577E+02 -0.13552041127E+02  0.71784949274E+02  0.47000000000E+01 0.  1.
         -5    1    3    3    0  502  0.22141198637E+02  0.54484586461E+02 -0.34940994841E+02  0.68569424376E+02  0.47000000000E+01 0.  1.
          5    1    4    4  503    0  0.16837525478E+02 -0.70711240751E+02 -0.31478123209E+02  0.79350766055E+02  0.47000000000E+01 0.  1.
         -5    1    4    4    0  503  0.20817183157E+02  0.53264210867E+02 -0.66357696966E+01  0.57762918151E+02  0.47000000000E+01 0.  1.
<mgrwt>
<rscale>  0 0.13171069E+03</rscale>
<asrwt>0</asrwt>
<pdfrwt beam="2">  1        5 0.28005768E-01 0.13171095E+03</pdfrwt>
<pdfrwt beam="1">  1       -5 0.14681625E-01 0.13171095E+03</pdfrwt>
<totfact> 0.35712269E+02</totfact>
</mgrwt>
</event>
<event>
 8    1  0.3573290E-007  0.1312950E+03  0.7546771E-02  0.1225549E+00
         -5   -1    0    0    0  501 -0.00000000000E+00  0.00000000000E+00  0.82002956123E+02  0.82137535956E+02  0.47000000000E+01 0. -1.
          5   -1    0    0  501    0  0.00000000000E+00 -0.00000000000E+00 -0.21771293726E+03  0.21776366330E+03  0.47000000000E+01 0. -1.
         25    2    1    2    0    0  0.14728173970E+02  0.37341219501E+02 -0.39415693013E+02  0.13708381774E+03  0.12500836151E+03 0.  0.
         25    2    1    2    0    0 -0.14728173970E+02 -0.37341219501E+02 -0.96294288128E+02  0.16281738151E+03  0.12500249603E+03 0.  0.
          5    1    3    3  502    0  0.34711946483E+02  0.10031073497E+01  0.36407844037E+02  0.50532628671E+02  0.47000000000E+01 0.  1.
         -5    1    3    3    0  502 -0.19983772513E+02  0.36338112151E+02 -0.75823537050E+02  0.86551189070E+02  0.47000000000E+01 0.  1.
          5    1    4    4  503    0  0.46451565102E+02 -0.35205902457E+02 -0.80365403358E+02  0.99387582349E+02  0.47000000000E+01 0. -1.
         -5    1    4    4    0  503 -0.61179739072E+02 -0.21353170436E+01 -0.15928884769E+02  0.63429799163E+02  0.47000000000E+01 0. -1.
<mgrwt>
<rscale>  0 0.13129360E+03</rscale>
<asrwt>0</asrwt>
<pdfrwt beam="2">  1        5 0.33508552E-01 0.13129500E+03</pdfrwt>
<pdfrwt beam="1">  1       -5 0.12630094E-01 0.13129500E+03</pdfrwt>
<totfact> 0.32829187E+02</totfact>
</mgrwt>
</event>
<event>
 8    1  0.3573290E-007  0.1392768E+03  0.7546771E-02  0.1214310E+00
          5   -1    0    0  501    0  0.00000000000E+00  0.00000000000E+00  0.14682796011E+02  0.15416695453E+02  0.47000000000E+01 0.  1.
         -5   -1    0    0    0  501 -0.00000000000E+00 -0.00000000000E+00 -0.15760182100E+04  0.15760252181E+04  0.47000000000E+01 0.  1.
         25    2    1    2    0    0  0.45738848197E+02 -0.40968261979E+02 -0.11206834504E+04  0.11293032129E+04  0.12499563932E+03 0.  0.
         25    2    1    2    0    0 -0.45738848197E+02  0.40968261979E+02 -0.44065196351E+03  0.46213870067E+03  0.12501033952E+03 0.  0.
          5    1    3    3  502    0  0.75546907187E+02 -0.63313059500E+02 -0.69563605376E+03  0.70260051806E+03  0.47000000000E+01 0. -1.
         -5    1    3    3    0  502 -0.29808058990E+02  0.22344797521E+02 -0.42504739668E+03  0.42670269483E+03  0.47000000000E+01 0. -1.
          5    1    4    4  503    0 -0.64933329198E+02  0.49052854615E+02 -0.15012115058E+03  0.17082438244E+03  0.47000000000E+01 0. -1.
         -5    1    4    4    0  503  0.19194481002E+02 -0.80845926360E+01 -0.29053081293E+03  0.29131431822E+03  0.47000000000E+01 0. -1.
<mgrwt>
<rscale>  0 0.13927350E+03</rscale>
<asrwt>0</asrwt>
<pdfrwt beam="1">  1        5 0.23158858E-02 0.13927680E+03</pdfrwt>
<pdfrwt beam="2">  1       -5 0.24252120E+00 0.13927680E+03</pdfrwt>
<totfact> 0.42558060E+01</totfact>
</mgrwt>
</event>
<event>
 8    1  0.3573290E-007  0.1390494E+03  0.7546771E-02  0.1214615E+00
         -5   -1    0    0    0  501 -0.00000000000E+00  0.00000000000E+00  0.47506178109E+02  0.47738108033E+02  0.47000000000E+01 0. -1.
          5   -1    0    0  501    0  0.00000000000E+00 -0.00000000000E+00 -0.41382411433E+03  0.41385080355E+03  0.47000000000E+01 0. -1.
         25    2    1    2    0    0  0.56008444556E+02  0.23896516259E+02 -0.15091626713E+03  0.20520517128E+03  0.12500181312E+03 0.  0.
         25    2    1    2    0    0 -0.56008444556E+02 -0.23896516259E+02 -0.21540166909E+03  0.25638374031E+03  0.12500701538E+03 0.  0.
          5    1    3    3  502    0 -0.15432648070E+02  0.35344438005E+02 -0.12164519282E+01  0.38871141991E+02  0.47000000000E+01 0.  1.
         -5    1    3    3    0  502  0.71441092626E+02 -0.11447921746E+02 -0.14969981520E+03  0.16633402928E+03  0.47000000000E+01 0.  1.
          5    1    4    4  503    0 -0.15893744223E+02 -0.61932790794E+02 -0.17872554772E+03  0.18987678396E+03  0.47000000000E+01 0.  1.
         -5    1    4    4    0  503 -0.40114700333E+02  0.38036274535E+02 -0.36676121378E+02  0.66506956348E+02  0.47000000000E+01 0.  1.
<mgrwt>
<rscale>  0 0.13904826E+03</rscale>
<asrwt>0</asrwt>
<pdfrwt beam="2">  1        5 0.63685140E-01 0.13904943E+03</pdfrwt>
<pdfrwt beam="1">  1       -5 0.73285368E-02 0.13904943E+03</pdfrwt>
<totfact> 0.22486783E+02</totfact>
</mgrwt>
</event>
<event>
 8    1  0.3573290E-007  0.1303369E+03  0.7546771E-02  0.1226971E+00
          5   -1    0    0  501    0  0.00000000000E+00  0.00000000000E+00  0.17898819154E+03  0.17904988889E+03  0.47000000000E+01 0. -1.
         -5   -1    0    0    0  501 -0.00000000000E+00 -0.00000000000E+00 -0.95403655465E+02  0.95519356552E+02  0.47000000000E+01 0. -1.
         25    2    1    2    0    0 -0.35526898155E+02 -0.10101091631E+02  0.30388257802E+02  0.13379443620E+03  0.12495324086E+03 0.  0.
         25    2    1    2    0    0  0.35526898155E+02  0.10101091631E+02  0.53196278273E+02  0.14077480924E+03  0.12499404126E+03 0.  0.
          5    1    4    4  502    0  0.64579989674E+02  0.20831033251E+02  0.76026162683E+02  0.10201261895E+03  0.47000000000E+01 0.  1.
         -5    1    4    4    0  502 -0.29053091519E+02 -0.10729941620E+02 -0.22829884410E+02  0.38762190291E+02  0.47000000000E+01 0.  1.
          5    1    3    3  503    0 -0.92410311450E+01 -0.28815375825E+02  0.73567101224E+02  0.79686453824E+02  0.47000000000E+01 0.  1.
         -5    1    3    3    0  503 -0.26285867010E+02  0.18714284194E+02 -0.43178843422E+02  0.54107982374E+02  0.47000000000E+01 0.  1.
<mgrwt>
<rscale>  0 0.13032710E+03</rscale>
<asrwt>0</asrwt>
<pdfrwt beam="1">  1        5 0.27550291E-01 0.13033688E+03</pdfrwt>
<pdfrwt beam="2">  1       -5 0.14691131E-01 0.13033688E+03</pdfrwt>
<totfact> 0.36682449E+02</totfact>
</mgrwt>
</event>
<event>
 8    1  0.3573290E-007  0.2015942E+03  0.7546771E-02  0.1148402E+00
          5   -1    0    0  501    0  0.00000000000E+00  0.00000000000E+00  0.62179124011E+02  0.62356502971E+02  0.47000000000E+01 0. -1.
         -5   -1    0    0    0  501 -0.00000000000E+00 -0.00000000000E+00 -0.81698637848E+03  0.81699989757E+03  0.47000000000E+01 0. -1.
         25    2    1    2    0    0  0.86885268623E+02 -0.13215230186E+03 -0.57468147715E+03  0.60901304686E+03  0.12499924111E+03 0.  0.
         25    2    1    2    0    0 -0.86885268623E+02  0.13215230186E+03 -0.18012577732E+03  0.27034335367E+03  0.12500780949E+03 0.  0.
          5    1    4    4  502    0 -0.25738138162E+02  0.30109963533E+02  0.14289830478E+02  0.42371581456E+02  0.47000000000E+01 0. -1.
         -5    1    4    4    0  502 -0.61147130461E+02  0.10204233832E+03 -0.19441560779E+03  0.22797177222E+03  0.47000000000E+01 0. -1.
          5    1    3    3  503    0  0.83260219865E+02 -0.13540142339E+03 -0.57935917995E+03  0.60078694981E+03  0.47000000000E+01 0. -1.
         -5    1    3    3    0  503  0.36250487576E+01  0.32491215347E+01  0.46777027988E+01  0.82260970524E+01  0.47000000000E+01 0. -1.
<mgrwt>
<rscale>  0 0.20159290E+03</rscale>
<asrwt>0</asrwt>
<pdfrwt beam="1">  1        5 0.95807041E-02 0.20159423E+03</pdfrwt>
<pdfrwt beam="2">  1       -5 0.12570489E+00 0.20159423E+03</pdfrwt>
<totfact> 0.31074399E+01</totfact>
</mgrwt>
</event>
<event>
 8    1  0.3573290E-007  0.1351596E+03  0.7546771E-02  0.1219997E+00
         -5   -1    0    0    0  501 -0.00000000000E+00  0.00000000000E+00  0.58326450050E+03  0.58328343671E+03  0.47000000000E+01 0.  1.
          5   -1    0    0  501    0  0.00000000000E+00 -0.00000000000E+00 -0.37689013017E+02  0.37980938669E+02  0.47000000000E+01 0.  1.
         25    2    1    2    0    0 -0.28436203921E+02 -0.42799504393E+02  0.40186423485E+03  0.42398465890E+03  0.12501084939E+03 0.  0.
         25    2    1    2    0    0  0.28436203921E+02  0.42799504393E+02  0.14371125264E+03  0.19727971648E+03  0.12500378846E+03 0.  0.
          5    1    4    4  502    0  0.61212230847E+02  0.58160676512E+02  0.53770738510E+02  0.10021468863E+03  0.47000000000E+01 0. -1.
         -5    1    4    4    0  502 -0.32776026926E+02 -0.15361172119E+02  0.89940514130E+02  0.97065027852E+02  0.47000000000E+01 0. -1.
          5    1    3    3  503    0 -0.21024394882E+02 -0.33001894958E+02  0.40769581184E+03  0.40959628324E+03  0.47000000000E+01 0. -1.
         -5    1    3    3    0  503 -0.74118090391E+01 -0.97976094350E+01 -0.58315769970E+01  0.14388375660E+02  0.47000000000E+01 0. -1.
<mgrwt>
<rscale>  0 0.13515801E+03</rscale>
<asrwt>0</asrwt>
<pdfrwt beam="2">  1        5 0.58222225E-02 0.13515964E+03</pdfrwt>
<pdfrwt beam="1">  1       -5 0.89756907E-01 0.13515964E+03</pdfrwt>
<totfact> 0.14987104E+02</totfact>
</mgrwt>
</event>
<event>
 8    1  0.3573290E-007  0.1266021E+03  0.7546771E-02  0.1232588E+00
         -5   -1    0    0    0  501 -0.00000000000E+00  0.00000000000E+00  0.18495521062E+03  0.18501491815E+03  0.47000000000E+01 0. -1.
          5   -1    0    0  501    0  0.00000000000E+00 -0.00000000000E+00 -0.12427816706E+03  0.12436700852E+03  0.47000000000E+01 0. -1.
         25    2    1    2    0    0 -0.45107622163E+01  0.19535266094E+02  0.11554765368E+03  0.17140404821E+03  0.12500445543E+03 0.  0.
         25    2    1    2    0    0  0.45107622163E+01 -0.19535266094E+02 -0.54870610113E+02  0.13797787845E+03  0.12500054996E+03 0.  0.
          5    1    3    3  502    0  0.34800649493E+02  0.11081655377E+02  0.12459410040E+03  0.12992177703E+03  0.47000000000E+01 0. -1.
         -5    1    3    3    0  502 -0.39311411709E+02  0.84536107174E+01 -0.90464467207E+01  0.41482271189E+02  0.47000000000E+01 0. -1.
          5    1    4    4  503    0  0.27675718701E+02  0.21727333609E+02 -0.77553660284E+02  0.85291750215E+02  0.47000000000E+01 0.  1.
         -5    1    4    4    0  503 -0.23164956485E+02 -0.41262599703E+02  0.22683050170E+02  0.52686128233E+02  0.47000000000E+01 0.  1.
<mgrwt>
<rscale>  0 0.12660112E+03</rscale>
<asrwt>0</asrwt>
<pdfrwt beam="2">  1        5 0.19131145E-01 0.12660208E+03</pdfrwt>
<pdfrwt beam="1">  1       -5 0.28466075E-01 0.12660208E+03</pdfrwt>
<totfact> 0.21016736E+02</totfact>
</mgrwt>
</event>
<event>
 8    1  0.3573290E-007  0.1321022E+03  0.7546771E-02  0.1224370E+00
         -5   -1    0    0    0  501 -0.00000000000E+00  0.00000000000E+00  0.21777736494E+03  0.21782807597E+03  0.47000000000E+01 0. -1.
          5   -1    0    0  501    0  0.00000000000E+00 -0.00000000000E+00 -0.87376022728E+02  0.87502339098E+02  0.47000000000E+01 0. -1.
         25    2    1    2    0    0  0.19845621560E+02 -0.37833175903E+02  0.10950386760E+03  0.17158552729E+03  0.12500119304E+03 0.  0.
         25    2    1    2    0    0 -0.19845621560E+02  0.37833175903E+02  0.20897474610E+02  0.13374488778E+03  0.12500317063E+03 0.  0.
          5    1    4    4  502    0  0.50563585976E+02  0.18181349734E+02 -0.88953109956E+01  0.54666756467E+02  0.47000000000E+01 0.  1.
         -5    1    4    4    0  502 -0.70409207537E+02  0.19651826169E+02  0.29792785605E+02  0.79078131312E+02  0.47000000000E+01 0.  1.
          5    1    3    3  503    0 -0.33850338214E+02  0.13549473453E+02  0.85948120629E+02  0.93480495654E+02  0.47000000000E+01 0.  1.
         -5    1    3    3    0  503  0.53695959775E+02 -0.51382649356E+02  0.23555746972E+02  0.78105031633E+02  0.47000000000E+01 0.  1.
<mgrwt>
<rscale>  0 0.13210173E+03</rscale>
<asrwt>0</asrwt>
<pdfrwt beam="2">  1        5 0.13456083E-01 0.13210220E+03</pdfrwt>
<pdfrwt beam="1">  1       -5 0.33517827E-01 0.13210220E+03</pdfrwt>
<totfact> 0.29369041E+02</totfact>
</mgrwt>
</event>
<event>
 8    1  0.3573290E-007  0.1498174E+03  0.7546771E-02  0.1200707E+00
          5   -1    0    0  501    0  0.00000000000E+00  0.00000000000E+00  0.36703222536E+03  0.36706231686E+03  0.47000000000E+01 0. -1.
         -5   -1    0    0    0  501 -0.00000000000E+00 -0.00000000000E+00 -0.61990981497E+02  0.62168897263E+02  0.47000000000E+01 0. -1.
         25    2    1    2    0    0 -0.40098371374E+02  0.72120763024E+02  0.12566356966E+03  0.19551858376E+03  0.12500759980E+03 0.  0.
         25    2    1    2    0    0  0.40098371374E+02 -0.72120763024E+02  0.17937767421E+03  0.23371263036E+03  0.12504383128E+03 0.  0.
          5    1    4    4  502    0 -0.25004687245E+02 -0.15554751812E+02  0.13174233004E+03  0.13507522427E+03  0.47000000000E+01 0.  1.
         -5    1    4    4    0  502  0.65103058619E+02 -0.56566011212E+02  0.47635344166E+02  0.98637406088E+02  0.47000000000E+01 0.  1.
          5    1    3    3  503    0 -0.45892817353E+02  0.96412764116E+02  0.54542526260E+02  0.11999395376E+03  0.47000000000E+01 0.  1.
         -5    1    3    3    0  503  0.57944459788E+01 -0.24292001092E+02  0.71121043401E+02  0.75524629994E+02  0.47000000000E+01 0.  1.
<mgrwt>
<rscale>  0 0.14980981E+03</rscale>
<asrwt>0</asrwt>
<pdfrwt beam="1">  1        5 0.56482497E-01 0.14981737E+03</pdfrwt>
<pdfrwt beam="2">  1       -5 0.95530746E-02 0.14981737E+03</pdfrwt>
<totfact> 0.18991640E+02</totfact>
</mgrwt>
</event>
<event>
 8    1  0.3573290E-007  0.1485692E+03  0.7546771E-02  0.1202245E+00
          5   -1    0    0  501    0  0.00000000000E+00  0.00000000000E+00  0.12932726139E+04  0.12932811542E+04  0.47000000000E+01 0. -1.
         -5   -1    0    0    0  501 -0.00000000000E+00 -0.00000000000E+00 -0.18292734966E+02  0.18886877787E+02  0.47000000000E+01 0. -1.
         25    2    1    2    0    0 -0.71212988616E+02  0.37041432017E+02  0.44916558757E+03  0.47309590345E+03  0.12500660534E+03 0.  0.
         25    2    1    2    0    0  0.71212988616E+02 -0.37041432017E+02  0.82581429133E+03  0.83907212852E+03  0.12501774136E+03 0.  0.
          5    1    4    4  502    0  0.57615006062E+02  0.33775680598E+02  0.54549437455E+03  0.54958756190E+03  0.47000000000E+01 0.  1.
         -5    1    4    4    0  502  0.13597982554E+02 -0.70817112615E+02  0.28031991678E+03  0.28948456662E+03  0.47000000000E+01 0.  1.
          5    1    3    3  503    0  0.30604501560E+02  0.28203242606E+02  0.83900386819E+02  0.93773254810E+02  0.47000000000E+01 0.  1.
         -5    1    3    3    0  503 -0.10181749018E+03  0.88381894102E+01  0.36526520075E+03  0.37932264864E+03  0.47000000000E+01 0.  1.
<mgrwt>
<rscale>  0 0.14856681E+03</rscale>
<asrwt>0</asrwt>
<pdfrwt beam="1">  1        5 0.19901141E+00 0.14856915E+03</pdfrwt>
<pdfrwt beam="2">  1       -5 0.28606267E-02 0.14856915E+03</pdfrwt>
<totfact> 0.59422027E+01</totfact>
</mgrwt>
</event>
<event>
 8    1  0.3573290E-007  0.1412953E+03  0.7546771E-02  0.1211598E+00
         -5   -1    0    0    0  501 -0.00000000000E+00  0.00000000000E+00  0.46356299333E+03  0.46358681904E+03  0.47000000000E+01 0.  1.
          5   -1    0    0  501    0  0.00000000000E+00 -0.00000000000E+00 -0.84947150391E+02  0.85077073055E+02  0.47000000000E+01 0.  1.
         25    2    1    2    0    0 -0.52367389247E+02 -0.39952604379E+02  0.38203925109E+03  0.40733075605E+03  0.12500320555E+03 0.  0.
         25    2    1    2    0    0  0.52367389247E+02  0.39952604379E+02 -0.34234081478E+01  0.14133313605E+03  0.12499912627E+03 0.  0.
          5    1    3    3  502    0 -0.60451666928E+02 -0.77196495906E+02  0.22173902221E+03  0.24249533394E+03  0.47000000000E+01 0.  1.
         -5    1    3    3    0  502  0.80842776812E+01  0.37243891527E+02  0.16030022888E+03  0.16483542210E+03  0.47000000000E+01 0.  1.
          5    1    4    4  503    0 -0.26381949636E+02  0.66882745065E+01  0.37391694262E+02  0.46486224651E+02  0.47000000000E+01 0. -1.
         -5    1    4    4    0  503  0.78749338883E+02  0.33264329872E+02 -0.40815102410E+02  0.94846911395E+02  0.47000000000E+01 0. -1.
<mgrwt>
<rscale>  0 0.14129438E+03</rscale>
<asrwt>0</asrwt>
<pdfrwt beam="2">  1        5 0.13080619E-01 0.14129528E+03</pdfrwt>
<pdfrwt beam="1">  1       -5 0.71329211E-01 0.14129528E+03</pdfrwt>
<totfact> 0.63874845E+01</totfact>
</mgrwt>
</event>
<event>
 8    1  0.3573290E-007  0.1618855E+03  0.7546771E-02  0.1186585E+00
         -5   -1    0    0    0  501 -0.00000000000E+00  0.00000000000E+00  0.15608840791E+03  0.15615915306E+03  0.47000000000E+01 0.  1.
          5   -1    0    0  501    0  0.00000000000E+00 -0.00000000000E+00 -0.23442564434E+03  0.23447275476E+03  0.47000000000E+01 0.  1.
         25    2    1    2    0    0 -0.11918240374E+02 -0.10217723379E+03  0.64965727167E+02  0.17443142773E+03  0.12499418272E+03 0.  0.
         25    2    1    2    0    0  0.11918240374E+02  0.10217723379E+03 -0.14330296359E+03  0.21620048008E+03  0.12499870661E+03 0.  0.
          5    1    3    3  502    0 -0.21127664558E+02 -0.50576476056E+02 -0.32333807596E+02  0.63811623186E+02  0.47000000000E+01 0. -1.
         -5    1    3    3    0  502  0.92094241834E+01 -0.51600757732E+02  0.97299534763E+02  0.11061980454E+03  0.47000000000E+01 0. -1.
          5    1    4    4  503    0 -0.38590109986E+02  0.64920101610E+02 -0.13215026160E+03  0.15228131147E+03  0.47000000000E+01 0. -1.
         -5    1    4    4    0  503  0.50508350360E+02  0.37257132179E+02 -0.11152701993E+02  0.63919168612E+02  0.47000000000E+01 0. -1.
<mgrwt>
<rscale>  0 0.16188461E+03</rscale>
<asrwt>0</asrwt>
<pdfrwt beam="2">  1        5 0.36074549E-01 0.16188548E+03</pdfrwt>
<pdfrwt beam="1">  1       -5 0.24022667E-01 0.16188548E+03</pdfrwt>
<totfact> 0.92813875E+01</totfact>
</mgrwt>
</event>
<event>
 8    1  0.3573290E-007  0.1311183E+03  0.7546771E-02  0.1225806E+00
         -5   -1    0    0    0  501 -0.00000000000E+00  0.00000000000E+00  0.21636214971E+03  0.21641319236E+03  0.47000000000E+01 0. -1.
          5   -1    0    0  501    0  0.00000000000E+00 -0.00000000000E+00 -0.84950252547E+02  0.85080170473E+02  0.47000000000E+01 0. -1.
         25    2    1    2    0    0  0.39319942204E+02 -0.44912703716E+01  0.10444037651E+03  0.16762976718E+03  0.12500286890E+03 0.  0.
         25    2    1    2    0    0 -0.39319942204E+02  0.44912703716E+01  0.26971520646E+02  0.13386359565E+03  0.12500307976E+03 0.  0.
          5    1    3    3  502    0  0.55760673007E+02  0.15090131469E+02 -0.20684375258E+01  0.57994251058E+02  0.47000000000E+01 0.  1.
         -5    1    3    3    0  502 -0.16440730803E+02 -0.19581401841E+02  0.10650881404E+03  0.10963551612E+03  0.47000000000E+01 0.  1.
          5    1    4    4  503    0 -0.34946409135E+02 -0.44911887629E+02 -0.24586974231E+02  0.62168629257E+02  0.47000000000E+01 0.  1.
         -5    1    4    4    0  503 -0.43735330697E+01  0.49403158000E+02  0.51558494878E+02  0.71694966392E+02  0.47000000000E+01 0.  1.
<mgrwt>
<rscale>  0 0.13111821E+03</rscale>
<asrwt>0</asrwt>
<pdfrwt beam="2">  1        5 0.13083190E-01 0.13111826E+03</pdfrwt>
<pdfrwt beam="1">  1       -5 0.33300405E-01 0.13111826E+03</pdfrwt>
<totfact> 0.31199937E+02</totfact>
</mgrwt>
</event>
<event>
 8    1  0.3573290E-007  0.1335689E+03  0.7546771E-02  0.1222258E+00
          5   -1    0    0  501    0  0.00000000000E+00  0.00000000000E+00  0.21733298303E+02  0.22235697765E+02  0.47000000000E+01 0.  1.
         -5   -1    0    0    0  501 -0.00000000000E+00 -0.00000000000E+00 -0.15872313862E+04  0.15872383448E+04  0.47000000000E+01 0.  1.
         25    2    1    2    0    0  0.28343943499E+01  0.46913491632E+02 -0.13454340848E+04  0.13520467143E+04  0.12501412617E+03 0.  0.
         25    2    1    2    0    0 -0.28343943499E+01 -0.46913491632E+02 -0.22006400307E+03  0.25742732823E+03  0.12502701463E+03 0.  0.
          5    1    4    4  502    0  0.29816788030E+02 -0.33333757824E+02 -0.12297911755E+02  0.46620906176E+02  0.47000000000E+01 0. -1.
         -5    1    4    4    0  502 -0.32651182380E+02 -0.13579733807E+02 -0.20776609131E+03  0.21080642206E+03  0.47000000000E+01 0. -1.
          5    1    3    3  503    0 -0.56655421244E+02  0.40952549259E+01 -0.44780899511E+03  0.45142174733E+03  0.47000000000E+01 0. -1.
         -5    1    3    3    0  503  0.59489815594E+02  0.42818236706E+02 -0.89762508968E+03  0.90062496699E+03  0.47000000000E+01 0. -1.
<mgrwt>
<rscale>  0 0.13356593E+03</rscale>
<asrwt>0</asrwt>
<pdfrwt beam="1">  1        5 0.33827670E-02 0.13356895E+03</pdfrwt>
<pdfrwt beam="2">  1       -5 0.24422854E+00 0.13356895E+03</pdfrwt>
<totfact> 0.22314015E+01</totfact>
</mgrwt>
</event>
<event>
 8    1  0.3573290E-007  0.1291565E+03  0.7546771E-02  0.1228729E+00
          5   -1    0    0  501    0  0.00000000000E+00  0.00000000000E+00  0.15788873408E+03  0.15795867292E+03  0.47000000000E+01 0.  1.
         -5   -1    0    0    0  501 -0.00000000000E+00 -0.00000000000E+00 -0.13278270395E+03  0.13286585893E+03  0.47000000000E+01 0.  1.
         25    2    1    2    0    0 -0.17339665109E+01  0.32331393844E+02 -0.53356241895E+02  0.13970294279E+03  0.12498679134E+03 0.  0.
         25    2    1    2    0    0  0.17339665109E+01 -0.32331393844E+02  0.78462272025E+02  0.15112158905E+03  0.12503231933E+03 0.  0.
          5    1    3    3  502    0 -0.62022061734E+02  0.26128250388E+02 -0.20014164006E+02  0.70371005186E+02  0.47000000000E+01 0. -1.
         -5    1    3    3    0  502  0.60288095223E+02  0.62031434561E+01 -0.33342077890E+02  0.69331937607E+02  0.47000000000E+01 0. -1.
          5    1    4    4  503    0  0.54837169838E+02 -0.40729657930E+02  0.19506043887E+02  0.71194072640E+02  0.47000000000E+01 0. -1.
         -5    1    4    4    0  503 -0.53103203327E+02  0.83982640863E+01  0.58956228138E+02  0.79927516410E+02  0.47000000000E+01 0. -1.
<mgrwt>
<rscale>  0 0.12914550E+03</rscale>
<asrwt>0</asrwt>
<pdfrwt beam="1">  1        5 0.24302351E-01 0.12915652E+03</pdfrwt>
<pdfrwt beam="2">  1       -5 0.20439885E-01 0.12915652E+03</pdfrwt>
<totfact> 0.25378647E+02</totfact>
</mgrwt>
</event>
<event>
 8    1  0.3573290E-007  0.1985790E+03  0.7546771E-02  0.1150944E+00
          5   -1    0    0  501    0  0.00000000000E+00  0.00000000000E+00  0.18177709346E+03  0.18183784454E+03  0.47000000000E+01 0. -1.
         -5   -1    0    0    0  501 -0.00000000000E+00 -0.00000000000E+00 -0.21961623588E+03  0.21966652240E+03  0.47000000000E+01 0. -1.
         25    2    1    2    0    0  0.80151221059E+02  0.13185212194E+03  0.37635649222E+01  0.19861426075E+03  0.12499703938E+03 0.  0.
         25    2    1    2    0    0 -0.80151221059E+02 -0.13185212194E+03 -0.41602707338E+02  0.20289010619E+03  0.12499763851E+03 0.  0.
          5    1    3    3  502    0 -0.12466063594E+02  0.92883393778E+02 -0.18373458488E+02  0.95615906407E+02  0.47000000000E+01 0. -1.
         -5    1    3    3    0  502  0.92617284653E+02  0.38968728167E+02  0.22137023410E+02  0.10299835434E+03  0.47000000000E+01 0. -1.
          5    1    4    4  503    0 -0.69478562353E+02 -0.18038145770E+02 -0.50870790975E+02  0.88105463531E+02  0.47000000000E+01 0. -1.
         -5    1    4    4    0  503 -0.10672658706E+02 -0.11381397617E+03  0.92680836375E+01  0.11478464266E+03  0.47000000000E+01 0. -1.
<mgrwt>
<rscale>  0 0.19857888E+03</rscale>
<asrwt>0</asrwt>
<pdfrwt beam="1">  1        5 0.27974248E-01 0.19857898E+03</pdfrwt>
<pdfrwt beam="2">  1       -5 0.33795655E-01 0.19857898E+03</pdfrwt>
<totfact> 0.83601208E+01</totfact>
</mgrwt>
</event>
<event>
 8    1  0.3573290E-007  0.1307026E+03  0.7546771E-02  0.1226418E+00
          5   -1    0    0  501    0  0.00000000000E+00  0.00000000000E+00  0.32275994934E+03  0.32279416800E+03  0.47000000000E+01 0. -1.
         -5   -1    0    0    0  501 -0.00000000000E+00 -0.00000000000E+00 -0.54123438765E+02  0.54327126040E+02  0.47000000000E+01 0. -1.
         25    2    1    2    0    0 -0.35431143336E+02 -0.14195979648E+02  0.10473743382E+03  0.16749063420E+03  0.12500516287E+03 0.  0.
         25    2    1    2    0    0  0.35431143336E+02  0.14195979648E+02  0.16389907675E+03  0.20963065984E+03  0.12500085772E+03 0.  0.
          5    1    4    4  502    0  0.68560488599E+02 -0.12783946205E+02  0.44830336681E+02  0.83041067939E+02  0.47000000000E+01 0. -1.
         -5    1    4    4    0  502 -0.33129345264E+02  0.26979925853E+02  0.11906874007E+03  0.12658959190E+03  0.47000000000E+01 0. -1.
          5    1    3    3  503    0  0.97202625236E+01  0.12961317378E+02  0.11273569591E+03  0.11399081711E+03  0.47000000000E+01 0. -1.
         -5    1    3    3    0  503 -0.45151405859E+02 -0.27157297026E+02 -0.79982620878E+01  0.53499817096E+02  0.47000000000E+01 0. -1.
<mgrwt>
<rscale>  0 0.13070162E+03</rscale>
<asrwt>0</asrwt>
<pdfrwt beam="1">  1        5 0.49673678E-01 0.13070265E+03</pdfrwt>
<pdfrwt beam="2">  1       -5 0.83449832E-02 0.13070265E+03</pdfrwt>
<totfact> 0.30167619E+02</totfact>
</mgrwt>
</event>
<event>
 8    1  0.3573290E-007  0.1595301E+03  0.7546771E-02  0.1189228E+00
          5   -1    0    0  501    0  0.00000000000E+00  0.00000000000E+00  0.38849432707E+03  0.38852275631E+03  0.47000000000E+01 0. -1.
         -5   -1    0    0    0  501 -0.00000000000E+00 -0.00000000000E+00 -0.72335201279E+02  0.72487732370E+02  0.47000000000E+01 0. -1.
         25    2    1    2    0    0  0.64386719584E+02 -0.75367065592E+02  0.86766722801E+02  0.18159910965E+03  0.12499571275E+03 0.  0.
         25    2    1    2    0    0 -0.64386719584E+02  0.75367065592E+02  0.22939240299E+03  0.27941137902E+03  0.12499599970E+03 0.  0.
          5    1    3    3  502    0  0.94216636657E+02 -0.22474369786E+02  0.40403230565E+02  0.10505419059E+03  0.47000000000E+01 0. -1.
         -5    1    3    3    0  502 -0.29829917073E+02 -0.52892695806E+02  0.46363492237E+02  0.76544919065E+02  0.47000000000E+01 0. -1.
          5    1    4    4  503    0  0.20971576423E+01  0.67305304603E+02  0.18985665930E+03  0.20149948679E+03  0.47000000000E+01 0. -1.
         -5    1    4    4    0  503 -0.66483877226E+02  0.80617609886E+01  0.39535743694E+02  0.77911892229E+02  0.47000000000E+01 0. -1.
<mgrwt>
<rscale>  0 0.15953002E+03</rscale>
<asrwt>0</asrwt>
<pdfrwt beam="1">  1        5 0.59782278E-01 0.15953007E+03</pdfrwt>
<pdfrwt beam="2">  1       -5 0.11142413E-01 0.15953007E+03</pdfrwt>
<totfact> 0.13073575E+02</totfact>
</mgrwt>
</event>
<event>
 8    1  0.3573290E-007  0.1395896E+03  0.7546771E-02  0.1213889E+00
         -5   -1    0    0    0  501 -0.00000000000E+00  0.00000000000E+00  0.14379119458E+03  0.14386798684E+03  0.47000000000E+01 0. -1.
          5   -1    0    0  501    0  0.00000000000E+00 -0.00000000000E+00 -0.13621398535E+03  0.13629504689E+03  0.47000000000E+01 0. -1.
         25    2    1    2    0    0 -0.13710812337E+02 -0.60570381153E+02  0.15011874239E+02  0.14037557179E+03  0.12499274915E+03 0.  0.
         25    2    1    2    0    0  0.13710812337E+02  0.60570381153E+02 -0.74346650125E+01  0.13978746194E+03  0.12501401051E+03 0.  0.
          5    1    3    3  502    0  0.19567818704E+02 -0.61424008272E+02  0.57281740081E+02  0.86366058540E+02  0.47000000000E+01 0.  1.
         -5    1    3    3    0  502 -0.33278631041E+02  0.85362711929E+00 -0.42269865841E+02  0.54009513250E+02  0.47000000000E+01 0.  1.
          5    1    4    4  503    0  0.19480958329E+02  0.95415191452E+02  0.13553831902E+02  0.98434561290E+02  0.47000000000E+01 0.  1.
         -5    1    4    4    0  503 -0.57701459921E+01 -0.34844810299E+02 -0.20988496914E+02  0.41352900651E+02  0.47000000000E+01 0.  1.
<mgrwt>
<rscale>  0 0.13958485E+03</rscale>
<asrwt>0</asrwt>
<pdfrwt beam="2">  1        5 0.20968140E-01 0.13958961E+03</pdfrwt>
<pdfrwt beam="1">  1       -5 0.22133865E-01 0.13958961E+03</pdfrwt>
<totfact> 0.29683056E+02</totfact>
</mgrwt>
</event>
<event>
 8    1  0.3573290E-007  0.1253496E+03  0.7546771E-02  0.1234527E+00
          5   -1    0    0  501    0  0.00000000000E+00  0.00000000000E+00  0.59709838693E+03  0.59711688443E+03  0.47000000000E+01 0.  1.
         -5   -1    0    0    0  501 -0.00000000000E+00 -0.00000000000E+00 -0.31975546761E+02  0.32319121130E+02  0.47000000000E+01 0.  1.
         25    2    1    2    0    0  0.82547491100E+01  0.44354379769E+01  0.14830012350E+03  0.19417321119E+03  0.12498998089E+03 0.  0.
         25    2    1    2    0    0 -0.82547491100E+01 -0.44354379769E+01  0.41682271667E+03  0.43526279437E+03  0.12499883614E+03 0.  0.
          5    1    3    3  502    0 -0.14124457399E+02 -0.56118171252E+02  0.50812852821E+02  0.77154296402E+02  0.47000000000E+01 0.  1.
         -5    1    3    3    0  502  0.22379206509E+02  0.60553609229E+02  0.97487270678E+02  0.11701891479E+03  0.47000000000E+01 0.  1.
          5    1    4    4  503    0 -0.19827684049E+02 -0.54879482101E+02  0.32062666036E+03  0.32592704697E+03  0.47000000000E+01 0.  1.
         -5    1    4    4    0  503  0.11572934939E+02  0.50444044124E+02  0.96196056309E+02  0.10933574740E+03  0.47000000000E+01 0.  1.
<mgrwt>
<rscale>  0 0.12534740E+03</rscale>
<asrwt>0</asrwt>
<pdfrwt beam="1">  1        5 0.91889139E-01 0.12534960E+03</pdfrwt>
<pdfrwt beam="2">  1       -5 0.49471667E-02 0.12534960E+03</pdfrwt>
<totfact> 0.18120055E+02</totfact>
</mgrwt>
</event>
<event>
 8    1  0.3573290E-007  0.1319485E+03  0.7546771E-02  0.1224595E+00
         -5   -1    0    0    0  501 -0.00000000000E+00  0.00000000000E+00  0.12058057002E+03  0.12067213376E+03  0.47000000000E+01 0.  1.
          5   -1    0    0  501    0  0.00000000000E+00 -0.00000000000E+00 -0.17048456920E+03  0.17054934282E+03  0.47000000000E+01 0.  1.
         25    2    1    2    0    0  0.42199464606E+02  0.21918485530E+01  0.32197944242E+02  0.13582014083E+03  0.12499921611E+03 0.  0.
         25    2    1    2    0    0 -0.42199464606E+02 -0.21918485530E+01 -0.82101943422E+02  0.15540133575E+03  0.12499298790E+03 0.  0.
          5    1    4    4  502    0 -0.68027851509E+02 -0.37289527132E+02 -0.21551956753E+02  0.80652800662E+02  0.47000000000E+01 0. -1.
         -5    1    4    4    0  502  0.25828386904E+02  0.35097678579E+02 -0.60549986670E+02  0.74748535085E+02  0.47000000000E+01 0. -1.
          5    1    3    3  503    0 -0.11399749122E+02  0.20069384525E+02  0.65816997563E+02  0.69904947203E+02  0.47000000000E+01 0. -1.
         -5    1    3    3    0  503  0.53599213728E+02 -0.17877535972E+02 -0.33619053322E+02  0.65915193627E+02  0.47000000000E+01 0. -1.
<mgrwt>
<rscale>  0 0.13194701E+03</rscale>
<asrwt>0</asrwt>
<pdfrwt beam="2">  1        5 0.26240421E-01 0.13194849E+03</pdfrwt>
<pdfrwt beam="1">  1       -5 0.18562883E-01 0.13194849E+03</pdfrwt>
<totfact> 0.26407784E+02</totfact>
</mgrwt>
</event>
<event>
 8    1  0.3573290E-007  0.1505742E+03  0.7546771E-02  0.1199770E+00
          5   -1    0    0  501    0  0.00000000000E+00  0.00000000000E+00  0.24305088659E+03  0.24309632550E+03  0.47000000000E+01 0. -1.
         -5   -1    0    0    0  501 -0.00000000000E+00 -0.00000000000E+00 -0.99289969694E+02  0.99401147286E+02  0.47000000000E+01 0. -1.
         25    2    1    2    0    0 -0.30007741443E+02 -0.78398338742E+02  0.29394741981E+02  0.15341488976E+03  0.12500125392E+03 0.  0.
         25    2    1    2    0    0  0.30007741443E+02  0.78398338742E+02  0.11436617491E+03  0.18908258302E+03  0.12500334865E+03 0.  0.
          5    1    3    3  502    0  0.30245458632E+02  0.17048270215E+02 -0.48428334834E+01  0.35369115360E+02  0.47000000000E+01 0. -1.
         -5    1    3    3    0  502 -0.60253200075E+02 -0.95446608957E+02  0.34237575464E+02  0.11804577440E+03  0.47000000000E+01 0. -1.
          5    1    4    4  503    0  0.62430959973E+02  0.23161537476E+02  0.10465240701E+03  0.12413016505E+03  0.47000000000E+01 0. -1.
         -5    1    4    4    0  503 -0.32423218530E+02  0.55236801266E+02  0.97137679011E+01  0.64952417975E+02  0.47000000000E+01 0. -1.
<mgrwt>
<rscale>  0 0.15057380E+03</rscale>
<asrwt>0</asrwt>
<pdfrwt beam="1">  1        5 0.37404491E-01 0.15057424E+03</pdfrwt>
<pdfrwt beam="2">  1       -5 0.15287427E-01 0.15057424E+03</pdfrwt>
<totfact> 0.19561075E+02</totfact>
</mgrwt>
</event>
<event>
 8    1  0.3573290E-007  0.1327892E+03  0.7546771E-02  0.1223376E+00
         -5   -1    0    0    0  501 -0.00000000000E+00  0.00000000000E+00  0.43663284804E+03  0.43665814316E+03  0.47000000000E+01 0. -1.
          5   -1    0    0  501    0  0.00000000000E+00 -0.00000000000E+00 -0.44378658089E+02  0.44626844990E+02  0.47000000000E+01 0. -1.
         25    2    1    2    0    0 -0.40177000008E+02  0.19847453665E+02  0.26955475139E+03  0.30048644328E+03  0.12499690337E+03 0.  0.
         25    2    1    2    0    0  0.40177000008E+02 -0.19847453665E+02  0.12269943856E+03  0.18079854487E+03  0.12499939542E+03 0.  0.
          5    1    4    4  502    0  0.23581186572E+02 -0.13887845414E+02 -0.21705955009E+02  0.35244617933E+02  0.47000000000E+01 0.  1.
         -5    1    4    4    0  502  0.16595813436E+02 -0.59596082503E+01  0.14440539357E+03  0.14555392693E+03  0.47000000000E+01 0.  1.
          5    1    3    3  503    0 -0.61399649098E+02 -0.34508242875E+02  0.11179736634E+03  0.13221753611E+03  0.47000000000E+01 0. -1.
         -5    1    3    3    0  503  0.21222649090E+02  0.54355696540E+02  0.15775738506E+03  0.16826890717E+03  0.47000000000E+01 0. -1.
<mgrwt>
<rscale>  0 0.13278858E+03</rscale>
<asrwt>0</asrwt>
<pdfrwt beam="2">  1        5 0.68485233E-02 0.13278916E+03</pdfrwt>
<pdfrwt beam="1">  1       -5 0.67195318E-01 0.13278916E+03</pdfrwt>
<totfact> 0.22049680E+02</totfact>
</mgrwt>
</event>
<event>
 8    1  0.3573290E-007  0.1332083E+03  0.7546771E-02  0.1222775E+00
          5   -1    0    0  501    0  0.00000000000E+00  0.00000000000E+00  0.14640125245E+03  0.14647667636E+03  0.47000000000E+01 0.  1.
         -5   -1    0    0    0  501 -0.00000000000E+00 -0.00000000000E+00 -0.15448297097E+03  0.15455445099E+03  0.47000000000E+01 0.  1.
         25    2    1    2    0    0 -0.25785863015E+02  0.38146746378E+02 -0.74032744354E+02  0.15239846054E+03  0.12499743416E+03 0.  0.
         25    2    1    2    0    0  0.25785863015E+02 -0.38146746378E+02  0.65951025830E+02  0.14863266681E+03  0.12498818682E+03 0.  0.
          5    1    3    3  502    0 -0.46556249718E+01 -0.45699907967E+02 -0.19950316003E+02  0.50301705147E+02  0.47000000000E+01 0.  1.
         -5    1    3    3    0  502 -0.21130238043E+02  0.83846654345E+02 -0.54082428352E+02  0.10209675539E+03  0.47000000000E+01 0.  1.
          5    1    4    4  503    0  0.80516367912E+01 -0.49090862506E+02  0.98065348731E+02  0.11006200188E+03  0.47000000000E+01 0. -1.
         -5    1    4    4    0  503  0.17734226224E+02  0.10944116129E+02 -0.32114322901E+02  0.38570664928E+02  0.47000000000E+01 0. -1.
<mgrwt>
<rscale>  0 0.13320610E+03</rscale>
<asrwt>0</asrwt>
<pdfrwt beam="1">  1        5 0.22534570E-01 0.13320827E+03</pdfrwt>
<pdfrwt beam="2">  1       -5 0.23777911E-01 0.13320827E+03</pdfrwt>
<totfact> 0.22266620E+02</totfact>
</mgrwt>
</event>
<event>
 8    1  0.3573290E-007  0.3042659E+03  0.7546771E-02  0.1083127E+00
          5   -1    0    0  501    0  0.00000000000E+00  0.00000000000E+00  0.58135406011E+03  0.58137305855E+03  0.47000000000E+01 0. -1.
         -5   -1    0    0    0  501 -0.00000000000E+00 -0.00000000000E+00 -0.26094982178E+03  0.26099214449E+03  0.47000000000E+01 0. -1.
         25    2    1    2    0    0 -0.21812197779E+03  0.17139207349E+03 -0.10277673255E+03  0.32115518401E+03  0.12500062165E+03 0.  0.
         25    2    1    2    0    0  0.21812197779E+03 -0.17139207349E+03  0.42318097088E+03  0.52121001903E+03  0.12500123911E+03 0.  0.
          5    1    3    3  502    0 -0.19815638724E+03  0.11397336052E+03 -0.11942056507E+03  0.25795201506E+03  0.47000000000E+01 0. -1.
         -5    1    3    3    0  502 -0.19965590552E+02  0.57418712965E+02  0.16643832517E+02  0.63203168951E+02  0.47000000000E+01 0. -1.
          5    1    4    4  503    0  0.20756212097E+03 -0.14214567645E+03  0.28805298418E+03  0.38247096503E+03  0.47000000000E+01 0. -1.
         -5    1    4    4    0  503  0.10559856812E+02 -0.29246397032E+02  0.13512798670E+03  0.13873905400E+03  0.47000000000E+01 0. -1.
<mgrwt>
<rscale>  0 0.30426586E+03</rscale>
<asrwt>0</asrwt>
<pdfrwt beam="1">  1        5 0.89443802E-01 0.30426592E+03</pdfrwt>
<pdfrwt beam="2">  1       -5 0.40150844E-01 0.30426592E+03</pdfrwt>
<totfact> 0.52851920E+00</totfact>
</mgrwt>
</event>
<event>
 8    1  0.3573290E-007  0.1816783E+03  0.7546771E-02  0.1166189E+00
         -5   -1    0    0    0  501 -0.00000000000E+00  0.00000000000E+00  0.11414491778E+04  0.11414588541E+04  0.47000000000E+01 0. -1.
          5   -1    0    0  501    0  0.00000000000E+00 -0.00000000000E+00 -0.28718858442E+02  0.29100907721E+02  0.47000000000E+01 0. -1.
         25    2    1    2    0    0  0.22277974705E+02  0.12994399092E+03  0.56255114439E+03  0.59116053831E+03  0.12500097230E+03 0.  0.
         25    2    1    2    0    0 -0.22277974705E+02 -0.12994399092E+03  0.55017917502E+03  0.57939922351E+03  0.12499834657E+03 0.  0.
          5    1    3    3  502    0  0.52780291229E+02  0.11860581180E+02  0.24539432995E+03  0.25133026022E+03  0.47000000000E+01 0. -1.
         -5    1    3    3    0  502 -0.30502316524E+02  0.11808340974E+03  0.31715681444E+03  0.33983027810E+03  0.47000000000E+01 0. -1.
          5    1    4    4  503    0 -0.79426324582E+01 -0.51787916363E+02  0.48842092728E+02  0.71782405321E+02  0.47000000000E+01 0. -1.
         -5    1    4    4    0  503 -0.14335342247E+02 -0.78156074557E+02  0.50133708229E+03  0.50761681819E+03  0.47000000000E+01 0. -1.
<mgrwt>
<rscale>  0 0.18167781E+03</rscale>
<asrwt>0</asrwt>
<pdfrwt beam="2">  1        5 0.44484187E-02 0.18167827E+03</pdfrwt>
<pdfrwt beam="1">  1       -5 0.17563770E+00 0.18167827E+03</pdfrwt>
<totfact> 0.44432112E+01</totfact>
</mgrwt>
</event>
<event>
 8    1  0.3573290E-007  0.1660546E+03  0.7546771E-02  0.1182026E+00
         -5   -1    0    0    0  501 -0.00000000000E+00  0.00000000000E+00  0.25336167518E+02  0.25768418354E+02  0.47000000000E+01 0. -1.
          5   -1    0    0  501    0  0.00000000000E+00 -0.00000000000E+00 -0.12244322903E+04  0.12244413107E+04  0.47000000000E+01 0. -1.
         25    2    1    2    0    0 -0.10906291597E+03 -0.73483652218E+01 -0.38391915110E+03  0.41829182626E+03  0.12500167689E+03 0.  0.
         25    2    1    2    0    0  0.10906291597E+03  0.73483652218E+01 -0.81517697166E+03  0.83191790284E+03  0.12500073535E+03 0.  0.
          5    1    4    4  502    0  0.60120703425E+02  0.62800809420E+02 -0.33869015565E+03  0.34970209061E+03  0.47000000000E+01 0.  1.
         -5    1    4    4    0  502  0.48942212543E+02 -0.55452444198E+02 -0.47648681601E+03  0.48221581223E+03  0.47000000000E+01 0.  1.
          5    1    3    3  503    0 -0.41818086312E+02 -0.56388851836E+01 -0.32787225049E+03  0.33060981838E+03  0.47000000000E+01 0.  1.
         -5    1    3    3    0  503 -0.67244829657E+02 -0.17094800382E+01 -0.56046900606E+02  0.87682007876E+02  0.47000000000E+01 0.  1.
<mgrwt>
<rscale>  0 0.16605444E+03</rscale>
<asrwt>0</asrwt>
<pdfrwt beam="2">  1        5 0.18840810E+00 0.16605462E+03</pdfrwt>
<pdfrwt beam="1">  1       -5 0.39318168E-02 0.16605462E+03</pdfrwt>
<totfact> 0.43170929E+01</totfact>
</mgrwt>
</event>
<event>
 8    1  0.3573290E-007  0.1309949E+03  0.7546771E-02  0.1225989E+00
         -5   -1    0    0    0  501 -0.00000000000E+00  0.00000000000E+00  0.19150009901E+03  0.19155776653E+03  0.47000000000E+01 0. -1.
          5   -1    0    0  501    0  0.00000000000E+00 -0.00000000000E+00 -0.89516119913E+02  0.89639420593E+02  0.47000000000E+01 0. -1.
         25    2    1    2    0    0  0.46905365273E+01 -0.38892540854E+02  0.54186520513E+02  0.14175979787E+03  0.12500012168E+03 0.  0.
         25    2    1    2    0    0 -0.46905365273E+01  0.38892540854E+02  0.47797458579E+02  0.13943738926E+03  0.12499423031E+03 0.  0.
          5    1    3    3  502    0  0.51171778536E+02 -0.52180109841E+02  0.62247029812E+01  0.73499331349E+02  0.47000000000E+01 0. -1.
         -5    1    3    3    0  502 -0.46481242009E+02  0.13287568987E+02  0.47961817532E+02  0.68260466518E+02  0.47000000000E+01 0. -1.
          5    1    4    4  503    0  0.46248487815E+02 -0.79048675177E+01  0.51727448054E+02  0.69994488625E+02  0.47000000000E+01 0.  1.
         -5    1    4    4    0  503 -0.50939024342E+02  0.46797408372E+02 -0.39299894746E+01  0.69442900635E+02  0.47000000000E+01 0.  1.
<mgrwt>
<rscale>  0 0.13099348E+03</rscale>
<asrwt>0</asrwt>
<pdfrwt beam="2">  1        5 0.13785632E-01 0.13099489E+03</pdfrwt>
<pdfrwt beam="1">  1       -5 0.29475474E-01 0.13099489E+03</pdfrwt>
<totfact> 0.36129249E+02</totfact>
</mgrwt>
</event>
<event>
 8    1  0.3573290E-007  0.1442708E+03  0.7546771E-02  0.1207697E+00
         -5   -1    0    0    0  501 -0.00000000000E+00  0.00000000000E+00  0.38124537956E+03  0.38127434930E+03  0.47000000000E+01 0.  1.
          5   -1    0    0  501    0  0.00000000000E+00 -0.00000000000E+00 -0.10887952468E+03  0.10898091986E+03  0.47000000000E+01 0.  1.
         25    2    1    2    0    0  0.68462757236E+02 -0.22387504298E+02  0.30933599921E+03  0.34132287683E+03  0.12499678541E+03 0.  0.
         25    2    1    2    0    0 -0.68462757236E+02  0.22387504298E+02 -0.36970144331E+02  0.14893239233E+03  0.12500286571E+03 0.  0.
          5    1    4    4  502    0  0.23191006764E+02 -0.28983098606E+02 -0.19913444940E+02  0.42384880428E+02  0.47000000000E+01 0. -1.
         -5    1    4    4    0  502 -0.91653764000E+02  0.51370602904E+02 -0.17056699391E+02  0.10654751190E+03  0.47000000000E+01 0. -1.
          5    1    3    3  503    0  0.25509522493E+02  0.10688137838E+02  0.84289191842E+00  0.28067285139E+02  0.47000000000E+01 0. -1.
         -5    1    3    3    0  503  0.42953234743E+02 -0.33075642136E+02  0.30849310730E+03  0.31325559169E+03  0.47000000000E+01 0. -1.
<mgrwt>
<rscale>  0 0.14426949E+03</rscale>
<asrwt>0</asrwt>
<pdfrwt beam="2">  1        5 0.16760724E-01 0.14427081E+03</pdfrwt>
<pdfrwt beam="1">  1       -5 0.58663162E-01 0.14427081E+03</pdfrwt>
<totfact> 0.63371791E+01</totfact>
</mgrwt>
</event>
<event>
 8    1  0.3573290E-007  0.1339118E+03  0.7546771E-02  0.1221764E+00
         -5   -1    0    0    0  501 -0.00000000000E+00  0.00000000000E+00  0.18415776054E+02  0.19006072915E+02  0.47000000000E+01 0.  1.
          5   -1    0    0  501    0  0.00000000000E+00 -0.00000000000E+00 -0.99070658520E+03  0.99071773374E+03  0.47000000000E+01 0.  1.
         25    2    1    2    0    0  0.46493791503E+02 -0.12077360965E+02 -0.39414863910E+03  0.41627578005E+03  0.12499936021E+03 0.  0.
         25    2    1    2    0    0 -0.46493791503E+02  0.12077360965E+02 -0.57814217004E+03  0.59344802661E+03  0.12499862484E+03 0.  0.
          5    1    3    3  502    0 -0.37022958570E+02 -0.15768214685E+02 -0.21155783675E+03  0.21540228491E+03  0.47000000000E+01 0.  1.
         -5    1    3    3    0  502  0.83516750073E+02  0.36908537209E+01 -0.18259080236E+03  0.20087349514E+03  0.47000000000E+01 0.  1.
          5    1    4    4  503    0 -0.48673485429E+02  0.70698170650E+01 -0.72387652362E+02  0.87642185685E+02  0.47000000000E+01 0. -1.
         -5    1    4    4    0  503  0.21796939258E+01  0.50075438996E+01 -0.50575451768E+03  0.50580584093E+03  0.47000000000E+01 0. -1.
<mgrwt>
<rscale>  0 0.13391165E+03</rscale>
<asrwt>0</asrwt>
<pdfrwt beam="2">  1        5 0.15246262E+00 0.13391182E+03</pdfrwt>
<pdfrwt beam="1">  1       -5 0.28794621E-02 0.13391182E+03</pdfrwt>
<totfact> 0.12382241E+02</totfact>
</mgrwt>
</event>
<event>
 8    1  0.3573290E-007  0.1305234E+03  0.7546771E-02  0.1226686E+00
         -5   -1    0    0    0  501 -0.00000000000E+00  0.00000000000E+00  0.29685200835E+03  0.29688921311E+03  0.47000000000E+01 0. -1.
          5   -1    0    0  501    0  0.00000000000E+00 -0.00000000000E+00 -0.58779298479E+02  0.58966905377E+02  0.47000000000E+01 0. -1.
         25    2    1    2    0    0 -0.31418458856E+02  0.20579280378E+02  0.14770398868E+03  0.19710199928E+03  0.12498841351E+03 0.  0.
         25    2    1    2    0    0  0.31418458856E+02 -0.20579280378E+02  0.90368721183E+02  0.15875411920E+03  0.12500295299E+03 0.  0.
          5    1    3    3  502    0  0.22206470502E+02 -0.31858559597E+01 -0.12729043915E+02  0.26218229713E+02  0.47000000000E+01 0. -1.
         -5    1    3    3    0  502 -0.53624929358E+02  0.23765136338E+02  0.16043303260E+03  0.17088376957E+03  0.47000000000E+01 0. -1.
          5    1    4    4  503    0  0.50375762047E+01  0.52046674379E+02  0.29070454075E+02  0.60011788742E+02  0.47000000000E+01 0. -1.
         -5    1    4    4    0  503  0.26380882651E+02 -0.72625954757E+02  0.61298267108E+02  0.98742330458E+02  0.47000000000E+01 0. -1.
<mgrwt>
<rscale>  0 0.13051994E+03</rscale>
<asrwt>0</asrwt>
<pdfrwt beam="2">  1        5 0.90602621E-02 0.13052343E+03</pdfrwt>
<pdfrwt beam="1">  1       -5 0.45686833E-01 0.13052343E+03</pdfrwt>
<totfact> 0.31194564E+02</totfact>
</mgrwt>
</event>
<event>
 8    1  0.3573290E-007  0.1581004E+03  0.7546771E-02  0.1190863E+00
         -5   -1    0    0    0  501 -0.00000000000E+00  0.00000000000E+00  0.10239170280E+04  0.10239278150E+04  0.47000000000E+01 0. -1.
          5   -1    0    0  501    0  0.00000000000E+00 -0.00000000000E+00 -0.25271330598E+02  0.25704671759E+02  0.47000000000E+01 0. -1.
         25    2    1    2    0    0 -0.84501002828E+02  0.47176808940E+02  0.60778639248E+03  0.62800858021E+03  0.12499762857E+03 0.  0.
         25    2    1    2    0    0  0.84501002828E+02 -0.47176808940E+02  0.39085930492E+03  0.42162390650E+03  0.12501860465E+03 0.  0.
          5    1    3    3  502    0  0.15695899640E+02  0.50220260697E+02  0.28938522795E+03  0.29416719056E+03  0.47000000000E+01 0.  1.
         -5    1    3    3    0  502 -0.10019690247E+03 -0.30434517565E+01  0.31840116453E+03  0.33384138964E+03  0.47000000000E+01 0.  1.
          5    1    4    4  503    0  0.31261157176E+02 -0.68331036904E+02  0.32764114527E+03  0.33618030969E+03  0.47000000000E+01 0. -1.
         -5    1    4    4    0  503  0.53239845653E+02  0.21154227964E+02  0.63218159654E+02  0.85443596811E+02  0.47000000000E+01 0. -1.
<mgrwt>
<rscale>  0 0.15809621E+03</rscale>
<asrwt>0</asrwt>
<pdfrwt beam="2">  1        5 0.39220604E-02 0.15810036E+03</pdfrwt>
<pdfrwt beam="1">  1       -5 0.15755987E+00 0.15810036E+03</pdfrwt>
<totfact> 0.71915961E+01</totfact>
</mgrwt>
</event>
<event>
 8    1  0.3573290E-007  0.1291437E+03  0.7546771E-02  0.1228759E+00
         -5   -1    0    0    0  501 -0.00000000000E+00  0.00000000000E+00  0.33101658630E+03  0.33104995153E+03  0.47000000000E+01 0.  1.
          5   -1    0    0  501    0  0.00000000000E+00 -0.00000000000E+00 -0.53372783886E+02  0.53579324928E+02  0.47000000000E+01 0.  1.
         25    2    1    2    0    0 -0.30774717491E+02  0.10279304227E+02  0.18556170453E+03  0.22607796458E+03  0.12500141019E+03 0.  0.
         25    2    1    2    0    0  0.30774717491E+02 -0.10279304227E+02  0.92082097884E+02  0.15855131187E+03  0.12492661211E+03 0.  0.
          5    1    4    4  502    0  0.11781766946E+02 -0.37772108307E+02  0.11233745794E+03  0.11919453282E+03  0.47000000000E+01 0.  1.
         -5    1    4    4    0  502  0.18992950545E+02  0.27492804081E+02 -0.20255360053E+02  0.39356779054E+02  0.47000000000E+01 0.  1.
          5    1    3    3  503    0 -0.16771819899E+02  0.19954207506E+02  0.20093071770E+03  0.20266896076E+03  0.47000000000E+01 0. -1.
         -5    1    3    3    0  503 -0.14002897592E+02 -0.96749032798E+01 -0.15369013165E+02  0.23409003826E+02  0.47000000000E+01 0. -1.
<mgrwt>
<rscale>  0 0.12912561E+03</rscale>
<asrwt>0</asrwt>
<pdfrwt beam="2">  1        5 0.82296516E-02 0.12914372E+03</pdfrwt>
<pdfrwt beam="1">  1       -5 0.50944084E-01 0.12914372E+03</pdfrwt>
<totfact> 0.29159932E+02</totfact>
</mgrwt>
</event>
<event>
 8    1  0.3573290E-007  0.1585037E+03  0.7546771E-02  0.1190397E+00
         -5   -1    0    0    0  501 -0.00000000000E+00  0.00000000000E+00  0.39921750881E+02  0.40197465013E+02  0.47000000000E+01 0. -1.
          5   -1    0    0  501    0  0.00000000000E+00 -0.00000000000E+00 -0.62725022624E+03  0.62726783459E+03  0.47000000000E+01 0. -1.
         25    2    1    2    0    0  0.88961845040E+02  0.39800837302E+02 -0.30205717095E+03  0.34111713386E+03  0.12499619182E+03 0.  0.
         25    2    1    2    0    0 -0.88961845040E+02 -0.39800837302E+02 -0.28527130441E+03  0.32634816575E+03  0.12500036657E+03 0.  0.
          5    1    3    3  502    0 -0.24525941700E+02  0.35075888677E+02 -0.10716892947E+03  0.11549506148E+03  0.47000000000E+01 0. -1.
         -5    1    3    3    0  502  0.11348778674E+03  0.47249486250E+01 -0.19488824148E+03  0.22562207238E+03  0.47000000000E+01 0. -1.
          5    1    4    4  503    0 -0.17249707761E+02  0.44185752901E+02 -0.95388358592E+02  0.10663471354E+03  0.47000000000E+01 0.  1.
         -5    1    4    4    0  503 -0.71712137279E+02 -0.83986590203E+02 -0.18988294582E+03  0.21971345220E+03  0.47000000000E+01 0.  1.
<mgrwt>
<rscale>  0 0.15850283E+03</rscale>
<asrwt>0</asrwt>
<pdfrwt beam="2">  1        5 0.96522591E-01 0.15850365E+03</pdfrwt>
<pdfrwt beam="1">  1       -5 0.61643715E-02 0.15850365E+03</pdfrwt>
<totfact> 0.12038077E+02</totfact>
</mgrwt>
</event>
<event>
 8    1  0.3573290E-007  0.1555969E+03  0.7546771E-02  0.1193772E+00
         -5   -1    0    0    0  501 -0.00000000000E+00  0.00000000000E+00  0.15053207291E+03  0.15060542811E+03  0.47000000000E+01 0. -1.
          5   -1    0    0  501    0  0.00000000000E+00 -0.00000000000E+00 -0.16437978393E+03  0.16444696216E+03  0.47000000000E+01 0. -1.
         25    2    1    2    0    0 -0.86552841368E+02 -0.33071973620E+02  0.16824274608E+02  0.15646115542E+03  0.12494753760E+03 0.  0.
         25    2    1    2    0    0  0.86552841368E+02  0.33071973620E+02 -0.30671985623E+02  0.15859123485E+03  0.12500103712E+03 0.  0.
          5    1    4    4  502    0 -0.17963007836E+02 -0.27153143912E+02 -0.17212303035E+02  0.37125681820E+02  0.47000000000E+01 0. -1.
         -5    1    4    4    0  502  0.10451584920E+03  0.60225117531E+02 -0.13459682588E+02  0.12146555303E+03  0.47000000000E+01 0. -1.
          5    1    3    3  503    0 -0.71702236180E+02  0.29823293891E+01  0.63163126745E+02  0.95717164302E+02  0.47000000000E+01 0.  1.
         -5    1    3    3    0  503 -0.14850605188E+02 -0.36054303009E+02 -0.46338852136E+02  0.60743991120E+02  0.47000000000E+01 0.  1.
<mgrwt>
<rscale>  0 0.15558620E+03</rscale>
<asrwt>0</asrwt>
<pdfrwt beam="2">  1        5 0.25300008E-01 0.15559694E+03</pdfrwt>
<pdfrwt beam="1">  1       -5 0.23169591E-01 0.15559694E+03</pdfrwt>
<totfact> 0.19755467E+02</totfact>
</mgrwt>
</event>
<event>
 8    1  0.3573290E-007  0.1312764E+03  0.7546771E-02  0.1225587E+00
         -5   -1    0    0    0  501 -0.00000000000E+00  0.00000000000E+00  0.74016186382E+03  0.74017678608E+03  0.47000000000E+01 0. -1.
          5   -1    0    0  501    0  0.00000000000E+00 -0.00000000000E+00 -0.23786362338E+02  0.24246258129E+02  0.47000000000E+01 0. -1.
         25    2    1    2    0    0  0.34340821161E+02 -0.20471040563E+02  0.42586841338E+03  0.44563177521E+03  0.12500167225E+03 0.  0.
         25    2    1    2    0    0 -0.34340821161E+02  0.20471040563E+02  0.29050708811E+03  0.31879126900E+03  0.12504059122E+03 0.  0.
          5    1    3    3  502    0 -0.32406051790E+02 -0.41484515842E+02  0.26375236146E+03  0.26899538179E+03  0.47000000000E+01 0.  1.
         -5    1    3    3    0  502  0.66746872951E+02  0.21013475280E+02  0.16211605191E+03  0.17663639342E+03  0.47000000000E+01 0.  1.
          5    1    4    4  503    0  0.33372797825E+02  0.30602295160E+02  0.45534942270E+02  0.64387615822E+02  0.47000000000E+01 0. -1.
         -5    1    4    4    0  503 -0.67713618985E+02 -0.10131254597E+02  0.24497214583E+03  0.25440365318E+03  0.47000000000E+01 0. -1.
<mgrwt>
<rscale>  0 0.13126718E+03</rscale>
<asrwt>0</asrwt>
<pdfrwt beam="2">  1        5 0.36959654E-02 0.13127644E+03</pdfrwt>
<pdfrwt beam="1">  1       -5 0.11390756E+00 0.13127644E+03</pdfrwt>
<totfact> 0.17597594E+02</totfact>
</mgrwt>
</event>
<event>
 8    1  0.3573290E-007  0.1265080E+03  0.7546771E-02  0.1232747E+00
          5   -1    0    0  501    0  0.00000000000E+00  0.00000000000E+00  0.71197242718E+03  0.71198794026E+03  0.47000000000E+01 0.  1.
         -5   -1    0    0    0  501 -0.00000000000E+00 -0.00000000000E+00 -0.22259505283E+02  0.22750287371E+02  0.47000000000E+01 0.  1.
         25    2    1    2    0    0 -0.18520792371E+02 -0.61125754701E+01  0.32764709062E+03  0.35120732755E+03  0.12495434207E+03 0.  0.
         25    2    1    2    0    0  0.18520792371E+02  0.61125754701E+01  0.36206583128E+03  0.38353090008E+03  0.12499560715E+03 0.  0.
          5    1    3    3  502    0 -0.36781753967E+02  0.12453124997E+02  0.32172055014E+03  0.32408977171E+03  0.47000000000E+01 0.  1.
         -5    1    3    3    0  502  0.18260961596E+02 -0.18565700467E+02  0.59265404791E+01  0.27117555832E+02  0.47000000000E+01 0.  1.
          5    1    4    4  503    0 -0.97994970158E+01 -0.43719020298E+02  0.27830639925E+03  0.28192893562E+03  0.47000000000E+01 0. -1.
         -5    1    4    4    0  503  0.28320289387E+02  0.49831595768E+02  0.83759432031E+02  0.10160196446E+03  0.47000000000E+01 0. -1.
<mgrwt>
<rscale>  0 0.12649785E+03</rscale>
<asrwt>0</asrwt>
<pdfrwt beam="1">  1        5 0.10957316E+00 0.12650804E+03</pdfrwt>
<pdfrwt beam="2">  1       -5 0.34634852E-02 0.12650804E+03</pdfrwt>
<totfact> 0.21268350E+02</totfact>
</mgrwt>
</event>
<event>
 8    1  0.3573290E-007  0.2211059E+03  0.7546771E-02  0.1133062E+00
         -5   -1    0    0    0  501 -0.00000000000E+00  0.00000000000E+00  0.87606594438E+02  0.87732578835E+02  0.47000000000E+01 0.  1.
          5   -1    0    0  501    0  0.00000000000E+00 -0.00000000000E+00 -0.63984407626E+03  0.63986133805E+03  0.47000000000E+01 0.  1.
         25    2    1    2    0    0  0.18131858981E+03 -0.19595200267E+02 -0.14561879658E+03  0.26475016599E+03  0.12500965398E+03 0.  0.
         25    2    1    2    0    0 -0.18131858981E+03  0.19595200267E+02 -0.40661868524E+03  0.46284375090E+03  0.12500071868E+03 0.  0.
          5    1    3    3  502    0  0.18195679037E+03  0.11718900366E+02 -0.96615877338E+02  0.20640330409E+03  0.47000000000E+01 0. -1.
         -5    1    3    3    0  502 -0.63820055694E+00 -0.31314100633E+02 -0.49002919243E+02  0.58346861893E+02  0.47000000000E+01 0. -1.
          5    1    4    4  503    0 -0.12742418055E+03  0.35594267296E+02 -0.14985832056E+03  0.19995869547E+03  0.47000000000E+01 0.  1.
         -5    1    4    4    0  503 -0.53894409263E+02 -0.15999067029E+02 -0.25676036468E+03  0.26288505543E+03  0.47000000000E+01 0.  1.
<mgrwt>
<rscale>  0 0.22110463E+03</rscale>
<asrwt>0</asrwt>
<pdfrwt beam="2">  1        5 0.98448566E-01 0.22110589E+03</pdfrwt>
<pdfrwt beam="1">  1       -5 0.13488957E-01 0.22110589E+03</pdfrwt>
<totfact> 0.32059509E+01</totfact>
</mgrwt>
</event>
<event>
 8    1  0.3573290E-007  0.1777566E+03  0.7546771E-02  0.1169995E+00
         -5   -1    0    0    0  501 -0.00000000000E+00  0.00000000000E+00  0.44744134395E+02  0.44990305208E+02  0.47000000000E+01 0.  1.
          5   -1    0    0  501    0  0.00000000000E+00 -0.00000000000E+00 -0.10758709948E+04  0.10758812608E+04  0.47000000000E+01 0.  1.
         25    2    1    2    0    0  0.45415294885E+02 -0.11793512774E+03 -0.18607658609E+03  0.25732806234E+03  0.12498796908E+03 0.  0.
         25    2    1    2    0    0 -0.45415294885E+02  0.11793512774E+03 -0.84505027427E+03  0.86354350368E+03  0.12500469323E+03 0.  0.
          5    1    4    4  502    0  0.11371732946E+02  0.68204541138E+02 -0.66008250195E+03  0.66371091232E+03  0.47000000000E+01 0. -1.
         -5    1    4    4    0  502 -0.56787027831E+02  0.49730586599E+02 -0.18496777232E+03  0.19983259136E+03  0.47000000000E+01 0. -1.
          5    1    3    3  503    0  0.52136645855E+01 -0.10205271756E+03 -0.48814571281E+02  0.11334413011E+03  0.47000000000E+01 0. -1.
         -5    1    3    3    0  503  0.40201630300E+02 -0.15882410173E+02 -0.13726201481E+03  0.14398393223E+03  0.47000000000E+01 0. -1.
<mgrwt>
<rscale>  0 0.17775368E+03</rscale>
<asrwt>0</asrwt>
<pdfrwt beam="2">  1        5 0.16553832E+00 0.17775662E+03</pdfrwt>
<pdfrwt beam="1">  1       -5 0.69034397E-02 0.17775662E+03</pdfrwt>
<totfact> 0.25070476E+01</totfact>
</mgrwt>
</event>
<event>
 8    1  0.3573290E-007  0.1350179E+03  0.7546771E-02  0.1220195E+00
         -5   -1    0    0    0  501 -0.00000000000E+00  0.00000000000E+00  0.77222563085E+02  0.77365459021E+02  0.47000000000E+01 0.  1.
          5   -1    0    0  501    0  0.00000000000E+00 -0.00000000000E+00 -0.28221349677E+03  0.28225263109E+03  0.47000000000E+01 0.  1.
         25    2    1    2    0    0 -0.48536656304E+02  0.15814304832E+02 -0.29507621353E+02  0.13820466293E+03  0.12499571951E+03 0.  0.
         25    2    1    2    0    0  0.48536656304E+02 -0.15814304832E+02 -0.17548331233E+03  0.22141342718E+03  0.12499445422E+03 0.  0.
          5    1    3    3  502    0 -0.77813284091E+02  0.39587042002E+02 -0.43565179214E+02  0.97683447500E+02  0.47000000000E+01 0. -1.
         -5    1    3    3    0  502  0.29276627787E+02 -0.23772737171E+02  0.14057557860E+02  0.40521215433E+02  0.47000000000E+01 0. -1.
          5    1    4    4  503    0  0.61885838138E+02  0.34004549797E+02 -0.52951579800E+02  0.88386232934E+02  0.47000000000E+01 0. -1.
         -5    1    4    4    0  503 -0.13349181833E+02 -0.49818854629E+02 -0.12253173253E+03  0.13302719424E+03  0.47000000000E+01 0. -1.
<mgrwt>
<rscale>  0 0.13501759E+03</rscale>
<asrwt>0</asrwt>
<pdfrwt beam="2">  1        5 0.43431463E-01 0.13501788E+03</pdfrwt>
<pdfrwt beam="1">  1       -5 0.11894397E-01 0.13501788E+03</pdfrwt>
<totfact> 0.21782875E+02</totfact>
</mgrwt>
</event>
<event>
 8    1  0.3573290E-007  0.1717557E+03  0.7546771E-02  0.1176032E+00
          5   -1    0    0  501    0  0.00000000000E+00  0.00000000000E+00  0.82076965250E+02  0.82211423930E+02  0.47000000000E+01 0.  1.
         -5   -1    0    0    0  501 -0.00000000000E+00 -0.00000000000E+00 -0.37070468991E+03  0.37073448331E+03  0.47000000000E+01 0.  1.
         25    2    1    2    0    0  0.11760881385E+03 -0.64477740886E+01 -0.18462227153E+03  0.25215462694E+03  0.12499266321E+03 0.  0.
         25    2    1    2    0    0 -0.11760881385E+03  0.64477740886E+01 -0.10400545312E+03  0.20079128030E+03  0.12500638815E+03 0.  0.
          5    1    3    3  502    0 -0.11064937244E+02 -0.37219569522E+02 -0.36572136869E+02  0.53547552575E+02  0.47000000000E+01 0.  1.
         -5    1    3    3    0  502  0.12867375110E+03  0.30771795433E+02 -0.14805013466E+03  0.19860707437E+03  0.47000000000E+01 0.  1.
          5    1    4    4  503    0  0.83963074243E+01 -0.33601542867E+02 -0.44849769989E+01  0.35238709966E+02  0.47000000000E+01 0. -1.
         -5    1    4    4    0  503 -0.12600512128E+03  0.40049316955E+02 -0.99520476126E+02  0.16555257034E+03  0.47000000000E+01 0. -1.
<mgrwt>
<rscale>  0 0.17175315E+03</rscale>
<asrwt>0</asrwt>
<pdfrwt beam="1">  1        5 0.12639860E-01 0.17175565E+03</pdfrwt>
<pdfrwt beam="2">  1       -5 0.57044125E-01 0.17175565E+03</pdfrwt>
<totfact> 0.11835441E+02</totfact>
</mgrwt>
</event>
<event>
 8    1  0.3573290E-007  0.1340233E+03  0.7546771E-02  0.1221608E+00
          5   -1    0    0  501    0  0.00000000000E+00  0.00000000000E+00  0.10090397777E+04  0.10090507237E+04  0.47000000000E+01 0. -1.
         -5   -1    0    0    0  501 -0.00000000000E+00 -0.00000000000E+00 -0.18276408808E+02  0.18871065654E+02  0.47000000000E+01 0. -1.
         25    2    1    2    0    0 -0.10730863090E+02  0.47105516238E+02  0.38977348318E+03  0.41216932654E+03  0.12500441782E+03 0.  0.
         25    2    1    2    0    0  0.10730863090E+02 -0.47105516238E+02  0.60098988569E+03  0.61575246278E+03  0.12501268587E+03 0.  0.
          5    1    3    3  502    0  0.53367594141E+02  0.11811942179E+02  0.22876253350E+03  0.23524882320E+03  0.47000000000E+01 0. -1.
         -5    1    3    3    0  502 -0.64098457231E+02  0.35293574058E+02  0.16101094967E+03  0.17692050335E+03  0.47000000000E+01 0. -1.
          5    1    4    4  503    0 -0.32612888471E+02 -0.14513659112E+02  0.47556612900E+02  0.59648706824E+02  0.47000000000E+01 0. -1.
         -5    1    4    4    0  503  0.43343751562E+02 -0.32591857126E+02  0.55343327279E+03  0.55610375595E+03  0.47000000000E+01 0. -1.
<mgrwt>
<rscale>  0 0.13402140E+03</rscale>
<asrwt>0</asrwt>
<pdfrwt beam="1">  1        5 0.15528344E+00 0.13402333E+03</pdfrwt>
<pdfrwt beam="2">  1       -5 0.28583407E-02 0.13402333E+03</pdfrwt>
<totfact> 0.11917601E+02</totfact>
</mgrwt>
</event>
<event>
 8    1  0.3573290E-007  0.1263588E+03  0.7546771E-02  0.1232961E+00
         -5   -1    0    0    0  501 -0.00000000000E+00  0.00000000000E+00  0.54859333920E+03  0.54861347215E+03  0.47000000000E+01 0. -1.
          5   -1    0    0  501    0  0.00000000000E+00 -0.00000000000E+00 -0.31558676646E+02  0.31906740222E+02  0.47000000000E+01 0. -1.
         25    2    1    2    0    0 -0.16605133860E+02  0.80700379456E+01  0.17467598352E+03  0.21558731935E+03  0.12500134824E+03 0.  0.
         25    2    1    2    0    0  0.16605133860E+02 -0.80700379456E+01  0.34235867904E+03  0.36493289302E+03  0.12500278121E+03 0.  0.
          5    1    4    4  502    0  0.13083118394E+02 -0.14091030878E+02  0.35176094808E+03  0.35231744171E+03  0.47000000000E+01 0.  1.
         -5    1    4    4    0  502  0.35220154659E+01  0.60209929322E+01 -0.94022690359E+01  0.12615451314E+02  0.47000000000E+01 0.  1.
          5    1    3    3  503    0 -0.33594612433E+02 -0.34363083248E+02  0.16034179077E+03  0.16745446946E+03  0.47000000000E+01 0.  1.
         -5    1    3    3    0  503  0.16989478573E+02  0.42433121193E+02  0.14334192745E+02  0.48132849885E+02  0.47000000000E+01 0.  1.
<mgrwt>
<rscale>  0 0.12635847E+03</rscale>
<asrwt>0</asrwt>
<pdfrwt beam="2">  1        5 0.48835040E-02 0.12635882E+03</pdfrwt>
<pdfrwt beam="1">  1       -5 0.84427296E-01 0.12635882E+03</pdfrwt>
<totfact> 0.22665681E+02</totfact>
</mgrwt>
</event>
<event>
 8    1  0.3573290E-007  0.1326538E+03  0.7546771E-02  0.1223572E+00
         -5   -1    0    0    0  501 -0.00000000000E+00  0.00000000000E+00  0.86924734146E+03  0.86926004776E+03  0.47000000000E+01 0. -1.
          5   -1    0    0  501    0  0.00000000000E+00 -0.00000000000E+00 -0.35202545849E+02  0.35514915659E+02  0.47000000000E+01 0. -1.
         25    2    1    2    0    0  0.15880674124E+02  0.41474677962E+02  0.71287311481E+03  0.72510967812E+03  0.12499449091E+03 0.  0.
         25    2    1    2    0    0 -0.15880674124E+02 -0.41474677962E+02  0.12117168080E+03  0.17966528530E+03  0.12499877516E+03 0.  0.
          5    1    3    3  502    0  0.27285612468E+01  0.65407319948E+02  0.18129056632E+03  0.19280539926E+03  0.47000000000E+01 0.  1.
         -5    1    3    3    0  502  0.13152112877E+02 -0.23932641986E+02  0.53158254849E+03  0.53230427885E+03  0.47000000000E+01 0.  1.
          5    1    4    4  503    0 -0.68299262517E+02 -0.21361015169E+02  0.44079711857E+02  0.84179529738E+02  0.47000000000E+01 0.  1.
         -5    1    4    4    0  503  0.52418588393E+02 -0.20113662793E+02  0.77091968945E+02  0.95485755565E+02  0.47000000000E+01 0.  1.
<mgrwt>
<rscale>  0 0.13265282E+03</rscale>
<asrwt>0</asrwt>
<pdfrwt beam="2">  1        5 0.54407820E-02 0.13265383E+03</pdfrwt>
<pdfrwt beam="1">  1       -5 0.13375537E+00 0.13265383E+03</pdfrwt>
<totfact> 0.61832652E+01</totfact>
</mgrwt>
</event>
<event>
 8    1  0.3573290E-007  0.1285978E+03  0.7546771E-02  0.1229553E+00
         -5   -1    0    0    0  501 -0.00000000000E+00  0.00000000000E+00  0.80298153221E+03  0.80299528708E+03  0.47000000000E+01 0. -1.
          5   -1    0    0  501    0  0.00000000000E+00 -0.00000000000E+00 -0.21830379179E+02  0.22330594598E+02  0.47000000000E+01 0. -1.
         25    2    1    2    0    0 -0.87819288992E+01  0.28904412142E+02  0.49809285114E+03  0.51442493161E+03  0.12499573825E+03 0.  0.
         25    2    1    2    0    0  0.87819288992E+01 -0.28904412142E+02  0.28305830189E+03  0.31090095007E+03  0.12499924468E+03 0.  0.
          5    1    3    3  502    0 -0.14868432586E+01  0.59469871783E+02  0.46400002868E+03  0.46782153966E+03  0.47000000000E+01 0.  1.
         -5    1    3    3    0  502 -0.72950856406E+01 -0.30565459640E+02  0.34092822465E+02  0.46603391949E+02  0.47000000000E+01 0.  1.
          5    1    4    4  503    0 -0.28931243139E+02  0.26992650343E+02  0.19942997527E+03  0.20337164266E+03  0.47000000000E+01 0. -1.
         -5    1    4    4    0  503  0.37713172038E+02 -0.55897062486E+02  0.83628326623E+02  0.10752930742E+03  0.47000000000E+01 0. -1.
<mgrwt>
<rscale>  0 0.12859696E+03</rscale>
<asrwt>0</asrwt>
<pdfrwt beam="2">  1        5 0.33980564E-02 0.12859782E+03</pdfrwt>
<pdfrwt beam="1">  1       -5 0.12357515E+00 0.12859782E+03</pdfrwt>
<totfact> 0.16298690E+02</totfact>
</mgrwt>
</event>
<event>
 8    1  0.3573290E-007  0.1253340E+03  0.7546771E-02  0.1234549E+00
         -5   -1    0    0    0  501 -0.00000000000E+00  0.00000000000E+00  0.31298706431E+03  0.31302235132E+03  0.47000000000E+01 0. -1.
          5   -1    0    0  501    0  0.00000000000E+00 -0.00000000000E+00 -0.10040386053E+03  0.10051380607E+03  0.47000000000E+01 0. -1.
         25    2    1    2    0    0 -0.85702587981E+01 -0.31053039805E+01  0.25258775118E+03  0.28197261162E+03  0.12499955763E+03 0.  0.
         25    2    1    2    0    0  0.85702587981E+01  0.31053039805E+01 -0.40004547403E+02  0.13156354577E+03  0.12500204204E+03 0.  0.
          5    1    3    3  502    0 -0.59702002274E+01  0.60711700155E+02  0.12914454502E+03  0.14290541395E+03  0.47000000000E+01 0. -1.
         -5    1    3    3    0  502 -0.26000585707E+01 -0.63817004135E+02  0.12344320616E+03  0.13906719767E+03  0.47000000000E+01 0. -1.
          5    1    4    4  503    0 -0.75408981112E+01  0.62688439517E+02 -0.17382434299E+02  0.65657784120E+02  0.47000000000E+01 0. -1.
         -5    1    4    4    0  503  0.16111156909E+02 -0.59583135537E+02 -0.22622113104E+02  0.65905761650E+02  0.47000000000E+01 0. -1.
<mgrwt>
<rscale>  0 0.12533335E+03</rscale>
<asrwt>0</asrwt>
<pdfrwt beam="2">  1        5 0.15457920E-01 0.12533396E+03</pdfrwt>
<pdfrwt beam="1">  1       -5 0.48163026E-01 0.12533396E+03</pdfrwt>
<totfact> 0.10699517E+02</totfact>
</mgrwt>
</event>
<event>
 8    1  0.3573290E-007  0.1283684E+03  0.7546771E-02  0.1229898E+00
         -5   -1    0    0    0  501 -0.00000000000E+00  0.00000000000E+00  0.73066981225E+03  0.73068492836E+03  0.47000000000E+01 0.  1.
          5   -1    0    0  501    0  0.00000000000E+00 -0.00000000000E+00 -0.41242413919E+02  0.41509356847E+02  0.47000000000E+01 0.  1.
         25    2    1    2    0    0  0.29148511569E+02  0.17575227384E+01  0.60519218145E+03  0.61865595030E+03  0.12499953494E+03 0.  0.
         25    2    1    2    0    0 -0.29148511569E+02 -0.17575227384E+01  0.84235216881E+02  0.15353833491E+03  0.12500289561E+03 0.  0.
          5    1    3    3  502    0 -0.47813098875E+02  0.10239140943E+01  0.16893632527E+03  0.17563801645E+03  0.47000000000E+01 0. -1.
         -5    1    3    3    0  502  0.76961610443E+02  0.73360864404E+00  0.43625585618E+03  0.44301793385E+03  0.47000000000E+01 0. -1.
          5    1    4    4  503    0 -0.76562575550E+02 -0.73501246602E+01  0.34474438350E+02  0.84418180547E+02  0.47000000000E+01 0.  1.
         -5    1    4    4    0  503  0.47414063981E+02  0.55926019218E+01  0.49760778531E+02  0.69120154365E+02  0.47000000000E+01 0.  1.
<mgrwt>
<rscale>  0 0.12836759E+03</rscale>
<asrwt>0</asrwt>
<pdfrwt beam="2">  1        5 0.63666841E-02 0.12836841E+03</pdfrwt>
<pdfrwt beam="1">  1       -5 0.11243243E+00 0.12836841E+03</pdfrwt>
<totfact> 0.73276730E+01</totfact>
</mgrwt>
</event>
<event>
 8    1  0.3573290E-007  0.1889452E+03  0.7546771E-02  0.1159419E+00
          5   -1    0    0  501    0  0.00000000000E+00  0.00000000000E+00  0.11126427625E+03  0.11136350016E+03  0.47000000000E+01 0.  1.
         -5   -1    0    0    0  501 -0.00000000000E+00 -0.00000000000E+00 -0.32372918823E+03  0.32376330445E+03  0.47000000000E+01 0.  1.
         25    2    1    2    0    0 -0.82206086451E+02  0.11538276202E+03 -0.12768876603E+03  0.22804544791E+03  0.12501713051E+03 0.  0.
         25    2    1    2    0    0  0.82206086451E+02 -0.11538276202E+03 -0.84776145951E+02  0.20708135671E+03  0.12499868380E+03 0.  0.
          5    1    3    3  502    0 -0.46555582113E+02 -0.18493873897E+02 -0.34995145025E+02  0.61287810966E+02  0.47000000000E+01 0. -1.
         -5    1    3    3    0  502 -0.35650504337E+02  0.13387663592E+03 -0.92693621004E+02  0.16675763695E+03  0.47000000000E+01 0. -1.
          5    1    4    4  503    0  0.38407181582E+02 -0.10728101686E+03 -0.32852669614E+01  0.11409299345E+03  0.47000000000E+01 0.  1.
         -5    1    4    4    0  503  0.43798904869E+02 -0.81017451629E+01 -0.81490878990E+02  0.92988363255E+02  0.47000000000E+01 0.  1.
<mgrwt>
<rscale>  0 0.18894219E+03</rscale>
<asrwt>0</asrwt>
<pdfrwt beam="1">  1        5 0.17127838E-01 0.18894524E+03</pdfrwt>
<pdfrwt beam="2">  1       -5 0.49814747E-01 0.18894524E+03</pdfrwt>
<totfact> 0.93838988E+01</totfact>
</mgrwt>
</event>
<event>
 8    1  0.3573290E-007  0.1313713E+03  0.7546771E-02  0.1225438E+00
          5   -1    0    0  501    0  0.00000000000E+00  0.00000000000E+00  0.10443604424E+03  0.10454174925E+03  0.47000000000E+01 0. -1.
         -5   -1    0    0    0  501 -0.00000000000E+00 -0.00000000000E+00 -0.19386269581E+03  0.19391966075E+03  0.47000000000E+01 0. -1.
         25    2    1    2    0    0  0.24151460170E+02 -0.32377256369E+02 -0.10224935813E+03  0.16646579028E+03  0.12499739332E+03 0.  0.
         25    2    1    2    0    0 -0.24151460170E+02  0.32377256369E+02  0.12822706561E+02  0.13199561973E+03  0.12500736804E+03 0.  0.
          5    1    4    4  502    0  0.15230009422E+01 -0.38151568256E+02  0.36623806628E+02  0.53115486482E+02  0.47000000000E+01 0. -1.
         -5    1    4    4    0  502 -0.25674461112E+02  0.70528824625E+02 -0.23801100067E+02  0.78880133245E+02  0.47000000000E+01 0. -1.
          5    1    3    3  503    0 -0.11879739958E+01  0.37952557981E+02  0.17495807368E+01  0.38300900411E+02  0.47000000000E+01 0.  1.
         -5    1    3    3    0  503  0.25339434166E+02 -0.70329814350E+02 -0.10399893886E+03  0.12816488987E+03  0.47000000000E+01 0.  1.
<mgrwt>
<rscale>  0 0.13136894E+03</rscale>
<asrwt>0</asrwt>
<pdfrwt beam="1">  1        5 0.16079597E-01 0.13137131E+03</pdfrwt>
<pdfrwt beam="2">  1       -5 0.29837543E-01 0.13137131E+03</pdfrwt>
<totfact> 0.26736615E+02</totfact>
</mgrwt>
</event>
<event>
 8    1  0.3573290E-007  0.1304623E+03  0.7546771E-02  0.1226772E+00
          5   -1    0    0  501    0  0.00000000000E+00  0.00000000000E+00  0.84316690334E+02  0.84447582967E+02  0.47000000000E+01 0.  1.
         -5   -1    0    0    0  501 -0.00000000000E+00 -0.00000000000E+00 -0.20405280752E+03  0.20410692849E+03  0.47000000000E+01 0.  1.
         25    2    1    2    0    0  0.33165847155E+02  0.17185925472E+02 -0.75847228176E+02  0.15090773910E+03  0.12500005699E+03 0.  0.
         25    2    1    2    0    0 -0.33165847155E+02 -0.17185925472E+02 -0.43888889007E+02  0.13764677235E+03  0.12500027963E+03 0.  0.
          5    1    3    3  502    0  0.11223715102E+02  0.25866034846E+02  0.30541808205E+02  0.41831992395E+02  0.47000000000E+01 0.  1.
         -5    1    3    3    0  502  0.21942132053E+02 -0.86801093739E+01 -0.10638903638E+03  0.10907574671E+03  0.47000000000E+01 0.  1.
          5    1    4    4  503    0 -0.57914593888E+02 -0.51186475905E+01 -0.75535837103E+02  0.95436122224E+02  0.47000000000E+01 0.  1.
         -5    1    4    4    0  503  0.24748746733E+02 -0.12067277881E+02  0.31646948096E+02  0.42210650126E+02  0.47000000000E+01 0.  1.
<mgrwt>
<rscale>  0 0.13046220E+03</rscale>
<asrwt>0</asrwt>
<pdfrwt beam="1">  1        5 0.12986030E-01 0.13046225E+03</pdfrwt>
<pdfrwt beam="2">  1       -5 0.31406971E-01 0.13046225E+03</pdfrwt>
<totfact> 0.35439671E+02</totfact>
</mgrwt>
</event>
<event>
 8    1  0.3573290E-007  0.1269173E+03  0.7546771E-02  0.1232105E+00
         -5   -1    0    0    0  501 -0.00000000000E+00  0.00000000000E+00  0.10647526682E+03  0.10657894935E+03  0.47000000000E+01 0.  1.
          5   -1    0    0  501    0  0.00000000000E+00 -0.00000000000E+00 -0.15820528625E+03  0.15827508521E+03  0.47000000000E+01 0.  1.
         25    2    1    2    0    0 -0.19948782110E+02  0.91418815751E+01  0.22576789951E+01  0.12693733806E+03  0.12500585095E+03 0.  0.
         25    2    1    2    0    0  0.19948782110E+02 -0.91418815751E+01 -0.53987698420E+02  0.13791669650E+03  0.12499926275E+03 0.  0.
          5    1    4    4  502    0  0.70927774162E+02  0.10921147538E+02 -0.29863492275E+02  0.77871296264E+02  0.47000000000E+01 0.  1.
         -5    1    4    4    0  502 -0.50978992052E+02 -0.20063029113E+02 -0.24124206146E+02  0.60045400240E+02  0.47000000000E+01 0.  1.
          5    1    3    3  503    0 -0.72467388701E+02  0.14001608991E+02  0.60597474430E+00  0.73959615229E+02  0.47000000000E+01 0.  1.
         -5    1    3    3    0  503  0.52518606591E+02 -0.48597274162E+01  0.16517042508E+01  0.52977722826E+02  0.47000000000E+01 0.  1.
<mgrwt>
<rscale>  0 0.12691564E+03</rscale>
<asrwt>0</asrwt>
<pdfrwt beam="2">  1        5 0.24352620E-01 0.12691726E+03</pdfrwt>
<pdfrwt beam="1">  1       -5 0.16394155E-01 0.12691726E+03</pdfrwt>
<totfact> 0.37737528E+02</totfact>
</mgrwt>
</event>
<event>
 8    1  0.3573290E-007  0.1292676E+03  0.7546771E-02  0.1228553E+00
          5   -1    0    0  501    0  0.00000000000E+00  0.00000000000E+00  0.25204485384E+03  0.25208867159E+03  0.47000000000E+01 0. -1.
         -5   -1    0    0    0  501 -0.00000000000E+00 -0.00000000000E+00 -0.77774454275E+02  0.77916338067E+02  0.47000000000E+01 0. -1.
         25    2    1    2    0    0 -0.23832501653E+02 -0.22852811547E+02  0.23440149552E+02  0.13135991160E+03  0.12496298106E+03 0.  0.
         25    2    1    2    0    0  0.23832501653E+02  0.22852811547E+02  0.15083025001E+03  0.19864509806E+03  0.12497948445E+03 0.  0.
          5    1    3    3  502    0 -0.51697321265E+01  0.51014815587E+02  0.19043740553E+02  0.54899832367E+02  0.47000000000E+01 0.  1.
         -5    1    3    3    0  502 -0.18662769526E+02 -0.73867627134E+02  0.43964089991E+01  0.76460079237E+02  0.47000000000E+01 0.  1.
          5    1    4    4  503    0  0.11245845875E+02 -0.51563216614E+02  0.72178159184E+02  0.89537763096E+02  0.47000000000E+01 0.  1.
         -5    1    4    4    0  503  0.12586655778E+02  0.74416028161E+02  0.78652090827E+02  0.10910733496E+03  0.47000000000E+01 0.  1.
<mgrwt>
<rscale>  0 0.12926360E+03</rscale>
<asrwt>0</asrwt>
<pdfrwt beam="1">  1        5 0.38790416E-01 0.12926759E+03</pdfrwt>
<pdfrwt beam="2">  1       -5 0.11979585E-01 0.12926759E+03</pdfrwt>
<totfact> 0.26711248E+02</totfact>
</mgrwt>
</event>
<event>
 8    1  0.3573290E-007  0.1704610E+03  0.7546771E-02  0.1177369E+00
         -5   -1    0    0    0  501 -0.00000000000E+00  0.00000000000E+00  0.56638388108E+03  0.56640338165E+03  0.47000000000E+01 0. -1.
          5   -1    0    0  501    0  0.00000000000E+00 -0.00000000000E+00 -0.84921347036E+02  0.85051309116E+02  0.47000000000E+01 0. -1.
         25    2    1    2    0    0 -0.11247194617E+03  0.27965766056E+02  0.44583851902E+03  0.47731429245E+03  0.12499970395E+03 0.  0.
         25    2    1    2    0    0  0.11247194617E+03 -0.27965766056E+02  0.35624015026E+02  0.17414039832E+03  0.12499514044E+03 0.  0.
          5    1    3    3  502    0 -0.87248665787E+02  0.75913509242E+02  0.28909394934E+03  0.31140422623E+03  0.47000000000E+01 0.  1.
         -5    1    3    3    0  502 -0.25223280387E+02 -0.47947743186E+02  0.15674456968E+03  0.16591006622E+03  0.47000000000E+01 0.  1.
          5    1    4    4  503    0  0.96535141997E+02 -0.73390252753E+02  0.32699382715E+02  0.12568413770E+03  0.47000000000E+01 0.  1.
         -5    1    4    4    0  503  0.15936804177E+02  0.45424486697E+02  0.29246323104E+01  0.48456260619E+02  0.47000000000E+01 0.  1.
<mgrwt>
<rscale>  0 0.17046015E+03</rscale>
<asrwt>0</asrwt>
<pdfrwt beam="2">  1        5 0.13076320E-01 0.17046099E+03</pdfrwt>
<pdfrwt beam="1">  1       -5 0.87147478E-01 0.17046099E+03</pdfrwt>
<totfact> 0.42506445E+01</totfact>
</mgrwt>
</event>
<event>
 8    1  0.3573290E-007  0.1274841E+03  0.7546771E-02  0.1231238E+00
         -5   -1    0    0    0  501 -0.00000000000E+00  0.00000000000E+00  0.98237025356E+01  0.10890139187E+02  0.47000000000E+01 0.  1.
          5   -1    0    0  501    0  0.00000000000E+00 -0.00000000000E+00 -0.16604265324E+04  0.16604331843E+04  0.47000000000E+01 0.  1.
         25    2    1    2    0    0  0.14633041339E+02  0.20328920430E+02 -0.62834724917E+03  0.64114933141E+03  0.12499923486E+03 0.  0.
         25    2    1    2    0    0 -0.14633041339E+02 -0.20328920430E+02 -0.10222555807E+04  0.10301739921E+04  0.12499836312E+03 0.  0.
          5    1    4    4  502    0 -0.13215611468E+02 -0.81807943640E+01 -0.10151288019E+04  0.10152586627E+04  0.47000000000E+01 0.  1.
         -5    1    4    4    0  502 -0.14174298710E+01 -0.12148126066E+02 -0.71267788313E+01  0.14915329391E+02  0.47000000000E+01 0.  1.
          5    1    3    3  503    0  0.20355950608E+02 -0.50935428272E+02 -0.30869455439E+03  0.31356530498E+03  0.47000000000E+01 0. -1.
         -5    1    3    3    0  503 -0.57229092692E+01  0.71264348702E+02 -0.31965269479E+03  0.32758402643E+03  0.47000000000E+01 0. -1.
<mgrwt>
<rscale>  0 0.12748390E+03</rscale>
<asrwt>0</asrwt>
<pdfrwt beam="2">  1        5 0.25553257E+00 0.12748412E+03</pdfrwt>
<pdfrwt beam="1">  1       -5 0.15938854E-02 0.12748412E+03</pdfrwt>
<totfact> 0.62045145E+01</totfact>
</mgrwt>
</event>
<event>
 8    1  0.3573290E-007  0.1776575E+03  0.7546771E-02  0.1170091E+00
         -5   -1    0    0    0  501 -0.00000000000E+00  0.00000000000E+00  0.22398176108E+03  0.22403106770E+03  0.47000000000E+01 0.  1.
          5   -1    0    0  501    0  0.00000000000E+00 -0.00000000000E+00 -0.14087050581E+03  0.14094888934E+03  0.47000000000E+01 0.  1.
         25    2    1    2    0    0 -0.26860144383E+02  0.12334893700E+03  0.37683240252E+02  0.18161003126E+03  0.12500299694E+03 0.  0.
         25    2    1    2    0    0  0.26860144383E+02 -0.12334893700E+03  0.45428015018E+02  0.18336992578E+03  0.12499759005E+03 0.  0.
          5    1    3    3  502    0  0.45856945806E+01  0.10687779249E+03  0.74348608631E+02  0.13035987392E+03  0.47000000000E+01 0. -1.
         -5    1    3    3    0  502 -0.31445838964E+02  0.16471144509E+02 -0.36665368379E+02  0.51250157345E+02  0.47000000000E+01 0. -1.
          5    1    4    4  503    0 -0.22144332041E+02 -0.10221789800E+03  0.68422880790E+02  0.12507058298E+03  0.47000000000E+01 0.  1.
         -5    1    4    4    0  503  0.49004476424E+02 -0.21131039005E+02 -0.22994865772E+02  0.58299342800E+02  0.47000000000E+01 0.  1.
<mgrwt>
<rscale>  0 0.17765652E+03</rscale>
<asrwt>0</asrwt>
<pdfrwt beam="2">  1        5 0.21682208E-01 0.17765747E+03</pdfrwt>
<pdfrwt beam="1">  1       -5 0.34468555E-01 0.17765747E+03</pdfrwt>
<totfact> 0.12707542E+02</totfact>
</mgrwt>
</event>
<event>
 8    1  0.3573290E-007  0.1251560E+03  0.7546771E-02  0.1234830E+00
          5   -1    0    0  501    0  0.00000000000E+00  0.00000000000E+00  0.14849233474E+03  0.14856669707E+03  0.47000000000E+01 0. -1.
         -5   -1    0    0    0  501 -0.00000000000E+00 -0.00000000000E+00 -0.13107892150E+03  0.13116315665E+03  0.47000000000E+01 0. -1.
         25    2    1    2    0    0  0.60120171043E+01 -0.35742334653E+00 -0.53249804594E+02  0.13601311225E+03  0.12501101117E+03 0.  0.
         25    2    1    2    0    0 -0.60120171043E+01  0.35742334653E+00  0.70663217840E+02  0.14371674146E+03  0.12499975728E+03 0.  0.
          5    1    3    3  502    0  0.39256642023E+02 -0.15445569107E+02 -0.79963755894E+02  0.90531440973E+02  0.47000000000E+01 0. -1.
         -5    1    3    3    0  502 -0.33244624918E+02  0.15088145761E+02  0.26713951300E+02  0.45481671281E+02  0.47000000000E+01 0. -1.
          5    1    4    4  503    0 -0.71960250291E+01  0.62303808613E+02  0.32463033630E+02  0.70777721752E+02  0.47000000000E+01 0.  1.
         -5    1    4    4    0  503  0.11840079248E+01 -0.61946385266E+02  0.38200184209E+02  0.72939019708E+02  0.47000000000E+01 0.  1.
<mgrwt>
<rscale>  0 0.12515319E+03</rscale>
<asrwt>0</asrwt>
<pdfrwt beam="1">  1        5 0.22857174E-01 0.12515600E+03</pdfrwt>
<pdfrwt beam="2">  1       -5 0.20178188E-01 0.12515600E+03</pdfrwt>
<totfact> 0.28874645E+02</totfact>
</mgrwt>
</event>
<event>
 8    1  0.3573290E-007  0.1673424E+03  0.7546771E-02  0.1180650E+00
         -5   -1    0    0    0  501 -0.00000000000E+00  0.00000000000E+00  0.80737825343E+02  0.80874510454E+02  0.47000000000E+01 0.  1.
          5   -1    0    0  501    0  0.00000000000E+00 -0.00000000000E+00 -0.38190987830E+03  0.38193879764E+03  0.47000000000E+01 0.  1.
         25    2    1    2    0    0  0.10218708026E+03 -0.43969796733E+02 -0.80018653851E+02  0.18548264502E+03  0.12500113696E+03 0.  0.
         25    2    1    2    0    0 -0.10218708026E+03  0.43969796733E+02 -0.22115339911E+03  0.27733066308E+03  0.12501171285E+03 0.  0.
          5    1    3    3  502    0  0.69527716461E+02 -0.60484083934E+02  0.54034516640E+01  0.92432218709E+02  0.47000000000E+01 0.  1.
         -5    1    3    3    0  502  0.32659363798E+02  0.16514287201E+02 -0.85422105515E+02  0.93050426308E+02  0.47000000000E+01 0.  1.
          5    1    4    4  503    0 -0.70367371746E+02  0.68291331030E+02 -0.69176248381E+02  0.12009461370E+03  0.47000000000E+01 0.  1.
         -5    1    4    4    0  503 -0.31819708514E+02 -0.24321534297E+02 -0.15197715073E+03  0.15723604938E+03  0.47000000000E+01 0.  1.
<mgrwt>
<rscale>  0 0.16734040E+03</rscale>
<asrwt>0</asrwt>
<pdfrwt beam="2">  1        5 0.58768103E-01 0.16734238E+03</pdfrwt>
<pdfrwt beam="1">  1       -5 0.12433943E-01 0.16734238E+03</pdfrwt>
<totfact> 0.11333212E+02</totfact>
</mgrwt>
</event>
<event>
 8    1  0.3573290E-007  0.1347266E+03  0.7546771E-02  0.1220610E+00
          5   -1    0    0  501    0  0.00000000000E+00  0.00000000000E+00  0.54158913942E+03  0.54160953273E+03  0.47000000000E+01 0. -1.
         -5   -1    0    0    0  501 -0.00000000000E+00 -0.00000000000E+00 -0.40587874746E+02  0.40859094170E+02  0.47000000000E+01 0. -1.
         25    2    1    2    0    0  0.50205424920E+02  0.21770374548E+01  0.12780525219E+03  0.18570257476E+03  0.12500375834E+03 0.  0.
         25    2    1    2    0    0 -0.50205424920E+02 -0.21770374548E+01  0.37319601249E+03  0.39676605214E+03  0.12499084852E+03 0.  0.
          5    1    4    4  502    0 -0.28949478207E+01  0.53121558465E+02  0.22939459012E+03  0.23552971930E+03  0.47000000000E+01 0. -1.
         -5    1    4    4    0  502 -0.47310477100E+02 -0.55298595919E+02  0.14380142237E+03  0.16123633284E+03  0.47000000000E+01 0. -1.
          5    1    3    3  503    0  0.87566792582E+02  0.24148875885E+02  0.81943823586E+02  0.12242545321E+03  0.47000000000E+01 0.  1.
         -5    1    3    3    0  503 -0.37361367662E+02 -0.21971838430E+02  0.45861428604E+02  0.63277121546E+02  0.47000000000E+01 0.  1.
<mgrwt>
<rscale>  0 0.13472363E+03</rscale>
<asrwt>0</asrwt>
<pdfrwt beam="1">  1        5 0.83343834E-01 0.13472663E+03</pdfrwt>
<pdfrwt beam="2">  1       -5 0.62667205E-02 0.13472663E+03</pdfrwt>
<totfact> 0.15748371E+02</totfact>
</mgrwt>
</event>
<event>
 8    1  0.3573290E-007  0.1251187E+03  0.7546771E-02  0.1234894E+00
         -5   -1    0    0    0  501 -0.00000000000E+00  0.00000000000E+00  0.40084459385E+02  0.40359061984E+02  0.47000000000E+01 0. -1.
          5   -1    0    0  501    0  0.00000000000E+00 -0.00000000000E+00 -0.46896874776E+03  0.46899229884E+03  0.47000000000E+01 0. -1.
         25    2    1    2    0    0  0.75327114318E+00 -0.49956090875E+01 -0.10918839187E+03  0.16604367583E+03  0.12499149506E+03 0.  0.
         25    2    1    2    0    0 -0.75327114318E+00  0.49956090875E+01 -0.31969589650E+03  0.34330768499E+03  0.12501670611E+03 0.  0.
          5    1    3    3  502    0 -0.46456656024E+02 -0.25020213039E+02 -0.94714183549E+01  0.53814772276E+02  0.47000000000E+01 0.  1.
         -5    1    3    3    0  502  0.47209927167E+02  0.20024603951E+02 -0.99716973517E+02  0.11222890356E+03  0.47000000000E+01 0.  1.
          5    1    4    4  503    0  0.21454624264E+02  0.60702571489E+02 -0.15156379141E+03  0.16473850780E+03  0.47000000000E+01 0. -1.
         -5    1    4    4    0  503 -0.22207895408E+02 -0.55706962402E+02 -0.16813210510E+03  0.17856917719E+03  0.47000000000E+01 0. -1.
<mgrwt>
<rscale>  0 0.12511245E+03</rscale>
<asrwt>0</asrwt>
<pdfrwt beam="2">  1        5 0.72171969E-01 0.12511874E+03</pdfrwt>
<pdfrwt beam="1">  1       -5 0.61897751E-02 0.12511874E+03</pdfrwt>
<totfact> 0.21807462E+02</totfact>
</mgrwt>
</event>
<event>
 8    1  0.3573290E-007  0.1414382E+03  0.7546771E-02  0.1211409E+00
          5   -1    0    0  501    0  0.00000000000E+00  0.00000000000E+00  0.13485513619E+04  0.13485595522E+04  0.47000000000E+01 0. -1.
         -5   -1    0    0    0  501 -0.00000000000E+00 -0.00000000000E+00 -0.15255448280E+02  0.15963041760E+02  0.47000000000E+01 0. -1.
         25    2    1    2    0    0  0.62397993246E+02 -0.22011460922E+02  0.51378780845E+03  0.53289870411E+03  0.12500041105E+03 0.  0.
         25    2    1    2    0    0 -0.62397993246E+02  0.22011460922E+02  0.81950810520E+03  0.83162388982E+03  0.12500698243E+03 0.  0.
          5    1    4    4  502    0  0.17530241296E+02  0.49339858156E+02  0.22105777188E+03  0.22722314906E+03  0.47000000000E+01 0. -1.
         -5    1    4    4    0  502 -0.79928234542E+02 -0.27328397234E+02  0.59845033332E+03  0.60440074075E+03  0.47000000000E+01 0. -1.
          5    1    3    3  503    0  0.38662972839E+02 -0.30586219055E+02  0.57485928591E+02  0.75875320432E+02  0.47000000000E+01 0. -1.
         -5    1    3    3    0  503  0.23735020407E+02  0.85747581326E+01  0.45630187986E+03  0.45702338368E+03  0.47000000000E+01 0. -1.
<mgrwt>
<rscale>  0 0.14143673E+03</rscale>
<asrwt>0</asrwt>
<pdfrwt beam="1">  1        5 0.20752455E+00 0.14143818E+03</pdfrwt>
<pdfrwt beam="2">  1       -5 0.24020518E-02 0.14143818E+03</pdfrwt>
<totfact> 0.68007958E+01</totfact>
</mgrwt>
</event>
<event>
 8    1  0.3573290E-007  0.1441589E+03  0.7546771E-02  0.1207843E+00
         -5   -1    0    0    0  501 -0.00000000000E+00  0.00000000000E+00  0.56922870992E+02  0.57116575895E+02  0.47000000000E+01 0. -1.
          5   -1    0    0  501    0  0.00000000000E+00 -0.00000000000E+00 -0.36459573400E+03  0.36462602657E+03  0.47000000000E+01 0. -1.
         25    2    1    2    0    0  0.71315574302E+02  0.82442684897E+01 -0.16050143480E+03  0.21572992001E+03  0.12499923486E+03 0.  0.
         25    2    1    2    0    0 -0.71315574302E+02 -0.82442684897E+01 -0.14717142821E+03  0.20601268245E+03  0.12501166725E+03 0.  0.
          5    1    3    3  502    0  0.57379353758E+02  0.31101240584E+02 -0.17362593092E+03  0.18554711340E+03  0.47000000000E+01 0. -1.
         -5    1    3    3    0  502  0.13936220544E+02 -0.22856972094E+02  0.13124496125E+02  0.30182806611E+02  0.47000000000E+01 0. -1.
          5    1    4    4  503    0 -0.31613818695E+02 -0.61918661703E+02 -0.42024383334E+02  0.81372556764E+02  0.47000000000E+01 0.  1.
         -5    1    4    4    0  503 -0.39701755606E+02  0.53674393213E+02 -0.10514704488E+03  0.12464012569E+03  0.47000000000E+01 0.  1.
<mgrwt>
<rscale>  0 0.14415623E+03</rscale>
<asrwt>0</asrwt>
<pdfrwt beam="2">  1        5 0.56108880E-01 0.14415893E+03</pdfrwt>
<pdfrwt beam="1">  1       -5 0.87745956E-02 0.14415893E+03</pdfrwt>
<totfact> 0.22045981E+02</totfact>
</mgrwt>
</event>
<event>
 8    1  0.3573290E-007  0.1482374E+03  0.7546771E-02  0.1202656E+00
          5   -1    0    0  501    0  0.00000000000E+00  0.00000000000E+00  0.88257175314E+02  0.88382232346E+02  0.47000000000E+01 0.  1.
         -5   -1    0    0    0  501 -0.00000000000E+00 -0.00000000000E+00 -0.33122582332E+03  0.33125916747E+03  0.47000000000E+01 0.  1.
         25    2    1    2    0    0 -0.73494199832E+02 -0.30773841040E+02 -0.22621901852E+03  0.27046141423E+03  0.12500362214E+03 0.  0.
         25    2    1    2    0    0  0.73494199832E+02  0.30773841040E+02 -0.16749629480E+02  0.14917998558E+03  0.12500276520E+03 0.  0.
          5    1    4    4  502    0  0.33826652871E+02  0.60422447665E+02  0.34714466596E+02  0.77603471683E+02  0.47000000000E+01 0.  1.
         -5    1    4    4    0  502  0.39667546962E+02 -0.29648606625E+02 -0.51464096076E+02  0.71576513897E+02  0.47000000000E+01 0.  1.
          5    1    3    3  503    0 -0.18478931311E+02 -0.57138079647E+02 -0.19008688004E+03  0.19940246491E+03  0.47000000000E+01 0.  1.
         -5    1    3    3    0  503 -0.55015268522E+02  0.26364238607E+02 -0.36132138480E+02  0.71058949324E+02  0.47000000000E+01 0.  1.
<mgrwt>
<rscale>  0 0.14823724E+03</rscale>
<asrwt>0</asrwt>
<pdfrwt beam="1">  1        5 0.13590212E-01 0.14823742E+03</pdfrwt>
<pdfrwt beam="2">  1       -5 0.50970003E-01 0.14823742E+03</pdfrwt>
<totfact> 0.12656970E+02</totfact>
</mgrwt>
</event>
<event>
 8    1  0.3573290E-007  0.1305394E+03  0.7546771E-02  0.1226658E+00
          5   -1    0    0  501    0  0.00000000000E+00  0.00000000000E+00  0.31929032379E+02  0.32273101937E+02  0.47000000000E+01 0.  1.
         -5   -1    0    0    0  501 -0.00000000000E+00 -0.00000000000E+00 -0.63269197268E+03  0.63270942959E+03  0.47000000000E+01 0.  1.
         25    2    1    2    0    0  0.33761541397E+02  0.16588824353E+02 -0.43398168436E+03  0.45318940738E+03  0.12500202331E+03 0.  0.
         25    2    1    2    0    0 -0.33761541397E+02 -0.16588824353E+02 -0.16678125594E+03  0.21179312415E+03  0.12500123732E+03 0.  0.
          5    1    4    4  502    0 -0.78695770910E+02 -0.25963417952E+02 -0.91870221601E+02  0.12381175650E+03  0.47000000000E+01 0.  1.
         -5    1    4    4    0  502  0.44934229514E+02  0.93745935999E+01 -0.74911034341E+02  0.87981367648E+02  0.47000000000E+01 0.  1.
          5    1    3    3  503    0  0.21246711186E+02 -0.53796986925E+02 -0.16862616090E+03  0.17833230408E+03  0.47000000000E+01 0. -1.
         -5    1    3    3    0  503  0.12514830211E+02  0.70385811277E+02 -0.26535552346E+03  0.27485710330E+03  0.47000000000E+01 0. -1.
<mgrwt>
<rscale>  0 0.13053922E+03</rscale>
<asrwt>0</asrwt>
<pdfrwt beam="1">  1        5 0.49399690E-02 0.13053941E+03</pdfrwt>
<pdfrwt beam="2">  1       -5 0.97365027E-01 0.13053941E+03</pdfrwt>
<totfact> 0.16038746E+02</totfact>
</mgrwt>
</event>
<event>
 8    1  0.3573290E-007  0.1350825E+03  0.7546771E-02  0.1220105E+00
         -5   -1    0    0    0  501 -0.00000000000E+00  0.00000000000E+00  0.21484085483E+03  0.21489225883E+03  0.47000000000E+01 0.  1.
          5   -1    0    0  501    0  0.00000000000E+00 -0.00000000000E+00 -0.85331561774E+02  0.85460900035E+02  0.47000000000E+01 0.  1.
         25    2    1    2    0    0 -0.34024640273E+02  0.38253899550E+02  0.52952884179E+02  0.14508508459E+03  0.12499854739E+03 0.  0.
         25    2    1    2    0    0  0.34024640273E+02 -0.38253899550E+02  0.76556408878E+02  0.15526807428E+03  0.12500501659E+03 0.  0.
          5    1    4    4  502    0  0.13184954495E+02 -0.74121712362E+02  0.91557261200E+01  0.75985449852E+02  0.47000000000E+01 0.  1.
         -5    1    4    4    0  502  0.20839685778E+02  0.35867812812E+02  0.67400682758E+02  0.79282624423E+02  0.47000000000E+01 0.  1.
          5    1    3    3  503    0 -0.65263223872E+02  0.63642232589E+02  0.21479229242E+02  0.93771367954E+02  0.47000000000E+01 0. -1.
         -5    1    3    3    0  503  0.31238583599E+02 -0.25388333039E+02  0.31473654937E+02  0.51313716635E+02  0.47000000000E+01 0. -1.
<mgrwt>
<rscale>  0 0.13508104E+03</rscale>
<asrwt>0</asrwt>
<pdfrwt beam="2">  1        5 0.13141836E-01 0.13508253E+03</pdfrwt>
<pdfrwt beam="1">  1       -5 0.33066342E-01 0.13508253E+03</pdfrwt>
<totfact> 0.31719716E+02</totfact>
</mgrwt>
</event>
<event>
 8    1  0.3573290E-007  0.1303951E+03  0.7546771E-02  0.1226873E+00
          5   -1    0    0  501    0  0.00000000000E+00  0.00000000000E+00  0.11680253596E+03  0.11689705902E+03  0.47000000000E+01 0. -1.
         -5   -1    0    0    0  501 -0.00000000000E+00 -0.00000000000E+00 -0.14781210867E+03  0.14788681304E+03  0.47000000000E+01 0. -1.
         25    2    1    2    0    0 -0.18689315118E+01 -0.37091455879E+02  0.14969703496E+01  0.13039803131E+03  0.12498854606E+03 0.  0.
         25    2    1    2    0    0  0.18689315118E+01  0.37091455879E+02 -0.32506543060E+02  0.13438584074E+03  0.12499443926E+03 0.  0.
          5    1    4    4  502    0 -0.28395262695E+02  0.73348628602E+02 -0.37293993894E+01  0.78881624484E+02  0.47000000000E+01 0.  1.
         -5    1    4    4    0  502  0.30264194207E+02 -0.36257172724E+02 -0.28777143671E+02  0.55504216261E+02  0.47000000000E+01 0.  1.
          5    1    3    3  503    0  0.79695859562E+01  0.18659607968E+02 -0.49723184537E+02  0.53909000644E+02  0.47000000000E+01 0.  1.
         -5    1    3    3    0  503 -0.98385174680E+01 -0.55751063847E+02  0.51220154887E+02  0.76489030669E+02  0.47000000000E+01 0.  1.
<mgrwt>
<rscale>  0 0.13039368E+03</rscale>
<asrwt>0</asrwt>
<pdfrwt beam="1">  1        5 0.17982638E-01 0.13039509E+03</pdfrwt>
<pdfrwt beam="2">  1       -5 0.22753342E-01 0.13039509E+03</pdfrwt>
<totfact> 0.36604042E+02</totfact>
</mgrwt>
</event>
<event>
 8    1  0.3573290E-007  0.1417861E+03  0.7546771E-02  0.1210946E+00
         -5   -1    0    0    0  501 -0.00000000000E+00  0.00000000000E+00  0.24295154768E+03  0.24299700516E+03  0.47000000000E+01 0. -1.
          5   -1    0    0  501    0  0.00000000000E+00 -0.00000000000E+00 -0.82647545151E+02  0.82781077062E+02  0.47000000000E+01 0. -1.
         25    2    1    2    0    0  0.58803432827E+02 -0.31921812351E+02  0.82841912146E+02  0.16421177041E+03  0.12500350922E+03 0.  0.
         25    2    1    2    0    0 -0.58803432827E+02  0.31921812351E+02  0.77462090379E+02  0.16156631182E+03  0.12500580727E+03 0.  0.
          5    1    4    4  502    0 -0.15403373913E+02  0.69129814264E+02  0.79206854627E+01  0.71421442202E+02  0.47000000000E+01 0.  1.
         -5    1    4    4    0  502 -0.43400058914E+02 -0.37208001913E+02  0.69541404917E+02  0.90144869615E+02  0.47000000000E+01 0.  1.
          5    1    3    3  503    0  0.24827830610E+02 -0.10626262047E+02 -0.32202045561E+02  0.42289482808E+02  0.47000000000E+01 0. -1.
         -5    1    3    3    0  503  0.33975602217E+02 -0.21295550305E+02  0.11504395771E+03  0.12192228760E+03  0.47000000000E+01 0. -1.
<mgrwt>
<rscale>  0 0.14178559E+03</rscale>
<asrwt>0</asrwt>
<pdfrwt beam="2">  1        5 0.12728776E-01 0.14178610E+03</pdfrwt>
<pdfrwt beam="1">  1       -5 0.37390929E-01 0.14178610E+03</pdfrwt>
<totfact> 0.26678695E+02</totfact>
</mgrwt>
</event>
<event>
 8    1  0.3573290E-007  0.1293361E+03  0.7546771E-02  0.1228475E+00
          5   -1    0    0  501    0  0.00000000000E+00  0.00000000000E+00  0.16018235233E+03  0.16025129016E+03  0.47000000000E+01 0. -1.
         -5   -1    0    0    0  501 -0.00000000000E+00 -0.00000000000E+00 -0.11971061589E+03  0.11980284453E+03  0.47000000000E+01 0. -1.
         25    2    1    2    0    0 -0.16682117517E+02 -0.28720515413E+02 -0.30097549105E+02  0.13279191784E+03  0.12499867971E+03 0.  0.
         25    2    1    2    0    0  0.16682117517E+02  0.28720515413E+02  0.70569285548E+02  0.14726221685E+03  0.12491187053E+03 0.  0.
          5    1    3    3  502    0 -0.50287995145E+02 -0.63052281941E+02 -0.23032990627E+02  0.84006436485E+02  0.47000000000E+01 0.  1.
         -5    1    3    3    0  502  0.33605877628E+02  0.34331766527E+02 -0.70645584776E+01  0.48785481350E+02  0.47000000000E+01 0.  1.
          5    1    4    4  503    0  0.51970692793E+02 -0.30078079173E+02  0.37848291970E+02  0.71135272271E+02  0.47000000000E+01 0.  1.
         -5    1    4    4    0  503 -0.35288575275E+02  0.58798594587E+02  0.32720993578E+02  0.76126944580E+02  0.47000000000E+01 0.  1.
<mgrwt>
<rscale>  0 0.12931514E+03</rscale>
<asrwt>0</asrwt>
<pdfrwt beam="1">  1        5 0.24655836E-01 0.12933612E+03</pdfrwt>
<pdfrwt beam="2">  1       -5 0.18429415E-01 0.12933612E+03</pdfrwt>
<totfact> 0.29940753E+02</totfact>
</mgrwt>
</event>
<event>
 8    1  0.3573290E-007  0.1403798E+03  0.7546771E-02  0.1212820E+00
          5   -1    0    0  501    0  0.00000000000E+00  0.00000000000E+00  0.32273834004E+03  0.32277256099E+03  0.47000000000E+01 0.  1.
         -5   -1    0    0    0  501 -0.00000000000E+00 -0.00000000000E+00 -0.61264663825E+02  0.61444682712E+02  0.47000000000E+01 0.  1.
         25    2    1    2    0    0  0.44746249260E+02 -0.45599413164E+02  0.11657789796E+03  0.18247433519E+03  0.12499977362E+03 0.  0.
         25    2    1    2    0    0 -0.44746249260E+02  0.45599413164E+02  0.14489577825E+03  0.20174290852E+03  0.12499552504E+03 0.  0.
          5    1    3    3  502    0  0.83510379839E+02 -0.11012403606E+02  0.50631945319E+02  0.98391770290E+02  0.47000000000E+01 0. -1.
         -5    1    3    3    0  502 -0.38764130579E+02 -0.34587009558E+02  0.65945952643E+02  0.84082564898E+02  0.47000000000E+01 0. -1.
          5    1    4    4  503    0  0.82558443355E+01 -0.27831113468E+02 -0.16000854764E+01  0.29451317731E+02  0.47000000000E+01 0. -1.
         -5    1    4    4    0  503 -0.53002093595E+02  0.73430526632E+02  0.14649586373E+03  0.17229159079E+03  0.47000000000E+01 0. -1.
<mgrwt>
<rscale>  0 0.14037881E+03</rscale>
<asrwt>0</asrwt>
<pdfrwt beam="1">  1        5 0.49668533E-01 0.14037976E+03</pdfrwt>
<pdfrwt beam="2">  1       -5 0.94418128E-02 0.14037976E+03</pdfrwt>
<totfact> 0.24983545E+02</totfact>
</mgrwt>
</event>
<event>
 8    1  0.3573290E-007  0.1494150E+03  0.7546771E-02  0.1201198E+00
          5   -1    0    0  501    0  0.00000000000E+00  0.00000000000E+00  0.17558927620E+04  0.17558990523E+04  0.47000000000E+01 0. -1.
         -5   -1    0    0    0  501 -0.00000000000E+00 -0.00000000000E+00 -0.14029005962E+02  0.14795371178E+02  0.47000000000E+01 0. -1.
         25    2    1    2    0    0 -0.80185867732E+02  0.16352139962E+02  0.56641218165E+03  0.58578461642E+03  0.12499476567E+03 0.  0.
         25    2    1    2    0    0  0.80185867732E+02 -0.16352139962E+02  0.11754515744E+04  0.11849098070E+04  0.12501072402E+03 0.  0.
          5    1    4    4  502    0 -0.30767209912E+02 -0.80304548050E+01  0.14857793201E+03  0.15201513507E+03  0.47000000000E+01 0. -1.
         -5    1    4    4    0  502  0.11095307764E+03 -0.83216851567E+01  0.10268736424E+04  0.10328946719E+04  0.47000000000E+01 0. -1.
          5    1    3    3  503    0  0.29832906005E+02  0.24184072134E+02  0.16420922161E+03  0.16870575001E+03  0.47000000000E+01 0.  1.
         -5    1    3    3    0  503 -0.11001877374E+03 -0.78319321719E+01  0.40220296005E+03  0.41707886641E+03  0.47000000000E+01 0.  1.
<mgrwt>
<rscale>  0 0.14941168E+03</rscale>
<asrwt>0</asrwt>
<pdfrwt beam="1">  1        5 0.27019660E+00 0.14941502E+03</pdfrwt>
<pdfrwt beam="2">  1       -5 0.22177452E-02 0.14941502E+03</pdfrwt>
<totfact> 0.31027319E+01</totfact>
</mgrwt>
</event>
<event>
 8    1  0.3573290E-007  0.1283758E+03  0.7546771E-02  0.1229887E+00
         -5   -1    0    0    0  501 -0.00000000000E+00  0.00000000000E+00  0.11237151845E+04  0.11237250135E+04  0.47000000000E+01 0. -1.
          5   -1    0    0  501    0  0.00000000000E+00 -0.00000000000E+00 -0.14332498607E+02  0.15083451737E+02  0.47000000000E+01 0. -1.
         25    2    1    2    0    0 -0.29216155176E+02  0.99682739633E+00  0.58862483222E+03  0.60246055863E+03  0.12499981687E+03 0.  0.
         25    2    1    2    0    0  0.29216155176E+02 -0.99682739633E+00  0.52075785369E+03  0.53634790658E+03  0.12500302926E+03 0.  0.
          5    1    3    3  502    0  0.46068088405E+02 -0.22453660914E+01  0.32313617914E+03  0.32644508069E+03  0.47000000000E+01 0.  1.
         -5    1    3    3    0  502 -0.75284243582E+02  0.32421934878E+01  0.26548865308E+03  0.27601547794E+03  0.47000000000E+01 0.  1.
          5    1    4    4  503    0 -0.75885815564E+01  0.56592951740E+02  0.29133560083E+03  0.29691559587E+03  0.47000000000E+01 0. -1.
         -5    1    4    4    0  503  0.36804736732E+02 -0.57589779136E+02  0.22942225286E+03  0.23943231071E+03  0.47000000000E+01 0. -1.
<mgrwt>
<rscale>  0 0.12837497E+03</rscale>
<asrwt>0</asrwt>
<pdfrwt beam="2">  1        5 0.22635208E-02 0.12837576E+03</pdfrwt>
<pdfrwt beam="1">  1       -5 0.17293783E+00 0.12837576E+03</pdfrwt>
<totfact> 0.12600113E+02</totfact>
</mgrwt>
</event>
<event>
 8    1  0.3573290E-007  0.1270381E+03  0.7546771E-02  0.1231927E+00
          5   -1    0    0  501    0  0.00000000000E+00  0.00000000000E+00  0.20215144878E+04  0.20215199515E+04  0.47000000000E+01 0. -1.
         -5   -1    0    0    0  501 -0.00000000000E+00 -0.00000000000E+00 -0.11021433523E+02  0.11981735972E+02  0.47000000000E+01 0. -1.
         25    2    1    2    0    0  0.10153704539E+02  0.20269961331E+02  0.44243037005E+03  0.46030136492E+03  0.12497497813E+03 0.  0.
         25    2    1    2    0    0 -0.10153704539E+02 -0.20269961331E+02  0.15680626842E+04  0.15732003226E+04  0.12499881685E+03 0.  0.
          5    1    3    3  502    0  0.11352485958E+02 -0.49957255290E+01 -0.34294542809E+01  0.13699903929E+02  0.47000000000E+01 0. -1.
         -5    1    3    3    0  502 -0.11987814193E+01  0.25265686860E+02  0.44585982433E+03  0.44660146099E+03  0.47000000000E+01 0. -1.
          5    1    4    4  503    0 -0.65857399139E+02 -0.23897014952E+02  0.78338028049E+03  0.78652083139E+03  0.47000000000E+01 0.  1.
         -5    1    4    4    0  503  0.55703694600E+02  0.36270536210E+01  0.78468240372E+03  0.78667949117E+03  0.47000000000E+01 0.  1.
<mgrwt>
<rscale>  0 0.12703221E+03</rscale>
<asrwt>0</asrwt>
<pdfrwt beam="1">  1        5 0.31107620E+00 0.12703808E+03</pdfrwt>
<pdfrwt beam="2">  1       -5 0.17698967E-02 0.12703808E+03</pdfrwt>
<totfact> 0.23533106E+01</totfact>
</mgrwt>
</event>
<event>
 8    1  0.3573290E-007  0.1287462E+03  0.7546771E-02  0.1229335E+00
          5   -1    0    0  501    0  0.00000000000E+00  0.00000000000E+00  0.62759043465E+03  0.62760803346E+03  0.47000000000E+01 0. -1.
         -5   -1    0    0    0  501 -0.00000000000E+00 -0.00000000000E+00 -0.29818798107E+02  0.30186929631E+02  0.47000000000E+01 0. -1.
         25    2    1    2    0    0  0.28582266510E+02  0.11387590520E+02  0.18480427019E+03  0.22522923732E+03  0.12501587054E+03 0.  0.
         25    2    1    2    0    0 -0.28582266510E+02 -0.11387590520E+02  0.41296736635E+03  0.43256572577E+03  0.12499775304E+03 0.  0.
          5    1    4    4  502    0  0.16620863463E+02 -0.40065598823E+00  0.36560356766E+03  0.36601157401E+03  0.47000000000E+01 0. -1.
         -5    1    4    4    0  502 -0.45203129973E+02 -0.10986934531E+02  0.47363798696E+02  0.66554151761E+02  0.47000000000E+01 0. -1.
          5    1    3    3  503    0 -0.36346592577E+02  0.21469104624E+02  0.13808328213E+03  0.14446826658E+03  0.47000000000E+01 0. -1.
         -5    1    3    3    0  503  0.64928859087E+02 -0.10081514104E+02  0.46720988059E+02  0.80760970736E+02  0.47000000000E+01 0. -1.
<mgrwt>
<rscale>  0 0.12874183E+03</rscale>
<asrwt>0</asrwt>
<pdfrwt beam="1">  1        5 0.96582042E-01 0.12874623E+03</pdfrwt>
<pdfrwt beam="2">  1       -5 0.46171792E-02 0.12874623E+03</pdfrwt>
<totfact> 0.18200815E+02</totfact>
</mgrwt>
</event>
<event>
 8    1  0.3573290E-007  0.1396447E+03  0.7546771E-02  0.1213812E+00
         -5   -1    0    0    0  501 -0.00000000000E+00  0.00000000000E+00  0.25844863265E+03  0.25849136489E+03  0.47000000000E+01 0.  1.
          5   -1    0    0  501    0  0.00000000000E+00 -0.00000000000E+00 -0.75985476492E+02  0.76130694451E+02  0.47000000000E+01 0.  1.
         25    2    1    2    0    0  0.55629623767E+02 -0.27880318536E+02  0.10681452537E+03  0.17580344086E+03  0.12500215913E+03 0.  0.
         25    2    1    2    0    0 -0.55629623767E+02  0.27880318536E+02  0.75648630796E+02  0.15881861848E+03  0.12501468327E+03 0.  0.
          5    1    4    4  502    0 -0.22756345225E+02  0.76140498157E+02  0.32153342473E+02  0.85855425803E+02  0.47000000000E+01 0. -1.
         -5    1    4    4    0  502 -0.32873278542E+02 -0.48260179621E+02  0.43495288323E+02  0.72963192676E+02  0.47000000000E+01 0. -1.
          5    1    3    3  503    0  0.83735136663E+02 -0.52209123704E+02  0.59037112670E+02  0.11508621282E+03  0.47000000000E+01 0. -1.
         -5    1    3    3    0  503 -0.28105512897E+02  0.24328805168E+02  0.47777412698E+02  0.60717228035E+02  0.47000000000E+01 0. -1.
<mgrwt>
<rscale>  0 0.13964188E+03</rscale>
<asrwt>0</asrwt>
<pdfrwt beam="2">  1        5 0.11704531E-01 0.13964469E+03</pdfrwt>
<pdfrwt beam="1">  1       -5 0.39775786E-01 0.13964469E+03</pdfrwt>
<totfact> 0.27164034E+02</totfact>
</mgrwt>
</event>
<event>
 8    1  0.3573290E-007  0.1260654E+03  0.7546771E-02  0.1233414E+00
         -5   -1    0    0    0  501 -0.00000000000E+00  0.00000000000E+00  0.93893175510E+02  0.94010735597E+02  0.47000000000E+01 0.  1.
          5   -1    0    0  501    0  0.00000000000E+00 -0.00000000000E+00 -0.17676393707E+03  0.17682641050E+03  0.47000000000E+01 0.  1.
         25    2    1    2    0    0  0.37699471895E+01 -0.15906762421E+02 -0.13076280858E+02  0.12674176653E+03  0.12500099468E+03 0.  0.
         25    2    1    2    0    0 -0.37699471895E+01  0.15906762421E+02 -0.69794480703E+02  0.14409537956E+03  0.12499988513E+03 0.  0.
          5    1    3    3  502    0 -0.37436837574E+02 -0.56384415641E+02 -0.29284037970E+01  0.67907176966E+02  0.47000000000E+01 0.  1.
         -5    1    3    3    0  502  0.41206784763E+02  0.40477653219E+02 -0.10147877061E+02  0.58834589567E+02  0.47000000000E+01 0.  1.
          5    1    4    4  503    0 -0.39828991198E+02  0.36753990957E+02 -0.83793759659E+02  0.99903396082E+02  0.47000000000E+01 0.  1.
         -5    1    4    4    0  503  0.36059044008E+02 -0.20847228536E+02  0.13999278956E+02  0.44191983478E+02  0.47000000000E+01 0.  1.
<mgrwt>
<rscale>  0 0.12606513E+03</rscale>
<asrwt>0</asrwt>
<pdfrwt beam="2">  1        5 0.27208301E-01 0.12606540E+03</pdfrwt>
<pdfrwt beam="1">  1       -5 0.14458953E-01 0.12606540E+03</pdfrwt>
<totfact> 0.38202366E+02</totfact>
</mgrwt>
</event>
<event>
 8    1  0.3573290E-007  0.1352426E+03  0.7546771E-02  0.1219879E+00
         -5   -1    0    0    0  501 -0.00000000000E+00  0.00000000000E+00  0.27216951325E+02  0.27619783479E+02  0.47000000000E+01 0.  1.
          5   -1    0    0  501    0  0.00000000000E+00 -0.00000000000E+00 -0.80164798819E+03  0.80166176594E+03  0.47000000000E+01 0.  1.
         25    2    1    2    0    0  0.49376627478E+02 -0.15130158665E+02 -0.21710295052E+03  0.25577901202E+03  0.12498895480E+03 0.  0.
         25    2    1    2    0    0 -0.49376627478E+02  0.15130158665E+02 -0.55732808635E+03  0.57350253740E+03  0.12499436600E+03 0.  0.
          5    1    4    4  502    0 -0.21228445947E+02  0.67799194973E+02 -0.37137926451E+03  0.37814286435E+03  0.47000000000E+01 0.  1.
         -5    1    4    4    0  502 -0.28148181531E+02 -0.52669036308E+02 -0.18594882184E+03  0.19535967305E+03  0.47000000000E+01 0.  1.
          5    1    3    3  503    0  0.70776678214E+02 -0.54091107444E+02 -0.16084807047E+03  0.18392764300E+03  0.47000000000E+01 0.  1.
         -5    1    3    3    0  503 -0.21400050735E+02  0.38960948779E+02 -0.56254880046E+02  0.71851369021E+02  0.47000000000E+01 0.  1.
<mgrwt>
<rscale>  0 0.13524136E+03</rscale>
<asrwt>0</asrwt>
<pdfrwt beam="2">  1        5 0.12336249E+00 0.13524261E+03</pdfrwt>
<pdfrwt beam="1">  1       -5 0.42192708E-02 0.13524261E+03</pdfrwt>
<totfact> 0.11689251E+02</totfact>
</mgrwt>
</event>
<event>
 8    1  0.3573290E-007  0.1293770E+03  0.7546771E-02  0.1228385E+00
          5   -1    0    0  501    0  0.00000000000E+00  0.00000000000E+00  0.20450083582E+03  0.20455483825E+03  0.47000000000E+01 0.  1.
         -5   -1    0    0    0  501 -0.00000000000E+00 -0.00000000000E+00 -0.10151919981E+03  0.10162793873E+03  0.47000000000E+01 0.  1.
         25    2    1    2    0    0 -0.12335407148E+02 -0.30988804870E+02 -0.16067087967E+02  0.13037081474E+03  0.12500371884E+03 0.  0.
         25    2    1    2    0    0  0.12335407148E+02  0.30988804870E+02  0.11904872398E+03  0.17581196224E+03  0.12499911636E+03 0.  0.
          5    1    3    3  502    0  0.37864357639E+02  0.28680841481E+02  0.84927212526E+01  0.48482126209E+02  0.47000000000E+01 0. -1.
         -5    1    3    3    0  502 -0.50199764787E+02 -0.59669646350E+02 -0.24559809219E+02  0.81888688530E+02  0.47000000000E+01 0. -1.
          5    1    4    4  503    0 -0.56170791751E+02  0.20078003966E+02  0.54113445644E+02  0.80676137046E+02  0.47000000000E+01 0.  1.
         -5    1    4    4    0  503  0.68506198899E+02  0.10910800904E+02  0.64935278334E+02  0.95135825199E+02  0.47000000000E+01 0.  1.
<mgrwt>
<rscale>  0 0.12937585E+03</rscale>
<asrwt>0</asrwt>
<pdfrwt beam="1">  1        5 0.31474186E-01 0.12937696E+03</pdfrwt>
<pdfrwt beam="2">  1       -5 0.15630857E-01 0.12937696E+03</pdfrwt>
<totfact> 0.25203721E+02</totfact>
</mgrwt>
</event>
<event>
 8    1  0.3573290E-007  0.1501131E+03  0.7546771E-02  0.1200334E+00
          5   -1    0    0  501    0  0.00000000000E+00  0.00000000000E+00  0.25112986134E+02  0.25549013142E+02  0.47000000000E+01 0.  1.
         -5   -1    0    0    0  501 -0.00000000000E+00 -0.00000000000E+00 -0.91108243748E+03  0.91109456034E+03  0.47000000000E+01 0.  1.
         25    2    1    2    0    0  0.75709070231E+02  0.34311018254E+02 -0.51566355748E+03  0.53706876752E+03  0.12499938897E+03 0.  0.
         25    2    1    2    0    0 -0.75709070231E+02 -0.34311018254E+02 -0.37030589387E+03  0.39957480597E+03  0.12499784494E+03 0.  0.
          5    1    4    4  502    0 -0.10962915313E+03 -0.26890363962E+02 -0.25150591954E+03  0.27571536129E+03  0.47000000000E+01 0. -1.
         -5    1    4    4    0  502  0.33920082898E+02 -0.74206542923E+01 -0.11879997433E+03  0.12385944468E+03  0.47000000000E+01 0. -1.
          5    1    3    3  503    0  0.82117432405E+02  0.69672555568E+02 -0.44223138772E+03  0.45517933607E+03  0.47000000000E+01 0. -1.
         -5    1    3    3    0  503 -0.64083621733E+01 -0.35361537314E+02 -0.73432169763E+02  0.81889431449E+02  0.47000000000E+01 0. -1.
<mgrwt>
<rscale>  0 0.15011282E+03</rscale>
<asrwt>0</asrwt>
<pdfrwt beam="1">  1        5 0.38980101E-02 0.15011315E+03</pdfrwt>
<pdfrwt beam="2">  1       -5 0.14020098E+00 0.15011315E+03</pdfrwt>
<totfact> 0.98388311E+01</totfact>
</mgrwt>
</event>
<event>
 8    1  0.3573290E-007  0.1250275E+03  0.7546771E-02  0.1235027E+00
          5   -1    0    0  501    0  0.00000000000E+00  0.00000000000E+00  0.11974493152E+03  0.11983713375E+03  0.47000000000E+01 0. -1.
         -5   -1    0    0    0  501 -0.00000000000E+00 -0.00000000000E+00 -0.13035708326E+03  0.13044178455E+03  0.47000000000E+01 0. -1.
         25    2    1    2    0    0 -0.13255611597E+01 -0.21907149080E+01 -0.54489575289E+01  0.12514488755E+03  0.12499998159E+03 0.  0.
         25    2    1    2    0    0  0.13255611597E+01  0.21907149080E+01 -0.51631942081E+01  0.12513403074E+03  0.12500124292E+03 0.  0.
          5    1    3    3  502    0 -0.89290833730E+01  0.31014057841E+02  0.50119778853E+02  0.59797011179E+02  0.47000000000E+01 0. -1.
         -5    1    3    3    0  502  0.76035222133E+01 -0.33204772749E+02 -0.55568736382E+02  0.65347876373E+02  0.47000000000E+01 0. -1.
          5    1    4    4  503    0  0.47151373461E+02  0.77073910913E+01  0.38412339651E+02  0.61483768054E+02  0.47000000000E+01 0. -1.
         -5    1    4    4    0  503 -0.45825812302E+02 -0.55166761833E+01 -0.43575533859E+02  0.63650262688E+02  0.47000000000E+01 0. -1.
<mgrwt>
<rscale>  0 0.12502715E+03</rscale>
<asrwt>0</asrwt>
<pdfrwt beam="1">  1        5 0.18435905E-01 0.12502747E+03</pdfrwt>
<pdfrwt beam="2">  1       -5 0.20068544E-01 0.12502747E+03</pdfrwt>
<totfact> 0.43573778E+02</totfact>
</mgrwt>
</event>
<event>
 8    1  0.3573290E-007  0.1332620E+03  0.7546771E-02  0.1222704E+00
         -5   -1    0    0    0  501 -0.00000000000E+00  0.00000000000E+00  0.23307103509E+02  0.23776271238E+02  0.47000000000E+01 0.  1.
          5   -1    0    0  501    0  0.00000000000E+00 -0.00000000000E+00 -0.90298601722E+03  0.90299824878E+03  0.47000000000E+01 0.  1.
         25    2    1    2    0    0  0.33872301823E+02 -0.31299864572E+02 -0.25145868869E+03  0.28457562800E+03  0.12499920631E+03 0.  0.
         25    2    1    2    0    0 -0.33872301823E+02  0.31299864572E+02 -0.62822022502E+03  0.64219889202E+03  0.12502700280E+03 0.  0.
          5    1    3    3  502    0  0.32287452635E+02  0.38528144060E+02 -0.16914739159E+03  0.17652146488E+03  0.47000000000E+01 0.  1.
         -5    1    3    3    0  502  0.15848491881E+01 -0.69828008632E+02 -0.82311297105E+02  0.10805416312E+03  0.47000000000E+01 0.  1.
          5    1    4    4  503    0  0.40315555530E+02  0.35092174795E+02 -0.35455255847E+03  0.35858947485E+03  0.47000000000E+01 0. -1.
         -5    1    4    4    0  503 -0.74187857353E+02 -0.37923102229E+01 -0.27366766655E+03  0.28360941717E+03  0.47000000000E+01 0. -1.
<mgrwt>
<rscale>  0 0.13325550E+03</rscale>
<asrwt>0</asrwt>
<pdfrwt beam="2">  1        5 0.13895793E+00 0.13326202E+03</pdfrwt>
<pdfrwt beam="1">  1       -5 0.36227396E-02 0.13326202E+03</pdfrwt>
<totfact> 0.10947256E+02</totfact>
</mgrwt>
</event>
<event>
 8    1  0.3573290E-007  0.1263721E+03  0.7546771E-02  0.1232946E+00
          5   -1    0    0  501    0  0.00000000000E+00  0.00000000000E+00  0.21667400648E+03  0.21672497568E+03  0.47000000000E+01 0.  1.
         -5   -1    0    0    0  501 -0.00000000000E+00 -0.00000000000E+00 -0.12306316795E+03  0.12315288590E+03  0.47000000000E+01 0.  1.
         25    2    1    2    0    0 -0.18351218025E+02  0.27389893385E+01 -0.60901828561E+02  0.14026807392E+03  0.12498732165E+03 0.  0.
         25    2    1    2    0    0  0.18351218025E+02 -0.27389893385E+01  0.15451266709E+03  0.19960978767E+03  0.12500253508E+03 0.  0.
          5    1    3    3  502    0 -0.18312524743E+01  0.54284651247E+02 -0.66106534086E+02  0.85687459383E+02  0.47000000000E+01 0. -1.
         -5    1    3    3    0  502 -0.16519965550E+02 -0.51545661908E+02  0.52047055258E+01  0.54580614534E+02  0.47000000000E+01 0. -1.
          5    1    4    4  503    0  0.17601549129E+02 -0.33361779895E+02 -0.38840123462E+01  0.38209925954E+02  0.47000000000E+01 0.  1.
         -5    1    4    4    0  503  0.74966889525E+00  0.30622790557E+02  0.15839667944E+03  0.16139986172E+03  0.47000000000E+01 0.  1.
<mgrwt>
<rscale>  0 0.12636832E+03</rscale>
<asrwt>0</asrwt>
<pdfrwt beam="1">  1        5 0.33345284E-01 0.12637208E+03</pdfrwt>
<pdfrwt beam="2">  1       -5 0.18943617E-01 0.12637208E+03</pdfrwt>
<totfact> 0.15671285E+02</totfact>
</mgrwt>
</event>
<event>
 8    1  0.3573290E-007  0.1447865E+03  0.7546771E-02  0.1207031E+00
          5   -1    0    0  501    0  0.00000000000E+00  0.00000000000E+00  0.18183212037E+03  0.18189285307E+03  0.47000000000E+01 0.  1.
         -5   -1    0    0    0  501 -0.00000000000E+00 -0.00000000000E+00 -0.12152307477E+03  0.12161392890E+03  0.47000000000E+01 0.  1.
         25    2    1    2    0    0  0.64241036494E+02  0.34816447848E+02 -0.45532294600E+01  0.14485543625E+03  0.12499307861E+03 0.  0.
         25    2    1    2    0    0 -0.64241036494E+02 -0.34816447848E+02  0.64862275053E+02  0.15865134572E+03  0.12499615579E+03 0.  0.
          5    1    3    3  502    0 -0.17941889178E+02 -0.30056956283E+02 -0.17205321502E+02  0.39286703810E+02  0.47000000000E+01 0. -1.
         -5    1    3    3    0  502  0.82182925671E+02  0.64873404131E+02  0.12652092042E+02  0.10556873244E+03  0.47000000000E+01 0. -1.
          5    1    4    4  503    0 -0.25206402147E+02 -0.57590101103E+02 -0.16764238938E+02  0.65231220757E+02  0.47000000000E+01 0.  1.
         -5    1    4    4    0  503 -0.39034634347E+02  0.22773653255E+02  0.81626513992E+02  0.93420124960E+02  0.47000000000E+01 0.  1.
<mgrwt>
<rscale>  0 0.14478585E+03</rscale>
<asrwt>0</asrwt>
<pdfrwt beam="1">  1        5 0.27985833E-01 0.14478651E+03</pdfrwt>
<pdfrwt beam="2">  1       -5 0.18707518E-01 0.14478651E+03</pdfrwt>
<totfact> 0.23716423E+02</totfact>
</mgrwt>
</event>
<event>
 8    1  0.3573290E-007  0.1261325E+03  0.7546771E-02  0.1233311E+00
          5   -1    0    0  501    0  0.00000000000E+00  0.00000000000E+00  0.34874627273E+02  0.35189908034E+02  0.47000000000E+01 0. -1.
         -5   -1    0    0    0  501 -0.00000000000E+00 -0.00000000000E+00 -0.56548781952E+03  0.56550735099E+03  0.47000000000E+01 0. -1.
         25    2    1    2    0    0 -0.15914415047E+01  0.16767276571E+02 -0.39874656522E+03  0.41821924874E+03  0.12499936996E+03 0.  0.
         25    2    1    2    0    0  0.15914415047E+01 -0.16767276571E+02 -0.13186662702E+03  0.18247801028E+03  0.12500297062E+03 0.  0.
          5    1    3    3  502    0  0.28995655562E+02  0.16816371091E+02 -0.38109045030E+03  0.38259059017E+03  0.47000000000E+01 0.  1.
         -5    1    3    3    0  502 -0.30587097067E+02 -0.49094520712E-01 -0.17656114923E+02  0.35628658569E+02  0.47000000000E+01 0.  1.
          5    1    4    4  503    0  0.21377155651E+02 -0.67648218467E+02 -0.68897083116E+02  0.99005870065E+02  0.47000000000E+01 0.  1.
         -5    1    4    4    0  503 -0.19785714147E+02  0.50880941896E+02 -0.62969543905E+02  0.83472140215E+02  0.47000000000E+01 0.  1.
<mgrwt>
<rscale>  0 0.12613164E+03</rscale>
<asrwt>0</asrwt>
<pdfrwt beam="1">  1        5 0.53910824E-02 0.12613254E+03</pdfrwt>
<pdfrwt beam="2">  1       -5 0.87023875E-01 0.12613254E+03</pdfrwt>
<totfact> 0.17903608E+02</totfact>
</mgrwt>
</event>
<event>
 8    1  0.3573290E-007  0.1304623E+03  0.7546771E-02  0.1226773E+00
          5   -1    0    0  501    0  0.00000000000E+00  0.00000000000E+00  0.11474817127E+03  0.11484438519E+03  0.47000000000E+01 0.  1.
         -5   -1    0    0    0  501 -0.00000000000E+00 -0.00000000000E+00 -0.15055322373E+03  0.15062656862E+03  0.47000000000E+01 0.  1.
         25    2    1    2    0    0 -0.34383914612E+02 -0.14540936313E+02 -0.34742855493E+02  0.13500430426E+03  0.12500161498E+03 0.  0.
         25    2    1    2    0    0  0.34383914612E+02  0.14540936313E+02 -0.10621969681E+01  0.13046664955E+03  0.12500690368E+03 0.  0.
          5    1    4    4  502    0 -0.47434334083E+02  0.40262537943E+01 -0.64409458894E+00  0.47840690080E+02  0.47000000000E+01 0. -1.
         -5    1    4    4    0  502  0.81818248695E+02  0.10514682519E+02 -0.41810237919E+00  0.82625959465E+02  0.47000000000E+01 0. -1.
          5    1    3    3  503    0  0.95810581807E+01  0.20142441350E+02 -0.66609713533E+02  0.70402120397E+02  0.47000000000E+01 0.  1.
         -5    1    3    3    0  503 -0.43964972793E+02 -0.34683377663E+02  0.31866858040E+02  0.64602183865E+02  0.47000000000E+01 0.  1.
<mgrwt>
<rscale>  0 0.13046106E+03</rscale>
<asrwt>0</asrwt>
<pdfrwt beam="1">  1        5 0.17666608E-01 0.13046233E+03</pdfrwt>
<pdfrwt beam="2">  1       -5 0.23175078E-01 0.13046233E+03</pdfrwt>
<totfact> 0.36532000E+02</totfact>
</mgrwt>
</event>
<event>
 8    1  0.3573290E-007  0.1311547E+03  0.7546771E-02  0.1225754E+00
         -5   -1    0    0    0  501 -0.00000000000E+00  0.00000000000E+00  0.56209767257E+02  0.56405921099E+02  0.47000000000E+01 0.  1.
          5   -1    0    0  501    0  0.00000000000E+00 -0.00000000000E+00 -0.31755082702E+03  0.31758560695E+03  0.47000000000E+01 0.  1.
         25    2    1    2    0    0 -0.16653125882E+02 -0.36033698217E+02 -0.93903276546E+02  0.16130168294E+03  0.12499861425E+03 0.  0.
         25    2    1    2    0    0  0.16653125882E+02  0.36033698217E+02 -0.16743778321E+03  0.21268984511E+03  0.12500321978E+03 0.  0.
          5    1    4    4  502    0  0.51570012502E+02  0.59508728491E+02 -0.66291746546E+02  0.10304096572E+03  0.47000000000E+01 0. -1.
         -5    1    4    4    0  502 -0.34916886620E+02 -0.23475030274E+02 -0.10114603667E+03  0.10964887939E+03  0.47000000000E+01 0. -1.
          5    1    3    3  503    0  0.47023095958E+02 -0.20922477377E+01 -0.71255540871E+02  0.85527721581E+02  0.47000000000E+01 0. -1.
         -5    1    3    3    0  503 -0.63676221840E+02 -0.33941450479E+02 -0.22647735675E+02  0.75773961357E+02  0.47000000000E+01 0. -1.
<mgrwt>
<rscale>  0 0.13115362E+03</rscale>
<asrwt>0</asrwt>
<pdfrwt beam="2">  1        5 0.48871736E-01 0.13115471E+03</pdfrwt>
<pdfrwt beam="1">  1       -5 0.86654208E-02 0.13115471E+03</pdfrwt>
<totfact> 0.29299107E+02</totfact>
</mgrwt>
</event>
<event>
 8    1  0.3573290E-007  0.1300676E+03  0.7546771E-02  0.1227357E+00
          5   -1    0    0  501    0  0.00000000000E+00  0.00000000000E+00  0.45040686013E+02  0.45285244799E+02  0.47000000000E+01 0. -1.
         -5   -1    0    0    0  501 -0.00000000000E+00 -0.00000000000E+00 -0.37701305911E+03  0.37704235404E+03  0.47000000000E+01 0. -1.
         25    2    1    2    0    0 -0.23074005336E+01 -0.35870092766E+02 -0.18383253277E+03  0.22519318935E+03  0.12500233908E+03 0.  0.
         25    2    1    2    0    0  0.23074005336E+01  0.35870092766E+02 -0.14813984033E+03  0.19713440948E+03  0.12499830182E+03 0.  0.
          5    1    3    3  502    0  0.62336976121E+01 -0.56686276653E+02 -0.21321530302E+02  0.61064642807E+02  0.47000000000E+01 0. -1.
         -5    1    3    3    0  502 -0.85410981457E+01  0.20816183888E+02 -0.16251100246E+03  0.16412854655E+03  0.47000000000E+01 0. -1.
          5    1    4    4  503    0  0.36764085919E+02  0.14826802160E+02  0.35657299319E+01  0.40077880504E+02  0.47000000000E+01 0.  1.
         -5    1    4    4    0  503 -0.34456685385E+02  0.21043290606E+02 -0.15170557026E+03  0.15705652898E+03  0.47000000000E+01 0.  1.
<mgrwt>
<rscale>  0 0.13006660E+03</rscale>
<asrwt>0</asrwt>
<pdfrwt beam="1">  1        5 0.69504022E-02 0.13006757E+03</pdfrwt>
<pdfrwt beam="2">  1       -5 0.58023073E-01 0.13006757E+03</pdfrwt>
<totfact> 0.29492549E+02</totfact>
</mgrwt>
</event>
<event>
 8    1  0.3573290E-007  0.1444766E+03  0.7546771E-02  0.1207430E+00
          5   -1    0    0  501    0  0.00000000000E+00  0.00000000000E+00  0.32068920515E+02  0.32411505102E+02  0.47000000000E+01 0. -1.
         -5   -1    0    0    0  501 -0.00000000000E+00 -0.00000000000E+00 -0.65355178085E+03  0.65356868059E+03  0.47000000000E+01 0. -1.
         25    2    1    2    0    0  0.71882873481E+02  0.90569929940E+01 -0.34488047061E+03  0.37391982867E+03  0.12499729054E+03 0.  0.
         25    2    1    2    0    0 -0.71882873481E+02 -0.90569929940E+01 -0.27660238972E+03  0.31206035702E+03  0.12499443109E+03 0.  0.
          5    1    4    4  502    0 -0.95704554125E+02 -0.39505645560E+01 -0.12052869769E+03  0.15402670421E+03  0.47000000000E+01 0. -1.
         -5    1    4    4    0  502  0.23821680644E+02 -0.51064284380E+01 -0.15607369202E+03  0.15803365282E+03  0.47000000000E+01 0. -1.
          5    1    3    3  503    0  0.26803062180E+02  0.53914404013E+02 -0.73405828382E+02  0.95056155733E+02  0.47000000000E+01 0. -1.
         -5    1    3    3    0  503  0.45079811301E+02 -0.44857411019E+02 -0.27147464223E+03  0.27886367294E+03  0.47000000000E+01 0. -1.
<mgrwt>
<rscale>  0 0.14447602E+03</rscale>
<asrwt>0</asrwt>
<pdfrwt beam="1">  1        5 0.49613332E-02 0.14447664E+03</pdfrwt>
<pdfrwt beam="2">  1       -5 0.10057407E+00 0.14447664E+03</pdfrwt>
<totfact> 0.15217096E+02</totfact>
</mgrwt>
</event>
<event>
 8    1  0.3573290E-007  0.1284889E+03  0.7546771E-02  0.1229728E+00
         -5   -1    0    0    0  501 -0.00000000000E+00  0.00000000000E+00  0.33905300065E+03  0.33908557511E+03  0.47000000000E+01 0.  1.
          5   -1    0    0  501    0  0.00000000000E+00 -0.00000000000E+00 -0.48641315702E+02  0.48867858488E+02  0.47000000000E+01 0.  1.
         25    2    1    2    0    0  0.52213083691E+01  0.29251793212E+02  0.15442498152E+03  0.20088922544E+03  0.12500590591E+03 0.  0.
         25    2    1    2    0    0 -0.52213083691E+01 -0.29251793212E+02  0.13598670343E+03  0.18706420816E+03  0.12497081659E+03 0.  0.
          5    1    3    3  502    0 -0.34331278269E+02 -0.34309019031E+02  0.35624067499E+02  0.60389648447E+02  0.47000000000E+01 0.  1.
         -5    1    3    3    0  502  0.39552586638E+02  0.63560812243E+02  0.11880091402E+03  0.14049957699E+03  0.47000000000E+01 0.  1.
          5    1    4    4  503    0 -0.55856440163E+02 -0.54981468381E+01  0.11329669075E+03  0.12652431253E+03  0.47000000000E+01 0.  1.
         -5    1    4    4    0  503  0.50635131794E+02 -0.23753646374E+02  0.22690012681E+02  0.60539895633E+02  0.47000000000E+01 0.  1.
<mgrwt>
<rscale>  0 0.12848040E+03</rscale>
<asrwt>0</asrwt>
<pdfrwt beam="2">  1        5 0.75032113E-02 0.12848893E+03</pdfrwt>
<pdfrwt beam="1">  1       -5 0.52181933E-01 0.12848893E+03</pdfrwt>
<totfact> 0.32392224E+02</totfact>
</mgrwt>
</event>
<event>
 8    1  0.3573290E-007  0.1273794E+03  0.7546771E-02  0.1231421E+00
          5   -1    0    0  501    0  0.00000000000E+00  0.00000000000E+00  0.22380753238E+03  0.22385687738E+03  0.47000000000E+01 0. -1.
         -5   -1    0    0    0  501 -0.00000000000E+00 -0.00000000000E+00 -0.13227192166E+03  0.13235539754E+03  0.47000000000E+01 0. -1.
         25    2    1    2    0    0 -0.18184214956E+02 -0.16014391282E+02 -0.74062617809E+02  0.14729058163E+03  0.12498847018E+03 0.  0.
         25    2    1    2    0    0  0.18184214956E+02  0.16014391282E+02  0.16559822854E+03  0.20892169330E+03  0.12505348549E+03 0.  0.
          5    1    3    3  502    0 -0.36174968072E+02 -0.30775933995E+02 -0.10080344866E+03  0.11153121397E+03  0.47000000000E+01 0. -1.
         -5    1    3    3    0  502  0.17990753115E+02  0.14761542714E+02  0.26740830850E+02  0.35759367661E+02  0.47000000000E+01 0. -1.
          5    1    4    4  503    0 -0.14128666491E+02 -0.50760653905E+02  0.63909456925E+02  0.82962472758E+02  0.47000000000E+01 0. -1.
         -5    1    4    4    0  503  0.32312881448E+02  0.66775045186E+02  0.10168877161E+03  0.12595922054E+03  0.47000000000E+01 0. -1.
<mgrwt>
<rscale>  0 0.12736340E+03</rscale>
<asrwt>0</asrwt>
<pdfrwt beam="1">  1        5 0.34442145E-01 0.12737936E+03</pdfrwt>
<pdfrwt beam="2">  1       -5 0.20359744E-01 0.12737936E+03</pdfrwt>
<totfact> 0.12884941E+02</totfact>
</mgrwt>
</event>
<event>
 8    1  0.3573290E-007  0.1380453E+03  0.7546771E-02  0.1215984E+00
         -5   -1    0    0    0  501 -0.00000000000E+00  0.00000000000E+00  0.84934675002E+02  0.85064616719E+02  0.47000000000E+01 0.  1.
          5   -1    0    0  501    0  0.00000000000E+00 -0.00000000000E+00 -0.23192392005E+03  0.23197153854E+03  0.47000000000E+01 0.  1.
         25    2    1    2    0    0  0.58374628575E+02  0.48776977435E+01 -0.44277953412E+02  0.14497255174E+03  0.12500045761E+03 0.  0.
         25    2    1    2    0    0 -0.58374628575E+02 -0.48776977435E+01 -0.10271129164E+03  0.17206360352E+03  0.12499954012E+03 0.  0.
          5    1    3    3  502    0  0.80477907454E+02  0.36503207335E+02 -0.55571068743E+02  0.10449598756E+03  0.47000000000E+01 0. -1.
         -5    1    3    3    0  502 -0.22103278879E+02 -0.31625509592E+02  0.11293115331E+02  0.40476564182E+02  0.47000000000E+01 0. -1.
          5    1    4    4  503    0 -0.86482845002E+02  0.20926573385E+02 -0.38158219759E+02  0.96929581080E+02  0.47000000000E+01 0. -1.
         -5    1    4    4    0  503  0.28108216426E+02 -0.25804271129E+02 -0.64553071880E+02  0.75134022442E+02  0.47000000000E+01 0. -1.
<mgrwt>
<rscale>  0 0.13804509E+03</rscale>
<asrwt>0</asrwt>
<pdfrwt beam="2">  1        5 0.35694261E-01 0.13804530E+03</pdfrwt>
<pdfrwt beam="1">  1       -5 0.13080532E-01 0.13804530E+03</pdfrwt>
<totfact> 0.27656004E+02</totfact>
</mgrwt>
</event>
<event>
 8    1  0.3573290E-007  0.1258836E+03  0.7546771E-02  0.1233695E+00
          5   -1    0    0  501    0  0.00000000000E+00  0.00000000000E+00  0.15044741431E+02  0.15761797002E+02  0.47000000000E+01 0. -1.
         -5   -1    0    0    0  501 -0.00000000000E+00 -0.00000000000E+00 -0.10911054755E+04  0.10911155982E+04  0.47000000000E+01 0. -1.
         25    2    1    2    0    0  0.10496408637E+02 -0.10564250764E+02 -0.67102304993E+03  0.68272860576E+03  0.12499855037E+03 0.  0.
         25    2    1    2    0    0 -0.10496408637E+02  0.10564250764E+02 -0.40503768416E+03  0.42414878948E+03  0.12499956815E+03 0.  0.
          5    1    3    3  502    0 -0.10006576638E+01 -0.64617253511E+02 -0.45990440306E+03  0.46444648855E+03  0.47000000000E+01 0. -1.
         -5    1    3    3    0  502  0.11497066301E+02  0.54053002747E+02 -0.21111864686E+03  0.21828211721E+03  0.47000000000E+01 0. -1.
          5    1    4    4  503    0 -0.28457993628E+01  0.40130861757E+02 -0.38543056578E+03  0.38755308756E+03  0.47000000000E+01 0.  1.
         -5    1    4    4    0  503 -0.76506092742E+01 -0.29566610993E+02 -0.19607118385E+02  0.36595701923E+02  0.47000000000E+01 0.  1.
<mgrwt>
<rscale>  0 0.12588330E+03</rscale>
<asrwt>0</asrwt>
<pdfrwt beam="1">  1        5 0.23705133E-02 0.12588356E+03</pdfrwt>
<pdfrwt beam="2">  1       -5 0.16791826E+00 0.12588356E+03</pdfrwt>
<totfact> 0.12653659E+02</totfact>
</mgrwt>
</event>
<event>
 8    1  0.3573290E-007  0.1334745E+03  0.7546771E-02  0.1222395E+00
          5   -1    0    0  501    0  0.00000000000E+00  0.00000000000E+00  0.11569077488E+02  0.12487335742E+02  0.47000000000E+01 0. -1.
         -5   -1    0    0    0  501 -0.00000000000E+00 -0.00000000000E+00 -0.14817762286E+04  0.14817836825E+04  0.47000000000E+01 0. -1.
         25    2    1    2    0    0 -0.22053548894E+02 -0.41284476769E+02 -0.76062486233E+03  0.77224712991E+03  0.12499872569E+03 0.  0.
         25    2    1    2    0    0  0.22053548894E+02  0.41284476769E+02 -0.70958228881E+03  0.72202388832E+03  0.12498281355E+03 0.  0.
          5    1    4    4  502    0  0.49326452591E+02  0.68639600802E+02 -0.33925280655E+03  0.34965561697E+03  0.47000000000E+01 0. -1.
         -5    1    4    4    0  502 -0.27272903696E+02 -0.27355124034E+02 -0.37032948225E+03  0.37236827136E+03  0.47000000000E+01 0. -1.
          5    1    3    3  503    0  0.42650021211E+02 -0.36976594876E+02 -0.51707928550E+03  0.52017244292E+03  0.47000000000E+01 0. -1.
         -5    1    3    3    0  503 -0.64703570105E+02 -0.43078818930E+01 -0.24354557682E+03  0.25207468699E+03  0.47000000000E+01 0. -1.
<mgrwt>
<rscale>  0 0.13347080E+03</rscale>
<asrwt>0</asrwt>
<pdfrwt beam="1">  1        5 0.18510679E-02 0.13347452E+03</pdfrwt>
<pdfrwt beam="2">  1       -5 0.22803664E+00 0.13347452E+03</pdfrwt>
<totfact> 0.74309354E+01</totfact>
</mgrwt>
</event>
<event>
 8    1  0.3573290E-007  0.1686578E+03  0.7546771E-02  0.1179256E+00
         -5   -1    0    0    0  501 -0.00000000000E+00  0.00000000000E+00  0.68262229217E+02  0.68423840419E+02  0.47000000000E+01 0.  1.
          5   -1    0    0  501    0  0.00000000000E+00 -0.00000000000E+00 -0.41974240089E+03  0.41976871382E+03  0.47000000000E+01 0.  1.
         25    2    1    2    0    0  0.70634138511E+02 -0.88493719703E+02 -0.15278839241E+03  0.22757361118E+03  0.12500054280E+03 0.  0.
         25    2    1    2    0    0 -0.70634138511E+02  0.88493719703E+02 -0.19869177926E+03  0.26061894307E+03  0.12499396140E+03 0.  0.
          5    1    4    4  502    0 -0.65778957659E+02  0.11971002824E+03 -0.15877802277E+03  0.20949919486E+03  0.47000000000E+01 0. -1.
         -5    1    4    4    0  502 -0.48551808513E+01 -0.31216308533E+02 -0.39913756493E+02  0.51119748208E+02  0.47000000000E+01 0. -1.
          5    1    3    3  503    0  0.16804632477E+02 -0.36312431387E+02 -0.14678897783E+03  0.15221722097E+03  0.47000000000E+01 0. -1.
         -5    1    3    3    0  503  0.53829506034E+02 -0.52181288315E+02 -0.59994145766E+01  0.75356390209E+02  0.47000000000E+01 0. -1.
<mgrwt>
<rscale>  0 0.16865659E+03</rscale>
<asrwt>0</asrwt>
<pdfrwt beam="2">  1        5 0.64590208E-01 0.16865781E+03</pdfrwt>
<pdfrwt beam="1">  1       -5 0.10516337E-01 0.16865781E+03</pdfrwt>
<totfact> 0.12405950E+02</totfact>
</mgrwt>
</event>
<event>
 8    1  0.3573290E-007  0.1501838E+03  0.7546771E-02  0.1200252E+00
         -5   -1    0    0    0  501 -0.00000000000E+00  0.00000000000E+00  0.11070637708E+04  0.11070737476E+04  0.47000000000E+01 0. -1.
          5   -1    0    0  501    0  0.00000000000E+00 -0.00000000000E+00 -0.22433574866E+02  0.22920630036E+02  0.47000000000E+01 0. -1.
         25    2    1    2    0    0  0.31066398482E+02  0.77233012732E+02  0.72283695872E+03  0.73827397161E+03  0.12500051555E+03 0.  0.
         25    2    1    2    0    0 -0.31066398482E+02 -0.77233012732E+02  0.36179323720E+03  0.39172040601E+03  0.12498188122E+03 0.  0.
          5    1    4    4  502    0 -0.52082475486E+02 -0.43479336546E+02  0.71496632625E+02  0.98675708439E+02  0.47000000000E+01 0. -1.
         -5    1    4    4    0  502  0.21016077004E+02 -0.33753676185E+02  0.29029660458E+03  0.29304469757E+03  0.47000000000E+01 0. -1.
          5    1    3    3  503    0  0.31078052475E+02  0.82927087289E+02  0.72513767515E+03  0.73054054307E+03  0.47000000000E+01 0.  1.
         -5    1    3    3    0  503 -0.11653993909E-01 -0.56940745577E+01 -0.23007164246E+01  0.77334285379E+01  0.47000000000E+01 0.  1.
<mgrwt>
<rscale>  0 0.15017997E+03</rscale>
<asrwt>0</asrwt>
<pdfrwt beam="2">  1        5 0.34895523E-02 0.15018385E+03</pdfrwt>
<pdfrwt beam="1">  1       -5 0.17035574E+00 0.15018385E+03</pdfrwt>
<totfact> 0.68731998E+01</totfact>
</mgrwt>
</event>
<event>
 8    1  0.3573290E-007  0.1285505E+03  0.7546771E-02  0.1229623E+00
         -5   -1    0    0    0  501 -0.00000000000E+00  0.00000000000E+00  0.55915712769E+03  0.55917688029E+03  0.47000000000E+01 0.  1.
          5   -1    0    0  501    0  0.00000000000E+00 -0.00000000000E+00 -0.30002744849E+02  0.30368646635E+02  0.47000000000E+01 0.  1.
         25    2    1    2    0    0  0.85385459093E+01 -0.28767298565E+02  0.30790123202E+03  0.33365911955E+03  0.12499910057E+03 0.  0.
         25    2    1    2    0    0 -0.85385459093E+01  0.28767298565E+02  0.22125315082E+03  0.25588640738E+03  0.12499772997E+03 0.  0.
          5    1    3    3  502    0  0.53662616569E+01  0.81406734854E+01 -0.92982043380E+01  0.14269335404E+02  0.47000000000E+01 0. -1.
         -5    1    3    3    0  502  0.31722842525E+01 -0.36907972051E+02  0.31719943636E+03  0.31938978414E+03  0.47000000000E+01 0. -1.
          5    1    4    4  503    0 -0.75666735642E+01  0.13595324360E+02 -0.13172617251E+02  0.20921167236E+02  0.47000000000E+01 0. -1.
         -5    1    4    4    0  503 -0.97187234517E+00  0.15171974205E+02  0.23442576807E+03  0.23496524014E+03  0.47000000000E+01 0. -1.
<mgrwt>
<rscale>  0 0.12855020E+03</rscale>
<asrwt>0</asrwt>
<pdfrwt beam="2">  1        5 0.46454729E-02 0.12855053E+03</pdfrwt>
<pdfrwt beam="1">  1       -5 0.86053833E-01 0.12855053E+03</pdfrwt>
<totfact> 0.23688361E+02</totfact>
</mgrwt>
</event>
<event>
 8    1  0.3573290E-007  0.1421998E+03  0.7546771E-02  0.1210410E+00
         -5   -1    0    0    0  501 -0.00000000000E+00  0.00000000000E+00  0.98500148055E+03  0.98501269367E+03  0.47000000000E+01 0. -1.
          5   -1    0    0  501    0  0.00000000000E+00 -0.00000000000E+00 -0.47532432890E+02  0.47764235328E+02  0.47000000000E+01 0. -1.
         25    2    1    2    0    0  0.35134958124E+02 -0.57967789838E+02  0.85840277560E+03  0.87010120638E+03  0.12500421691E+03 0.  0.
         25    2    1    2    0    0 -0.35134958124E+02  0.57967789838E+02  0.79066272058E+02  0.16267572261E+03  0.12496873773E+03 0.  0.
          5    1    4    4  502    0 -0.19964084144E+02 -0.28923952370E+02  0.63862286163E+02  0.73045473990E+02  0.47000000000E+01 0.  1.
         -5    1    4    4    0  502 -0.15170873980E+02  0.86891742208E+02  0.15203985895E+02  0.89630248624E+02  0.47000000000E+01 0.  1.
          5    1    3    3  503    0 -0.12121586732E+02 -0.52121629285E+01  0.68443914512E+01  0.15589586320E+02  0.47000000000E+01 0. -1.
         -5    1    3    3    0  503  0.47256544857E+02 -0.52755626910E+02  0.85155838415E+03  0.85451162006E+03  0.47000000000E+01 0. -1.
<mgrwt>
<rscale>  0 0.14219201E+03</rscale>
<asrwt>0</asrwt>
<pdfrwt beam="2">  1        5 0.73313762E-02 0.14219980E+03</pdfrwt>
<pdfrwt beam="1">  1       -5 0.15155737E+00 0.14219980E+03</pdfrwt>
<totfact> 0.27298407E+01</totfact>
</mgrwt>
</event>
<event>
 8    1  0.3573290E-007  0.1312512E+03  0.7546771E-02  0.1225611E+00
          5   -1    0    0  501    0  0.00000000000E+00  0.00000000000E+00  0.19110209071E+03  0.19115987830E+03  0.47000000000E+01 0. -1.
         -5   -1    0    0    0  501 -0.00000000000E+00 -0.00000000000E+00 -0.95069401395E+02  0.95185508780E+02  0.47000000000E+01 0. -1.
         25    2    1    2    0    0 -0.52620320331E+01 -0.39690506372E+02  0.15025582084E+02  0.13210846828E+03  0.12499541590E+03 0.  0.
         25    2    1    2    0    0  0.52620320331E+01  0.39690506372E+02  0.81007107229E+02  0.15423691880E+03  0.12499540161E+03 0.  0.
          5    1    3    3  502    0 -0.34909577568E+02  0.14516579702E+02 -0.35562458970E+02  0.52117062276E+02  0.47000000000E+01 0. -1.
         -5    1    3    3    0  502  0.29647545535E+02 -0.54207086074E+02  0.50588041054E+02  0.79991406004E+02  0.47000000000E+01 0. -1.
          5    1    4    4  503    0 -0.40409760523E+02  0.45549527335E+01  0.86963170185E+02  0.96116488224E+02  0.47000000000E+01 0.  1.
         -5    1    4    4    0  503  0.45671792556E+02  0.35135553638E+02 -0.59560629563E+01  0.58120430579E+02  0.47000000000E+01 0.  1.
<mgrwt>
<rscale>  0 0.13125120E+03</rscale>
<asrwt>0</asrwt>
<pdfrwt beam="1">  1        5 0.29413698E-01 0.13125121E+03</pdfrwt>
<pdfrwt beam="2">  1       -5 0.14639438E-01 0.13125121E+03</pdfrwt>
<totfact> 0.32583392E+02</totfact>
</mgrwt>
</event>
<event>
 8    1  0.3573290E-007  0.2407120E+03  0.7546771E-02  0.1119320E+00
         -5   -1    0    0    0  501 -0.00000000000E+00  0.00000000000E+00  0.70362674372E+03  0.70364244079E+03  0.47000000000E+01 0.  1.
          5   -1    0    0  501    0  0.00000000000E+00 -0.00000000000E+00 -0.87876499253E+02  0.88002097254E+02  0.47000000000E+01 0.  1.
         25    2    1    2    0    0  0.20519356643E+03 -0.14572406397E+02  0.40783210502E+03  0.47357079497E+03  0.12500206890E+03 0.  0.
         25    2    1    2    0    0 -0.20519356643E+03  0.14572406397E+02  0.20791813945E+03  0.31807374307E+03  0.12499679431E+03 0.  0.
          5    1    3    3  502    0  0.91275268007E+02 -0.59068101668E+02  0.12711707371E+03  0.16733515953E+03  0.47000000000E+01 0. -1.
         -5    1    3    3    0  502  0.11391829843E+03  0.44495695271E+02  0.28071503131E+03  0.30623563544E+03  0.47000000000E+01 0. -1.
          5    1    4    4  503    0 -0.17086538056E+03 -0.29629698819E+02  0.11067342824E+03  0.20577559390E+03  0.47000000000E+01 0.  1.
         -5    1    4    4    0  503 -0.34328185878E+02  0.44202105215E+02  0.97244711207E+02  0.11229814918E+03  0.47000000000E+01 0.  1.
<mgrwt>
<rscale>  0 0.24071133E+03</rscale>
<asrwt>0</asrwt>
<pdfrwt beam="2">  1        5 0.13530331E-01 0.24071201E+03</pdfrwt>
<pdfrwt beam="1">  1       -5 0.10826113E+00 0.24071201E+03</pdfrwt>
<totfact> 0.25681110E+01</totfact>
</mgrwt>
</event>
<event>
 8    1  0.3573290E-007  0.1351741E+03  0.7546771E-02  0.1219980E+00
         -5   -1    0    0    0  501 -0.00000000000E+00  0.00000000000E+00  0.55822044555E+03  0.55824023129E+03  0.47000000000E+01 0.  1.
          5   -1    0    0  501    0  0.00000000000E+00 -0.00000000000E+00 -0.35130417694E+02  0.35443423189E+02  0.47000000000E+01 0.  1.
         25    2    1    2    0    0  0.50662823473E+02  0.87282390539E+01  0.34175406774E+03  0.36750946763E+03  0.12499784856E+03 0.  0.
         25    2    1    2    0    0 -0.50662823473E+02 -0.87282390539E+01  0.18133596012E+03  0.22617418685E+03  0.12501651301E+03 0.  0.
          5    1    3    3  502    0 -0.10765842388E+02 -0.42484113042E+02  0.59138091538E+02  0.73757759551E+02  0.47000000000E+01 0. -1.
         -5    1    3    3    0  502  0.61428665861E+02  0.51212352096E+02  0.28261597620E+03  0.29375170808E+03  0.47000000000E+01 0. -1.
          5    1    4    4  503    0 -0.49058023923E+02  0.36868668388E+02  0.30835475545E+02  0.68839704910E+02  0.47000000000E+01 0. -1.
         -5    1    4    4    0  503 -0.16047995503E+01 -0.45596907442E+02  0.15050048458E+03  0.15733448194E+03  0.47000000000E+01 0. -1.
<mgrwt>
<rscale>  0 0.13516977E+03</rscale>
<asrwt>0</asrwt>
<pdfrwt beam="2">  1        5 0.54302793E-02 0.13517408E+03</pdfrwt>
<pdfrwt beam="1">  1       -5 0.85905663E-01 0.13517408E+03</pdfrwt>
<totfact> 0.18675444E+02</totfact>
</mgrwt>
</event>
<event>
 8    1  0.3573290E-007  0.1282049E+03  0.7546771E-02  0.1230146E+00
         -5   -1    0    0    0  501 -0.00000000000E+00  0.00000000000E+00  0.17777305049E+02  0.18388109604E+02  0.47000000000E+01 0.  1.
          5   -1    0    0  501    0  0.00000000000E+00 -0.00000000000E+00 -0.90830066612E+03  0.90831282611E+03  0.47000000000E+01 0.  1.
         25    2    1    2    0    0  0.14979314527E+02  0.24227822899E+02 -0.44492767195E+03  0.46303036562E+03  0.12500047581E+03 0.  0.
         25    2    1    2    0    0 -0.14979314527E+02 -0.24227822899E+02 -0.44559568911E+03  0.46367057009E+03  0.12499404843E+03 0.  0.
          5    1    4    4  502    0 -0.39088694923E+02 -0.59002381293E+02 -0.16133518014E+03  0.17623943208E+03  0.47000000000E+01 0. -1.
         -5    1    4    4    0  502  0.24109380396E+02  0.34774558394E+02 -0.28426050897E+03  0.28743113800E+03  0.47000000000E+01 0. -1.
          5    1    3    3  503    0 -0.36415686371E+02 -0.28321597743E+02 -0.98637762792E+02  0.10899409783E+03  0.47000000000E+01 0.  1.
         -5    1    3    3    0  503  0.51395000898E+02  0.52549420643E+02 -0.34628990916E+03  0.35403626779E+03  0.47000000000E+01 0.  1.
<mgrwt>
<rscale>  0 0.12820329E+03</rscale>
<asrwt>0</asrwt>
<pdfrwt beam="2">  1        5 0.13978645E+00 0.12820486E+03</pdfrwt>
<pdfrwt beam="1">  1       -5 0.27828911E-02 0.12820486E+03</pdfrwt>
<totfact> 0.16299843E+02</totfact>
</mgrwt>
</event>
<event>
 8    1  0.3573290E-007  0.1518331E+03  0.7546771E-02  0.1198239E+00
          5   -1    0    0  501    0  0.00000000000E+00  0.00000000000E+00  0.24778534146E+03  0.24782991232E+03  0.47000000000E+01 0.  1.
         -5   -1    0    0    0  501 -0.00000000000E+00 -0.00000000000E+00 -0.93110526256E+02  0.93229073254E+02  0.47000000000E+01 0.  1.
         25    2    1    2    0    0 -0.13607169540E+02 -0.85101927412E+02  0.84961692878E+02  0.17398654442E+03  0.12500134108E+03 0.  0.
         25    2    1    2    0    0  0.13607169540E+02  0.85101927412E+02  0.69713122326E+02  0.16707244115E+03  0.12500315218E+03 0.  0.
          5    1    3    3  502    0  0.26440925507E+01 -0.33079152720E+02  0.10914512061E+03  0.11417516772E+03  0.47000000000E+01 0. -1.
         -5    1    3    3    0  502 -0.16251262090E+02 -0.52022774692E+02 -0.24183427736E+02  0.59811376704E+02  0.47000000000E+01 0. -1.
          5    1    4    4  503    0  0.46114968432E+02  0.61289244198E+02  0.92727017451E+02  0.12042986147E+03  0.47000000000E+01 0. -1.
         -5    1    4    4    0  503 -0.32507798892E+02  0.23812683214E+02 -0.23013895126E+02  0.46642579684E+02  0.47000000000E+01 0. -1.
<mgrwt>
<rscale>  0 0.15183270E+03</rscale>
<asrwt>0</asrwt>
<pdfrwt beam="1">  1        5 0.38133368E-01 0.15183307E+03</pdfrwt>
<pdfrwt beam="2">  1       -5 0.14337244E-01 0.15183307E+03</pdfrwt>
<totfact> 0.21185364E+02</totfact>
</mgrwt>
</event>
<event>
 8    1  0.3573290E-007  0.1256988E+03  0.7546771E-02  0.1233987E+00
          5   -1    0    0  501    0  0.00000000000E+00  0.00000000000E+00  0.37832943548E+03  0.37835862849E+03  0.47000000000E+01 0. -1.
         -5   -1    0    0    0  501 -0.00000000000E+00 -0.00000000000E+00 -0.42722875234E+02  0.42980624336E+02  0.47000000000E+01 0. -1.
         25    2    1    2    0    0 -0.65665579865E+01 -0.11456774394E+02  0.13367179153E+03  0.18347829098E+03  0.12498703152E+03 0.  0.
         25    2    1    2    0    0  0.65665579865E+01  0.11456774394E+02  0.20193476872E+03  0.23786096184E+03  0.12500323591E+03 0.  0.
          5    1    4    4  502    0 -0.25609982346E+02  0.29118723579E+02  0.72986155659E+01  0.39738281893E+02  0.47000000000E+01 0. -1.
         -5    1    4    4    0  502  0.32176540333E+02 -0.17661949185E+02  0.19463615315E+03  0.19812267995E+03  0.47000000000E+01 0. -1.
          5    1    3    3  503    0 -0.14096315822E+02 -0.54227186688E+02  0.16757492354E+02  0.58670243274E+02  0.47000000000E+01 0. -1.
         -5    1    3    3    0  503  0.75297578356E+01  0.42770412294E+02  0.11691429918E+03  0.12480804771E+03  0.47000000000E+01 0. -1.
<mgrwt>
<rscale>  0 0.12569476E+03</rscale>
<asrwt>0</asrwt>
<pdfrwt beam="1">  1        5 0.58226602E-01 0.12569879E+03</pdfrwt>
<pdfrwt beam="2">  1       -5 0.65948224E-02 0.12569879E+03</pdfrwt>
<totfact> 0.31593666E+02</totfact>
</mgrwt>
</event>
<event>
 8    1  0.3573290E-007  0.2001111E+03  0.7546771E-02  0.1149646E+00
         -5   -1    0    0    0  501 -0.00000000000E+00  0.00000000000E+00  0.86532209882E+03  0.86533486275E+03  0.47000000000E+01 0.  1.
          5   -1    0    0  501    0  0.00000000000E+00 -0.00000000000E+00 -0.46209222052E+02  0.46447628601E+02  0.47000000000E+01 0.  1.
         25    2    1    2    0    0  0.15162711462E+03 -0.37792069767E+02  0.39248965170E+03  0.44055873823E+03  0.12499941084E+03 0.  0.
         25    2    1    2    0    0 -0.15162711462E+03  0.37792069767E+02  0.42662322506E+03  0.47122375313E+03  0.12500170768E+03 0.  0.
          5    1    3    3  502    0  0.10178907130E+03 -0.49462248285E+02  0.36520048967E+03  0.38236241538E+03  0.47000000000E+01 0. -1.
         -5    1    3    3    0  502  0.49838043321E+02  0.11670178517E+02  0.27289162035E+02  0.58196322849E+02  0.47000000000E+01 0. -1.
          5    1    4    4  503    0 -0.70004248265E+02  0.66557046150E+02  0.31731224982E+03  0.33172215641E+03  0.47000000000E+01 0. -1.
         -5    1    4    4    0  503 -0.81622866356E+02 -0.28764976383E+02  0.10931097524E+03  0.13950159672E+03  0.47000000000E+01 0. -1.
<mgrwt>
<rscale>  0 0.20011073E+03</rscale>
<asrwt>0</asrwt>
<pdfrwt beam="2">  1        5 0.71284315E-02 0.20011109E+03</pdfrwt>
<pdfrwt beam="1">  1       -5 0.13314580E+00 0.20011109E+03</pdfrwt>
<totfact> 0.44487668E+01</totfact>
</mgrwt>
</event>
<event>
 8    1  0.3573290E-007  0.1336642E+03  0.7546771E-02  0.1222122E+00
          5   -1    0    0  501    0  0.00000000000E+00  0.00000000000E+00  0.27400425320E+02  0.27800599053E+02  0.47000000000E+01 0. -1.
         -5   -1    0    0    0  501 -0.00000000000E+00 -0.00000000000E+00 -0.64781379265E+03  0.64783084208E+03  0.47000000000E+01 0. -1.
         25    2    1    2    0    0 -0.41497500990E+02  0.22796296186E+02 -0.29716192662E+03  0.32583943393E+03  0.12499764944E+03 0.  0.
         25    2    1    2    0    0  0.41497500990E+02 -0.22796296186E+02 -0.32325144071E+03  0.34979200720E+03  0.12498496178E+03 0.  0.
          5    1    3    3  502    0 -0.64543536439E+02 -0.20889807553E+02 -0.89904632201E+02  0.11272615068E+03  0.47000000000E+01 0. -1.
         -5    1    3    3    0  502  0.23046035449E+02  0.43686103739E+02 -0.20725729442E+03  0.21311328326E+03  0.47000000000E+01 0. -1.
          5    1    4    4  503    0 -0.81780520840E+01  0.70026781952E+01 -0.27214818162E+03  0.27240161673E+03  0.47000000000E+01 0.  1.
         -5    1    4    4    0  503  0.49675553074E+02 -0.29798974381E+02 -0.51103259093E+02  0.77390390471E+02  0.47000000000E+01 0.  1.
<mgrwt>
<rscale>  0 0.13366126E+03</rscale>
<asrwt>0</asrwt>
<pdfrwt beam="1">  1        5 0.42475446E-02 0.13366423E+03</pdfrwt>
<pdfrwt beam="2">  1       -5 0.99695743E-01 0.13366423E+03</pdfrwt>
<totfact> 0.19594267E+02</totfact>
</mgrwt>
</event>
<event>
 8    1  0.3573290E-007  0.1263491E+03  0.7546771E-02  0.1232980E+00
          5   -1    0    0  501    0  0.00000000000E+00  0.00000000000E+00  0.52775551113E+03  0.52777643897E+03  0.47000000000E+01 0.  1.
         -5   -1    0    0    0  501 -0.00000000000E+00 -0.00000000000E+00 -0.32815876985E+02  0.33150743315E+02  0.47000000000E+01 0.  1.
         25    2    1    2    0    0  0.74015010210E+01  0.16796572660E+02  0.16639967010E+03  0.20893284537E+03  0.12500870606E+03 0.  0.
         25    2    1    2    0    0 -0.74015010210E+01 -0.16796572660E+02  0.32853996404E+03  0.35199433692E+03  0.12499839270E+03 0.  0.
          5    1    4    4  502    0  0.57253257158E+02  0.50386052404E+01  0.13891186452E+03  0.15040584797E+03  0.47000000000E+01 0.  1.
         -5    1    4    4    0  502 -0.64654758179E+02 -0.21835177901E+02  0.18962809952E+03  0.20158848895E+03  0.47000000000E+01 0.  1.
          5    1    3    3  503    0 -0.36901906276E+02 -0.19188348642E+02  0.13953027841E+03  0.14567337438E+03  0.47000000000E+01 0.  1.
         -5    1    3    3    0  503  0.44303407297E+02  0.35984921303E+02  0.26869391696E+02  0.63259470986E+02  0.47000000000E+01 0.  1.
<mgrwt>
<rscale>  0 0.12634650E+03</rscale>
<asrwt>0</asrwt>
<pdfrwt beam="1">  1        5 0.81220517E-01 0.12634905E+03</pdfrwt>
<pdfrwt beam="2">  1       -5 0.50759657E-02 0.12634905E+03</pdfrwt>
<totfact> 0.23261096E+02</totfact>
</mgrwt>
</event>
<event>
 8    1  0.3573290E-007  0.1489235E+03  0.7546771E-02  0.1201816E+00
         -5   -1    0    0    0  501 -0.00000000000E+00  0.00000000000E+00  0.63567368217E+03  0.63569105720E+03  0.47000000000E+01 0.  1.
          5   -1    0    0  501    0  0.00000000000E+00 -0.00000000000E+00 -0.34814183205E+02  0.35130006437E+02  0.47000000000E+01 0.  1.
         25    2    1    2    0    0  0.41975718498E+02  0.69227639071E+02  0.31938607736E+03  0.35239989019E+03  0.12499515687E+03 0.  0.
         25    2    1    2    0    0 -0.41975718498E+02 -0.69227639071E+02  0.28147342161E+03  0.31842117345E+03  0.12494130492E+03 0.  0.
          5    1    3    3  502    0  0.77118880825E+01 -0.81838014359E+01  0.22576053446E+03  0.22608926721E+03  0.47000000000E+01 0.  1.
         -5    1    3    3    0  502  0.34263830416E+02  0.77411440507E+02  0.93625542891E+02  0.12631062298E+03  0.47000000000E+01 0.  1.
          5    1    4    4  503    0 -0.51994718574E+01 -0.83855516049E+02  0.91495098754E+02  0.12430697959E+03  0.47000000000E+01 0. -1.
         -5    1    4    4    0  503 -0.36776246641E+02  0.14627876978E+02  0.18997832286E+03  0.19411419386E+03  0.47000000000E+01 0. -1.
<mgrwt>
<rscale>  0 0.14891222E+03</rscale>
<asrwt>0</asrwt>
<pdfrwt beam="2">  1        5 0.53816587E-02 0.14892352E+03</pdfrwt>
<pdfrwt beam="1">  1       -5 0.97821584E-01 0.14892352E+03</pdfrwt>
<totfact> 0.14354597E+02</totfact>
</mgrwt>
</event>
<event>
 8    1  0.3573290E-007  0.1277684E+03  0.7546771E-02  0.1230806E+00
          5   -1    0    0  501    0  0.00000000000E+00  0.00000000000E+00  0.23616910767E+03  0.23621587038E+03  0.47000000000E+01 0.  1.
         -5   -1    0    0    0  501 -0.00000000000E+00 -0.00000000000E+00 -0.69413241073E+02  0.69572178608E+02  0.47000000000E+01 0.  1.
         25    2    1    2    0    0 -0.21629102707E+02 -0.15214730143E+02  0.71432736328E+02  0.14638101679E+03  0.12500184063E+03 0.  0.
         25    2    1    2    0    0  0.21629102707E+02  0.15214730143E+02  0.95323130273E+02  0.15940703220E+03  0.12499918661E+03 0.  0.
          5    1    4    4  502    0 -0.34152748242E+02 -0.94611611155E+01  0.91356075469E+02  0.98101714089E+02  0.47000000000E+01 0. -1.
         -5    1    4    4    0  502  0.55781850948E+02  0.24675891259E+02  0.39670548034E+01  0.61305318109E+02  0.47000000000E+01 0. -1.
          5    1    3    3  503    0 -0.15633214336E+02  0.40551893925E+02  0.78302766134E+02  0.89678685737E+02  0.47000000000E+01 0.  1.
         -5    1    3    3    0  503 -0.59958883706E+01 -0.55766624068E+02 -0.68700298054E+01  0.56702331053E+02  0.47000000000E+01 0.  1.
<mgrwt>
<rscale>  0 0.12776776E+03</rscale>
<asrwt>0</asrwt>
<pdfrwt beam="1">  1        5 0.36349532E-01 0.12776841E+03</pdfrwt>
<pdfrwt beam="2">  1       -5 0.10694783E-01 0.12776841E+03</pdfrwt>
<totfact> 0.37043245E+02</totfact>
</mgrwt>
</event>
<event>
 8    1  0.3573290E-007  0.1387427E+03  0.7546771E-02  0.1215033E+00
          5   -1    0    0  501    0  0.00000000000E+00  0.00000000000E+00  0.62498819862E+02  0.62675294049E+02  0.47000000000E+01 0. -1.
         -5   -1    0    0    0  501 -0.00000000000E+00 -0.00000000000E+00 -0.31217781303E+03  0.31221319150E+03  0.47000000000E+01 0. -1.
         25    2    1    2    0    0  0.60039473143E+02 -0.44641245980E+01 -0.10155251513E+03  0.17193282793E+03  0.12499326881E+03 0.  0.
         25    2    1    2    0    0 -0.60039473143E+02  0.44641245980E+01 -0.14812647804E+03  0.20295565762E+03  0.12499951488E+03 0.  0.
          5    1    4    4  502    0 -0.54194834861E+02  0.56127785951E+02 -0.52975258654E+02  0.94423919167E+02  0.47000000000E+01 0.  1.
         -5    1    4    4    0  502 -0.58446382816E+01 -0.51663661353E+02 -0.95151219386E+02  0.10853173845E+03  0.47000000000E+01 0.  1.
          5    1    3    3  503    0  0.51441751443E+02 -0.18377626761E+02 -0.12870028716E+03  0.13989226166E+03  0.47000000000E+01 0. -1.
         -5    1    3    3    0  503  0.85977216995E+01  0.13913502163E+02  0.27147772031E+02  0.32040566273E+02  0.47000000000E+01 0. -1.
<mgrwt>
<rscale>  0 0.13874132E+03</rscale>
<asrwt>0</asrwt>
<pdfrwt beam="1">  1        5 0.96314996E-02 0.13874273E+03</pdfrwt>
<pdfrwt beam="2">  1       -5 0.48043651E-01 0.13874273E+03</pdfrwt>
<totfact> 0.25788102E+02</totfact>
</mgrwt>
</event>
<event>
 8    1  0.3573290E-007  0.2049278E+03  0.7546771E-02  0.1145647E+00
         -5   -1    0    0    0  501 -0.00000000000E+00  0.00000000000E+00  0.55932414381E+03  0.55934389051E+03  0.47000000000E+01 0. -1.
          5   -1    0    0  501    0  0.00000000000E+00 -0.00000000000E+00 -0.10207618346E+03  0.10218432967E+03  0.47000000000E+01 0. -1.
         25    2    1    2    0    0 -0.16221129901E+03  0.76719620115E+01  0.39889404924E+03  0.44845413796E+03  0.12499314703E+03 0.  0.
         25    2    1    2    0    0  0.16221129901E+03 -0.76719620115E+01  0.58353911114E+02  0.21307408222E+03  0.12499608411E+03 0.  0.
          5    1    3    3  502    0 -0.22688160064E+01  0.28336070362E+02  0.16002089902E+02  0.32958114188E+02  0.47000000000E+01 0.  1.
         -5    1    3    3    0  502 -0.15994248300E+03 -0.20664108350E+02  0.38289195934E+03  0.41549602377E+03  0.47000000000E+01 0.  1.
          5    1    4    4  503    0  0.81031113670E+02  0.52284703005E+02  0.29583990404E+00  0.96550034035E+02  0.47000000000E+01 0. -1.
         -5    1    4    4    0  503  0.81180185340E+02 -0.59956665016E+02  0.58058071210E+02  0.11652404818E+03  0.47000000000E+01 0. -1.
<mgrwt>
<rscale>  0 0.20492731E+03</rscale>
<asrwt>0</asrwt>
<pdfrwt beam="2">  1        5 0.15713866E-01 0.20492776E+03</pdfrwt>
<pdfrwt beam="1">  1       -5 0.86059706E-01 0.20492776E+03</pdfrwt>
<totfact> 0.32950803E+01</totfact>
</mgrwt>
</event>
<event>
 8    1  0.3573290E-007  0.1254695E+03  0.7546771E-02  0.1234339E+00
         -5   -1    0    0    0  501 -0.00000000000E+00  0.00000000000E+00  0.27373524160E+02  0.27774085492E+02  0.47000000000E+01 0. -1.
          5   -1    0    0  501    0  0.00000000000E+00 -0.00000000000E+00 -0.57100590992E+03  0.57102525265E+03  0.47000000000E+01 0. -1.
         25    2    1    2    0    0 -0.14100534223E+01 -0.10749236995E+02 -0.28071824435E+03  0.30748222699E+03  0.12500021143E+03 0.  0.
         25    2    1    2    0    0  0.14100534223E+01  0.10749236995E+02 -0.26291414141E+03  0.29131711115E+03  0.12499711656E+03 0.  0.
          5    1    3    3  502    0 -0.44296177262E+02  0.38365345224E+02 -0.15518296350E+03  0.16594545247E+03  0.47000000000E+01 0.  1.
         -5    1    3    3    0  502  0.42886123840E+02 -0.49114582218E+02 -0.12553528085E+03  0.14153677452E+03  0.47000000000E+01 0.  1.
          5    1    4    4  503    0  0.19812278766E+02 -0.51927647865E+02 -0.15886971332E+03  0.16837661005E+03  0.47000000000E+01 0. -1.
         -5    1    4    4    0  503 -0.18402225343E+02  0.62676884860E+02 -0.10404442810E+03  0.12294050110E+03  0.47000000000E+01 0. -1.
<mgrwt>
<rscale>  0 0.12546870E+03</rscale>
<asrwt>0</asrwt>
<pdfrwt beam="2">  1        5 0.87879355E-01 0.12546947E+03</pdfrwt>
<pdfrwt beam="1">  1       -5 0.42436121E-02 0.12546947E+03</pdfrwt>
<totfact> 0.25945963E+02</totfact>
</mgrwt>
</event>
<event>
 8    1  0.3573290E-007  0.1300262E+03  0.7546771E-02  0.1227419E+00
          5   -1    0    0  501    0  0.00000000000E+00  0.00000000000E+00  0.50214252542E+03  0.50216452068E+03  0.47000000000E+01 0.  1.
         -5   -1    0    0    0  501 -0.00000000000E+00 -0.00000000000E+00 -0.33626402569E+02  0.33953275979E+02  0.47000000000E+01 0.  1.
         25    2    1    2    0    0 -0.18020468454E+02  0.30919563385E+02  0.21673886237E+03  0.25274995199E+03  0.12500418828E+03 0.  0.
         25    2    1    2    0    0  0.18020468454E+02 -0.30919563385E+02  0.25177726048E+03  0.28336784467E+03  0.12499915926E+03 0.  0.
          5    1    4    4  502    0  0.64114066668E+02  0.79806718031E+01  0.91979715263E+02  0.11250183415E+03  0.47000000000E+01 0.  1.
         -5    1    4    4    0  502 -0.46093598214E+02 -0.38900235188E+02  0.15979754522E+03  0.17086601052E+03  0.47000000000E+01 0.  1.
          5    1    3    3  503    0 -0.25786953314E+02  0.18608578379E+02  0.23016402064E+03  0.23239796158E+03  0.47000000000E+01 0.  1.
         -5    1    3    3    0  503  0.77664848598E+01  0.12310985006E+02 -0.13425158273E+02  0.20351990407E+02  0.47000000000E+01 0.  1.
<mgrwt>
<rscale>  0 0.13002496E+03</rscale>
<asrwt>0</asrwt>
<pdfrwt beam="1">  1        5 0.77279534E-01 0.13002617E+03</pdfrwt>
<pdfrwt beam="2">  1       -5 0.52001286E-02 0.13002617E+03</pdfrwt>
<totfact> 0.25318845E+02</totfact>
</mgrwt>
</event>
<event>
 8    1  0.3573290E-007  0.1585037E+03  0.7546771E-02  0.1190397E+00
         -5   -1    0    0    0  501 -0.00000000000E+00  0.00000000000E+00  0.17553388338E+03  0.17559679443E+03  0.47000000000E+01 0.  1.
          5   -1    0    0  501    0  0.00000000000E+00 -0.00000000000E+00 -0.20285663759E+03  0.20291107760E+03  0.47000000000E+01 0.  1.
         25    2    1    2    0    0 -0.65196976050E+02  0.72438062052E+02  0.89112885570E+02  0.18183652333E+03  0.12500198527E+03 0.  0.
         25    2    1    2    0    0  0.65196976050E+02 -0.72438062052E+02 -0.11643563978E+03  0.19667134870E+03  0.12499777066E+03 0.  0.
          5    1    3    3  502    0 -0.86084555460E+02  0.36861206747E+01  0.53155951559E+02  0.10134980691E+03  0.47000000000E+01 0.  1.
         -5    1    3    3    0  502  0.20887579410E+02  0.68751941378E+02  0.35956934011E+02  0.80486716421E+02  0.47000000000E+01 0.  1.
          5    1    4    4  503    0 -0.34896090042E+02 -0.35593539789E+02 -0.24315270733E+02  0.55659316972E+02  0.47000000000E+01 0. -1.
         -5    1    4    4    0  503  0.10009306609E+03 -0.36844522263E+02 -0.92120369045E+02  0.14101203173E+03  0.47000000000E+01 0. -1.
<mgrwt>
<rscale>  0 0.15850284E+03</rscale>
<asrwt>0</asrwt>
<pdfrwt beam="2">  1        5 0.31217741E-01 0.15850367E+03</pdfrwt>
<pdfrwt beam="1">  1       -5 0.27014240E-01 0.15850367E+03</pdfrwt>
<totfact> 0.98214692E+01</totfact>
</mgrwt>
</event>
<event>
 8    1  0.3573290E-007  0.1723940E+03  0.7546771E-02  0.1175374E+00
          5   -1    0    0  501    0  0.00000000000E+00  0.00000000000E+00  0.29887808895E+03  0.29891504154E+03  0.47000000000E+01 0. -1.
         -5   -1    0    0    0  501 -0.00000000000E+00 -0.00000000000E+00 -0.10569996920E+03  0.10580441148E+03  0.47000000000E+01 0. -1.
         25    2    1    2    0    0 -0.11709619769E+03 -0.19579526841E+02  0.46977829236E+02  0.17867913106E+03  0.12499775218E+03 0.  0.
         25    2    1    2    0    0  0.11709619769E+03  0.19579526841E+02  0.14620029052E+03  0.22604032196E+03  0.12499929928E+03 0.  0.
          5    1    4    4  502    0  0.13123065205E+03  0.23353407720E+02  0.74622028926E+02  0.15283128898E+03  0.47000000000E+01 0. -1.
         -5    1    4    4    0  502 -0.14134454365E+02 -0.37738808789E+01  0.71578261594E+02  0.73209032981E+02  0.47000000000E+01 0. -1.
          5    1    3    3  503    0 -0.26175814652E+02 -0.41694797077E+02  0.66603524104E+02  0.82956306566E+02  0.47000000000E+01 0.  1.
         -5    1    3    3    0  503 -0.90920383037E+02  0.22115270237E+02 -0.19625694868E+02  0.95722824490E+02  0.47000000000E+01 0.  1.
<mgrwt>
<rscale>  0 0.17239375E+03</rscale>
<asrwt>0</asrwt>
<pdfrwt beam="1">  1        5 0.45992121E-01 0.17239403E+03</pdfrwt>
<pdfrwt beam="2">  1       -5 0.16272410E-01 0.17239403E+03</pdfrwt>
<totfact> 0.11886023E+02</totfact>
</mgrwt>
</event>
<event>
 8    1  0.3573290E-007  0.1487510E+03  0.7546771E-02  0.1202023E+00
         -5   -1    0    0    0  501 -0.00000000000E+00  0.00000000000E+00  0.12253627749E+04  0.12253717886E+04  0.47000000000E+01 0.  1.
          5   -1    0    0  501    0  0.00000000000E+00 -0.00000000000E+00 -0.25755518956E+02  0.26180847134E+02  0.47000000000E+01 0.  1.
         25    2    1    2    0    0  0.70488501582E+02  0.39087620872E+02  0.94542197654E+03  0.95705255125E+03  0.12502160281E+03 0.  0.
         25    2    1    2    0    0 -0.70488501582E+02 -0.39087620872E+02  0.25418527944E+03  0.29450008445E+03  0.12499468986E+03 0.  0.
          5    1    4    4  502    0 -0.93933295908E+02 -0.45975514251E+02  0.12549778164E+03  0.16342886889E+03  0.47000000000E+01 0. -1.
         -5    1    4    4    0  502  0.23444794326E+02  0.68878933792E+01  0.12868749780E+03  0.13107121556E+03  0.47000000000E+01 0. -1.
          5    1    3    3  503    0 -0.12534899263E+02  0.57116615784E+02  0.51260929267E+03  0.51595523878E+03  0.47000000000E+01 0. -1.
         -5    1    3    3    0  503  0.83023400845E+02 -0.18028994912E+02  0.43281268387E+03  0.44109731247E+03  0.47000000000E+01 0. -1.
<mgrwt>
<rscale>  0 0.14874539E+03</rscale>
<asrwt>0</asrwt>
<pdfrwt beam="2">  1        5 0.39957989E-02 0.14875104E+03</pdfrwt>
<pdfrwt beam="1">  1       -5 0.18855074E+00 0.14875104E+03</pdfrwt>
<totfact> 0.40720476E+01</totfact>
</mgrwt>
</event>
<event>
 8    1  0.3573290E-007  0.1661373E+03  0.7546771E-02  0.1181938E+00
         -5   -1    0    0    0  501 -0.00000000000E+00  0.00000000000E+00  0.59759430700E+03  0.59761278916E+03  0.47000000000E+01 0.  1.
          5   -1    0    0  501    0  0.00000000000E+00 -0.00000000000E+00 -0.46164098591E+02  0.46402736975E+02  0.47000000000E+01 0.  1.
         25    2    1    2    0    0 -0.99169888528E+02 -0.46263089150E+02  0.29185603337E+03  0.33582966180E+03  0.12500670910E+03 0.  0.
         25    2    1    2    0    0  0.99169888528E+02  0.46263089150E+02  0.25957417504E+03  0.30818586433E+03  0.12499933767E+03 0.  0.
          5    1    4    4  502    0  0.90979459722E+02  0.69474880694E+02  0.11821793780E+03  0.16462561148E+03  0.47000000000E+01 0.  1.
         -5    1    4    4    0  502  0.81904288060E+01 -0.23211791543E+02  0.14135623724E+03  0.14356025284E+03  0.47000000000E+01 0.  1.
          5    1    3    3  503    0 -0.39095543450E+02 -0.42925911847E+02  0.27034893008E+02  0.64218929184E+02  0.47000000000E+01 0. -1.
         -5    1    3    3    0  503 -0.60074345078E+02 -0.33371773031E+01  0.26482114037E+03  0.27161073262E+03  0.47000000000E+01 0. -1.
<mgrwt>
<rscale>  0 0.16613596E+03</rscale>
<asrwt>0</asrwt>
<pdfrwt beam="2">  1        5 0.71219475E-02 0.16613735E+03</pdfrwt>
<pdfrwt beam="1">  1       -5 0.91957364E-01 0.16613735E+03</pdfrwt>
<totfact> 0.10735838E+02</totfact>
</mgrwt>
</event>
<event>
 8    1  0.3573290E-007  0.1729063E+03  0.7546771E-02  0.1174851E+00
          5   -1    0    0  501    0  0.00000000000E+00  0.00000000000E+00  0.83867459987E+03  0.83868776936E+03  0.47000000000E+01 0. -1.
         -5   -1    0    0    0  501 -0.00000000000E+00 -0.00000000000E+00 -0.36668426631E+02  0.36968412349E+02  0.47000000000E+01 0. -1.
         25    2    1    2    0    0  0.77941448309E+02  0.90532314326E+02  0.32247943337E+03  0.36590924084E+03  0.12500247312E+03 0.  0.
         25    2    1    2    0    0 -0.77941448309E+02 -0.90532314326E+02  0.47952673987E+03  0.50974694087E+03  0.12500032067E+03 0.  0.
          5    1    3    3  502    0  0.88012572324E+02  0.89996241456E+02  0.16280336505E+03  0.20584596677E+03  0.47000000000E+01 0.  1.
         -5    1    3    3    0  502 -0.10071124015E+02  0.53607287029E+00  0.15967606832E+03  0.16006327407E+03  0.47000000000E+01 0.  1.
          5    1    4    4  503    0 -0.24796262651E+02 -0.37450089510E+02  0.39079618343E+03  0.39339688717E+03  0.47000000000E+01 0. -1.
         -5    1    4    4    0  503 -0.53145185658E+02 -0.53082224816E+02  0.88730556437E+02  0.11635005370E+03  0.47000000000E+01 0. -1.
<mgrwt>
<rscale>  0 0.17290591E+03</rscale>
<asrwt>0</asrwt>
<pdfrwt beam="1">  1        5 0.12905095E+00 0.17290630E+03</pdfrwt>
<pdfrwt beam="2">  1       -5 0.56653852E-02 0.17290630E+03</pdfrwt>
<totfact> 0.68587347E+01</totfact>
</mgrwt>
</event>
<event>
 8    1  0.3573290E-007  0.1313691E+03  0.7546771E-02  0.1225443E+00
          5   -1    0    0  501    0  0.00000000000E+00  0.00000000000E+00  0.74815577686E+03  0.74817053968E+03  0.47000000000E+01 0. -1.
         -5   -1    0    0    0  501 -0.00000000000E+00 -0.00000000000E+00 -0.25715343819E+02  0.26141325669E+02  0.47000000000E+01 0. -1.
         25    2    1    2    0    0  0.29860352736E+01  0.40273655672E+02  0.23224792690E+03  0.26682143396E+03  0.12499477717E+03 0.  0.
         25    2    1    2    0    0 -0.29860352736E+01 -0.40273655672E+02  0.49019250613E+03  0.50749043139E+03  0.12500784429E+03 0.  0.
          5    1    3    3  502    0  0.31447402094E+02 -0.32054419498E+02  0.13433672211E+03  0.14172109870E+03  0.47000000000E+01 0.  1.
         -5    1    3    3    0  502 -0.28461366820E+02  0.72328075170E+02  0.97911204790E+02  0.12510033526E+03  0.47000000000E+01 0.  1.
          5    1    4    4  503    0  0.33358201623E+02  0.13303564687E+02  0.36193147166E+03  0.36373923987E+03  0.47000000000E+01 0.  1.
         -5    1    4    4    0  503 -0.36344236896E+02 -0.53577220359E+02  0.12826103448E+03  0.14375119152E+03  0.47000000000E+01 0.  1.
<mgrwt>
<rscale>  0 0.13136601E+03</rscale>
<asrwt>0</asrwt>
<pdfrwt beam="1">  1        5 0.11513482E+00 0.13136912E+03</pdfrwt>
<pdfrwt beam="2">  1       -5 0.39901092E-02 0.13136912E+03</pdfrwt>
<totfact> 0.15120197E+02</totfact>
</mgrwt>
</event>
<event>
 8    1  0.3573290E-007  0.1418184E+03  0.7546771E-02  0.1210918E+00
          5   -1    0    0  501    0  0.00000000000E+00  0.00000000000E+00  0.32385031660E+03  0.32388442007E+03  0.47000000000E+01 0.  1.
         -5   -1    0    0    0  501 -0.00000000000E+00 -0.00000000000E+00 -0.65160249380E+02  0.65329534663E+02  0.47000000000E+01 0.  1.
         25    2    1    2    0    0  0.66978771764E+02 -0.11093341169E+01  0.86250717922E+02  0.16594774830E+03  0.12494831865E+03 0.  0.
         25    2    1    2    0    0 -0.66978771764E+02  0.11093341169E+01  0.17243934930E+03  0.22326620643E+03  0.12500033303E+03 0.  0.
          5    1    3    3  502    0  0.50104697367E+01 -0.38015600391E+02 -0.15088471131E+02  0.41473396788E+02  0.47000000000E+01 0.  1.
         -5    1    3    3    0  502  0.61968302028E+02  0.36906266274E+02  0.10133918905E+03  0.12447435151E+03  0.47000000000E+01 0.  1.
          5    1    4    4  503    0  0.15316856817E+02  0.33227469671E+02  0.98716573119E+01  0.38186521989E+02  0.47000000000E+01 0. -1.
         -5    1    4    4    0  503 -0.82295628581E+02 -0.32118135554E+02  0.16256769199E+03  0.18507968444E+03  0.47000000000E+01 0. -1.
<mgrwt>
<rscale>  0 0.14180698E+03</rscale>
<asrwt>0</asrwt>
<pdfrwt beam="1">  1        5 0.49838772E-01 0.14181844E+03</pdfrwt>
<pdfrwt beam="2">  1       -5 0.10040299E-01 0.14181844E+03</pdfrwt>
<totfact> 0.22360978E+02</totfact>
</mgrwt>
</event>
<event>
 8    1  0.3573290E-007  0.1450415E+03  0.7546771E-02  0.1206704E+00
         -5   -1    0    0    0  501 -0.00000000000E+00  0.00000000000E+00  0.79370044050E+03  0.79371435621E+03  0.47000000000E+01 0. -1.
          5   -1    0    0  501    0  0.00000000000E+00 -0.00000000000E+00 -0.45531398146E+02  0.45773335219E+02  0.47000000000E+01 0. -1.
         25    2    1    2    0    0 -0.73482407654E+02 -0.32116949144E+01  0.64598265322E+03  0.66206423315E+03  0.12500192536E+03 0.  0.
         25    2    1    2    0    0  0.73482407654E+02  0.32116949144E+01  0.10218638914E+03  0.17742345828E+03  0.12500818454E+03 0.  0.
          5    1    3    3  502    0 -0.25599610833E+02 -0.62831901376E+02  0.32885377999E+03  0.33581257647E+03  0.47000000000E+01 0. -1.
         -5    1    3    3    0  502 -0.47882796821E+02  0.59620206461E+02  0.31712887323E+03  0.32625165668E+03  0.47000000000E+01 0. -1.
          5    1    4    4  503    0  0.66633095198E+02 -0.51706708165E+02  0.83615838684E+02  0.11885811509E+03  0.47000000000E+01 0.  1.
         -5    1    4    4    0  503  0.68493124561E+01  0.54918403079E+02  0.18570550455E+02  0.58565343182E+02  0.47000000000E+01 0.  1.
<mgrwt>
<rscale>  0 0.14504011E+03</rscale>
<asrwt>0</asrwt>
<pdfrwt beam="2">  1        5 0.70245126E-02 0.14504146E+03</pdfrwt>
<pdfrwt beam="1">  1       -5 0.12212742E+00 0.14504146E+03</pdfrwt>
<totfact> 0.52291733E+01</totfact>
</mgrwt>
</event>
<event>
 8    1  0.3573290E-007  0.1349839E+03  0.7546771E-02  0.1220245E+00
         -5   -1    0    0    0  501 -0.00000000000E+00  0.00000000000E+00  0.46974509549E+02  0.47209051540E+02  0.47000000000E+01 0. -1.
          5   -1    0    0  501    0  0.00000000000E+00 -0.00000000000E+00 -0.38683439300E+03  0.38686294422E+03  0.47000000000E+01 0. -1.
         25    2    1    2    0    0  0.50661491244E+02 -0.53536689715E+01 -0.16514489809E+03  0.21329202098E+03  0.12500160151E+03 0.  0.
         25    2    1    2    0    0 -0.50661491244E+02  0.53536689715E+01 -0.17471498536E+03  0.22077997478E+03  0.12499289055E+03 0.  0.
          5    1    4    4  502    0  0.31090511375E+02 -0.18740960627E+02 -0.10294330147E+03  0.10925775405E+03  0.47000000000E+01 0. -1.
         -5    1    4    4    0  502 -0.81752002618E+02  0.24094629598E+02 -0.71771683883E+02  0.11152222072E+03  0.47000000000E+01 0. -1.
          5    1    3    3  503    0 -0.17365353042E+02 -0.15682402236E+02 -0.13657033139E+03  0.13863996048E+03  0.47000000000E+01 0.  1.
         -5    1    3    3    0  503  0.68026844286E+02  0.10328733264E+02 -0.28574566705E+02  0.74652060498E+02  0.47000000000E+01 0.  1.
<mgrwt>
<rscale>  0 0.13498187E+03</rscale>
<asrwt>0</asrwt>
<pdfrwt beam="2">  1        5 0.59533219E-01 0.13498388E+03</pdfrwt>
<pdfrwt beam="1">  1       -5 0.72470858E-02 0.13498388E+03</pdfrwt>
<totfact> 0.26316095E+02</totfact>
</mgrwt>
</event>
<event>
 8    1  0.3573290E-007  0.1317161E+03  0.7546771E-02  0.1224941E+00
          5   -1    0    0  501    0  0.00000000000E+00  0.00000000000E+00  0.95087781216E+02  0.95203866185E+02  0.47000000000E+01 0.  1.
         -5   -1    0    0    0  501 -0.00000000000E+00 -0.00000000000E+00 -0.18596535304E+03  0.18602473634E+03  0.47000000000E+01 0.  1.
         25    2    1    2    0    0 -0.40740883690E+02  0.78200157049E+01 -0.65540290160E+02  0.14709764075E+03  0.12498485521E+03 0.  0.
         25    2    1    2    0    0  0.40740883690E+02 -0.78200157049E+01 -0.25337281662E+02  0.13413096177E+03  0.12501265862E+03 0.  0.
          5    1    4    4  502    0 -0.41930069801E+02 -0.20316544258E+02 -0.68004239771E+00  0.46834230876E+02  0.47000000000E+01 0. -1.
         -5    1    4    4    0  502  0.82670953491E+02  0.12496528553E+02 -0.24657239264E+02  0.87296730896E+02  0.47000000000E+01 0. -1.
          5    1    3    3  503    0  0.18281591347E+02 -0.56556810700E+01  0.28804741667E+02  0.34899949184E+02  0.47000000000E+01 0. -1.
         -5    1    3    3    0  503 -0.59022475037E+02  0.13475696775E+02 -0.94345031827E+02  0.11219769157E+03  0.47000000000E+01 0. -1.
<mgrwt>
<rscale>  0 0.13170953E+03</rscale>
<asrwt>0</asrwt>
<pdfrwt beam="1">  1        5 0.14642387E-01 0.13171612E+03</pdfrwt>
<pdfrwt beam="2">  1       -5 0.28623552E-01 0.13171612E+03</pdfrwt>
<totfact> 0.34394074E+02</totfact>
</mgrwt>
</event>
<event>
 8    1  0.3573290E-007  0.1435126E+03  0.7546771E-02  0.1208679E+00
         -5   -1    0    0    0  501 -0.00000000000E+00  0.00000000000E+00  0.46002773983E+03  0.46005174862E+03  0.47000000000E+01 0. -1.
          5   -1    0    0  501    0  0.00000000000E+00 -0.00000000000E+00 -0.54759121480E+02  0.54960452920E+02  0.47000000000E+01 0. -1.
         25    2    1    2    0    0  0.62099577043E+02  0.33362747253E+02  0.31317667889E+03  0.34449301811E+03  0.12500550769E+03 0.  0.
         25    2    1    2    0    0 -0.62099577043E+02 -0.33362747253E+02  0.92091939459E+02  0.17051918343E+03  0.12500574480E+03 0.  0.
          5    1    4    4  502    0  0.15536428513E+02 -0.59057529284E+02  0.33521814932E+02  0.69821017268E+02  0.47000000000E+01 0. -1.
         -5    1    4    4    0  502 -0.77636005555E+02  0.25694782031E+02  0.58570124527E+02  0.10069816617E+03  0.47000000000E+01 0. -1.
          5    1    3    3  503    0  0.12969156340E+02  0.72945054181E+02  0.21723039247E+03  0.22956548817E+03  0.47000000000E+01 0.  1.
         -5    1    3    3    0  503  0.49130420703E+02 -0.39582306928E+02  0.95946286416E+02  0.11492752994E+03  0.47000000000E+01 0.  1.
<mgrwt>
<rscale>  0 0.14351255E+03</rscale>
<asrwt>0</asrwt>
<pdfrwt beam="2">  1        5 0.84418142E-02 0.14351260E+03</pdfrwt>
<pdfrwt beam="1">  1       -5 0.70790832E-01 0.14351260E+03</pdfrwt>
<totfact> 0.14076532E+02</totfact>
</mgrwt>
</event>
<event>
 8    1  0.3573290E-007  0.1604258E+03  0.7546771E-02  0.1188218E+00
          5   -1    0    0  501    0  0.00000000000E+00  0.00000000000E+00  0.11971068278E+03  0.11980291136E+03  0.47000000000E+01 0. -1.
         -5   -1    0    0    0  501 -0.00000000000E+00 -0.00000000000E+00 -0.22308511397E+03  0.22313461873E+03  0.47000000000E+01 0. -1.
         25    2    1    2    0    0  0.95028113105E+02 -0.32860235537E+02 -0.84756496187E+02  0.18143496516E+03  0.12499938230E+03 0.  0.
         25    2    1    2    0    0 -0.95028113105E+02  0.32860235537E+02 -0.18617935003E+02  0.16150256493E+03  0.12500525436E+03 0.  0.
          5    1    4    4  502    0  0.13756296903E+01  0.46109942121E+02  0.27290748323E+02  0.53804219755E+02  0.47000000000E+01 0.  1.
         -5    1    4    4    0  502 -0.96403742795E+02 -0.13249706584E+02 -0.45908683325E+02  0.10769834518E+03  0.47000000000E+01 0.  1.
          5    1    3    3  503    0  0.26866484629E+02  0.42847221109E+02 -0.32667855359E+01  0.50896505193E+02  0.47000000000E+01 0.  1.
         -5    1    3    3    0  503  0.68161628475E+02 -0.75707456646E+02 -0.81489710651E+02  0.13053845997E+03  0.47000000000E+01 0.  1.
<mgrwt>
<rscale>  0 0.16042470E+03</rscale>
<asrwt>0</asrwt>
<pdfrwt beam="1">  1        5 0.18427931E-01 0.16042584E+03</pdfrwt>
<pdfrwt beam="2">  1       -5 0.34331689E-01 0.16042584E+03</pdfrwt>
<totfact> 0.16846101E+02</totfact>
</mgrwt>
</event>
<event>
 8    1  0.3573290E-007  0.1268754E+03  0.7546771E-02  0.1232169E+00
         -5   -1    0    0    0  501 -0.00000000000E+00  0.00000000000E+00  0.20066562334E+03  0.20072065761E+03  0.47000000000E+01 0.  1.
          5   -1    0    0  501    0  0.00000000000E+00 -0.00000000000E+00 -0.88886566363E+02  0.89010739126E+02  0.47000000000E+01 0.  1.
         25    2    1    2    0    0  0.21209261506E+02  0.46713419438E+01  0.10143582419E+03  0.16243949597E+03  0.12500283682E+03 0.  0.
         25    2    1    2    0    0 -0.21209261506E+02 -0.46713419438E+01  0.10343232780E+02  0.12729190076E+03  0.12499836529E+03 0.  0.
          5    1    4    4  502    0  0.25524155106E+02 -0.19503931713E+02 -0.43525187454E+02  0.54299335070E+02  0.47000000000E+01 0. -1.
         -5    1    4    4    0  502 -0.46733416613E+02  0.14832589769E+02  0.53868420234E+02  0.72992565691E+02  0.47000000000E+01 0. -1.
          5    1    3    3  503    0 -0.66344894137E+00 -0.49857167269E+02  0.62332719986E+01  0.50469010020E+02  0.47000000000E+01 0. -1.
         -5    1    3    3    0  503  0.21872710448E+02  0.54528509213E+02  0.95202552196E+02  0.11197048595E+03  0.47000000000E+01 0. -1.
<mgrwt>
<rscale>  0 0.12687428E+03</rscale>
<asrwt>0</asrwt>
<pdfrwt beam="2">  1        5 0.13688642E-01 0.12687539E+03</pdfrwt>
<pdfrwt beam="1">  1       -5 0.30885419E-01 0.12687539E+03</pdfrwt>
<totfact> 0.32995579E+02</totfact>
</mgrwt>
</event>
<event>
 8    1  0.3573290E-007  0.1345093E+03  0.7546771E-02  0.1220914E+00
          5   -1    0    0  501    0  0.00000000000E+00  0.00000000000E+00  0.25591910837E+02  0.26019913534E+02  0.47000000000E+01 0.  1.
         -5   -1    0    0    0  501 -0.00000000000E+00 -0.00000000000E+00 -0.70159708088E+03  0.70161282336E+03  0.47000000000E+01 0.  1.
         25    2    1    2    0    0  0.10913491845E+02 -0.48452676130E+02 -0.32479503421E+03  0.35154588234E+03  0.12500370801E+03 0.  0.
         25    2    1    2    0    0 -0.10913491845E+02  0.48452676130E+02 -0.35121013584E+03  0.37608685455E+03  0.12500398603E+03 0.  0.
          5    1    4    4  502    0  0.50483413785E+02  0.51416053469E+02 -0.20775701124E+03  0.21994829242E+03  0.47000000000E+01 0.  1.
         -5    1    4    4    0  502 -0.61396905630E+02 -0.29633773390E+01 -0.14345312460E+03  0.15613856213E+03  0.47000000000E+01 0.  1.
          5    1    3    3  503    0  0.48222747215E+02  0.90532520757E+01 -0.22531912753E+03  0.23064733676E+03  0.47000000000E+01 0. -1.
         -5    1    3    3    0  503 -0.37309255370E+02 -0.57505928206E+02 -0.99475906680E+02  0.12089854559E+03  0.47000000000E+01 0. -1.
<mgrwt>
<rscale>  0 0.13450928E+03</rscale>
<asrwt>0</asrwt>
<pdfrwt beam="1">  1        5 0.39713518E-02 0.13450934E+03</pdfrwt>
<pdfrwt beam="2">  1       -5 0.10797213E+00 0.13450934E+03</pdfrwt>
<totfact> 0.18022365E+02</totfact>
</mgrwt>
</event>
<event>
 8    1  0.3573290E-007  0.1404206E+03  0.7546771E-02  0.1212767E+00
         -5   -1    0    0    0  501 -0.00000000000E+00  0.00000000000E+00  0.34053006603E+03  0.34056249921E+03  0.47000000000E+01 0.  1.
          5   -1    0    0  501    0  0.00000000000E+00 -0.00000000000E+00 -0.71925398626E+02  0.72078796934E+02  0.47000000000E+01 0.  1.
         25    2    1    2    0    0 -0.56583627516E+02  0.29818257284E+02  0.22570804814E+03  0.26582335666E+03  0.12500839405E+03 0.  0.
         25    2    1    2    0    0  0.56583627516E+02 -0.29818257284E+02  0.42896619263E+02  0.14681793948E+03  0.12499820814E+03 0.  0.
          5    1    3    3  502    0 -0.77496650334E+02 -0.52773155786E+01  0.69642239810E+02  0.10443041912E+03  0.47000000000E+01 0.  1.
         -5    1    3    3    0  502  0.20913022818E+02  0.35095572863E+02  0.15606580833E+03  0.16139293754E+03  0.47000000000E+01 0.  1.
          5    1    4    4  503    0  0.27850261293E+02 -0.63971835181E+02  0.66160728654E+02  0.96267153103E+02  0.47000000000E+01 0. -1.
         -5    1    4    4    0  503  0.28733366224E+02  0.34153577897E+02 -0.23264109391E+02  0.50550786379E+02  0.47000000000E+01 0. -1.
<mgrwt>
<rscale>  0 0.14041829E+03</rscale>
<asrwt>0</asrwt>
<pdfrwt beam="2">  1        5 0.11079741E-01 0.14042056E+03</pdfrwt>
<pdfrwt beam="1">  1       -5 0.52403536E-01 0.14042056E+03</pdfrwt>
<totfact> 0.16852023E+02</totfact>
</mgrwt>
</event>
<event>
 8    1  0.3573290E-007  0.1264245E+03  0.7546771E-02  0.1232861E+00
          5   -1    0    0  501    0  0.00000000000E+00  0.00000000000E+00  0.83024836110E+02  0.83157762182E+02  0.47000000000E+01 0.  1.
         -5   -1    0    0    0  501 -0.00000000000E+00 -0.00000000000E+00 -0.20913094958E+03  0.20918375671E+03  0.47000000000E+01 0.  1.
         25    2    1    2    0    0 -0.10101192730E+02  0.15976847259E+02 -0.10463749170E+03  0.16411021710E+03  0.12500345974E+03 0.  0.
         25    2    1    2    0    0  0.10101192730E+02 -0.15976847259E+02 -0.21468621770E+02  0.12823130179E+03  0.12500028518E+03 0.  0.
          5    1    3    3  502    0  0.24619645348E+02 -0.42377597888E+02 -0.14822559062E+02  0.51417759549E+02  0.47000000000E+01 0. -1.
         -5    1    3    3    0  502 -0.34720838079E+02  0.58354445147E+02 -0.89814932638E+02  0.11269245756E+03  0.47000000000E+01 0. -1.
          5    1    4    4  503    0  0.37349941433E+02  0.29309336102E+02  0.28309888343E+02  0.55476076698E+02  0.47000000000E+01 0. -1.
         -5    1    4    4    0  503 -0.27248748703E+02 -0.45286183361E+02 -0.49778510113E+02  0.72755225093E+02  0.47000000000E+01 0. -1.
<mgrwt>
<rscale>  0 0.12642373E+03</rscale>
<asrwt>0</asrwt>
<pdfrwt beam="1">  1        5 0.12787339E-01 0.12642452E+03</pdfrwt>
<pdfrwt beam="2">  1       -5 0.32188279E-01 0.12642452E+03</pdfrwt>
<totfact> 0.34302007E+02</totfact>
</mgrwt>
</event>
<event>
 8    1  0.3573290E-007  0.1415193E+03  0.7546771E-02  0.1211301E+00
          5   -1    0    0  501    0  0.00000000000E+00  0.00000000000E+00  0.17277753606E+03  0.17284145037E+03  0.47000000000E+01 0. -1.
         -5   -1    0    0    0  501 -0.00000000000E+00 -0.00000000000E+00 -0.11585408893E+03  0.11594938517E+03  0.47000000000E+01 0. -1.
         25    2    1    2    0    0 -0.32372229323E+02  0.57923939898E+02  0.24784507343E+02  0.14367321710E+03  0.12499830984E+03 0.  0.
         25    2    1    2    0    0  0.32372229323E+02 -0.57923939898E+02  0.32138939783E+02  0.14511761844E+03  0.12499227051E+03 0.  0.
          5    1    3    3  502    0  0.18581298966E+02  0.31980775528E+02  0.64078382015E+02  0.74136116140E+02  0.47000000000E+01 0. -1.
         -5    1    3    3    0  502 -0.50953528289E+02  0.25943164370E+02 -0.39293874672E+02  0.69537100956E+02  0.47000000000E+01 0. -1.
          5    1    4    4  503    0  0.17356986775E+02 -0.72229540210E+02 -0.29383277210E+02  0.80023986706E+02  0.47000000000E+01 0.  1.
         -5    1    4    4    0  503  0.15015242549E+02  0.14305600312E+02  0.61522216993E+02  0.65093631738E+02  0.47000000000E+01 0.  1.
<mgrwt>
<rscale>  0 0.14151800E+03</rscale>
<asrwt>0</asrwt>
<pdfrwt beam="1">  1        5 0.26593406E-01 0.14151933E+03</pdfrwt>
<pdfrwt beam="2">  1       -5 0.17835953E-01 0.14151933E+03</pdfrwt>
<totfact> 0.28378123E+02</totfact>
</mgrwt>
</event>
<event>
 8    1  0.3573290E-007  0.1480428E+03  0.7546771E-02  0.1202900E+00
          5   -1    0    0  501    0  0.00000000000E+00  0.00000000000E+00  0.25300969094E+03  0.25305334163E+03  0.47000000000E+01 0.  1.
         -5   -1    0    0    0  501 -0.00000000000E+00 -0.00000000000E+00 -0.89417592509E+02  0.89541028865E+02  0.47000000000E+01 0.  1.
         25    2    1    2    0    0  0.17754856637E+02 -0.77302024962E+02  0.50922495208E+02  0.15655371872E+03  0.12500051331E+03 0.  0.
         25    2    1    2    0    0 -0.17754856637E+02  0.77302024962E+02  0.11266960323E+03  0.18604065178E+03  0.12500338646E+03 0.  0.
          5    1    4    4  502    0 -0.37731026432E+02  0.34252645903E+02 -0.11997246207E+02  0.52563276377E+02  0.47000000000E+01 0.  1.
         -5    1    4    4    0  502  0.19976169794E+02  0.43049379059E+02  0.12466684943E+03  0.13347737540E+03  0.47000000000E+01 0.  1.
          5    1    3    3  503    0 -0.20018115104E+02  0.27871939004E+02  0.26686509160E+01  0.34738762412E+02  0.47000000000E+01 0. -1.
         -5    1    3    3    0  503  0.37772971741E+02 -0.10517396397E+03  0.48253844292E+02  0.12181495630E+03  0.47000000000E+01 0. -1.
<mgrwt>
<rscale>  0 0.14804224E+03</rscale>
<asrwt>0</asrwt>
<pdfrwt beam="1">  1        5 0.38937420E-01 0.14804285E+03</pdfrwt>
<pdfrwt beam="2">  1       -5 0.13769406E-01 0.14804285E+03</pdfrwt>
<totfact> 0.21655712E+02</totfact>
</mgrwt>
</event>
<event>
 8    1  0.3573290E-007  0.1628743E+03  0.7546771E-02  0.1185492E+00
          5   -1    0    0  501    0  0.00000000000E+00  0.00000000000E+00  0.40225704647E+03  0.40228450310E+03  0.47000000000E+01 0.  1.
         -5   -1    0    0    0  501 -0.00000000000E+00 -0.00000000000E+00 -0.66178119815E+02  0.66344807952E+02  0.47000000000E+01 0.  1.
         25    2    1    2    0    0 -0.54829162614E+01  0.10425699389E+03  0.15108499647E+03  0.22215254888E+03  0.12500198267E+03 0.  0.
         25    2    1    2    0    0  0.54829162614E+01 -0.10425699389E+03  0.18499393018E+03  0.24647676216E+03  0.12501382699E+03 0.  0.
          5    1    3    3  502    0 -0.24666229710E+02  0.13829255524E+02 -0.14747661340E+02  0.32237473714E+02  0.47000000000E+01 0.  1.
         -5    1    3    3    0  502  0.19183313448E+02  0.90427738364E+02  0.16583265781E+03  0.18991507517E+03  0.47000000000E+01 0.  1.
          5    1    4    4  503    0  0.52497600126E+02 -0.15120492085E+02  0.10214658897E+03  0.11593378687E+03  0.47000000000E+01 0. -1.
         -5    1    4    4    0  503 -0.47014683865E+02 -0.89136501803E+02  0.82847341207E+02  0.13054297529E+03  0.47000000000E+01 0. -1.
<mgrwt>
<rscale>  0 0.16287203E+03</rscale>
<asrwt>0</asrwt>
<pdfrwt beam="1">  1        5 0.61900634E-01 0.16287431E+03</pdfrwt>
<pdfrwt beam="2">  1       -5 0.10196183E-01 0.16287431E+03</pdfrwt>
<totfact> 0.14244536E+02</totfact>
</mgrwt>
</event>
<event>
 8    1  0.3573290E-007  0.1670476E+03  0.7546771E-02  0.1180966E+00
          5   -1    0    0  501    0  0.00000000000E+00  0.00000000000E+00  0.47222044915E+03  0.47224383807E+03  0.47000000000E+01 0. -1.
         -5   -1    0    0    0  501 -0.00000000000E+00 -0.00000000000E+00 -0.59217061973E+02  0.59403286346E+02  0.47000000000E+01 0. -1.
         25    2    1    2    0    0  0.10592306710E+03  0.32504258693E+02  0.18933552402E+03  0.25248370615E+03  0.12499543287E+03 0.  0.
         25    2    1    2    0    0 -0.10592306710E+03 -0.32504258693E+02  0.22366786316E+03  0.27916341827E+03  0.12501471158E+03 0.  0.
          5    1    4    4  502    0 -0.42741472312E+01  0.18689470284E+02  0.13055726528E+03  0.13204110781E+03  0.47000000000E+01 0.  1.
         -5    1    4    4    0  502 -0.10164891987E+03 -0.51193728977E+02  0.93110597885E+02  0.14712231046E+03  0.47000000000E+01 0.  1.
          5    1    3    3  503    0 -0.59589730998E+01  0.27013742593E+02  0.11401496059E+03  0.11741700425E+03  0.47000000000E+01 0. -1.
         -5    1    3    3    0  503  0.11188204020E+03  0.54905161005E+01  0.75320563429E+02  0.13506670190E+03  0.47000000000E+01 0. -1.
<mgrwt>
<rscale>  0 0.16704399E+03</rscale>
<asrwt>0</asrwt>
<pdfrwt beam="1">  1        5 0.72665424E-01 0.16704760E+03</pdfrwt>
<pdfrwt beam="2">  1       -5 0.91264413E-02 0.16704760E+03</pdfrwt>
<totfact> 0.12156115E+02</totfact>
</mgrwt>
</event>
<event>
 8    1  0.3573290E-007  0.1272644E+03  0.7546771E-02  0.1231577E+00
          5   -1    0    0  501    0  0.00000000000E+00  0.00000000000E+00  0.21966898575E+02  0.22464074274E+02  0.47000000000E+01 0. -1.
         -5   -1    0    0    0  501 -0.00000000000E+00 -0.00000000000E+00 -0.94396747637E+03  0.94397917691E+03  0.47000000000E+01 0. -1.
         25    2    1    2    0    0  0.15513729854E+02  0.18092789908E+02 -0.69183492097E+03  0.70344280261E+03  0.12501277456E+03 0.  0.
         25    2    1    2    0    0 -0.15513729854E+02 -0.18092789908E+02 -0.23016565682E+03  0.26300044858E+03  0.12499992605E+03 0.  0.
          5    1    3    3  502    0 -0.32353494904E+02  0.54992948805E+02 -0.28326096829E+03  0.29039600412E+03  0.47000000000E+01 0.  1.
         -5    1    3    3    0  502  0.47867224758E+02 -0.36900158897E+02 -0.40857395268E+03  0.41304679849E+03  0.47000000000E+01 0.  1.
          5    1    4    4  503    0 -0.64919676281E+02 -0.35967003865E+02 -0.12861581371E+03  0.14856751755E+03  0.47000000000E+01 0.  1.
         -5    1    4    4    0  503  0.49405946428E+02  0.17874213958E+02 -0.10154984311E+03  0.11443293102E+03  0.47000000000E+01 0.  1.
<mgrwt>
<rscale>  0 0.12726121E+03</rscale>
<asrwt>0</asrwt>
<pdfrwt beam="1">  1        5 0.34186679E-02 0.12726437E+03</pdfrwt>
<pdfrwt beam="2">  1       -5 0.14526488E+00 0.12726437E+03</pdfrwt>
<totfact> 0.10520704E+02</totfact>
</mgrwt>
</event>
<event>
 8    1  0.3573290E-007  0.1404385E+03  0.7546771E-02  0.1212741E+00
         -5   -1    0    0    0  501 -0.00000000000E+00  0.00000000000E+00  0.54656272742E+02  0.54857981644E+02  0.47000000000E+01 0. -1.
          5   -1    0    0  501    0  0.00000000000E+00 -0.00000000000E+00 -0.36526262544E+03  0.36529286270E+03  0.47000000000E+01 0. -1.
         25    2    1    2    0    0 -0.64001095867E+02  0.10730784420E+01 -0.13000995942E+03  0.19137576594E+03  0.12499920988E+03 0.  0.
         25    2    1    2    0    0  0.64001095867E+02 -0.10730784420E+01 -0.18059639328E+03  0.22877507841E+03  0.12500274984E+03 0.  0.
          5    1    3    3  502    0  0.37654083301E+02  0.58678018020E+01 -0.39746677827E+02  0.55264359993E+02  0.47000000000E+01 0. -1.
         -5    1    3    3    0  502 -0.10165517917E+03 -0.47947233599E+01 -0.90263281592E+02  0.13611140594E+03  0.47000000000E+01 0. -1.
          5    1    4    4  503    0  0.11414958155E+02 -0.59954662389E+02 -0.83904468366E+02  0.10386006270E+03  0.47000000000E+01 0.  1.
         -5    1    4    4    0  503  0.52586137712E+02  0.58881583947E+02 -0.96691924911E+02  0.12491501571E+03  0.47000000000E+01 0.  1.
<mgrwt>
<rscale>  0 0.14043774E+03</rscale>
<asrwt>0</asrwt>
<pdfrwt beam="2">  1        5 0.56212091E-01 0.14043852E+03</pdfrwt>
<pdfrwt beam="1">  1       -5 0.84264996E-02 0.14043852E+03</pdfrwt>
<totfact> 0.23341830E+02</totfact>
</mgrwt>
</event>
<event>
 8    1  0.3573290E-007  0.1361073E+03  0.7546771E-02  0.1218670E+00
         -5   -1    0    0    0  501 -0.00000000000E+00  0.00000000000E+00  0.14580149427E+02  0.15318967241E+02  0.47000000000E+01 0.  1.
          5   -1    0    0  501    0  0.00000000000E+00 -0.00000000000E+00 -0.13483782475E+04  0.13483864388E+04  0.47000000000E+01 0.  1.
         25    2    1    2    0    0  0.48115412171E+02  0.24204977202E+02 -0.47217681650E+03  0.49140221444E+03  0.12499686598E+03 0.  0.
         25    2    1    2    0    0 -0.48115412171E+02 -0.24204977202E+02 -0.86162128159E+03  0.87230319161E+03  0.12498260441E+03 0.  0.
          5    1    3    3  502    0  0.48031939890E+02 -0.45393248837E+02 -0.23922447069E+03  0.24822983638E+03  0.47000000000E+01 0. -1.
         -5    1    3    3    0  502  0.83472281268E-01  0.69598226039E+02 -0.23295234581E+03  0.24317237806E+03  0.47000000000E+01 0. -1.
          5    1    4    4  503    0  0.17911752900E+02 -0.75542651628E+01 -0.21312727631E+02  0.29227045236E+02  0.47000000000E+01 0.  1.
         -5    1    4    4    0  503 -0.66027165071E+02 -0.16650712039E+02 -0.84030855396E+03  0.84307614638E+03  0.47000000000E+01 0.  1.
<mgrwt>
<rscale>  0 0.13610400E+03</rscale>
<asrwt>0</asrwt>
<pdfrwt beam="2">  1        5 0.20750017E+00 0.13610728E+03</pdfrwt>
<pdfrwt beam="1">  1       -5 0.23005632E-02 0.13610728E+03</pdfrwt>
<totfact> 0.72093866E+01</totfact>
</mgrwt>
</event>
<event>
 8    1  0.3573290E-007  0.1367344E+03  0.7546771E-02  0.1217793E+00
         -5   -1    0    0    0  501 -0.00000000000E+00  0.00000000000E+00  0.86189235632E+01  0.98171199131E+01  0.47000000000E+01 0.  1.
          5   -1    0    0  501    0  0.00000000000E+00 -0.00000000000E+00 -0.20655504634E+04  0.20655558106E+04  0.47000000000E+01 0.  1.
         25    2    1    2    0    0 -0.54890755469E+02  0.76044530393E+01 -0.88671797490E+03  0.89719803057E+03  0.12499886519E+03 0.  0.
         25    2    1    2    0    0  0.54890755469E+02 -0.76044530393E+01 -0.11702135649E+04  0.11781748999E+04  0.12500193856E+03 0.  0.
          5    1    4    4  502    0  0.59340557321E+02  0.50069250059E+02 -0.60172761738E+03  0.60673424748E+03  0.47000000000E+01 0. -1.
         -5    1    4    4    0  502 -0.44498018514E+01 -0.57673703098E+02 -0.56848594751E+03  0.57144065246E+03  0.47000000000E+01 0. -1.
          5    1    3    3  503    0 -0.69582958892E+02 -0.43559936268E+02 -0.48134920388E+03  0.48832202725E+03  0.47000000000E+01 0.  1.
         -5    1    3    3    0  503  0.14692203423E+02  0.51164389307E+02 -0.40536877102E+03  0.40887600332E+03  0.47000000000E+01 0.  1.
<mgrwt>
<rscale>  0 0.13673374E+03</rscale>
<asrwt>0</asrwt>
<pdfrwt beam="2">  1        5 0.31786921E+00 0.13673444E+03</pdfrwt>
<pdfrwt beam="1">  1       -5 0.14185702E-02 0.13673444E+03</pdfrwt>
<totfact> 0.30696532E+01</totfact>
</mgrwt>
</event>
<event>
 8    1  0.3573290E-007  0.1452726E+03  0.7546771E-02  0.1206407E+00
         -5   -1    0    0    0  501 -0.00000000000E+00  0.00000000000E+00  0.14785842732E+03  0.14793310830E+03  0.47000000000E+01 0.  1.
          5   -1    0    0  501    0  0.00000000000E+00 -0.00000000000E+00 -0.15165425201E+03  0.15172706467E+03  0.47000000000E+01 0.  1.
         25    2    1    2    0    0  0.68047116313E+02  0.29125141125E+02  0.34742429238E+02  0.14936271548E+03  0.12499400187E+03 0.  0.
         25    2    1    2    0    0 -0.68047116313E+02 -0.29125141125E+02 -0.38538253928E+02  0.15029745748E+03  0.12500177929E+03 0.  0.
          5    1    4    4  502    0 -0.59855442660E+02 -0.20418202442E+02  0.37170146811E+02  0.73507052865E+02  0.47000000000E+01 0. -1.
         -5    1    4    4    0  502 -0.81916736536E+01 -0.87069386824E+01 -0.75708400739E+02  0.76790404615E+02  0.47000000000E+01 0. -1.
          5    1    3    3  503    0  0.14634953810E+01 -0.16674692911E+02  0.61651620352E+02  0.64056221356E+02  0.47000000000E+01 0. -1.
         -5    1    3    3    0  503  0.66583620932E+02  0.45799834035E+02 -0.26909191114E+02  0.85306494129E+02  0.47000000000E+01 0. -1.
<mgrwt>
<rscale>  0 0.14527093E+03</rscale>
<asrwt>0</asrwt>
<pdfrwt beam="2">  1        5 0.23342769E-01 0.14527260E+03</pdfrwt>
<pdfrwt beam="1">  1       -5 0.22758796E-01 0.14527260E+03</pdfrwt>
<totfact> 0.23305243E+02</totfact>
</mgrwt>
</event>
<event>
 8    1  0.3573290E-007  0.1469992E+03  0.7546771E-02  0.1204229E+00
          5   -1    0    0  501    0  0.00000000000E+00  0.00000000000E+00  0.13101462320E+03  0.13109889966E+03  0.47000000000E+01 0.  1.
         -5   -1    0    0    0  501 -0.00000000000E+00 -0.00000000000E+00 -0.20410114672E+03  0.20415525487E+03  0.47000000000E+01 0.  1.
         25    2    1    2    0    0  0.58545112849E+02  0.50363881322E+02 -0.11016724138E+03  0.18365028769E+03  0.12500622511E+03 0.  0.
         25    2    1    2    0    0 -0.58545112849E+02 -0.50363881322E+02  0.37080717859E+02  0.15160386685E+03  0.12507878328E+03 0.  0.
          5    1    4    4  502    0 -0.32954872563E+02  0.20559227482E+02  0.60906709577E+02  0.72390764133E+02  0.47000000000E+01 0. -1.
         -5    1    4    4    0  502 -0.25590240286E+02 -0.70923108804E+02 -0.23825991718E+02  0.79213102715E+02  0.47000000000E+01 0. -1.
          5    1    3    3  503    0 -0.27259697607E+01 -0.18811093365E+02 -0.85746976771E+02  0.87954091264E+02  0.47000000000E+01 0. -1.
         -5    1    3    3    0  503  0.61271082610E+02  0.69174974687E+02 -0.24420264606E+02  0.95696196427E+02  0.47000000000E+01 0. -1.
<mgrwt>
<rscale>  0 0.14698372E+03</rscale>
<asrwt>0</asrwt>
<pdfrwt beam="1">  1        5 0.20166741E-01 0.14699916E+03</pdfrwt>
<pdfrwt beam="2">  1       -5 0.31410821E-01 0.14699916E+03</pdfrwt>
<totfact> 0.16524655E+02</totfact>
</mgrwt>
</event>
<event>
 8    1  0.3573290E-007  0.1608133E+03  0.7546771E-02  0.1187785E+00
         -5   -1    0    0    0  501 -0.00000000000E+00  0.00000000000E+00  0.54136119533E+03  0.54138159722E+03  0.47000000000E+01 0.  1.
          5   -1    0    0  501    0  0.00000000000E+00 -0.00000000000E+00 -0.83484849937E+02  0.83617044728E+02  0.47000000000E+01 0.  1.
         25    2    1    2    0    0 -0.98190469012E+02 -0.24307969291E+02  0.43349148451E+03  0.46235892214E+03  0.12501463979E+03 0.  0.
         25    2    1    2    0    0  0.98190469012E+02  0.24307969291E+02  0.24384860879E+02  0.16263971981E+03  0.12499924577E+03 0.  0.
          5    1    4    4  502    0 -0.20259007504E+02  0.13718460354E+02 -0.23598545118E+02  0.34316247918E+02  0.47000000000E+01 0.  1.
         -5    1    4    4    0  502  0.11844947652E+03  0.10589508937E+02  0.47983405997E+02  0.12832347189E+03  0.47000000000E+01 0.  1.
          5    1    3    3  503    0 -0.85886347108E+02 -0.43816909015E+02  0.15317190943E+03  0.18105278228E+03  0.47000000000E+01 0. -1.
         -5    1    3    3    0  503 -0.12304121903E+02  0.19508939724E+02  0.28031957509E+03  0.28130613986E+03  0.47000000000E+01 0. -1.
<mgrwt>
<rscale>  0 0.16081027E+03</rscale>
<asrwt>0</asrwt>
<pdfrwt beam="2">  1        5 0.12855561E-01 0.16081326E+03</pdfrwt>
<pdfrwt beam="1">  1       -5 0.83298077E-01 0.16081326E+03</pdfrwt>
<totfact> 0.47955922E+01</totfact>
</mgrwt>
</event>
<event>
 8    1  0.3573290E-007  0.1697414E+03  0.7546771E-02  0.1178127E+00
         -5   -1    0    0    0  501 -0.00000000000E+00  0.00000000000E+00  0.23855546784E+04  0.23855593084E+04  0.47000000000E+01 0.  1.
          5   -1    0    0  501    0  0.00000000000E+00 -0.00000000000E+00 -0.11639229689E+02  0.12552357060E+02  0.47000000000E+01 0.  1.
         25    2    1    2    0    0  0.10431539034E+03 -0.47878475217E+02  0.12415120074E+04  0.12530572116E+04  0.12500504753E+03 0.  0.
         25    2    1    2    0    0 -0.10431539034E+03  0.47878475217E+02  0.11324034413E+04  0.11450544538E+04  0.12505238621E+03 0.  0.
          5    1    3    3  502    0  0.39241871354E+02 -0.84772640850E+02  0.61365054405E+03  0.62073779111E+03  0.47000000000E+01 0.  1.
         -5    1    3    3    0  502  0.65073518991E+02  0.36894165633E+02  0.62786146338E+03  0.63231942049E+03  0.47000000000E+01 0.  1.
          5    1    4    4  503    0 -0.62762958810E+02  0.51633469443E+02  0.10441939645E+04  0.10473625588E+04  0.47000000000E+01 0. -1.
         -5    1    4    4    0  503 -0.41552431535E+02 -0.37549942261E+01  0.88209476841E+02  0.97691895020E+02  0.47000000000E+01 0. -1.
<mgrwt>
<rscale>  0 0.16973270E+03</rscale>
<asrwt>0</asrwt>
<pdfrwt beam="2">  1        5 0.18612461E-02 0.16974142E+03</pdfrwt>
<pdfrwt beam="1">  1       -5 0.36707927E+00 0.16974142E+03</pdfrwt>
<totfact> 0.99610088E+00</totfact>
</mgrwt>
</event>
<event>
 8    1  0.3573290E-007  0.1262245E+03  0.7546771E-02  0.1233169E+00
         -5   -1    0    0    0  501 -0.00000000000E+00  0.00000000000E+00  0.11294931659E+04  0.11295029445E+04  0.47000000000E+01 0. -1.
          5   -1    0    0  501    0  0.00000000000E+00 -0.00000000000E+00 -0.24468542841E+02  0.24915850151E+02  0.47000000000E+01 0. -1.
         25    2    1    2    0    0  0.18715949835E+01  0.17415988718E+02  0.93055594540E+03  0.93907730704E+03  0.12500000619E+03 0.  0.
         25    2    1    2    0    0 -0.18715949835E+01 -0.17415988718E+02  0.17446867762E+03  0.21534148765E+03  0.12500326917E+03 0.  0.
          5    1    3    3  502    0 -0.24638561004E+02  0.63342207460E+02  0.38995577598E+03  0.39586221234E+03  0.47000000000E+01 0.  1.
         -5    1    3    3    0  502  0.26510155987E+02 -0.45926218742E+02  0.54060016942E+03  0.54321509471E+03  0.47000000000E+01 0.  1.
          5    1    4    4  503    0 -0.12918571632E+02 -0.22233070214E+02  0.19187917261E+03  0.19365150602E+03  0.47000000000E+01 0.  1.
         -5    1    4    4    0  503  0.11046976649E+02  0.48170814954E+01 -0.17410494990E+02  0.21689981627E+02  0.47000000000E+01 0.  1.
<mgrwt>
<rscale>  0 0.12622374E+03</rscale>
<asrwt>0</asrwt>
<pdfrwt beam="2">  1        5 0.37995524E-02 0.12622455E+03</pdfrwt>
<pdfrwt beam="1">  1       -5 0.17380331E+00 0.12622455E+03</pdfrwt>
<totfact> 0.53618327E+01</totfact>
</mgrwt>
</event>
<event>
 8    1  0.3573290E-007  0.1333668E+03  0.7546771E-02  0.1222551E+00
          5   -1    0    0  501    0  0.00000000000E+00  0.00000000000E+00  0.16720845596E+02  0.17368842144E+02  0.47000000000E+01 0. -1.
         -5   -1    0    0    0  501 -0.00000000000E+00 -0.00000000000E+00 -0.11274587580E+04  0.11274685543E+04  0.47000000000E+01 0. -1.
         25    2    1    2    0    0  0.10191988863E+02 -0.45376020552E+02 -0.71229190667E+03  0.72466990776E+03  0.12499542004E+03 0.  0.
         25    2    1    2    0    0 -0.10191988863E+02  0.45376020552E+02 -0.39844600572E+03  0.42016748869E+03  0.12497455421E+03 0.  0.
          5    1    4    4  502    0 -0.18186695243E+02  0.20077949830E+02 -0.39133620129E+03  0.39230089523E+03  0.47000000000E+01 0. -1.
         -5    1    4    4    0  502  0.79947063796E+01  0.25298070722E+02 -0.71098044271E+01  0.27866593465E+02  0.47000000000E+01 0. -1.
          5    1    3    3  503    0 -0.47360535384E+02 -0.36440552626E+02 -0.52662902040E+03  0.53002938533E+03  0.47000000000E+01 0. -1.
         -5    1    3    3    0  503  0.57552524248E+02 -0.89354679264E+01 -0.18566288627E+03  0.19464052243E+03  0.47000000000E+01 0. -1.
<mgrwt>
<rscale>  0 0.13336195E+03</rscale>
<asrwt>0</asrwt>
<pdfrwt beam="1">  1        5 0.26230381E-02 0.13336684E+03</pdfrwt>
<pdfrwt beam="2">  1       -5 0.17350573E+00 0.13336684E+03</pdfrwt>
<totfact> 0.99841642E+01</totfact>
</mgrwt>
</event>
<event>
 8    1  0.3573290E-007  0.1294181E+03  0.7546771E-02  0.1228325E+00
         -5   -1    0    0    0  501 -0.00000000000E+00  0.00000000000E+00  0.20939791594E+03  0.20945065577E+03  0.47000000000E+01 0.  1.
          5   -1    0    0  501    0  0.00000000000E+00 -0.00000000000E+00 -0.10518214795E+03  0.10528710390E+03  0.47000000000E+01 0.  1.
         25    2    1    2    0    0  0.73541381333E+01 -0.32715029971E+02  0.12927257146E+03  0.18291638386E+03  0.12499059652E+03 0.  0.
         25    2    1    2    0    0 -0.73541381333E+01  0.32715029971E+02 -0.25056803461E+02  0.13182137580E+03  0.12499870073E+03 0.  0.
          5    1    4    4  502    0  0.25491529894E+02  0.15599329722E+02 -0.68294586447E+02  0.74695366135E+02  0.47000000000E+01 0.  1.
         -5    1    4    4    0  502 -0.32845668027E+02  0.17115700250E+02  0.43237782986E+02  0.57126009669E+02  0.47000000000E+01 0.  1.
          5    1    3    3  503    0  0.27381169707E+02  0.32385138887E+02  0.75174061614E+01  0.43325824524E+02  0.47000000000E+01 0. -1.
         -5    1    3    3    0  503 -0.20027031574E+02 -0.65100168858E+02  0.12175516530E+03  0.13959055933E+03  0.47000000000E+01 0. -1.
<mgrwt>
<rscale>  0 0.12941609E+03</rscale>
<asrwt>0</asrwt>
<pdfrwt beam="2">  1        5 0.16193999E-01 0.12941805E+03</pdfrwt>
<pdfrwt beam="1">  1       -5 0.32227195E-01 0.12941805E+03</pdfrwt>
<totfact> 0.22556211E+02</totfact>
</mgrwt>
</event>
<event>
 8    1  0.3573290E-007  0.1471760E+03  0.7546771E-02  0.1203990E+00
         -5   -1    0    0    0  501 -0.00000000000E+00  0.00000000000E+00  0.51889678730E+02  0.52102099370E+02  0.47000000000E+01 0.  1.
          5   -1    0    0  501    0  0.00000000000E+00 -0.00000000000E+00 -0.43639040309E+03  0.43641571227E+03  0.47000000000E+01 0.  1.
         25    2    1    2    0    0 -0.65244101067E+02  0.42188693126E+02 -0.13988772913E+03  0.20304224291E+03  0.12498358730E+03 0.  0.
         25    2    1    2    0    0  0.65244101067E+02 -0.42188693126E+02 -0.24461299523E+03  0.28547556872E+03  0.12499641735E+03 0.  0.
          5    1    4    4  502    0  0.96692556262E+02 -0.33266616564E+02 -0.12594193837E+03  0.16229473206E+03  0.47000000000E+01 0.  1.
         -5    1    4    4    0  502 -0.31448455195E+02 -0.89220765620E+01 -0.11867105686E+03  0.12318083666E+03  0.47000000000E+01 0.  1.
          5    1    3    3  503    0 -0.53849040944E+02 -0.26511435890E+02 -0.18438768521E+02  0.62965495536E+02  0.47000000000E+01 0.  1.
         -5    1    3    3    0  503 -0.11395060123E+02  0.68700129017E+02 -0.12144896061E+03  0.14007674738E+03  0.47000000000E+01 0.  1.
<mgrwt>
<rscale>  0 0.14717330E+03</rscale>
<asrwt>0</asrwt>
<pdfrwt beam="2">  1        5 0.67155269E-01 0.14717603E+03</pdfrwt>
<pdfrwt beam="1">  1       -5 0.80013147E-02 0.14717603E+03</pdfrwt>
<totfact> 0.17521210E+02</totfact>
</mgrwt>
</event>
<event>
 8    1  0.3573290E-007  0.1273891E+03  0.7546771E-02  0.1231383E+00
          5   -1    0    0  501    0  0.00000000000E+00  0.00000000000E+00  0.91035164376E+03  0.91036377635E+03  0.47000000000E+01 0.  1.
         -5   -1    0    0    0  501 -0.00000000000E+00 -0.00000000000E+00 -0.17503420799E+02  0.18123458270E+02  0.47000000000E+01 0.  1.
         25    2    1    2    0    0 -0.11423488450E+02 -0.21718967078E+02  0.44753250764E+03  0.46530900001E+03  0.12499964190E+03 0.  0.
         25    2    1    2    0    0  0.11423488450E+02  0.21718967078E+02  0.44531571532E+03  0.46317823461E+03  0.12500312431E+03 0.  0.
          5    1    3    3  502    0 -0.19115967638E+02 -0.31612278048E+02  0.45013591859E+03  0.45167376673E+03  0.47000000000E+01 0.  1.
         -5    1    3    3    0  502  0.76924791881E+01  0.98933109706E+01 -0.26034109548E+01  0.13635233281E+02  0.47000000000E+01 0.  1.
          5    1    4    4  503    0 -0.34224781276E+02  0.58704492120E+02  0.25540468663E+03  0.26433160424E+03  0.47000000000E+01 0. -1.
         -5    1    4    4    0  503  0.45648269726E+02 -0.36985525042E+02  0.18991102869E+03  0.19884663037E+03  0.47000000000E+01 0. -1.
<mgrwt>
<rscale>  0 0.12738828E+03</rscale>
<asrwt>0</asrwt>
<pdfrwt beam="1">  1        5 0.14010277E+00 0.12738913E+03</pdfrwt>
<pdfrwt beam="2">  1       -5 0.27414617E-02 0.12738913E+03</pdfrwt>
<totfact> 0.16560984E+02</totfact>
</mgrwt>
</event>
<event>
 8    1  0.3573290E-007  0.1512633E+03  0.7546771E-02  0.1198931E+00
         -5   -1    0    0    0  501 -0.00000000000E+00  0.00000000000E+00  0.97230012636E+02  0.97343542966E+02  0.47000000000E+01 0. -1.
          5   -1    0    0  501    0  0.00000000000E+00 -0.00000000000E+00 -0.24980810335E+03  0.24985231337E+03  0.47000000000E+01 0.  1.
         25    2    1    2    0    0 -0.73664420382E+02 -0.42767411207E+02 -0.34092996515E+02  0.15505192577E+03  0.12499307573E+03 0.  0.
         25    2    1    2    0    0  0.73664420382E+02  0.42767411207E+02 -0.11848509420E+03  0.19214393057E+03  0.12500029687E+03 0.  0.
          5    1    3    3  502    0  0.18365202138E+02  0.28781293816E+02 -0.10473591360E+02  0.36019850628E+02  0.47000000000E+01 0. -1.
         -5    1    3    3    0  502 -0.92029622521E+02 -0.71548705023E+02 -0.23619405155E+02  0.11903207514E+03  0.47000000000E+01 0. -1.
          5    1    4    4  503    0  0.68881629157E+02 -0.30755169873E+02 -0.44928809008E+02  0.87927510986E+02  0.47000000000E+01 0.  1.
         -5    1    4    4    0  503  0.47827912251E+01  0.73522581081E+02 -0.73556285188E+02  0.10421641959E+03  0.47000000000E+01 0.  1.
<mgrwt>
<rscale>  0 0.15126176E+03</rscale>
<asrwt>0</asrwt>
<pdfrwt beam="2">  1        5 0.38444150E-01 0.15126326E+03</pdfrwt>
<pdfrwt beam="1">  1       -5 0.14970597E-01 0.15126326E+03</pdfrwt>
<totfact> 0.19246818E+02</totfact>
</mgrwt>
</event>
<event>
 8    1  0.3573290E-007  0.1490639E+03  0.7546771E-02  0.1201636E+00
          5   -1    0    0  501    0  0.00000000000E+00  0.00000000000E+00  0.15381557677E+03  0.15388736679E+03  0.47000000000E+01 0.  1.
         -5   -1    0    0    0  501 -0.00000000000E+00 -0.00000000000E+00 -0.14433713431E+03  0.14441363627E+03  0.47000000000E+01 0.  1.
         25    2    1    2    0    0 -0.27627433615E+02 -0.76356266603E+02  0.20692829107E+01  0.14907823407E+03  0.12500593348E+03 0.  0.
         25    2    1    2    0    0  0.27627433615E+02  0.76356266603E+02  0.74091595525E+01  0.14922276898E+03  0.12497593608E+03 0.  0.
          5    1    3    3  502    0 -0.54035474642E+02  0.12568864816E+02  0.67117012079E+01  0.56079816473E+02  0.47000000000E+01 0. -1.
         -5    1    3    3    0  502  0.26408041027E+02 -0.88925131419E+02 -0.46424182973E+01  0.92998417602E+02  0.47000000000E+01 0. -1.
          5    1    4    4  503    0  0.75946556622E+02  0.47957964103E+02 -0.96226788479E+01  0.90457347583E+02  0.47000000000E+01 0.  1.
         -5    1    4    4    0  503 -0.48319123007E+02  0.28398302500E+02  0.17031838400E+02  0.58765421400E+02  0.47000000000E+01 0.  1.
<mgrwt>
<rscale>  0 0.14905758E+03</rscale>
<asrwt>0</asrwt>
<pdfrwt beam="1">  1        5 0.23675342E-01 0.14906387E+03</pdfrwt>
<pdfrwt beam="2">  1       -5 0.22217120E-01 0.14906387E+03</pdfrwt>
<totfact> 0.23950031E+02</totfact>
</mgrwt>
</event>
<event>
 8    1  0.3573290E-007  0.1315011E+03  0.7546771E-02  0.1225246E+00
         -5   -1    0    0    0  501 -0.00000000000E+00  0.00000000000E+00  0.13950151062E+03  0.13958066293E+03  0.47000000000E+01 0.  1.
          5   -1    0    0  501    0  0.00000000000E+00 -0.00000000000E+00 -0.12518897310E+03  0.12527716865E+03  0.47000000000E+01 0.  1.
         25    2    1    2    0    0  0.40753751041E+02  0.24250934614E+01  0.21100282744E+02  0.13318169733E+03  0.12500157307E+03 0.  0.
         25    2    1    2    0    0 -0.40753751041E+02 -0.24250934614E+01 -0.67877452206E+01  0.13167613426E+03  0.12500312614E+03 0.  0.
          5    1    3    3  502    0  0.50571338962E+00 -0.21793066586E+02 -0.46011045810E+02  0.51130224268E+02  0.47000000000E+01 0. -1.
         -5    1    3    3    0  502  0.40248037652E+02  0.24218160047E+02  0.67111328553E+02  0.82051473058E+02  0.47000000000E+01 0. -1.
          5    1    4    4  503    0 -0.13664663398E+02 -0.42476035818E+02  0.42978259122E+02  0.62130164990E+02  0.47000000000E+01 0.  1.
         -5    1    4    4    0  503 -0.27089087643E+02  0.40050942357E+02 -0.49766004342E+02  0.69545969266E+02  0.47000000000E+01 0.  1.
<mgrwt>
<rscale>  0 0.13150070E+03</rscale>
<asrwt>0</asrwt>
<pdfrwt beam="2">  1        5 0.19272715E-01 0.13150107E+03</pdfrwt>
<pdfrwt beam="1">  1       -5 0.21474644E-01 0.13150107E+03</pdfrwt>
<totfact> 0.36024871E+02</totfact>
</mgrwt>
</event>
<event>
 8    1  0.3573290E-007  0.2024260E+03  0.7546771E-02  0.1147710E+00
          5   -1    0    0  501    0  0.00000000000E+00  0.00000000000E+00  0.80903727854E+03  0.80905093045E+03  0.47000000000E+01 0. -1.
         -5   -1    0    0    0  501 -0.00000000000E+00 -0.00000000000E+00 -0.56291999783E+02  0.56487868074E+02  0.47000000000E+01 0. -1.
         25    2    1    2    0    0  0.15843195799E+03  0.15835736498E+02  0.23808694067E+03  0.31250217358E+03  0.12498304411E+03 0.  0.
         25    2    1    2    0    0 -0.15843195799E+03 -0.15835736498E+02  0.51465833809E+03  0.55303662494E+03  0.12499939078E+03 0.  0.
          5    1    4    4  502    0  0.15309920751E+02  0.13268305204E+02  0.10567703396E+03  0.10770407189E+03  0.47000000000E+01 0.  1.
         -5    1    4    4    0  502 -0.17374187875E+03 -0.29104041701E+02  0.40898130413E+03  0.44533255304E+03  0.47000000000E+01 0.  1.
          5    1    3    3  503    0  0.98798864281E+02 -0.45433687430E+02  0.17521488193E+03  0.20627113319E+03  0.47000000000E+01 0. -1.
         -5    1    3    3    0  503  0.59633093713E+02  0.61269423928E+02  0.62872058736E+02  0.10623104040E+03  0.47000000000E+01 0. -1.
<mgrwt>
<rscale>  0 0.20242352E+03</rscale>
<asrwt>0</asrwt>
<pdfrwt beam="1">  1        5 0.12448339E+00 0.20242604E+03</pdfrwt>
<pdfrwt beam="2">  1       -5 0.86764247E-02 0.20242604E+03</pdfrwt>
<totfact> 0.37928120E+01</totfact>
</mgrwt>
</event>
<event>
 8    1  0.3573290E-007  0.1257384E+03  0.7546771E-02  0.1233921E+00
          5   -1    0    0  501    0  0.00000000000E+00  0.00000000000E+00  0.26228367279E+02  0.26646148880E+02  0.47000000000E+01 0.  1.
         -5   -1    0    0    0  501 -0.00000000000E+00 -0.00000000000E+00 -0.99490262278E+03  0.99491372430E+03  0.47000000000E+01 0.  1.
         25    2    1    2    0    0 -0.38223081209E+01 -0.13050036550E+02 -0.80704867138E+03  0.81678445617E+03  0.12499750547E+03 0.  0.
         25    2    1    2    0    0  0.38223081209E+01  0.13050036550E+02 -0.16162558412E+03  0.20477541701E+03  0.12500091391E+03 0.  0.
          5    1    3    3  502    0 -0.51812235389E+02 -0.43986468291E+02 -0.46708046941E+03  0.47202285117E+03  0.47000000000E+01 0. -1.
         -5    1    3    3    0  502  0.47989927269E+02  0.30936431742E+02 -0.33996820198E+03  0.34476160500E+03  0.47000000000E+01 0. -1.
          5    1    4    4  503    0  0.86650063123E+01  0.58878549055E+02 -0.33327473673E+02  0.68370873730E+02  0.47000000000E+01 0.  1.
         -5    1    4    4    0  503 -0.48426981914E+01 -0.45828512505E+02 -0.12829811044E+03  0.13640454328E+03  0.47000000000E+01 0.  1.
<mgrwt>
<rscale>  0 0.12573754E+03</rscale>
<asrwt>0</asrwt>
<pdfrwt beam="1">  1        5 0.40681252E-02 0.12573839E+03</pdfrwt>
<pdfrwt beam="2">  1       -5 0.15309490E+00 0.12573839E+03</pdfrwt>
<totfact> 0.68429915E+01</totfact>
</mgrwt>
</event>
<event>
 8    1  0.3573290E-007  0.1483647E+03  0.7546771E-02  0.1202507E+00
          5   -1    0    0  501    0  0.00000000000E+00  0.00000000000E+00  0.61979426120E+02  0.62157374962E+02  0.47000000000E+01 0.  1.
         -5   -1    0    0    0  501 -0.00000000000E+00 -0.00000000000E+00 -0.41225484944E+03  0.41228164025E+03  0.47000000000E+01 0.  1.
         25    2    1    2    0    0 -0.78021437542E+02  0.17244848252E+02 -0.26398515520E+03  0.30280538759E+03  0.12497284136E+03 0.  0.
         25    2    1    2    0    0  0.78021437542E+02 -0.17244848252E+02 -0.86290268112E+02  0.17163362762E+03  0.12500944865E+03 0.  0.
          5    1    3    3  502    0 -0.56709942801E+02 -0.34357923586E+02 -0.54503295966E+02  0.85960361777E+02  0.47000000000E+01 0.  1.
         -5    1    3    3    0  502 -0.21311494741E+02  0.51602771838E+02 -0.20948185924E+03  0.21684502581E+03  0.47000000000E+01 0.  1.
          5    1    4    4  503    0 -0.30157160684E+02  0.10733520541E+02 -0.36134654123E+01  0.32554722177E+02  0.47000000000E+01 0. -1.
         -5    1    4    4    0  503  0.10817859823E+03 -0.27978368792E+02 -0.82676802699E+02  0.13907890544E+03  0.47000000000E+01 0. -1.
<mgrwt>
<rscale>  0 0.14835701E+03</rscale>
<asrwt>0</asrwt>
<pdfrwt beam="1">  1        5 0.95510458E-02 0.14836473E+03</pdfrwt>
<pdfrwt beam="2">  1       -5 0.63439570E-01 0.14836473E+03</pdfrwt>
<totfact> 0.14683012E+02</totfact>
</mgrwt>
</event>
<event>
 8    1  0.3573290E-007  0.1746122E+03  0.7546771E-02  0.1173129E+00
         -5   -1    0    0    0  501 -0.00000000000E+00  0.00000000000E+00  0.10877725230E+03  0.10887874273E+03  0.47000000000E+01 0. -1.
          5   -1    0    0  501    0  0.00000000000E+00 -0.00000000000E+00 -0.36737682425E+03  0.36740688752E+03  0.47000000000E+01 0. -1.
         25    2    1    2    0    0  0.12171729582E+03 -0.63439576269E+01 -0.13187299208E+02  0.17510946347E+03  0.12503628848E+03 0.  0.
         25    2    1    2    0    0 -0.12171729582E+03  0.63439576269E+01 -0.24541227274E+03  0.30117616677E+03  0.12499821566E+03 0.  0.
          5    1    3    3  502    0  0.49108772435E+02  0.40524162008E+02  0.38254473739E+02  0.74426970902E+02  0.47000000000E+01 0.  1.
         -5    1    3    3    0  502  0.72608523387E+02 -0.46868119635E+02 -0.51441772947E+02  0.10068249257E+03  0.47000000000E+01 0.  1.
          5    1    4    4  503    0 -0.81224676631E+02 -0.41458625426E+02 -0.70618944458E+02  0.11543565754E+03  0.47000000000E+01 0.  1.
         -5    1    4    4    0  503 -0.40492619191E+02  0.47802583053E+02 -0.17479332828E+03  0.18574050923E+03  0.47000000000E+01 0.  1.
<mgrwt>
<rscale>  0 0.17460538E+03</rscale>
<asrwt>0</asrwt>
<pdfrwt beam="2">  1        5 0.56529630E-01 0.17461220E+03</pdfrwt>
<pdfrwt beam="1">  1       -5 0.16745082E-01 0.17461220E+03</pdfrwt>
<totfact> 0.72850531E+01</totfact>
</mgrwt>
</event>
<event>
 8    1  0.3573290E-007  0.2259133E+03  0.7546771E-02  0.1129551E+00
          5   -1    0    0  501    0  0.00000000000E+00  0.00000000000E+00  0.64053275949E+03  0.64055000272E+03  0.47000000000E+01 0.  1.
         -5   -1    0    0    0  501 -0.00000000000E+00 -0.00000000000E+00 -0.84374573683E+02  0.84505376659E+02  0.47000000000E+01 0.  1.
         25    2    1    2    0    0 -0.92479410313E+02 -0.16388309010E+03  0.19181807360E+03  0.29635906645E+03  0.12499765741E+03 0.  0.
         25    2    1    2    0    0  0.92479410313E+02  0.16388309010E+03  0.36434011221E+03  0.42869631293E+03  0.12500681100E+03 0.  0.
          5    1    3    3  502    0 -0.18959019718E+01 -0.99836217934E+02  0.38649030963E+02  0.10717603487E+03  0.47000000000E+01 0. -1.
         -5    1    3    3    0  502 -0.90583508341E+02 -0.64046872169E+02  0.15316904264E+03  0.18918303159E+03  0.47000000000E+01 0. -1.
          5    1    4    4  503    0  0.72517536578E+02  0.73954718224E+02  0.83588181557E+02  0.13318095793E+03  0.47000000000E+01 0. -1.
         -5    1    4    4    0  503  0.19961873735E+02  0.89928371879E+02  0.28075193066E+03  0.29551535500E+03  0.47000000000E+01 0. -1.
<mgrwt>
<rscale>  0 0.22591202E+03</rscale>
<asrwt>0</asrwt>
<pdfrwt beam="1">  1        5 0.98554887E-01 0.22591328E+03</pdfrwt>
<pdfrwt beam="2">  1       -5 0.12992092E-01 0.22591328E+03</pdfrwt>
<totfact> 0.34393921E+01</totfact>
</mgrwt>
</event>
<event>
 8    1  0.3573290E-007  0.1414260E+03  0.7546771E-02  0.1211432E+00
          5   -1    0    0  501    0  0.00000000000E+00  0.00000000000E+00  0.35447130076E+03  0.35450245848E+03  0.47000000000E+01 0. -1.
         -5   -1    0    0    0  501 -0.00000000000E+00 -0.00000000000E+00 -0.61557251006E+02  0.61736416736E+02  0.47000000000E+01 0. -1.
         25    2    1    2    0    0 -0.65514628152E+02  0.92013143422E+01  0.85663053309E+02  0.16534649954E+03  0.12499790207E+03 0.  0.
         25    2    1    2    0    0  0.65514628152E+02 -0.92013143422E+01  0.20725099645E+03  0.25089237567E+03  0.12496870790E+03 0.  0.
          5    1    4    4  502    0  0.43245589398E+02 -0.64017093844E+02  0.84772596400E+02  0.11479047176E+03  0.47000000000E+01 0.  1.
         -5    1    4    4    0  502  0.22269038754E+02  0.54815779502E+02  0.12247840005E+03  0.13610190391E+03  0.47000000000E+01 0.  1.
          5    1    3    3  503    0  0.68797181425E+01 -0.45234714437E+02  0.96278154761E+01  0.46992496665E+02  0.47000000000E+01 0. -1.
         -5    1    3    3    0  503 -0.72394346294E+02  0.54436028779E+02  0.76035237833E+02  0.11835400288E+03  0.47000000000E+01 0. -1.
<mgrwt>
<rscale>  0 0.14141952E+03</rscale>
<asrwt>0</asrwt>
<pdfrwt beam="1">  1        5 0.54550225E-01 0.14142597E+03</pdfrwt>
<pdfrwt beam="2">  1       -5 0.94865250E-02 0.14142597E+03</pdfrwt>
<totfact> 0.20334827E+02</totfact>
</mgrwt>
</event>
<event>
 8    1  0.3573290E-007  0.1355309E+03  0.7546771E-02  0.1219475E+00
          5   -1    0    0  501    0  0.00000000000E+00  0.00000000000E+00  0.62182051785E+02  0.62359422417E+02  0.47000000000E+01 0. -1.
         -5   -1    0    0    0  501 -0.00000000000E+00 -0.00000000000E+00 -0.45237503946E+03  0.45239945438E+03  0.47000000000E+01 0. -1.
         25    2    1    2    0    0 -0.23948361324E+02  0.46569013460E+02 -0.34698344017E+03  0.37251327858E+03  0.12500575165E+03 0.  0.
         25    2    1    2    0    0  0.23948361324E+02 -0.46569013460E+02 -0.43209547506E+02  0.14224559821E+03  0.12499819275E+03 0.  0.
          5    1    3    3  502    0 -0.52677801543E+00  0.68919943533E+02 -0.90001763082E+02  0.11345767259E+03  0.47000000000E+01 0.  1.
         -5    1    3    3    0  502 -0.23421583309E+02 -0.22350930073E+02 -0.25698167708E+03  0.25905560599E+03  0.47000000000E+01 0.  1.
          5    1    4    4  503    0  0.18893922319E+02 -0.29921420329E+02 -0.87460649279E+02  0.94465479766E+02  0.47000000000E+01 0. -1.
         -5    1    4    4    0  503  0.50544390051E+01 -0.16647593131E+02  0.44251101773E+02  0.47780118447E+02  0.47000000000E+01 0. -1.
<mgrwt>
<rscale>  0 0.13552919E+03</rscale>
<asrwt>0</asrwt>
<pdfrwt beam="1">  1        5 0.95819918E-02 0.13553094E+03</pdfrwt>
<pdfrwt beam="2">  1       -5 0.69611680E-01 0.13553094E+03</pdfrwt>
<totfact> 0.11525969E+02</totfact>
</mgrwt>
</event>
<event>
 8    1  0.3573290E-007  0.1488431E+03  0.7546771E-02  0.1201902E+00
         -5   -1    0    0    0  501 -0.00000000000E+00  0.00000000000E+00  0.75321217365E+02  0.75467713529E+02  0.47000000000E+01 0.  1.
          5   -1    0    0  501    0  0.00000000000E+00 -0.00000000000E+00 -0.35269301466E+03  0.35272432946E+03  0.47000000000E+01 0.  1.
         25    2    1    2    0    0 -0.69846447052E+02 -0.40632464606E+02 -0.51129250379E+02  0.15737853333E+03  0.12499711662E+03 0.  0.
         25    2    1    2    0    0  0.69846447052E+02  0.40632464606E+02 -0.22624254692E+03  0.27081350966E+03  0.12499897452E+03 0.  0.
          5    1    4    4  502    0 -0.41044098583E+01 -0.32453680170E+02 -0.17111943288E+02  0.37215536271E+02  0.47000000000E+01 0.  1.
         -5    1    4    4    0  502  0.73950856910E+02  0.73086144776E+02 -0.20913060363E+03  0.23359797339E+03  0.47000000000E+01 0.  1.
          5    1    3    3  503    0 -0.12678677115E+02 -0.70863293887E+02 -0.57463207725E+02  0.92230502091E+02  0.47000000000E+01 0. -1.
         -5    1    3    3    0  503 -0.57167769936E+02  0.30230829280E+02  0.63339573460E+01  0.65148031237E+02  0.47000000000E+01 0. -1.
<mgrwt>
<rscale>  0 0.14884271E+03</rscale>
<asrwt>0</asrwt>
<pdfrwt beam="2">  1        5 0.54274140E-01 0.14884310E+03</pdfrwt>
<pdfrwt beam="1">  1       -5 0.11601558E-01 0.14884310E+03</pdfrwt>
<totfact> 0.14687972E+02</totfact>
</mgrwt>
</event>
<event>
 8    1  0.3573290E-007  0.1414453E+03  0.7546771E-02  0.1211397E+00
          5   -1    0    0  501    0  0.00000000000E+00  0.00000000000E+00  0.87696036288E+02  0.87821892377E+02  0.47000000000E+01 0. -1.
         -5   -1    0    0    0  501 -0.00000000000E+00 -0.00000000000E+00 -0.22915379636E+03  0.22920199036E+03  0.47000000000E+01 0. -1.
         25    2    1    2    0    0 -0.65376492972E+02  0.10386210679E+02 -0.82801265882E+02  0.16389854822E+03  0.12499890108E+03 0.  0.
         25    2    1    2    0    0  0.65376492972E+02 -0.10386210679E+02 -0.58656494187E+02  0.15312533452E+03  0.12499929822E+03 0.  0.
          5    1    3    3  502    0 -0.34714886477E+02  0.33703031226E+02 -0.10744406626E+03  0.11792936459E+03  0.47000000000E+01 0. -1.
         -5    1    3    3    0  502 -0.30661606495E+02 -0.23316820547E+02  0.24642800378E+02  0.45969183631E+02  0.47000000000E+01 0. -1.
          5    1    4    4  503    0  0.16366324014E+02  0.50075042269E+02  0.40795158573E+01  0.53048080734E+02  0.47000000000E+01 0. -1.
         -5    1    4    4    0  503  0.49010168958E+02 -0.60461252948E+02 -0.62736010044E+02  0.10007725379E+03  0.47000000000E+01 0. -1.
<mgrwt>
<rscale>  0 0.14144525E+03</rscale>
<asrwt>0</asrwt>
<pdfrwt beam="1">  1        5 0.13505086E-01 0.14144534E+03</pdfrwt>
<pdfrwt beam="2">  1       -5 0.35267819E-01 0.14144534E+03</pdfrwt>
<totfact> 0.26979533E+02</totfact>
</mgrwt>
</event>
<event>
 8    1  0.3573290E-007  0.1267786E+03  0.7546771E-02  0.1232316E+00
         -5   -1    0    0    0  501 -0.00000000000E+00  0.00000000000E+00  0.22805292865E+02  0.23284573920E+02  0.47000000000E+01 0.  1.
          5   -1    0    0  501    0  0.00000000000E+00 -0.00000000000E+00 -0.69706530924E+03  0.69708115406E+03  0.47000000000E+01 0.  1.
         25    2    1    2    0    0 -0.46096908868E+01  0.20647119684E+02 -0.33264859387E+03  0.35598794324E+03  0.12499910369E+03 0.  0.
         25    2    1    2    0    0  0.46096908868E+01 -0.20647119684E+02 -0.34161142251E+03  0.36437778475E+03  0.12500101291E+03 0.  0.
          5    1    4    4  502    0 -0.57334480882E+02  0.80158554242E+01 -0.14485133951E+03  0.15606247849E+03  0.47000000000E+01 0. -1.
         -5    1    4    4    0  502  0.61944171768E+02 -0.28662975108E+02 -0.19676008300E+03  0.20831530625E+03  0.47000000000E+01 0. -1.
          5    1    3    3  503    0 -0.40551939445E+02  0.64342266884E+01 -0.30556149367E+02  0.51396763808E+02  0.47000000000E+01 0. -1.
         -5    1    3    3    0  503  0.35942248558E+02  0.14212892995E+02 -0.30209244451E+03  0.30459117943E+03  0.47000000000E+01 0. -1.
<mgrwt>
<rscale>  0 0.12677810E+03</rscale>
<asrwt>0</asrwt>
<pdfrwt beam="2">  1        5 0.10727889E+00 0.12677857E+03</pdfrwt>
<pdfrwt beam="1">  1       -5 0.35465937E-02 0.12677857E+03</pdfrwt>
<totfact> 0.21581073E+02</totfact>
</mgrwt>
</event>
<event>
 8    1  0.3573290E-007  0.1274174E+03  0.7546771E-02  0.1231340E+00
          5   -1    0    0  501    0  0.00000000000E+00  0.00000000000E+00  0.31563975751E+03  0.31567474799E+03  0.47000000000E+01 0. -1.
         -5   -1    0    0    0  501 -0.00000000000E+00 -0.00000000000E+00 -0.51775423978E+02  0.51988311457E+02  0.47000000000E+01 0. -1.
         25    2    1    2    0    0  0.14150838229E+01  0.24663159855E+02  0.11417025771E+03  0.17108355754E+03  0.12499784798E+03 0.  0.
         25    2    1    2    0    0 -0.14150838229E+01 -0.24663159855E+02  0.14969407582E+03  0.19657950191E+03  0.12499964128E+03 0.  0.
          5    1    3    3  502    0  0.57983543900E+02 -0.95885367702E+00  0.27487338160E+02  0.64347917781E+02  0.47000000000E+01 0.  1.
         -5    1    3    3    0  502 -0.56568460078E+02  0.25622013532E+02  0.86682919551E+02  0.10673563976E+03  0.47000000000E+01 0.  1.
          5    1    4    4  503    0  0.57968361032E+02  0.92082225576E+01  0.68034585814E+02  0.89977314421E+02  0.47000000000E+01 0. -1.
         -5    1    4    4    0  503 -0.59383444855E+02 -0.33871382412E+02  0.81659490005E+02  0.10660218749E+03  0.47000000000E+01 0. -1.
<mgrwt>
<rscale>  0 0.12741692E+03</rscale>
<asrwt>0</asrwt>
<pdfrwt beam="1">  1        5 0.48579029E-01 0.12741736E+03</pdfrwt>
<pdfrwt beam="2">  1       -5 0.79845176E-02 0.12741736E+03</pdfrwt>
<totfact> 0.33792851E+02</totfact>
</mgrwt>
</event>
<event>
 8    1  0.3573290E-007  0.1356955E+03  0.7546771E-02  0.1219248E+00
         -5   -1    0    0    0  501 -0.00000000000E+00  0.00000000000E+00  0.11414586317E+03  0.11424258435E+03  0.47000000000E+01 0. -1.
          5   -1    0    0  501    0  0.00000000000E+00 -0.00000000000E+00 -0.19498095581E+03  0.19503759414E+03  0.47000000000E+01 0. -1.
         25    2    1    2    0    0 -0.36731646790E+02 -0.37933876047E+02  0.24024876913E+02  0.13780593391E+03  0.12500035153E+03 0.  0.
         25    2    1    2    0    0  0.36731646790E+02  0.37933876047E+02 -0.10485996956E+03  0.17147424458E+03  0.12497844018E+03 0.  0.
          5    1    3    3  502    0  0.34491687830E+01 -0.78235576921E+02  0.16985186875E+02  0.80270099256E+02  0.47000000000E+01 0. -1.
         -5    1    3    3    0  502 -0.40180815573E+02  0.40301700874E+02  0.70396900380E+01  0.57535834654E+02  0.47000000000E+01 0. -1.
          5    1    4    4  503    0  0.75019113532E+02 -0.78887593119E+01 -0.53874371161E+02  0.92815073057E+02  0.47000000000E+01 0. -1.
         -5    1    4    4    0  503 -0.38287466742E+02  0.45822635359E+02 -0.50985598394E+02  0.78659171521E+02  0.47000000000E+01 0. -1.
<mgrwt>
<rscale>  0 0.13569050E+03</rscale>
<asrwt>0</asrwt>
<pdfrwt beam="2">  1        5 0.30008867E-01 0.13569554E+03</pdfrwt>
<pdfrwt beam="1">  1       -5 0.17572699E-01 0.13569554E+03</pdfrwt>
<totfact> 0.22725853E+02</totfact>
</mgrwt>
</event>
<event>
 8    1  0.3573290E-007  0.1345150E+03  0.7546771E-02  0.1220906E+00
          5   -1    0    0  501    0  0.00000000000E+00  0.00000000000E+00  0.92300508093E+02  0.92420094104E+02  0.47000000000E+01 0. -1.
         -5   -1    0    0    0  501 -0.00000000000E+00 -0.00000000000E+00 -0.19651970061E+03  0.19657589559E+03  0.47000000000E+01 0. -1.
         25    2    1    2    0    0  0.20733668825E+02  0.45159900913E+02 -0.61087808136E+02  0.14773527579E+03  0.12499875894E+03 0.  0.
         25    2    1    2    0    0 -0.20733668825E+02 -0.45159900913E+02 -0.43131384383E+02  0.14126071391E+03  0.12499988521E+03 0.  0.
          5    1    4    4  502    0  0.32985714263E+02 -0.64643225958E+02 -0.60450505146E+01  0.72975589367E+02  0.47000000000E+01 0. -1.
         -5    1    4    4    0  502 -0.53719383088E+02  0.19483325045E+02 -0.37086333868E+02  0.68285124544E+02  0.47000000000E+01 0. -1.
          5    1    3    3  503    0 -0.39782431486E+02  0.57231160540E+02 -0.17432279248E+02  0.72000152441E+02  0.47000000000E+01 0.  1.
         -5    1    3    3    0  503  0.60516100311E+02 -0.12071259628E+02 -0.43655528888E+02  0.75735123347E+02  0.47000000000E+01 0.  1.
<mgrwt>
<rscale>  0 0.13451469E+03</rscale>
<asrwt>0</asrwt>
<pdfrwt beam="1">  1        5 0.14213600E-01 0.13451495E+03</pdfrwt>
<pdfrwt beam="2">  1       -5 0.30247322E-01 0.13451495E+03</pdfrwt>
<totfact> 0.32816396E+02</totfact>
</mgrwt>
</event>
<event>
 8    1  0.3573290E-007  0.1542810E+03  0.7546771E-02  0.1195312E+00
          5   -1    0    0  501    0  0.00000000000E+00  0.00000000000E+00  0.18113976278E+03  0.18120072753E+03  0.47000000000E+01 0. -1.
         -5   -1    0    0    0  501 -0.00000000000E+00 -0.00000000000E+00 -0.24635010515E+03  0.24639493564E+03  0.47000000000E+01 0. -1.
         25    2    1    2    0    0  0.76285299123E+02 -0.48566771177E+02 -0.17869366028E+03  0.23608060421E+03  0.12499779733E+03 0.  0.
         25    2    1    2    0    0 -0.76285299123E+02  0.48566771177E+02  0.11348331791E+03  0.19151505896E+03  0.12498550411E+03 0.  0.
          5    1    3    3  502    0 -0.42661658932E+00 -0.56944920084E+02 -0.13656277428E+03  0.14803508788E+03  0.47000000000E+01 0.  1.
         -5    1    3    3    0  502  0.76711915712E+02  0.83781489072E+01 -0.42130886006E+02  0.88045516337E+02  0.47000000000E+01 0.  1.
          5    1    4    4  503    0  0.81556815569E+01 -0.15291093359E+02 -0.16100118167E+02  0.24117140849E+02  0.47000000000E+01 0. -1.
         -5    1    4    4    0  503 -0.84440980680E+02  0.63857864536E+02  0.12958343607E+03  0.16739791811E+03  0.47000000000E+01 0. -1.
<mgrwt>
<rscale>  0 0.15427851E+03</rscale>
<asrwt>0</asrwt>
<pdfrwt beam="1">  1        5 0.27875794E-01 0.15428100E+03</pdfrwt>
<pdfrwt beam="2">  1       -5 0.37908154E-01 0.15428100E+03</pdfrwt>
<totfact> 0.62082274E+01</totfact>
</mgrwt>
</event>
<event>
 8    1  0.3573290E-007  0.1305648E+03  0.7546771E-02  0.1226628E+00
          5   -1    0    0  501    0  0.00000000000E+00  0.00000000000E+00  0.30755027372E+02  0.31112083001E+02  0.47000000000E+01 0.  1.
         -5   -1    0    0    0  501 -0.00000000000E+00 -0.00000000000E+00 -0.56096922262E+03  0.56098891141E+03  0.47000000000E+01 0.  1.
         25    2    1    2    0    0 -0.13591915146E+02 -0.35129302800E+02 -0.30526627039E+03  0.33200730414E+03  0.12499018399E+03 0.  0.
         25    2    1    2    0    0  0.13591915146E+02  0.35129302800E+02 -0.22494792486E+03  0.26009369028E+03  0.12501340228E+03 0.  0.
          5    1    3    3  502    0  0.16341933537E+02  0.17939510974E+02 -0.24477941085E+03  0.24602425657E+03  0.47000000000E+01 0.  1.
         -5    1    3    3    0  502 -0.29933848683E+02 -0.53068813774E+02 -0.60486859542E+02  0.85983047571E+02  0.47000000000E+01 0.  1.
          5    1    4    4  503    0  0.22699030882E+01  0.81890315857E+02 -0.13512628377E+03  0.15808978100E+03  0.47000000000E+01 0. -1.
         -5    1    4    4    0  503  0.11322012057E+02 -0.46761013057E+02 -0.89821641086E+02  0.10200390927E+03  0.47000000000E+01 0. -1.
<mgrwt>
<rscale>  0 0.13055921E+03</rscale>
<asrwt>0</asrwt>
<pdfrwt beam="1">  1        5 0.47605234E-02 0.13056477E+03</pdfrwt>
<pdfrwt beam="2">  1       -5 0.86331930E-01 0.13056477E+03</pdfrwt>
<totfact> 0.22702790E+02</totfact>
</mgrwt>
</event>
<event>
 8    1  0.3573290E-007  0.1636205E+03  0.7546771E-02  0.1184669E+00
          5   -1    0    0  501    0  0.00000000000E+00  0.00000000000E+00  0.61658357991E+03  0.61660149288E+03  0.47000000000E+01 0.  1.
         -5   -1    0    0    0  501 -0.00000000000E+00 -0.00000000000E+00 -0.47391299609E+02  0.47623789000E+02  0.47000000000E+01 0.  1.
         25    2    1    2    0    0 -0.98315863356E+02  0.38480142801E+02  0.18696395833E+03  0.24844872224E+03  0.12499806194E+03 0.  0.
         25    2    1    2    0    0  0.98315863356E+02 -0.38480142801E+02  0.38222832197E+03  0.41577655964E+03  0.12499970820E+03 0.  0.
          5    1    4    4  502    0 -0.23263849302E+02 -0.28505086887E+02  0.13569291075E+03  0.14067125752E+03  0.47000000000E+01 0. -1.
         -5    1    4    4    0  502  0.12157971266E+03 -0.99750559137E+01  0.24653541122E+03  0.27510530212E+03  0.47000000000E+01 0. -1.
          5    1    3    3  503    0 -0.12581833435E+03  0.14350864250E+02  0.14364154340E+03  0.19154942848E+03  0.47000000000E+01 0.  1.
         -5    1    3    3    0  503  0.27502470992E+02  0.24129278551E+02  0.43322414931E+02  0.56899293752E+02  0.47000000000E+01 0.  1.
<mgrwt>
<rscale>  0 0.16362015E+03</rscale>
<asrwt>0</asrwt>
<pdfrwt beam="1">  1        5 0.94878273E-01 0.16362047E+03</pdfrwt>
<pdfrwt beam="2">  1       -5 0.73102310E-02 0.16362047E+03</pdfrwt>
<totfact> 0.94830233E+01</totfact>
</mgrwt>
</event>
<event>
 8    1  0.3573290E-007  0.1520854E+03  0.7546771E-02  0.1197934E+00
          5   -1    0    0  501    0  0.00000000000E+00  0.00000000000E+00  0.21395069297E+03  0.21400231078E+03  0.47000000000E+01 0. -1.
         -5   -1    0    0    0  501 -0.00000000000E+00 -0.00000000000E+00 -0.12656463064E+03  0.12665186824E+03  0.47000000000E+01 0. -1.
         25    2    1    2    0    0 -0.49929185024E+02  0.70797231294E+02 -0.21517178770E+02  0.15359836661E+03  0.12499719104E+03 0.  0.
         25    2    1    2    0    0  0.49929185024E+02 -0.70797231294E+02  0.10890324109E+03  0.18705581241E+03  0.12499915824E+03 0.  0.
          5    1    4    4  502    0  0.69426642889E+02 -0.33194296717E+02  0.12035103511E+03  0.14292788996E+03  0.47000000000E+01 0. -1.
         -5    1    4    4    0  502 -0.19497457865E+02 -0.37602934577E+02 -0.11447794015E+02  0.44127922451E+02  0.47000000000E+01 0. -1.
          5    1    3    3  503    0 -0.57226172569E+02  0.98852069206E+02 -0.37312212808E+02  0.12025330614E+03  0.47000000000E+01 0. -1.
         -5    1    3    3    0  503  0.72969875451E+01 -0.28054837911E+02  0.15795034038E+02  0.33345060470E+02  0.47000000000E+01 0. -1.
<mgrwt>
<rscale>  0 0.15208497E+03</rscale>
<asrwt>0</asrwt>
<pdfrwt beam="1">  1        5 0.32926172E-01 0.15208537E+03</pdfrwt>
<pdfrwt beam="2">  1       -5 0.19482163E-01 0.15208537E+03</pdfrwt>
<totfact> 0.16231600E+02</totfact>
</mgrwt>
</event>
<event>
 8    1  0.3573290E-007  0.1353750E+03  0.7546771E-02  0.1219691E+00
         -5   -1    0    0    0  501 -0.00000000000E+00  0.00000000000E+00  0.75733676260E+03  0.75735134646E+03  0.47000000000E+01 0. -1.
          5   -1    0    0  501    0  0.00000000000E+00 -0.00000000000E+00 -0.24320885346E+02  0.24770859169E+02  0.47000000000E+01 0. -1.
         25    2    1    2    0    0 -0.41551233001E+01  0.51814981161E+02  0.41400558422E+03  0.43557666015E+03  0.12499738309E+03 0.  0.
         25    2    1    2    0    0  0.41551233001E+01 -0.51814981161E+02  0.31901029304E+03  0.34654554548E+03  0.12499676279E+03 0.  0.
          5    1    4    4  502    0  0.60300102988E+02 -0.28797281353E+01  0.15224427355E+03  0.16384384054E+03  0.47000000000E+01 0.  1.
         -5    1    4    4    0  502 -0.56144979688E+02 -0.48935253026E+02  0.16676601949E+03  0.18270170495E+03  0.47000000000E+01 0.  1.
          5    1    3    3  503    0 -0.45937591094E+02 -0.20198090532E+02  0.18937288669E+03  0.19596531671E+03  0.47000000000E+01 0. -1.
         -5    1    3    3    0  503  0.41782467794E+02  0.72013071694E+02  0.22463269752E+03  0.23961134344E+03  0.47000000000E+01 0. -1.
<mgrwt>
<rscale>  0 0.13537490E+03</rscale>
<asrwt>0</asrwt>
<pdfrwt beam="2">  1        5 0.37774105E-02 0.13537505E+03</pdfrwt>
<pdfrwt beam="1">  1       -5 0.11654906E+00 0.13537505E+03</pdfrwt>
<totfact> 0.16198396E+02</totfact>
</mgrwt>
</event>
<event>
 8    1  0.3573290E-007  0.1456308E+03  0.7546771E-02  0.1205956E+00
         -5   -1    0    0    0  501 -0.00000000000E+00  0.00000000000E+00  0.40067297742E+03  0.40070054259E+03  0.47000000000E+01 0.  1.
          5   -1    0    0  501    0  0.00000000000E+00 -0.00000000000E+00 -0.53730841443E+02  0.53936011367E+02  0.47000000000E+01 0.  1.
         25    2    1    2    0    0 -0.73433120752E+02 -0.13796031017E+02  0.20350414444E+03  0.25022814203E+03  0.12496972660E+03 0.  0.
         25    2    1    2    0    0  0.73433120752E+02  0.13796031017E+02  0.14343799154E+03  0.20440841193E+03  0.12500235100E+03 0.  0.
          5    1    4    4  502    0 -0.33808748873E+02 -0.22688618608E+01  0.53233878263E+02  0.63278077005E+02  0.47000000000E+01 0. -1.
         -5    1    4    4    0  502  0.10724186963E+03  0.16064892877E+02  0.90204113276E+02  0.14113033492E+03  0.47000000000E+01 0. -1.
          5    1    3    3  503    0  0.22909932381E+02 -0.40549517474E+01 -0.11588063046E+01  0.23764268712E+02  0.47000000000E+01 0.  1.
         -5    1    3    3    0  503 -0.96343053133E+02 -0.97410792692E+01  0.20466295074E+03  0.22646387332E+03  0.47000000000E+01 0.  1.
<mgrwt>
<rscale>  0 0.14562384E+03</rscale>
<asrwt>0</asrwt>
<pdfrwt beam="2">  1        5 0.82841862E-02 0.14563084E+03</pdfrwt>
<pdfrwt beam="1">  1       -5 0.61659898E-01 0.14563084E+03</pdfrwt>
<totfact> 0.19880529E+02</totfact>
</mgrwt>
</event>
<event>
 8    1  0.3573290E-007  0.1971565E+03  0.7546771E-02  0.1152161E+00
          5   -1    0    0  501    0  0.00000000000E+00  0.00000000000E+00  0.20132311628E+02  0.20673654043E+02  0.47000000000E+01 0.  1.
         -5   -1    0    0    0  501 -0.00000000000E+00 -0.00000000000E+00 -0.20025287361E+04  0.20025342516E+04  0.47000000000E+01 0.  1.
         25    2    1    2    0    0  0.40785184597E+02 -0.14691035213E+03 -0.12148880864E+04  0.12307814328E+04  0.12499516032E+03 0.  0.
         25    2    1    2    0    0 -0.40785184597E+02  0.14691035213E+03 -0.76750833809E+03  0.79242647284E+03  0.12499833188E+03 0.  0.
          5    1    3    3  502    0  0.22954520843E+02 -0.14382668872E+03 -0.11935448444E+04  0.12024077562E+04  0.47000000000E+01 0.  1.
         -5    1    3    3    0  502  0.17830663753E+02 -0.30836634113E+01 -0.21343241932E+02  0.28373676640E+02  0.47000000000E+01 0.  1.
          5    1    4    4  503    0 -0.19879930293E+02  0.16671620698E+03 -0.65042697238E+03  0.67176397767E+03  0.47000000000E+01 0.  1.
         -5    1    4    4    0  503 -0.20905254303E+02 -0.19805854847E+02 -0.11708136570E+03  0.12066249516E+03  0.47000000000E+01 0.  1.
<mgrwt>
<rscale>  0 0.19715595E+03</rscale>
<asrwt>0</asrwt>
<pdfrwt beam="1">  1        5 0.31393463E-02 0.19715645E+03</pdfrwt>
<pdfrwt beam="2">  1       -5 0.30812326E+00 0.19715645E+03</pdfrwt>
<totfact> 0.10793816E+01</totfact>
</mgrwt>
</event>
<event>
 8    1  0.3573290E-007  0.1315738E+03  0.7546771E-02  0.1225140E+00
          5   -1    0    0  501    0  0.00000000000E+00  0.00000000000E+00  0.15629697775E+03  0.15636762854E+03  0.47000000000E+01 0. -1.
         -5   -1    0    0    0  501 -0.00000000000E+00 -0.00000000000E+00 -0.12309046198E+03  0.12318016005E+03  0.47000000000E+01 0. -1.
         25    2    1    2    0    0  0.36442258022E+02 -0.18944518292E+02 -0.27867527750E+02  0.13449258288E+03  0.12499889121E+03 0.  0.
         25    2    1    2    0    0 -0.36442258022E+02  0.18944518292E+02  0.61074043521E+02  0.14505520571E+03  0.12499616382E+03 0.  0.
          5    1    3    3  502    0  0.21280738794E+02 -0.10634365823E+00 -0.76733559270E+02  0.79768479181E+02  0.47000000000E+01 0. -1.
         -5    1    3    3    0  502  0.15161519227E+02 -0.18838174634E+02  0.48866031520E+02  0.54724103696E+02  0.47000000000E+01 0. -1.
          5    1    4    4  503    0 -0.37321062720E+02  0.45144421601E+02 -0.18128489048E+02  0.61494817989E+02  0.47000000000E+01 0.  1.
         -5    1    4    4    0  503  0.87880469854E+00 -0.26199903309E+02  0.79202532569E+02  0.83560387723E+02  0.47000000000E+01 0.  1.
<mgrwt>
<rscale>  0 0.13157312E+03</rscale>
<asrwt>0</asrwt>
<pdfrwt beam="1">  1        5 0.24058023E-01 0.13157377E+03</pdfrwt>
<pdfrwt beam="2">  1       -5 0.18949329E-01 0.13157377E+03</pdfrwt>
<totfact> 0.29988770E+02</totfact>
</mgrwt>
</event>
<event>
 8    1  0.3573290E-007  0.1629394E+03  0.7546771E-02  0.1185418E+00
         -5   -1    0    0    0  501 -0.00000000000E+00  0.00000000000E+00  0.67647004661E+03  0.67648637382E+03  0.47000000000E+01 0.  1.
          5   -1    0    0  501    0  0.00000000000E+00 -0.00000000000E+00 -0.51334129618E+02  0.51548839596E+02  0.47000000000E+01 0.  1.
         25    2    1    2    0    0 -0.21691166342E+01  0.10449596161E+03  0.48990079801E+03  0.51628677852E+03  0.12500053889E+03 0.  0.
         25    2    1    2    0    0  0.21691166342E+01 -0.10449596161E+03  0.13523511898E+03  0.21174843489E+03  0.12499900485E+03 0.  0.
          5    1    3    3  502    0 -0.49689655279E+02  0.20263360483E+02  0.27992828774E+03  0.28506420662E+03  0.47000000000E+01 0.  1.
         -5    1    3    3    0  502  0.47520538645E+02  0.84232601131E+02  0.20997251028E+03  0.23122257191E+03  0.47000000000E+01 0.  1.
          5    1    4    4  503    0  0.32244168780E+02 -0.48751180743E+02  0.13613589058E+03  0.14822764502E+03  0.47000000000E+01 0.  1.
         -5    1    4    4    0  503 -0.30075052145E+02 -0.55744780871E+02 -0.90077160495E+00  0.63520789867E+02  0.47000000000E+01 0.  1.
<mgrwt>
<rscale>  0 0.16293910E+03</rscale>
<asrwt>0</asrwt>
<pdfrwt beam="2">  1        5 0.79153311E-02 0.16293939E+03</pdfrwt>
<pdfrwt beam="1">  1       -5 0.10409008E+00 0.16293939E+03</pdfrwt>
<totfact> 0.65922090E+01</totfact>
</mgrwt>
</event>
<event>
 8    1  0.3573290E-007  0.1322299E+03  0.7546771E-02  0.1224188E+00
         -5   -1    0    0    0  501 -0.00000000000E+00  0.00000000000E+00  0.36437759558E+03  0.36440790628E+03  0.47000000000E+01 0. -1.
          5   -1    0    0  501    0  0.00000000000E+00 -0.00000000000E+00 -0.48138473108E+02  0.48367371162E+02  0.47000000000E+01 0. -1.
         25    2    1    2    0    0  0.43062040992E+02  0.20748496427E+01  0.17448975908E+03  0.21893243183E+03  0.12500435715E+03 0.  0.
         25    2    1    2    0    0 -0.43062040992E+02 -0.20748496427E+01  0.14174936339E+03  0.19384284561E+03  0.12499408945E+03 0.  0.
          5    1    4    4  502    0 -0.70922978172E+01 -0.35594061007E+02 -0.68658243843E+01  0.37235297928E+02  0.47000000000E+01 0. -1.
         -5    1    4    4    0  502 -0.35969743175E+02  0.33519211364E+02  0.14861518778E+03  0.15660754769E+03  0.47000000000E+01 0. -1.
          5    1    3    3  503    0 -0.31412600276E+02 -0.24292546602E+02  0.10933980127E+03  0.11642234072E+03  0.47000000000E+01 0.  1.
         -5    1    3    3    0  503  0.74474641268E+02  0.26367396245E+02  0.65149957804E+02  0.10251009111E+03  0.47000000000E+01 0.  1.
<mgrwt>
<rscale>  0 0.13222742E+03</rscale>
<asrwt>0</asrwt>
<pdfrwt beam="2">  1        5 0.74258579E-02 0.13222985E+03</pdfrwt>
<pdfrwt beam="1">  1       -5 0.56078032E-01 0.13222985E+03</pdfrwt>
<totfact> 0.28544845E+02</totfact>
</mgrwt>
</event>
<event>
 8    1  0.3573290E-007  0.1527899E+03  0.7546771E-02  0.1197086E+00
         -5   -1    0    0    0  501 -0.00000000000E+00  0.00000000000E+00  0.26750843098E+03  0.26754971622E+03  0.47000000000E+01 0. -1.
          5   -1    0    0  501    0  0.00000000000E+00 -0.00000000000E+00 -0.94508177457E+02  0.94624973481E+02  0.47000000000E+01 0. -1.
         25    2    1    2    0    0  0.71258981592E+02  0.51400138372E+02  0.13696628254E+03  0.20519311648E+03  0.12499854326E+03 0.  0.
         25    2    1    2    0    0 -0.71258981592E+02 -0.51400138372E+02  0.36033970985E+02  0.15698157321E+03  0.12499980233E+03 0.  0.
          5    1    3    3  502    0  0.17027301241E+02  0.37385408788E+02  0.14281433966E+03  0.14867959977E+03  0.47000000000E+01 0.  1.
         -5    1    3    3    0  502  0.54231680351E+02  0.14014729584E+02 -0.58480571129E+01  0.56513516711E+02  0.47000000000E+01 0.  1.
          5    1    4    4  503    0  0.22484405865E+02 -0.16097486136E+02  0.48401059658E+02  0.55941309808E+02  0.47000000000E+01 0. -1.
         -5    1    4    4    0  503 -0.93743387457E+02 -0.35302652236E+02 -0.12367088673E+02  0.10104026341E+03  0.47000000000E+01 0. -1.
<mgrwt>
<rscale>  0 0.15278969E+03</rscale>
<asrwt>0</asrwt>
<pdfrwt beam="2">  1        5 0.14551880E-01 0.15278994E+03</pdfrwt>
<pdfrwt beam="1">  1       -5 0.41167303E-01 0.15278994E+03</pdfrwt>
<totfact> 0.17670358E+02</totfact>
</mgrwt>
</event>
<event>
 8    1  0.3573290E-007  0.1443185E+03  0.7546771E-02  0.1207641E+00
         -5   -1    0    0    0  501 -0.00000000000E+00  0.00000000000E+00  0.12232611837E+03  0.12241637650E+03  0.47000000000E+01 0.  1.
          5   -1    0    0  501    0  0.00000000000E+00 -0.00000000000E+00 -0.19470720439E+03  0.19476392233E+03  0.47000000000E+01 0.  1.
         25    2    1    2    0    0  0.42985031862E+02  0.57922126198E+02  0.20222488243E+02  0.14570651827E+03  0.12497501658E+03 0.  0.
         25    2    1    2    0    0 -0.42985031862E+02 -0.57922126198E+02 -0.92603574258E+02  0.17147378055E+03  0.12500059914E+03 0.  0.
          5    1    4    4  502    0  0.20339288264E+02 -0.66430364011E+02 -0.80212360531E+02  0.10622049092E+03  0.47000000000E+01 0. -1.
         -5    1    4    4    0  502 -0.63324320126E+02  0.85082378128E+01 -0.12391213726E+02  0.65253289631E+02  0.47000000000E+01 0. -1.
          5    1    3    3  503    0  0.58313301718E+02 -0.15807163965E+02  0.33273025895E+02  0.69133868994E+02  0.47000000000E+01 0.  1.
         -5    1    3    3    0  503 -0.15328269856E+02  0.73729290163E+02 -0.13050537652E+02  0.76572649280E+02  0.47000000000E+01 0.  1.
<mgrwt>
<rscale>  0 0.14431298E+03</rscale>
<asrwt>0</asrwt>
<pdfrwt beam="2">  1        5 0.29966260E-01 0.14431852E+03</pdfrwt>
<pdfrwt beam="1">  1       -5 0.18830709E-01 0.14431852E+03</pdfrwt>
<totfact> 0.20475851E+02</totfact>
</mgrwt>
</event>
<event>
 8    1  0.3573290E-007  0.1509481E+03  0.7546771E-02  0.1199317E+00
         -5   -1    0    0    0  501 -0.00000000000E+00  0.00000000000E+00  0.96875702232E+02  0.96989647298E+02  0.47000000000E+01 0. -1.
          5   -1    0    0  501    0  0.00000000000E+00 -0.00000000000E+00 -0.24626304127E+03  0.24630788760E+03  0.47000000000E+01 0. -1.
         25    2    1    2    0    0  0.74329151680E+02  0.40417798894E+02 -0.37846336118E+02  0.15562024433E+03  0.12500757589E+03 0.  0.
         25    2    1    2    0    0 -0.74329151680E+02 -0.40417798894E+02 -0.11154100292E+03  0.18767729057E+03  0.12499179496E+03 0.  0.
          5    1    4    4  502    0 -0.45316831105E+02 -0.14590659301E+02 -0.13419428568E+03  0.14246648318E+03  0.47000000000E+01 0. -1.
         -5    1    4    4    0  502 -0.29012320575E+02 -0.25827139593E+02  0.22653282765E+02  0.45210807389E+02  0.47000000000E+01 0. -1.
          5    1    3    3  503    0  0.83512035588E+02  0.30588860078E+02  0.23930972997E+02  0.92221038367E+02  0.47000000000E+01 0.  1.
         -5    1    3    3    0  503 -0.91828839080E+01  0.98289388155E+01 -0.61777309115E+02  0.63399205962E+02  0.47000000000E+01 0.  1.
<mgrwt>
<rscale>  0 0.15094479E+03</rscale>
<asrwt>0</asrwt>
<pdfrwt beam="2">  1        5 0.37898836E-01 0.15094805E+03</pdfrwt>
<pdfrwt beam="1">  1       -5 0.14916169E-01 0.15094805E+03</pdfrwt>
<totfact> 0.19931833E+02</totfact>
</mgrwt>
</event>
<event>
 8    1  0.3573290E-007  0.1251554E+03  0.7546771E-02  0.1234833E+00
         -5   -1    0    0    0  501 -0.00000000000E+00  0.00000000000E+00  0.28823422709E+03  0.28827254408E+03  0.47000000000E+01 0. -1.
          5   -1    0    0  501    0  0.00000000000E+00 -0.00000000000E+00 -0.54194979837E+02  0.54398399237E+02  0.47000000000E+01 0. -1.
         25    2    1    2    0    0  0.58701836876E+01  0.80651083995E+00  0.11611229128E+03  0.17070976970E+03  0.12499860707E+03 0.  0.
         25    2    1    2    0    0 -0.58701836876E+01 -0.80651083995E+00  0.11792695598E+03  0.17196117361E+03  0.12501507416E+03 0.  0.
          5    1    4    4  502    0 -0.18940016619E+01 -0.48446978228E+02  0.46656480138E+01  0.48934192679E+02  0.47000000000E+01 0.  1.
         -5    1    4    4    0  502 -0.39761820257E+01  0.47640467388E+02  0.11326130796E+03  0.12302698094E+03  0.47000000000E+01 0.  1.
          5    1    3    3  503    0 -0.50238987405E+02  0.86089840052E+01  0.12755494634E+02  0.52752849254E+02  0.47000000000E+01 0.  1.
         -5    1    3    3    0  503  0.56109171093E+02 -0.78024731652E+01  0.10335679664E+03  0.11795692044E+03  0.47000000000E+01 0.  1.
<mgrwt>
<rscale>  0 0.12515130E+03</rscale>
<asrwt>0</asrwt>
<pdfrwt beam="2">  1        5 0.83562845E-02 0.12515542E+03</pdfrwt>
<pdfrwt beam="1">  1       -5 0.44362321E-01 0.12515542E+03</pdfrwt>
<totfact> 0.37540594E+02</totfact>
</mgrwt>
</event>
<event>
 8    1  0.3573290E-007  0.1303505E+03  0.7546771E-02  0.1226939E+00
         -5   -1    0    0    0  501 -0.00000000000E+00  0.00000000000E+00  0.18245959396E+02  0.18841577277E+02  0.47000000000E+01 0.  1.
          5   -1    0    0  501    0  0.00000000000E+00 -0.00000000000E+00 -0.94505358641E+03  0.94506527351E+03  0.47000000000E+01 0.  1.
         25    2    1    2    0    0 -0.25239551518E+02 -0.26976703015E+02 -0.37841133724E+03  0.40023291941E+03  0.12500588853E+03 0.  0.
         25    2    1    2    0    0  0.25239551518E+02  0.26976703015E+02 -0.54839628978E+03  0.56367393137E+03  0.12500013119E+03 0.  0.
          5    1    3    3  502    0 -0.31607692764E+02  0.37163286242E+02 -0.72122963615E+02  0.87200733752E+02  0.47000000000E+01 0. -1.
         -5    1    3    3    0  502  0.63681412468E+01 -0.64139989257E+02 -0.30628837362E+03  0.31303218566E+03  0.47000000000E+01 0. -1.
          5    1    4    4  503    0  0.44572254994E+02 -0.36204102641E+02 -0.34459338553E+03  0.34937675126E+03  0.47000000000E+01 0.  1.
         -5    1    4    4    0  503 -0.19332703476E+02  0.63180805656E+02 -0.20380290424E+03  0.21429718011E+03  0.47000000000E+01 0.  1.
<mgrwt>
<rscale>  0 0.13034911E+03</rscale>
<asrwt>0</asrwt>
<pdfrwt beam="2">  1        5 0.14543954E+00 0.13035049E+03</pdfrwt>
<pdfrwt beam="1">  1       -5 0.28537872E-02 0.13035049E+03</pdfrwt>
<totfact> 0.14154479E+02</totfact>
</mgrwt>
</event>
<event>
 8    1  0.3573290E-007  0.1379727E+03  0.7546771E-02  0.1216106E+00
          5   -1    0    0  501    0  0.00000000000E+00  0.00000000000E+00  0.93372315253E+02  0.93490530299E+02  0.47000000000E+01 0.  1.
         -5   -1    0    0    0  501 -0.00000000000E+00 -0.00000000000E+00 -0.22413078049E+03  0.22418005434E+03  0.47000000000E+01 0.  1.
         25    2    1    2    0    0 -0.42959092695E+02 -0.39601962478E+02 -0.11353068935E+03  0.17862646171E+03  0.12491755810E+03 0.  0.
         25    2    1    2    0    0  0.42959092695E+02  0.39601962478E+02 -0.17227775893E+02  0.13904412293E+03  0.12499069078E+03 0.  0.
          5    1    3    3  502    0 -0.25584982885E+02 -0.27455567536E+02  0.20382450009E+02  0.42964331792E+02  0.47000000000E+01 0.  1.
         -5    1    3    3    0  502 -0.17374109809E+02 -0.12146394941E+02 -0.13391313935E+03  0.13566212992E+03  0.47000000000E+01 0.  1.
          5    1    4    4  503    0 -0.18838557028E+02 -0.35719467490E+01 -0.52200440497E+02  0.55808834628E+02  0.47000000000E+01 0. -1.
         -5    1    4    4    0  503  0.61797649723E+02  0.43173909227E+02  0.34972664604E+02  0.83235288302E+02  0.47000000000E+01 0. -1.
<mgrwt>
<rscale>  0 0.13795616E+03</rscale>
<asrwt>0</asrwt>
<pdfrwt beam="1">  1        5 0.14377855E-01 0.13797272E+03</pdfrwt>
<pdfrwt beam="2">  1       -5 0.34494542E-01 0.13797272E+03</pdfrwt>
<totfact> 0.24990594E+02</totfact>
</mgrwt>
</event>
<event>
 8    1  0.3573290E-007  0.1524429E+03  0.7546771E-02  0.1197503E+00
         -5   -1    0    0    0  501 -0.00000000000E+00  0.00000000000E+00  0.11505436478E+04  0.11505532475E+04  0.47000000000E+01 0. -1.
          5   -1    0    0  501    0  0.00000000000E+00 -0.00000000000E+00 -0.19921251679E+02  0.20468176969E+02  0.47000000000E+01 0. -1.
         25    2    1    2    0    0  0.20566959354E+02 -0.84798109801E+02  0.55483002239E+03  0.57539091614E+03  0.12499853356E+03 0.  0.
         25    2    1    2    0    0 -0.20566959354E+02  0.84798109801E+02  0.57579237371E+03  0.59563050837E+03  0.12500050257E+03 0.  0.
          5    1    4    4  502    0 -0.20757669521E+02  0.72675990958E+02  0.57756411909E+03  0.58250758121E+03  0.47000000000E+01 0.  1.
         -5    1    4    4    0  502  0.19071016670E+00  0.12122118843E+02 -0.17717453838E+01  0.13122927162E+02  0.47000000000E+01 0.  1.
          5    1    3    3  503    0  0.63620903493E+02 -0.40832325874E+02  0.42428955074E+03  0.43099722860E+03  0.47000000000E+01 0.  1.
         -5    1    3    3    0  503 -0.43053944139E+02 -0.43965783927E+02  0.13054047165E+03  0.14439368754E+03  0.47000000000E+01 0.  1.
<mgrwt>
<rscale>  0 0.15244252E+03</rscale>
<asrwt>0</asrwt>
<pdfrwt beam="2">  1        5 0.31076157E-02 0.15244292E+03</pdfrwt>
<pdfrwt beam="1">  1       -5 0.17704963E+00 0.15244292E+03</pdfrwt>
<totfact> 0.74512307E+01</totfact>
</mgrwt>
</event>
<event>
 8    1  0.3573290E-007  0.1457764E+03  0.7546771E-02  0.1205762E+00
          5   -1    0    0  501    0  0.00000000000E+00  0.00000000000E+00  0.19707284620E+03  0.19712888350E+03  0.47000000000E+01 0. -1.
         -5   -1    0    0    0  501 -0.00000000000E+00 -0.00000000000E+00 -0.11309179564E+03  0.11318941753E+03  0.47000000000E+01 0. -1.
         25    2    1    2    0    0 -0.55431539869E+02  0.50516909124E+02  0.81560117454E+01  0.14600093857E+03  0.12500055926E+03 0.  0.
         25    2    1    2    0    0  0.55431539869E+02 -0.50516909124E+02  0.75825038814E+02  0.16431736245E+03  0.12500458141E+03 0.  0.
          5    1    3    3  502    0  0.20852366317E+02  0.59088989881E+02 -0.16979091177E+02  0.65090010319E+02  0.47000000000E+01 0.  1.
         -5    1    3    3    0  502 -0.76283906186E+02 -0.85720807569E+01  0.25135102922E+02  0.80910928251E+02  0.47000000000E+01 0.  1.
          5    1    4    4  503    0  0.23393193920E+02 -0.89761314542E+02  0.61732536811E+02  0.11152278337E+03  0.47000000000E+01 0. -1.
         -5    1    4    4    0  503  0.32038345950E+02  0.39244405417E+02  0.14092502003E+02  0.52794579082E+02  0.47000000000E+01 0. -1.
<mgrwt>
<rscale>  0 0.14577554E+03</rscale>
<asrwt>0</asrwt>
<pdfrwt beam="1">  1        5 0.30330719E-01 0.14577640E+03</pdfrwt>
<pdfrwt beam="2">  1       -5 0.17410558E-01 0.14577640E+03</pdfrwt>
<totfact> 0.23189129E+02</totfact>
</mgrwt>
</event>
<event>
 8    1  0.3573290E-007  0.1429725E+03  0.7546771E-02  0.1209385E+00
         -5   -1    0    0    0  501 -0.00000000000E+00  0.00000000000E+00  0.82215215716E+02  0.82349448664E+02  0.47000000000E+01 0.  1.
          5   -1    0    0  501    0  0.00000000000E+00 -0.00000000000E+00 -0.24826883656E+03  0.24831332064E+03  0.47000000000E+01 0.  1.
         25    2    1    2    0    0  0.51942075672E+02  0.46017700391E+02 -0.82372645712E+02  0.16500418072E+03  0.12500207566E+03 0.  0.
         25    2    1    2    0    0 -0.51942075672E+02 -0.46017700391E+02 -0.83680975129E+02  0.16565858858E+03  0.12499861758E+03 0.  0.
          5    1    4    4  502    0 -0.77106415223E+02 -0.71364921056E+02 -0.50433728750E+02  0.11663619602E+03  0.47000000000E+01 0. -1.
         -5    1    4    4    0  502  0.25164339550E+02  0.25347220665E+02 -0.33247246380E+02  0.49022392559E+02  0.47000000000E+01 0. -1.
          5    1    3    3  503    0 -0.25145055046E+02 -0.26424251871E+02 -0.16595146126E+02  0.40348528538E+02  0.47000000000E+01 0.  1.
         -5    1    3    3    0  503  0.77087130719E+02  0.72441952262E+02 -0.65777499586E+02  0.12465565219E+03  0.47000000000E+01 0.  1.
<mgrwt>
<rscale>  0 0.14297171E+03</rscale>
<asrwt>0</asrwt>
<pdfrwt beam="2">  1        5 0.38208953E-01 0.14297247E+03</pdfrwt>
<pdfrwt beam="1">  1       -5 0.12662242E-01 0.14297247E+03</pdfrwt>
<totfact> 0.25844984E+02</totfact>
</mgrwt>
</event>
<event>
 8    1  0.3573290E-007  0.1302822E+03  0.7546771E-02  0.1227040E+00
         -5   -1    0    0    0  501 -0.00000000000E+00  0.00000000000E+00  0.37440014235E+03  0.37442964171E+03  0.47000000000E+01 0.  1.
          5   -1    0    0  501    0  0.00000000000E+00 -0.00000000000E+00 -0.55543613786E+02  0.55742111840E+02  0.47000000000E+01 0.  1.
         25    2    1    2    0    0 -0.32607441351E+02  0.16828351459E+02  0.25212612018E+03  0.28379413167E+03  0.12500036021E+03 0.  0.
         25    2    1    2    0    0  0.32607441351E+02 -0.16828351459E+02  0.66730408388E+02  0.14637762188E+03  0.12500808829E+03 0.  0.
          5    1    3    3  502    0  0.47128560805E+02  0.14928583631E+02  0.82488952204E+02  0.96283337544E+02  0.47000000000E+01 0. -1.
         -5    1    3    3    0  502 -0.79736002156E+02  0.18997678279E+01  0.16963716797E+03  0.18751079413E+03  0.47000000000E+01 0. -1.
          5    1    4    4  503    0  0.69848865533E+02  0.91576938412E+01  0.66447709905E+01  0.70915233584E+02  0.47000000000E+01 0. -1.
         -5    1    4    4    0  503 -0.37241424182E+02 -0.25986045300E+02  0.60085637397E+02  0.75462388293E+02  0.47000000000E+01 0. -1.
<mgrwt>
<rscale>  0 0.13028038E+03</rscale>
<asrwt>0</asrwt>
<pdfrwt beam="2">  1        5 0.85627094E-02 0.13028224E+03</pdfrwt>
<pdfrwt beam="1">  1       -5 0.57617562E-01 0.13028224E+03</pdfrwt>
<totfact> 0.20979589E+02</totfact>
</mgrwt>
</event>
<event>
 8    1  0.3573290E-007  0.1270607E+03  0.7546771E-02  0.1231885E+00
         -5   -1    0    0    0  501 -0.00000000000E+00  0.00000000000E+00  0.34579488894E+02  0.34897436183E+02  0.47000000000E+01 0.  1.
          5   -1    0    0  501    0  0.00000000000E+00 -0.00000000000E+00 -0.52136799178E+03  0.52138917600E+03  0.47000000000E+01 0.  1.
         25    2    1    2    0    0 -0.15931405480E+02  0.16265094023E+02 -0.15147923713E+03  0.19771063977E+03  0.12500069932E+03 0.  0.
         25    2    1    2    0    0  0.15931405480E+02 -0.16265094023E+02 -0.33530926575E+03  0.35857597242E+03  0.12500424526E+03 0.  0.
          5    1    4    4  502    0  0.34391816224E+02 -0.65542226386E+02 -0.19021756593E+03  0.20416511174E+03  0.47000000000E+01 0. -1.
         -5    1    4    4    0  502 -0.18460410744E+02  0.49277132363E+02 -0.14509169982E+03  0.15441086068E+03  0.47000000000E+01 0. -1.
          5    1    3    3  503    0  0.73839602090E+00  0.56815391192E+02 -0.22312186576E+02  0.61224648425E+02  0.47000000000E+01 0. -1.
         -5    1    3    3    0  503 -0.16669801501E+02 -0.40550297169E+02 -0.12916705056E+03  0.13648599134E+03  0.47000000000E+01 0. -1.
<mgrwt>
<rscale>  0 0.12705984E+03</rscale>
<asrwt>0</asrwt>
<pdfrwt beam="2">  1        5 0.80236542E-01 0.12706071E+03</pdfrwt>
<pdfrwt beam="1">  1       -5 0.53460088E-02 0.12706071E+03</pdfrwt>
<totfact> 0.21994648E+02</totfact>
</mgrwt>
</event>
<event>
 8    1  0.3573290E-007  0.1527433E+03  0.7546771E-02  0.1197146E+00
          5   -1    0    0  501    0  0.00000000000E+00  0.00000000000E+00  0.58111120800E+02  0.58300877872E+02  0.47000000000E+01 0. -1.
         -5   -1    0    0    0  501 -0.00000000000E+00 -0.00000000000E+00 -0.40222822205E+03  0.40225568065E+03  0.47000000000E+01 0. -1.
         25    2    1    2    0    0  0.58624560214E+02  0.65328769243E+02 -0.15735206123E+03  0.21928556881E+03  0.12498720880E+03 0.  0.
         25    2    1    2    0    0 -0.58624560214E+02 -0.65328769243E+02 -0.18676504003E+03  0.24127098972E+03  0.12500329257E+03 0.  0.
          5    1    4    4  502    0  0.15192830641E+02 -0.51508968665E+02 -0.18579701813E+02  0.57020095363E+02  0.47000000000E+01 0.  1.
         -5    1    4    4    0  502 -0.73817390855E+02 -0.13819800578E+02 -0.16818533821E+03  0.18425089436E+03  0.47000000000E+01 0.  1.
          5    1    3    3  503    0  0.89739716588E+02  0.22422984434E+02 -0.12954733206E+03  0.15925014351E+03  0.47000000000E+01 0.  1.
         -5    1    3    3    0  503 -0.31115156374E+02  0.42905784808E+02 -0.27804729162E+02  0.60035425292E+02  0.47000000000E+01 0.  1.
<mgrwt>
<rscale>  0 0.15273999E+03</rscale>
<asrwt>0</asrwt>
<pdfrwt beam="1">  1        5 0.89568816E-02 0.15274328E+03</pdfrwt>
<pdfrwt beam="2">  1       -5 0.61897972E-01 0.15274328E+03</pdfrwt>
<totfact> 0.17497164E+02</totfact>
</mgrwt>
</event>
<event>
 8    1  0.3573290E-007  0.1335977E+03  0.7546771E-02  0.1222214E+00
         -5   -1    0    0    0  501 -0.00000000000E+00  0.00000000000E+00  0.15394931142E+02  0.16096394157E+02  0.47000000000E+01 0. -1.
          5   -1    0    0  501    0  0.00000000000E+00 -0.00000000000E+00 -0.11330648649E+04  0.11330746127E+04  0.47000000000E+01 0. -1.
         25    2    1    2    0    0 -0.14674761065E+02 -0.44793341668E+02 -0.56763086408E+03  0.58313981029E+03  0.12500179366E+03 0.  0.
         25    2    1    2    0    0  0.14674761065E+02  0.44793341668E+02 -0.55003906967E+03  0.56603119661E+03  0.12500618108E+03 0.  0.
          5    1    4    4  502    0  0.20970434912E+02 -0.32585523155E+02 -0.33673204864E+03  0.33898692901E+03  0.47000000000E+01 0. -1.
         -5    1    4    4    0  502 -0.62956738476E+01  0.77378864823E+02 -0.21330702103E+03  0.22704426760E+03  0.47000000000E+01 0. -1.
          5    1    3    3  503    0  0.50365981940E+02 -0.14824018173E+02 -0.35086133594E+03  0.35479888769E+03  0.47000000000E+01 0.  1.
         -5    1    3    3    0  503 -0.65040743005E+02 -0.29969323495E+02 -0.21676952814E+03  0.22834092259E+03  0.47000000000E+01 0.  1.
<mgrwt>
<rscale>  0 0.13359664E+03</rscale>
<asrwt>0</asrwt>
<pdfrwt beam="2">  1        5 0.17437232E+00 0.13359767E+03</pdfrwt>
<pdfrwt beam="1">  1       -5 0.24231604E-02 0.13359767E+03</pdfrwt>
<totfact> 0.11177910E+02</totfact>
</mgrwt>
</event>
<event>
 8    1  0.3573290E-007  0.1311463E+03  0.7546771E-02  0.1225766E+00
          5   -1    0    0  501    0  0.00000000000E+00  0.00000000000E+00  0.22065261597E+03  0.22070266635E+03  0.47000000000E+01 0. -1.
         -5   -1    0    0    0  501 -0.00000000000E+00 -0.00000000000E+00 -0.22360760670E+03  0.22365699580E+03  0.47000000000E+01 0. -1.
         25    2    1    2    0    0  0.36341422867E+02 -0.15898886385E+02 -0.18082131418E+03  0.22337148614E+03  0.12499999821E+03 0.  0.
         25    2    1    2    0    0 -0.36341422867E+02  0.15898886385E+02  0.17786632345E+03  0.22098817602E+03  0.12500348521E+03 0.  0.
          5    1    3    3  502    0  0.62992414885E+02  0.30354036112E+02 -0.64266705327E+02  0.95087913295E+02  0.47000000000E+01 0. -1.
         -5    1    3    3    0  502 -0.26650992018E+02 -0.46252922497E+02 -0.11655460886E+03  0.12828357284E+03  0.47000000000E+01 0. -1.
          5    1    4    4  503    0  0.62322177468E+01 -0.49840686349E+02  0.90107877345E+02  0.10326884387E+03  0.47000000000E+01 0. -1.
         -5    1    4    4    0  503 -0.42573640614E+02  0.65739572735E+02  0.87758446109E+02  0.11771933215E+03  0.47000000000E+01 0. -1.
<mgrwt>
<rscale>  0 0.13114544E+03</rscale>
<asrwt>0</asrwt>
<pdfrwt beam="1">  1        5 0.33954206E-01 0.13114627E+03</pdfrwt>
<pdfrwt beam="2">  1       -5 0.34408819E-01 0.13114627E+03</pdfrwt>
<totfact> 0.48644754E+01</totfact>
</mgrwt>
</event>
<event>
 8    1  0.3573290E-007  0.1267934E+03  0.7546771E-02  0.1232302E+00
         -5   -1    0    0    0  501 -0.00000000000E+00  0.00000000000E+00  0.92902539435E+02  0.93021351492E+02  0.47000000000E+01 0. -1.
          5   -1    0    0  501    0  0.00000000000E+00 -0.00000000000E+00 -0.17279367696E+03  0.17285758531E+03  0.47000000000E+01 0. -1.
         25    2    1    2    0    0 -0.20182447321E+02  0.66549911429E+01 -0.41945718398E+02  0.13355155430E+03  0.12499981711E+03 0.  0.
         25    2    1    2    0    0  0.20182447321E+02 -0.66549911429E+01 -0.37945419130E+02  0.13232738250E+03  0.12497624270E+03 0.  0.
          5    1    4    4  502    0  0.53720150230E+02  0.37777334624E+02 -0.19529816878E+01  0.65870218532E+02  0.47000000000E+01 0.  1.
         -5    1    4    4    0  502 -0.33537702908E+02 -0.44432325767E+02 -0.35992437442E+02  0.66457163966E+02  0.47000000000E+01 0.  1.
          5    1    3    3  503    0 -0.33695531369E+02  0.23800839106E+02  0.34454691822E+02  0.53954467516E+02  0.47000000000E+01 0. -1.
         -5    1    3    3    0  503  0.13513084048E+02 -0.17145847963E+02 -0.76400410219E+02  0.79597086784E+02  0.47000000000E+01 0. -1.
<mgrwt>
<rscale>  0 0.12678762E+03</rscale>
<asrwt>0</asrwt>
<pdfrwt beam="2">  1        5 0.26597698E-01 0.12679343E+03</pdfrwt>
<pdfrwt beam="1">  1       -5 0.14306754E-01 0.12679343E+03</pdfrwt>
<totfact> 0.40768355E+02</totfact>
</mgrwt>
</event>
<event>
 8    1  0.3573290E-007  0.1253881E+03  0.7546771E-02  0.1234464E+00
          5   -1    0    0  501    0  0.00000000000E+00  0.00000000000E+00  0.29449342639E+02  0.29822035173E+02  0.47000000000E+01 0.  1.
         -5   -1    0    0    0  501 -0.00000000000E+00 -0.00000000000E+00 -0.60081127863E+03  0.60082966182E+03  0.47000000000E+01 0.  1.
         25    2    1    2    0    0 -0.87145721714E+01  0.45707097952E+01 -0.39379989195E+03  0.41328021663E+03  0.12500138962E+03 0.  0.
         25    2    1    2    0    0  0.87145721714E+01 -0.45707097952E+01 -0.17756204404E+03  0.21737148036E+03  0.12500098334E+03 0.  0.
          5    1    4    4  502    0 -0.56072128980E+02 -0.16592779270E+02 -0.72426372802E+02  0.93204471189E+02  0.47000000000E+01 0.  1.
         -5    1    4    4    0  502  0.64786701151E+02  0.12022069475E+02 -0.10513567124E+03  0.12416700918E+03  0.47000000000E+01 0.  1.
          5    1    3    3  503    0 -0.45007656035E+02 -0.43872626093E+02 -0.16711247106E+03  0.17860337176E+03  0.47000000000E+01 0.  1.
         -5    1    3    3    0  503  0.36293083864E+02  0.48443335889E+02 -0.22668742089E+03  0.23467684487E+03  0.47000000000E+01 0.  1.
<mgrwt>
<rscale>  0 0.12538803E+03</rscale>
<asrwt>0</asrwt>
<pdfrwt beam="1">  1        5 0.45607513E-02 0.12538813E+03</pdfrwt>
<pdfrwt beam="2">  1       -5 0.92462578E-01 0.12538813E+03</pdfrwt>
<totfact> 0.20425546E+02</totfact>
</mgrwt>
</event>
<event>
 8    1  0.3573290E-007  0.1282349E+03  0.7546771E-02  0.1230100E+00
          5   -1    0    0  501    0  0.00000000000E+00  0.00000000000E+00  0.19549609007E+03  0.19555257920E+03  0.47000000000E+01 0. -1.
         -5   -1    0    0    0  501 -0.00000000000E+00 -0.00000000000E+00 -0.86907742550E+02  0.87034738554E+02  0.47000000000E+01 0. -1.
         25    2    1    2    0    0 -0.20210229512E+02 -0.20241201555E+02  0.28382512729E+02  0.13133528484E+03  0.12500092159E+03 0.  0.
         25    2    1    2    0    0  0.20210229512E+02  0.20241201555E+02  0.80205834789E+02  0.15125203291E+03  0.12500416756E+03 0.  0.
          5    1    3    3  502    0 -0.92236139936E+01  0.75162844677E+01  0.74833419373E+02  0.75919037417E+02  0.47000000000E+01 0. -1.
         -5    1    3    3    0  502 -0.10986615518E+02 -0.27757486022E+02 -0.46450906644E+02  0.55416247427E+02  0.47000000000E+01 0. -1.
          5    1    4    4  503    0  0.64209229759E+00  0.14878854530E+02  0.11208771537E+03  0.11317039601E+03  0.47000000000E+01 0. -1.
         -5    1    4    4    0  503  0.19568137214E+02  0.53623470250E+01 -0.31881880585E+02  0.38081636903E+02  0.47000000000E+01 0. -1.
<mgrwt>
<rscale>  0 0.12823416E+03</rscale>
<asrwt>0</asrwt>
<pdfrwt beam="1">  1        5 0.30090435E-01 0.12823495E+03</pdfrwt>
<pdfrwt beam="2">  1       -5 0.13384536E-01 0.12823495E+03</pdfrwt>
<totfact> 0.36296584E+02</totfact>
</mgrwt>
</event>
<event>
 8    1  0.3573290E-007  0.1368777E+03  0.7546771E-02  0.1217594E+00
         -5   -1    0    0    0  501 -0.00000000000E+00  0.00000000000E+00  0.15038716247E+03  0.15046058831E+03  0.47000000000E+01 0.  1.
          5   -1    0    0  501    0  0.00000000000E+00 -0.00000000000E+00 -0.14329529222E+03  0.14337235010E+03  0.47000000000E+01 0.  1.
         25    2    1    2    0    0 -0.29815686135E+02  0.47132963172E+02  0.56821702060E+02  0.14820132749E+03  0.12499774513E+03 0.  0.
         25    2    1    2    0    0  0.29815686135E+02 -0.47132963172E+02 -0.49729831813E+02  0.14563161092E+03  0.12500007428E+03 0.  0.
          5    1    3    3  502    0 -0.77448733940E+02  0.19095129260E+02  0.22671598120E+02  0.83060349816E+02  0.47000000000E+01 0.  1.
         -5    1    3    3    0  502  0.47633047804E+02  0.28037833912E+02  0.34150103940E+02  0.65140977677E+02  0.47000000000E+01 0.  1.
          5    1    4    4  503    0  0.23140626826E+02 -0.55503661498E+02  0.28373427915E+02  0.66657981227E+02  0.47000000000E+01 0.  1.
         -5    1    4    4    0  503  0.66750593093E+01  0.83706983257E+01 -0.78103259728E+02  0.78973629696E+02  0.47000000000E+01 0.  1.
<mgrwt>
<rscale>  0 0.13687719E+03</rscale>
<asrwt>0</asrwt>
<pdfrwt beam="2">  1        5 0.22057005E-01 0.13687772E+03</pdfrwt>
<pdfrwt beam="1">  1       -5 0.23148062E-01 0.13687772E+03</pdfrwt>
<totfact> 0.24625769E+02</totfact>
</mgrwt>
</event>
<event>
 8    1  0.3573290E-007  0.1279156E+03  0.7546771E-02  0.1230583E+00
         -5   -1    0    0    0  501 -0.00000000000E+00  0.00000000000E+00  0.25418870926E+02  0.25849738861E+02  0.47000000000E+01 0. -1.
          5   -1    0    0  501    0  0.00000000000E+00 -0.00000000000E+00 -0.78195332638E+03  0.78196745114E+03  0.47000000000E+01 0. -1.
         25    2    1    2    0    0 -0.26907966814E+02  0.35114216460E+01 -0.20492597694E+03  0.24157203374E+03  0.12500409074E+03 0.  0.
         25    2    1    2    0    0  0.26907966814E+02 -0.35114216460E+01 -0.55160847852E+03  0.56624515626E+03  0.12500117859E+03 0.  0.
          5    1    4    4  502    0 -0.39462769045E+02  0.20982767423E+02 -0.10755071101E+03  0.11656256735E+03  0.47000000000E+01 0. -1.
         -5    1    4    4    0  502  0.66370735859E+02 -0.24494189069E+02 -0.44405776751E+03  0.44968258891E+03  0.47000000000E+01 0. -1.
          5    1    3    3  503    0 -0.60455182962E+02 -0.14521620333E+02 -0.44457195495E+02  0.76578318311E+02  0.47000000000E+01 0. -1.
         -5    1    3    3    0  503  0.33547216148E+02  0.18033041979E+02 -0.16046878144E+03  0.16499371543E+03  0.47000000000E+01 0. -1.
<mgrwt>
<rscale>  0 0.12791485E+03</rscale>
<asrwt>0</asrwt>
<pdfrwt beam="2">  1        5 0.12033472E+00 0.12791556E+03</pdfrwt>
<pdfrwt beam="1">  1       -5 0.39448263E-02 0.12791556E+03</pdfrwt>
<totfact> 0.13655166E+02</totfact>
</mgrwt>
</event>
<event>
 8    1  0.3573290E-007  0.1397623E+03  0.7546771E-02  0.1213653E+00
         -5   -1    0    0    0  501 -0.00000000000E+00  0.00000000000E+00  0.11858390195E+03  0.11867700620E+03  0.47000000000E+01 0.  1.
          5   -1    0    0  501    0  0.00000000000E+00 -0.00000000000E+00 -0.16990692847E+03  0.16997192222E+03  0.47000000000E+01 0.  1.
         25    2    1    2    0    0  0.61282638611E+02 -0.12128486312E+02  0.29535924094E-01  0.13976234746E+03  0.12502340149E+03 0.  0.
         25    2    1    2    0    0 -0.61282638611E+02  0.12128486312E+02 -0.51352562450E+02  0.14888658096E+03  0.12500986499E+03 0.  0.
          5    1    4    4  502    0  0.25548020320E+02 -0.12996799670E+02  0.18599715389E+02  0.34491412793E+02  0.47000000000E+01 0.  1.
         -5    1    4    4    0  502 -0.86830658931E+02  0.25125285981E+02 -0.69952277838E+02  0.11439516817E+03  0.47000000000E+01 0.  1.
          5    1    3    3  503    0  0.25286106856E+02 -0.17962902693E+02 -0.60953511936E+02  0.68552707389E+02  0.47000000000E+01 0. -1.
         -5    1    3    3    0  503  0.35996531755E+02  0.58344163811E+01  0.60983047860E+02  0.71209640072E+02  0.47000000000E+01 0. -1.
<mgrwt>
<rscale>  0 0.13975932E+03</rscale>
<asrwt>0</asrwt>
<pdfrwt beam="2">  1        5 0.26151689E-01 0.13976234E+03</pdfrwt>
<pdfrwt beam="1">  1       -5 0.18255839E-01 0.13976234E+03</pdfrwt>
<totfact> 0.27959263E+02</totfact>
</mgrwt>
</event>
<event>
 8    1  0.3573290E-007  0.1399743E+03  0.7546771E-02  0.1213364E+00
          5   -1    0    0  501    0  0.00000000000E+00  0.00000000000E+00  0.11706185520E+02  0.12614467069E+02  0.47000000000E+01 0. -1.
         -5   -1    0    0    0  501 -0.00000000000E+00 -0.00000000000E+00 -0.16204489362E+04  0.16204557522E+04  0.47000000000E+01 0. -1.
         25    2    1    2    0    0  0.27046621796E+01  0.62950607019E+02 -0.86907791556E+03  0.88027750300E+03  0.12498785879E+03 0.  0.
         25    2    1    2    0    0 -0.27046621796E+01 -0.62950607019E+02 -0.73966483517E+03  0.75279271632E+03  0.12499084462E+03 0.  0.
          5    1    4    4  502    0  0.23909142328E+02 -0.60021355219E+02 -0.16175688942E+03  0.17424577884E+03  0.47000000000E+01 0.  1.
         -5    1    4    4    0  502 -0.26613804507E+02 -0.29292517998E+01 -0.57790794575E+03  0.57854693748E+03  0.47000000000E+01 0.  1.
          5    1    3    3  503    0 -0.51241306742E+02 -0.46891868026E+01 -0.39262020767E+03  0.39600552706E+03  0.47000000000E+01 0.  1.
         -5    1    3    3    0  503  0.53945968921E+02  0.67639793822E+02 -0.47645770789E+03  0.48427197594E+03  0.47000000000E+01 0.  1.
<mgrwt>
<rscale>  0 0.13997364E+03</rscale>
<asrwt>0</asrwt>
<pdfrwt beam="1">  1        5 0.18713450E-02 0.13997430E+03</pdfrwt>
<pdfrwt beam="2">  1       -5 0.24937006E+00 0.13997430E+03</pdfrwt>
<totfact> 0.54088542E+01</totfact>
</mgrwt>
</event>
<event>
 8    1  0.3573290E-007  0.1554053E+03  0.7546771E-02  0.1193988E+00
          5   -1    0    0  501    0  0.00000000000E+00  0.00000000000E+00  0.40465782879E+02  0.40737815160E+02  0.47000000000E+01 0. -1.
         -5   -1    0    0    0  501 -0.00000000000E+00 -0.00000000000E+00 -0.61730533410E+03  0.61732322612E+03  0.47000000000E+01 0. -1.
         25    2    1    2    0    0 -0.22708727030E+01  0.92277640785E+02 -0.35165594877E+03  0.38445830992E+03  0.12500386360E+03 0.  0.
         25    2    1    2    0    0  0.22708727030E+01 -0.92277640785E+02 -0.22518360246E+03  0.27360273136E+03  0.12502191784E+03 0.  0.
          5    1    4    4  502    0 -0.58847886224E+02 -0.66180851377E+02 -0.12378291283E+03  0.15227369540E+03  0.47000000000E+01 0.  1.
         -5    1    4    4    0  502  0.61118758927E+02 -0.26096789408E+02 -0.10140068963E+03  0.12132903596E+03  0.47000000000E+01 0.  1.
          5    1    3    3  503    0  0.10991409763E+02  0.14827968983E+02 -0.27130967796E+03  0.27197740918E+03  0.47000000000E+01 0. -1.
         -5    1    3    3    0  503 -0.13262282466E+02  0.77449671802E+02 -0.80346270808E+02  0.11248090074E+03  0.47000000000E+01 0. -1.
<mgrwt>
<rscale>  0 0.15540164E+03</rscale>
<asrwt>0</asrwt>
<pdfrwt beam="1">  1        5 0.62478074E-02 0.15540528E+03</pdfrwt>
<pdfrwt beam="2">  1       -5 0.94992347E-01 0.15540528E+03</pdfrwt>
<totfact> 0.12155210E+02</totfact>
</mgrwt>
</event>
<event>
 8    1  0.3573290E-007  0.1382424E+03  0.7546771E-02  0.1215716E+00
          5   -1    0    0  501    0  0.00000000000E+00  0.00000000000E+00  0.72103428007E+02  0.72256448365E+02  0.47000000000E+01 0. -1.
         -5   -1    0    0    0  501 -0.00000000000E+00 -0.00000000000E+00 -0.29576594620E+03  0.29580328756E+03  0.47000000000E+01 0. -1.
         25    2    1    2    0    0 -0.49737130596E+02 -0.31776067023E+02 -0.17156553405E+03  0.22032670231E+03  0.12500249071E+03 0.  0.
         25    2    1    2    0    0  0.49737130596E+02  0.31776067023E+02 -0.52096984147E+02  0.14773303361E+03  0.12500981109E+03 0.  0.
          5    1    3    3  502    0 -0.42205272113E+02 -0.91103890744E+01 -0.18668517948E+03  0.19167089091E+03  0.47000000000E+01 0. -1.
         -5    1    3    3    0  502 -0.75318584826E+01 -0.22665677949E+02  0.15119645437E+02  0.28655811404E+02  0.47000000000E+01 0. -1.
          5    1    4    4  503    0  0.33666947341E+02  0.72610732643E+02 -0.95360946900E+00  0.80179680775E+02  0.47000000000E+01 0.  1.
         -5    1    4    4    0  503  0.16070183255E+02 -0.40834665620E+02 -0.51143374678E+02  0.67553352838E+02  0.47000000000E+01 0.  1.
<mgrwt>
<rscale>  0 0.13824072E+03</rscale>
<asrwt>0</asrwt>
<pdfrwt beam="1">  1        5 0.11107478E-01 0.13824237E+03</pdfrwt>
<pdfrwt beam="2">  1       -5 0.45517096E-01 0.13824237E+03</pdfrwt>
<totfact> 0.22474961E+02</totfact>
</mgrwt>
</event>
<event>
 8    1  0.3573290E-007  0.1512445E+03  0.7546771E-02  0.1198953E+00
         -5   -1    0    0    0  501 -0.00000000000E+00  0.00000000000E+00  0.64921054613E+03  0.64922755888E+03  0.47000000000E+01 0.  1.
          5   -1    0    0  501    0  0.00000000000E+00 -0.00000000000E+00 -0.35304451486E+02  0.35615927543E+02  0.47000000000E+01 0.  1.
         25    2    1    2    0    0 -0.32537287058E+02  0.78667652717E+02  0.33531457710E+03  0.36784484968E+03  0.12500677258E+03 0.  0.
         25    2    1    2    0    0  0.32537287058E+02 -0.78667652717E+02  0.27859151755E+03  0.31699863674E+03  0.12501050921E+03 0.  0.
          5    1    3    3  502    0 -0.58034030476E+02  0.10129050431E+03  0.25928771746E+03  0.28439396157E+03  0.47000000000E+01 0. -1.
         -5    1    3    3    0  502  0.25496743418E+02 -0.22622851591E+02  0.76026859642E+02  0.83450888108E+02  0.47000000000E+01 0. -1.
          5    1    4    4  503    0 -0.10339812484E+01  0.33438491917E+02  0.53823302637E+02  0.63547146007E+02  0.47000000000E+01 0.  1.
         -5    1    4    4    0  503  0.33571268306E+02 -0.11210614463E+03  0.22476821491E+03  0.25345149073E+03  0.47000000000E+01 0.  1.
<mgrwt>
<rscale>  0 0.15124374E+03</rscale>
<asrwt>0</asrwt>
<pdfrwt beam="2">  1        5 0.54567226E-02 0.15124451E+03</pdfrwt>
<pdfrwt beam="1">  1       -5 0.99903811E-01 0.15124451E+03</pdfrwt>
<totfact> 0.13392228E+02</totfact>
</mgrwt>
</event>
<event>
 8    1  0.3573290E-007  0.1391479E+03  0.7546771E-02  0.1214497E+00
          5   -1    0    0  501    0  0.00000000000E+00  0.00000000000E+00  0.86030719761E+02  0.86159008482E+02  0.47000000000E+01 0. -1.
         -5   -1    0    0    0  501 -0.00000000000E+00 -0.00000000000E+00 -0.23672099138E+03  0.23676764509E+03  0.47000000000E+01 0. -1.
         25    2    1    2    0    0 -0.60302066649E+02  0.93701330455E+01 -0.11176305177E+03  0.17843624966E+03  0.12499750724E+03 0.  0.
         25    2    1    2    0    0  0.60302066649E+02 -0.93701330455E+01 -0.38927219846E+02  0.14449040391E+03  0.12505202814E+03 0.  0.
          5    1    4    4  502    0 -0.17150287972E+02 -0.48571356205E+02 -0.87031367325E+01  0.52451345170E+02  0.47000000000E+01 0. -1.
         -5    1    4    4    0  502  0.77452354621E+02  0.39201223160E+02 -0.30224083114E+02  0.92039058739E+02  0.47000000000E+01 0. -1.
          5    1    3    3  503    0  0.38393733294E+02 -0.50296117251E+01 -0.36206203123E+02  0.53219873120E+02  0.47000000000E+01 0.  1.
         -5    1    3    3    0  503 -0.98695799942E+02  0.14399744771E+02 -0.75556848649E+02  0.12521637654E+03  0.47000000000E+01 0.  1.
<mgrwt>
<rscale>  0 0.13913569E+03</rscale>
<asrwt>0</asrwt>
<pdfrwt beam="1">  1        5 0.13248953E-01 0.13914794E+03</pdfrwt>
<pdfrwt beam="2">  1       -5 0.36432071E-01 0.13914794E+03</pdfrwt>
<totfact> 0.26009736E+02</totfact>
</mgrwt>
</event>
<event>
 8    1  0.3573290E-007  0.1298520E+03  0.7546771E-02  0.1227679E+00
         -5   -1    0    0    0  501 -0.00000000000E+00  0.00000000000E+00  0.99529797490E+03  0.99530907201E+03  0.47000000000E+01 0.  1.
          5   -1    0    0  501    0  0.00000000000E+00 -0.00000000000E+00 -0.16830508831E+02  0.17474439261E+02  0.47000000000E+01 0.  1.
         25    2    1    2    0    0 -0.68737245839E+00  0.35124854151E+02  0.43139490749E+03  0.45051139567E+03  0.12499889422E+03 0.  0.
         25    2    1    2    0    0  0.68737245839E+00 -0.35124854151E+02  0.54707255857E+03  0.56227211560E+03  0.12500927880E+03 0.  0.
          5    1    3    3  502    0 -0.28574493080E+00 -0.21229247030E+02  0.77137748090E+01  0.23072817371E+02  0.47000000000E+01 0.  1.
         -5    1    3    3    0  502 -0.40162752759E+00  0.56354101181E+02  0.42368113269E+03  0.42743857830E+03  0.47000000000E+01 0.  1.
          5    1    4    4  503    0 -0.46755065772E+02 -0.47574924441E+02  0.18211898980E+03  0.19400728351E+03  0.47000000000E+01 0. -1.
         -5    1    4    4    0  503  0.47442438231E+02  0.12450070290E+02  0.36495356877E+03  0.36826483209E+03  0.47000000000E+01 0. -1.
<mgrwt>
<rscale>  0 0.12984952E+03</rscale>
<asrwt>0</asrwt>
<pdfrwt beam="2">  1        5 0.26396958E-02 0.12985202E+03</pdfrwt>
<pdfrwt beam="1">  1       -5 0.15317315E+00 0.12985202E+03</pdfrwt>
<totfact> 0.13918335E+02</totfact>
</mgrwt>
</event>
<event>
 8    1  0.3573290E-007  0.2734895E+03  0.7546771E-02  0.1099299E+00
          5   -1    0    0  501    0  0.00000000000E+00  0.00000000000E+00  0.12181924634E+03  0.12190987974E+03  0.47000000000E+01 0.  1.
         -5   -1    0    0    0  501 -0.00000000000E+00 -0.00000000000E+00 -0.63737637744E+03  0.63739370605E+03  0.47000000000E+01 0.  1.
         25    2    1    2    0    0 -0.21913107119E+03 -0.10560498746E+03 -0.33100466187E+03  0.42937233296E+03  0.12500269755E+03 0.  0.
         25    2    1    2    0    0  0.21913107119E+03  0.10560498746E+03 -0.18455246922E+03  0.32993125284E+03  0.12499671183E+03 0.  0.
          5    1    3    3  502    0 -0.17660794173E+03 -0.11209762670E+03 -0.19267591184E+03  0.28443336653E+03  0.47000000000E+01 0.  1.
         -5    1    3    3    0  502 -0.42523129457E+02  0.64926392452E+01 -0.13832875003E+03  0.14493896643E+03  0.47000000000E+01 0.  1.
          5    1    4    4  503    0  0.19180801926E+02  0.45238232196E+02  0.26222328026E+01  0.49430425039E+02  0.47000000000E+01 0. -1.
         -5    1    4    4    0  503  0.19995026926E+03  0.60366755262E+02 -0.18717470203E+03  0.28050082780E+03  0.47000000000E+01 0. -1.
<mgrwt>
<rscale>  0 0.27348883E+03</rscale>
<asrwt>0</asrwt>
<pdfrwt beam="1">  1        5 0.18749728E-01 0.27348951E+03</pdfrwt>
<pdfrwt beam="2">  1       -5 0.98066207E-01 0.27348951E+03</pdfrwt>
<totfact> 0.18522172E+01</totfact>
</mgrwt>
</event>
<event>
 8    1  0.3573290E-007  0.1459078E+03  0.7546771E-02  0.1205595E+00
          5   -1    0    0  501    0  0.00000000000E+00  0.00000000000E+00  0.15627592521E+03  0.15634658551E+03  0.47000000000E+01 0. -1.
         -5   -1    0    0    0  501 -0.00000000000E+00 -0.00000000000E+00 -0.14805747626E+03  0.14813205689E+03  0.47000000000E+01 0. -1.
         25    2    1    2    0    0 -0.59253642409E+02 -0.46389389095E+02 -0.39168018733E+02  0.15107359104E+03  0.12500450656E+03 0.  0.
         25    2    1    2    0    0  0.59253642409E+02  0.46389389095E+02  0.47386467677E+02  0.15340505135E+03  0.12499865160E+03 0.  0.
          5    1    3    3  502    0  0.34412870857E+02 -0.53070729332E+01 -0.33472646766E+02  0.48527505451E+02  0.47000000000E+01 0.  1.
         -5    1    3    3    0  502 -0.93666513266E+02 -0.41082316162E+02 -0.56953719668E+01  0.10254608559E+03  0.47000000000E+01 0.  1.
          5    1    4    4  503    0  0.61908097578E+02  0.71923859304E+02  0.70682120501E+02  0.11842173044E+03  0.47000000000E+01 0.  1.
         -5    1    4    4    0  503 -0.26544551686E+01 -0.25534470209E+02 -0.23295652824E+02  0.34983320906E+02  0.47000000000E+01 0.  1.
<mgrwt>
<rscale>  0 0.14590658E+03</rscale>
<asrwt>0</asrwt>
<pdfrwt beam="1">  1        5 0.24053622E-01 0.14590783E+03</pdfrwt>
<pdfrwt beam="2">  1       -5 0.22789246E-01 0.14590783E+03</pdfrwt>
<totfact> 0.21986701E+02</totfact>
</mgrwt>
</event>
<event>
 8    1  0.3573290E-007  0.1251135E+03  0.7546771E-02  0.1234893E+00
          5   -1    0    0  501    0  0.00000000000E+00  0.00000000000E+00  0.99357580118E+03  0.99358691754E+03  0.47000000000E+01 0. -1.
         -5   -1    0    0    0  501 -0.00000000000E+00 -0.00000000000E+00 -0.15419918334E+02  0.16120294086E+02  0.47000000000E+01 0. -1.
         25    2    1    2    0    0  0.12333145491E+00  0.53165023876E+01  0.46818950459E+03  0.48461760360E+03  0.12499811639E+03 0.  0.
         25    2    1    2    0    0 -0.12333145491E+00 -0.53165023876E+01  0.50996637826E+03  0.52508960802E+03  0.12500043636E+03 0.  0.
          5    1    3    3  502    0 -0.15043558400E+02  0.63175601793E+02  0.24270032877E+03  0.25128271905E+03  0.47000000000E+01 0. -1.
         -5    1    3    3    0  502  0.15166889855E+02 -0.57859099406E+02  0.22548917582E+03  0.23333488455E+03  0.47000000000E+01 0. -1.
          5    1    4    4  503    0  0.59073571776E+02 -0.16121535781E+02  0.19680914053E+03  0.20616866540E+03  0.47000000000E+01 0. -1.
         -5    1    4    4    0  503 -0.59196903231E+02  0.10805033393E+02  0.31315723773E+03  0.31892094262E+03  0.47000000000E+01 0. -1.
<mgrwt>
<rscale>  0 0.12511293E+03</rscale>
<asrwt>0</asrwt>
<pdfrwt beam="1">  1        5 0.15291249E+00 0.12511351E+03</pdfrwt>
<pdfrwt beam="2">  1       -5 0.24270261E-02 0.12511351E+03</pdfrwt>
<totfact> 0.15795899E+02</totfact>
</mgrwt>
</event>
<event>
 8    1  0.3573290E-007  0.1305828E+03  0.7546771E-02  0.1226594E+00
          5   -1    0    0  501    0  0.00000000000E+00  0.00000000000E+00  0.16809438653E+03  0.16816008082E+03  0.47000000000E+01 0.  1.
         -5   -1    0    0    0  501 -0.00000000000E+00 -0.00000000000E+00 -0.10223819802E+03  0.10234617303E+03  0.47000000000E+01 0.  1.
         25    2    1    2    0    0  0.16837072855E+02 -0.33802321021E+02  0.19990973985E+02  0.13210292082E+03  0.12500183486E+03 0.  0.
         25    2    1    2    0    0 -0.16837072855E+02  0.33802321021E+02  0.45865214527E+02  0.13840333303E+03  0.12500312301E+03 0.  0.
          5    1    4    4  502    0 -0.59581259291E+02 -0.24184314779E+01  0.55219601865E+02  0.81406816051E+02  0.47000000000E+01 0.  1.
         -5    1    4    4    0  502  0.42744186436E+02  0.36220752499E+02 -0.93543873379E+01  0.56996516982E+02  0.47000000000E+01 0.  1.
          5    1    3    3  503    0 -0.59604076156E+01 -0.75849616586E+02 -0.77326650867E+01  0.76619677007E+02  0.47000000000E+01 0. -1.
         -5    1    3    3    0  503  0.22797480470E+02  0.42047295565E+02  0.27723639072E+02  0.55483243809E+02  0.47000000000E+01 0. -1.
<mgrwt>
<rscale>  0 0.13058248E+03</rscale>
<asrwt>0</asrwt>
<pdfrwt beam="1">  1        5 0.25874034E-01 0.13058279E+03</pdfrwt>
<pdfrwt beam="2">  1       -5 0.15742313E-01 0.13058279E+03</pdfrwt>
<totfact> 0.36561488E+02</totfact>
</mgrwt>
</event>
<event>
 8    1  0.3573290E-007  0.1425531E+03  0.7546771E-02  0.1209942E+00
          5   -1    0    0  501    0  0.00000000000E+00  0.00000000000E+00  0.19115890153E+03  0.19121667195E+03  0.47000000000E+01 0.  1.
         -5   -1    0    0    0  501 -0.00000000000E+00 -0.00000000000E+00 -0.10780112255E+03  0.10790353109E+03  0.47000000000E+01 0.  1.
         25    2    1    2    0    0 -0.23210379452E+02  0.64485734435E+02  0.60103400945E+02  0.15470556939E+03  0.12499705091E+03 0.  0.
         25    2    1    2    0    0  0.23210379452E+02 -0.64485734435E+02  0.23254378035E+02  0.14441463365E+03  0.12497075120E+03 0.  0.
          5    1    3    3  502    0 -0.61730629483E+02  0.70033883562E+02  0.66862628384E+02  0.11492657020E+03  0.47000000000E+01 0. -1.
         -5    1    3    3    0  502  0.38520250030E+02 -0.55481491271E+01 -0.67592274395E+01  0.39778999192E+02  0.47000000000E+01 0. -1.
          5    1    4    4  503    0  0.39861136951E+02 -0.82826168240E+02  0.52373309869E+02  0.10589682701E+03  0.47000000000E+01 0. -1.
         -5    1    4    4    0  503 -0.16650757499E+02  0.18340433804E+02 -0.29118931834E+02  0.38517806643E+02  0.47000000000E+01 0. -1.
<mgrwt>
<rscale>  0 0.14254736E+03</rscale>
<asrwt>0</asrwt>
<pdfrwt beam="1">  1        5 0.29421383E-01 0.14255313E+03</pdfrwt>
<pdfrwt beam="2">  1       -5 0.16597110E-01 0.14255313E+03</pdfrwt>
<totfact> 0.26674585E+02</totfact>
</mgrwt>
</event>
<event>
 8    1  0.3573290E-007  0.1413398E+03  0.7546771E-02  0.1211539E+00
         -5   -1    0    0    0  501 -0.00000000000E+00  0.00000000000E+00  0.21090934328E+03  0.21096170526E+03  0.47000000000E+01 0. -1.
          5   -1    0    0  501    0  0.00000000000E+00 -0.00000000000E+00 -0.94714184614E+02  0.94830726914E+02  0.47000000000E+01 0. -1.
         25    2    1    2    0    0  0.19549784853E+02 -0.62987745191E+02  0.63585988891E+02  0.15497905739E+03  0.12500272043E+03 0.  0.
         25    2    1    2    0    0 -0.19549784853E+02  0.62987745191E+02  0.52609169779E+02  0.15081337478E+03  0.12500919620E+03 0.  0.
          5    1    3    3  502    0  0.27884719075E+02  0.21308411456E+02  0.60482936322E+02  0.70084816778E+02  0.47000000000E+01 0. -1.
         -5    1    3    3    0  502 -0.83349342222E+01 -0.84296156647E+02  0.31030525693E+01  0.84894240613E+02  0.47000000000E+01 0. -1.
          5    1    4    4  503    0  0.27934609954E+02 -0.27108629839E+02  0.18044372636E+02  0.43161436826E+02  0.47000000000E+01 0. -1.
         -5    1    4    4    0  503 -0.47484394808E+02  0.90096375030E+02  0.34564797143E+02  0.10765193795E+03  0.47000000000E+01 0. -1.
<mgrwt>
<rscale>  0 0.14133840E+03</rscale>
<asrwt>0</asrwt>
<pdfrwt beam="2">  1        5 0.14584406E-01 0.14133984E+03</pdfrwt>
<pdfrwt beam="1">  1       -5 0.32460584E-01 0.14133984E+03</pdfrwt>
<totfact> 0.27716558E+02</totfact>
</mgrwt>
</event>
<event>
 8    1  0.3573290E-007  0.1337428E+03  0.7546771E-02  0.1222017E+00
         -5   -1    0    0    0  501 -0.00000000000E+00  0.00000000000E+00  0.57417499790E+02  0.57609541590E+02  0.47000000000E+01 0.  1.
          5   -1    0    0  501    0  0.00000000000E+00 -0.00000000000E+00 -0.33790385359E+03  0.33793653882E+03  0.47000000000E+01 0.  1.
         25    2    1    2    0    0  0.35020015615E+02 -0.32034032467E+02 -0.84150536093E+02  0.15798581058E+03  0.12500249153E+03 0.  0.
         25    2    1    2    0    0 -0.35020015615E+02  0.32034032467E+02 -0.19633581770E+03  0.23756026983E+03  0.12503818520E+03 0.  0.
          5    1    4    4  502    0  0.37803559476E+02  0.45075346991E+02 -0.76005794010E+02  0.96228201368E+02  0.47000000000E+01 0. -1.
         -5    1    4    4    0  502 -0.72823575091E+02 -0.13041314524E+02 -0.12033002369E+03  0.14133206846E+03  0.47000000000E+01 0. -1.
          5    1    3    3  503    0  0.32825588025E+02  0.42708762205E+02 -0.56285205418E+02  0.78049163655E+02  0.47000000000E+01 0. -1.
         -5    1    3    3    0  503  0.21944275900E+01 -0.74742794672E+02 -0.27865330674E+02  0.79936646924E+02  0.47000000000E+01 0. -1.
<mgrwt>
<rscale>  0 0.13373443E+03</rscale>
<asrwt>0</asrwt>
<pdfrwt beam="2">  1        5 0.52002494E-01 0.13374277E+03</pdfrwt>
<pdfrwt beam="1">  1       -5 0.88507484E-02 0.13374277E+03</pdfrwt>
<totfact> 0.24934143E+02</totfact>
</mgrwt>
</event>
<event>
 8    1  0.3573290E-007  0.1373880E+03  0.7546771E-02  0.1216890E+00
         -5   -1    0    0    0  501 -0.00000000000E+00  0.00000000000E+00  0.46395799996E+02  0.46633252699E+02  0.47000000000E+01 0. -1.
          5   -1    0    0  501    0  0.00000000000E+00 -0.00000000000E+00 -0.42153520304E+03  0.42156140407E+03  0.47000000000E+01 0. -1.
         25    2    1    2    0    0  0.56994283160E+02 -0.10862583860E+01 -0.14195539524E+03  0.19754685841E+03  0.12499559496E+03 0.  0.
         25    2    1    2    0    0 -0.56994283160E+02  0.10862583860E+01 -0.23318400780E+03  0.27064779836E+03  0.12500368391E+03 0.  0.
          5    1    3    3  502    0  0.17305293805E+02  0.49432104904E+02 -0.11734765360E+03  0.12859069948E+03  0.47000000000E+01 0. -1.
         -5    1    3    3    0  502  0.39688989355E+02 -0.50518363290E+02 -0.24607741647E+02  0.68956158931E+02  0.47000000000E+01 0. -1.
          5    1    4    4  503    0 -0.22171408909E+02  0.35346805435E+02 -0.21379623864E+03  0.21788044815E+03  0.47000000000E+01 0. -1.
         -5    1    4    4    0  503 -0.34822874251E+02 -0.34260547049E+02 -0.19387769161E+02  0.52767350210E+02  0.47000000000E+01 0. -1.
<mgrwt>
<rscale>  0 0.13738611E+03</rscale>
<asrwt>0</asrwt>
<pdfrwt beam="2">  1        5 0.64871848E-01 0.13738795E+03</pdfrwt>
<pdfrwt beam="1">  1       -5 0.71580967E-02 0.13738795E+03</pdfrwt>
<totfact> 0.22377155E+02</totfact>
</mgrwt>
</event>
<event>
 8    1  0.3573290E-007  0.1506641E+03  0.7546771E-02  0.1199661E+00
          5   -1    0    0  501    0  0.00000000000E+00  0.00000000000E+00  0.41110549600E+03  0.41113236171E+03  0.47000000000E+01 0. -1.
         -5   -1    0    0    0  501 -0.00000000000E+00 -0.00000000000E+00 -0.67206805847E+02  0.67370948874E+02  0.47000000000E+01 0. -1.
         25    2    1    2    0    0 -0.49809407813E+02  0.67781629242E+02  0.70499771882E+02  0.16633884684E+03  0.12499227082E+03 0.  0.
         25    2    1    2    0    0  0.49809407813E+02 -0.67781629242E+02  0.27339891827E+03  0.31216446374E+03  0.12499743014E+03 0.  0.
          5    1    4    4  502    0  0.11939548783E+02 -0.96494623356E+02  0.14034592753E+03  0.17080056948E+03  0.47000000000E+01 0. -1.
         -5    1    4    4    0  502  0.37869859030E+02  0.28712994114E+02  0.13305299075E+03  0.14136389426E+03  0.47000000000E+01 0. -1.
          5    1    3    3  503    0 -0.86938947466E+02  0.49098345945E+02  0.73993634283E+02  0.12436308164E+03  0.47000000000E+01 0.  1.
         -5    1    3    3    0  503  0.37129539653E+02  0.18683283297E+02 -0.34938624007E+01  0.41975765199E+02  0.47000000000E+01 0.  1.
<mgrwt>
<rscale>  0 0.15066307E+03</rscale>
<asrwt>0</asrwt>
<pdfrwt beam="1">  1        5 0.63261691E-01 0.15066414E+03</pdfrwt>
<pdfrwt beam="2">  1       -5 0.10354202E-01 0.15066414E+03</pdfrwt>
<totfact> 0.12894466E+02</totfact>
</mgrwt>
</event>
<event>
 8    1  0.3573290E-007  0.1379249E+03  0.7546771E-02  0.1216150E+00
         -5   -1    0    0    0  501 -0.00000000000E+00  0.00000000000E+00  0.10237469415E+03  0.10248252535E+03  0.47000000000E+01 0.  1.
          5   -1    0    0  501    0  0.00000000000E+00 -0.00000000000E+00 -0.18604462547E+03  0.18610398348E+03  0.47000000000E+01 0.  1.
         25    2    1    2    0    0 -0.32498608069E+02 -0.48378956193E+02 -0.49054951526E+02  0.14638426876E+03  0.12500113176E+03 0.  0.
         25    2    1    2    0    0  0.32498608069E+02  0.48378956193E+02 -0.34614979798E+02  0.14220224007E+03  0.12500638913E+03 0.  0.
          5    1    4    4  502    0 -0.23638586906E+02  0.39639185844E+02 -0.63224444610E+02  0.78418545266E+02  0.47000000000E+01 0.  1.
         -5    1    4    4    0  502  0.56137194975E+02  0.87397703487E+01  0.28609464812E+02  0.63783694800E+02  0.47000000000E+01 0.  1.
          5    1    3    3  503    0 -0.80195762066E+02 -0.36458000156E+02 -0.36142206796E+02  0.95335697096E+02  0.47000000000E+01 0. -1.
         -5    1    3    3    0  503  0.47697153997E+02 -0.11920956037E+02 -0.12912744730E+02  0.51048571662E+02  0.47000000000E+01 0. -1.
<mgrwt>
<rscale>  0 0.13792372E+03</rscale>
<asrwt>0</asrwt>
<pdfrwt beam="2">  1        5 0.28635111E-01 0.13792491E+03</pdfrwt>
<pdfrwt beam="1">  1       -5 0.15762814E-01 0.13792491E+03</pdfrwt>
<totfact> 0.30554768E+02</totfact>
</mgrwt>
</event>
<event>
 8    1  0.3573290E-007  0.1348573E+03  0.7546771E-02  0.1220422E+00
         -5   -1    0    0    0  501 -0.00000000000E+00  0.00000000000E+00  0.70509583572E+03  0.70511150008E+03  0.47000000000E+01 0.  1.
          5   -1    0    0  501    0  0.00000000000E+00 -0.00000000000E+00 -0.26290765795E+02  0.26707571325E+02  0.47000000000E+01 0.  1.
         25    2    1    2    0    0 -0.50309934327E+02 -0.54529468747E+01  0.39980753172E+03  0.42193824723E+03  0.12499999175E+03 0.  0.
         25    2    1    2    0    0  0.50309934327E+02  0.54529468747E+01  0.27899753821E+03  0.30988082417E+03  0.12500269895E+03 0.  0.
          5    1    3    3  502    0  0.39513708514E+02  0.14785481292E+02  0.11536078696E+03  0.12292332889E+03  0.47000000000E+01 0. -1.
         -5    1    3    3    0  502 -0.89823642841E+02 -0.20238428167E+02  0.28444674475E+03  0.29901491834E+03  0.47000000000E+01 0. -1.
          5    1    4    4  503    0  0.33327288811E+02 -0.55198858007E+02  0.19038801717E+03  0.20106543508E+03  0.47000000000E+01 0.  1.
         -5    1    4    4    0  503  0.16982645516E+02  0.60651804882E+02  0.88609521040E+02  0.10881538909E+03  0.47000000000E+01 0.  1.
<mgrwt>
<rscale>  0 0.13485670E+03</rscale>
<asrwt>0</asrwt>
<pdfrwt beam="2">  1        5 0.40780007E-02 0.13485733E+03</pdfrwt>
<pdfrwt beam="1">  1       -5 0.10850953E+00 0.13485733E+03</pdfrwt>
<totfact> 0.17059523E+02</totfact>
</mgrwt>
</event>
<event>
 8    1  0.3573290E-007  0.1265122E+03  0.7546771E-02  0.1232730E+00
          5   -1    0    0  501    0  0.00000000000E+00  0.00000000000E+00  0.40138355595E+03  0.40141107233E+03  0.47000000000E+01 0.  1.
         -5   -1    0    0    0  501 -0.00000000000E+00 -0.00000000000E+00 -0.40547875298E+02  0.40819360495E+02  0.47000000000E+01 0.  1.
         25    2    1    2    0    0 -0.14655457566E+02  0.12845092160E+02  0.14861737636E+03  0.19516372972E+03  0.12498791147E+03 0.  0.
         25    2    1    2    0    0  0.14655457566E+02 -0.12845092160E+02  0.21221830430E+03  0.24706670310E+03  0.12500227308E+03 0.  0.
          5    1    4    4  502    0  0.30122778199E+02  0.20819309202E+01 -0.30195811673E+01  0.30707068782E+02  0.47000000000E+01 0. -1.
         -5    1    4    4    0  502 -0.15467320633E+02 -0.14927023080E+02  0.21523788546E+03  0.21635963432E+03  0.47000000000E+01 0. -1.
          5    1    3    3  503    0 -0.63144584136E+02  0.10808727982E+02  0.12596921225E+03  0.14140155424E+03  0.47000000000E+01 0.  1.
         -5    1    3    3    0  503  0.48489126570E+02  0.20363641782E+01  0.22648164101E+02  0.53762175475E+02  0.47000000000E+01 0.  1.
<mgrwt>
<rscale>  0 0.12650869E+03</rscale>
<asrwt>0</asrwt>
<pdfrwt beam="1">  1        5 0.61774315E-01 0.12651224E+03</pdfrwt>
<pdfrwt beam="2">  1       -5 0.62611349E-02 0.12651224E+03</pdfrwt>
<totfact> 0.30375619E+02</totfact>
</mgrwt>
</event>
<event>
 8    1  0.3573290E-007  0.1386010E+03  0.7546771E-02  0.1215224E+00
         -5   -1    0    0    0  501 -0.00000000000E+00  0.00000000000E+00  0.17869437283E+03  0.17875617159E+03  0.47000000000E+01 0.  1.
          5   -1    0    0  501    0  0.00000000000E+00 -0.00000000000E+00 -0.11149351828E+03  0.11159253836E+03  0.47000000000E+01 0.  1.
         25    2    1    2    0    0  0.10691134420E+02  0.58903719522E+02  0.61497569790E+02  0.15163173415E+03  0.12500513262E+03 0.  0.
         25    2    1    2    0    0 -0.10691134420E+02 -0.58903719522E+02  0.57032847604E+01  0.13871697580E+03  0.12500369351E+03 0.  0.
          5    1    3    3  502    0 -0.20403215409E+02 -0.31450188276E+02  0.36984537045E+02  0.52871083988E+02  0.47000000000E+01 0.  1.
         -5    1    3    3    0  502  0.31094349829E+02  0.90353907798E+02  0.24513032744E+02  0.98760650160E+02  0.47000000000E+01 0.  1.
          5    1    4    4  503    0  0.17577148307E+02  0.17560245684E+02 -0.38348617192E+02  0.45935006385E+02  0.47000000000E+01 0. -1.
         -5    1    4    4    0  503 -0.28268282728E+02 -0.76463965206E+02  0.44051901952E+02  0.92781969418E+02  0.47000000000E+01 0. -1.
<mgrwt>
<rscale>  0 0.13860066E+03</rscale>
<asrwt>0</asrwt>
<pdfrwt beam="2">  1        5 0.17165220E-01 0.13860098E+03</pdfrwt>
<pdfrwt beam="1">  1       -5 0.27503812E-01 0.13860098E+03</pdfrwt>
<totfact> 0.28328418E+02</totfact>
</mgrwt>
</event>
<event>
 8    1  0.3573290E-007  0.2199889E+03  0.7546771E-02  0.1133892E+00
         -5   -1    0    0    0  501 -0.00000000000E+00  0.00000000000E+00  0.10995144625E+03  0.11005185384E+03  0.47000000000E+01 0. -1.
          5   -1    0    0  501    0  0.00000000000E+00 -0.00000000000E+00 -0.58767577562E+03  0.58769456970E+03  0.47000000000E+01 0. -1.
         25    2    1    2    0    0  0.18086248696E+03  0.75989224698E+01 -0.63891106141E+02  0.22907484851E+03  0.12499691981E+03 0.  0.
         25    2    1    2    0    0 -0.18086248696E+03 -0.75989224698E+01 -0.41383322323E+03  0.46867157503E+03  0.12500450303E+03 0.  0.
          5    1    3    3  502    0  0.79817397117E+02  0.23320183900E+02  0.31601953581E+02  0.89080981864E+02  0.47000000000E+01 0.  1.
         -5    1    3    3    0  502  0.10104508984E+03 -0.15721261431E+02 -0.95493059723E+02  0.13999386664E+03  0.47000000000E+01 0.  1.
          5    1    4    4  503    0 -0.71104911458E+02 -0.28028065031E+02 -0.59021981160E+02  0.96680738117E+02  0.47000000000E+01 0. -1.
         -5    1    4    4    0  503 -0.10975757550E+03  0.20429142561E+02 -0.35481124207E+03  0.37199083691E+03  0.47000000000E+01 0. -1.
<mgrwt>
<rscale>  0 0.21998781E+03</rscale>
<asrwt>0</asrwt>
<pdfrwt beam="2">  1        5 0.90420825E-01 0.21998888E+03</pdfrwt>
<pdfrwt beam="1">  1       -5 0.16924777E-01 0.21998888E+03</pdfrwt>
<totfact> 0.25995791E+01</totfact>
</mgrwt>
</event>
<event>
 8    1  0.3573290E-007  0.1435865E+03  0.7546771E-02  0.1208584E+00
         -5   -1    0    0    0  501 -0.00000000000E+00  0.00000000000E+00  0.26678099210E+03  0.26682238989E+03  0.47000000000E+01 0.  1.
          5   -1    0    0  501    0  0.00000000000E+00 -0.00000000000E+00 -0.78246407302E+02  0.78387436848E+02  0.47000000000E+01 0.  1.
         25    2    1    2    0    0 -0.16536461437E+02 -0.68686433951E+02  0.11458276139E+03  0.18370163031E+03  0.12500319598E+03 0.  0.
         25    2    1    2    0    0  0.16536461437E+02  0.68686433951E+02  0.73951823408E+02  0.16150819642E+03  0.12499897824E+03 0.  0.
          5    1    4    4  502    0 -0.39418914409E+02 -0.10288439196E+02  0.24527669942E+01  0.41082950968E+02  0.47000000000E+01 0.  1.
         -5    1    4    4    0  502  0.55955375847E+02  0.78974873148E+02  0.71499056414E+02  0.12042524545E+03  0.47000000000E+01 0.  1.
          5    1    3    3  503    0  0.39216028139E+02 -0.59067158757E+02  0.10399462791E+03  0.12595157300E+03  0.47000000000E+01 0.  1.
         -5    1    3    3    0  503 -0.55752489576E+02 -0.96192751940E+01  0.10588133479E+02  0.57750057314E+02  0.47000000000E+01 0.  1.
<mgrwt>
<rscale>  0 0.14358557E+03</rscale>
<asrwt>0</asrwt>
<pdfrwt beam="2">  1        5 0.12051942E-01 0.14358649E+03</pdfrwt>
<pdfrwt beam="1">  1       -5 0.41057261E-01 0.14358649E+03</pdfrwt>
<totfact> 0.24397328E+02</totfact>
</mgrwt>
</event>
<event>
 8    1  0.3573290E-007  0.1582075E+03  0.7546771E-02  0.1190739E+00
         -5   -1    0    0    0  501 -0.00000000000E+00  0.00000000000E+00  0.51349091507E+03  0.51351242425E+03  0.47000000000E+01 0.  1.
          5   -1    0    0  501    0  0.00000000000E+00 -0.00000000000E+00 -0.63849814238E+02  0.64022564602E+02  0.47000000000E+01 0.  1.
         25    2    1    2    0    0 -0.96845541045E+02  0.49043446838E+01  0.36568852841E+03  0.39844413214E+03  0.12500606071E+03 0.  0.
         25    2    1    2    0    0  0.96845541045E+02 -0.49043446838E+01  0.83952572425E+02  0.17909085671E+03  0.12498955605E+03 0.  0.
          5    1    4    4  502    0  0.88998040330E+02  0.48181993102E+02  0.37732192882E+02  0.10811088762E+03  0.47000000000E+01 0.  1.
         -5    1    4    4    0  502  0.78475007156E+01 -0.53086337786E+02  0.46220379543E+02  0.70979969091E+02  0.47000000000E+01 0.  1.
          5    1    3    3  503    0 -0.10900771260E+03  0.25136522043E+02  0.35475975532E+03  0.37200954308E+03  0.47000000000E+01 0.  1.
         -5    1    3    3    0  503  0.12162171557E+02 -0.20232177359E+02  0.10928773082E+02  0.26434589060E+02  0.47000000000E+01 0.  1.
<mgrwt>
<rscale>  0 0.15820428E+03</rscale>
<asrwt>0</asrwt>
<pdfrwt beam="2">  1        5 0.98379916E-02 0.15820754E+03</pdfrwt>
<pdfrwt beam="1">  1       -5 0.79013543E-01 0.15820754E+03</pdfrwt>
<totfact> 0.86582968E+01</totfact>
</mgrwt>
</event>
<event>
 8    1  0.3573290E-007  0.1390414E+03  0.7546771E-02  0.1214642E+00
          5   -1    0    0  501    0  0.00000000000E+00  0.00000000000E+00  0.15100355353E+04  0.15100428497E+04  0.47000000000E+01 0. -1.
         -5   -1    0    0    0  501 -0.00000000000E+00 -0.00000000000E+00 -0.12360241443E+02  0.13223674547E+02  0.47000000000E+01 0. -1.
         25    2    1    2    0    0  0.49007507133E+02  0.35941046690E+02  0.74081640177E+03  0.75374206359E+03  0.12499865079E+03 0.  0.
         25    2    1    2    0    0 -0.49007507133E+02 -0.35941046690E+02  0.75685889206E+03  0.76952446061E+03  0.12505606100E+03 0.  0.
          5    1    4    4  502    0 -0.85495382027E+02 -0.40469363293E+02  0.63883029930E+03  0.64581225679E+03  0.47000000000E+01 0.  1.
         -5    1    4    4    0  502  0.36487874895E+02  0.45283166029E+01  0.11802859276E+03  0.12371220382E+03  0.47000000000E+01 0.  1.
          5    1    3    3  503    0  0.77393015345E+02  0.34125950217E+01  0.27017415354E+03  0.28110049425E+03  0.47000000000E+01 0.  1.
         -5    1    3    3    0  503 -0.28385508213E+02  0.32528451668E+02  0.47064224823E+03  0.47264156934E+03  0.47000000000E+01 0.  1.
<mgrwt>
<rscale>  0 0.13902850E+03</rscale>
<asrwt>0</asrwt>
<pdfrwt beam="1">  1        5 0.23238028E+00 0.13904141E+03</pdfrwt>
<pdfrwt beam="2">  1       -5 0.19685550E-02 0.13904141E+03</pdfrwt>
<totfact> 0.63941561E+01</totfact>
</mgrwt>
</event>
<event>
 8    1  0.3573290E-007  0.1920675E+03  0.7546771E-02  0.1156610E+00
          5   -1    0    0  501    0  0.00000000000E+00  0.00000000000E+00  0.17946480697E+03  0.17952634052E+03  0.47000000000E+01 0. -1.
         -5   -1    0    0    0  501 -0.00000000000E+00 -0.00000000000E+00 -0.31758306027E+03  0.31761783667E+03  0.47000000000E+01 0. -1.
         25    2    1    2    0    0 -0.13387968873E+03 -0.57799320378E+02 -0.21675049490E+03  0.28960441628E+03  0.12500163357E+03 0.  0.
         25    2    1    2    0    0  0.13387968873E+03  0.57799320378E+02  0.78632241598E+02  0.20753976091E+03  0.12500076179E+03 0.  0.
          5    1    3    3  502    0 -0.34929267975E+02 -0.60324367362E+02 -0.25808193494E+02  0.74479768463E+02  0.47000000000E+01 0.  1.
         -5    1    3    3    0  502 -0.98950420760E+02  0.25250469846E+01 -0.19094230140E+03  0.21512464781E+03  0.47000000000E+01 0.  1.
          5    1    4    4  503    0 -0.22475136914E+02 -0.34105540264E+01  0.16335647350E+02  0.28384978993E+02  0.47000000000E+01 0. -1.
         -5    1    4    4    0  503  0.15635482565E+03  0.61209874404E+02  0.62296594248E+02  0.17915478192E+03  0.47000000000E+01 0. -1.
<mgrwt>
<rscale>  0 0.19206740E+03</rscale>
<asrwt>0</asrwt>
<pdfrwt beam="1">  1        5 0.27617379E-01 0.19206754E+03</pdfrwt>
<pdfrwt beam="2">  1       -5 0.48866341E-01 0.19206754E+03</pdfrwt>
<totfact> 0.39690515E+01</totfact>
</mgrwt>
</event>
<event>
 8    1  0.3573290E-007  0.1550431E+03  0.7546771E-02  0.1194411E+00
         -5   -1    0    0    0  501 -0.00000000000E+00  0.00000000000E+00  0.14120960260E+03  0.14128779801E+03  0.47000000000E+01 0. -1.
          5   -1    0    0  501    0  0.00000000000E+00 -0.00000000000E+00 -0.17266998152E+03  0.17273393563E+03  0.47000000000E+01 0. -1.
         25    2    1    2    0    0 -0.43318335017E+02  0.80839622641E+02  0.35380197788E+01  0.15507755305E+03  0.12500002855E+03 0.  0.
         25    2    1    2    0    0  0.43318335017E+02 -0.80839622641E+02 -0.34998398698E+02  0.15894418059E+03  0.12500736736E+03 0.  0.
          5    1    3    3  502    0 -0.69467008380E+02  0.78885659140E+02 -0.32627178290E+02  0.11016004373E+03  0.47000000000E+01 0. -1.
         -5    1    3    3    0  502  0.26148673363E+02  0.19539635015E+01  0.36165198069E+02  0.44917509318E+02  0.47000000000E+01 0. -1.
          5    1    4    4  503    0  0.29818639447E+01 -0.44622754290E+02 -0.77701144810E+02  0.89775495643E+02  0.47000000000E+01 0.  1.
         -5    1    4    4    0  503  0.40336471073E+02 -0.36216868351E+02  0.42702746112E+02  0.69168684947E+02  0.47000000000E+01 0.  1.
<mgrwt>
<rscale>  0 0.15504163E+03</rscale>
<asrwt>0</asrwt>
<pdfrwt beam="2">  1        5 0.26575547E-01 0.15504311E+03</pdfrwt>
<pdfrwt beam="1">  1       -5 0.21735489E-01 0.15504311E+03</pdfrwt>
<totfact> 0.20256759E+02</totfact>
</mgrwt>
</event>
<event>
 8    1  0.3573290E-007  0.1332354E+03  0.7546771E-02  0.1222733E+00
         -5   -1    0    0    0  501 -0.00000000000E+00  0.00000000000E+00  0.81568177354E+02  0.81703473346E+02  0.47000000000E+01 0. -1.
          5   -1    0    0  501    0  0.00000000000E+00 -0.00000000000E+00 -0.23056384556E+03  0.23061174489E+03  0.47000000000E+01 0. -1.
         25    2    1    2    0    0 -0.12995029253E+02  0.44254244167E+02 -0.37036881106E+02  0.13828521023E+03  0.12499503948E+03 0.  0.
         25    2    1    2    0    0  0.12995029253E+02 -0.44254244167E+02 -0.11195878710E+03  0.17403000800E+03  0.12499745903E+03 0.  0.
          5    1    4    4  502    0  0.55623075658E+00  0.33121786412E+02  0.43118110645E+01  0.33734905401E+02  0.47000000000E+01 0.  1.
         -5    1    4    4    0  502  0.12438798496E+02 -0.77376030579E+02 -0.11627059817E+03  0.14029510260E+03  0.47000000000E+01 0.  1.
          5    1    3    3  503    0 -0.28668461085E+02 -0.16229196682E+02 -0.62376280034E+02  0.70697650575E+02  0.47000000000E+01 0.  1.
         -5    1    3    3    0  503  0.15673431832E+02  0.60483440849E+02  0.25339398927E+02  0.67587559657E+02  0.47000000000E+01 0.  1.
<mgrwt>
<rscale>  0 0.13323484E+03</rscale>
<asrwt>0</asrwt>
<pdfrwt beam="2">  1        5 0.35485453E-01 0.13323541E+03</pdfrwt>
<pdfrwt beam="1">  1       -5 0.12563042E-01 0.13323541E+03</pdfrwt>
<totfact> 0.29708822E+02</totfact>
</mgrwt>
</event>
<event>
 8    1  0.3573290E-007  0.1428587E+03  0.7546771E-02  0.1209535E+00
          5   -1    0    0  501    0  0.00000000000E+00  0.00000000000E+00  0.44038594965E+03  0.44041102921E+03  0.47000000000E+01 0.  1.
         -5   -1    0    0    0  501 -0.00000000000E+00 -0.00000000000E+00 -0.48816814438E+02  0.49042546547E+02  0.47000000000E+01 0.  1.
         25    2    1    2    0    0 -0.23031053182E+02 -0.65202625606E+02  0.13922760484E+03  0.19948169171E+03  0.12500723012E+03 0.  0.
         25    2    1    2    0    0  0.23031053182E+02  0.65202625606E+02  0.25234153037E+03  0.28997188405E+03  0.12500253513E+03 0.  0.
          5    1    3    3  502    0  0.31742510597E+02  0.20749279519E+02  0.22084552321E+02  0.44135439624E+02  0.47000000000E+01 0.  1.
         -5    1    3    3    0  502 -0.54773563780E+02 -0.85951905125E+02  0.11714305251E+03  0.15534625208E+03  0.47000000000E+01 0.  1.
          5    1    4    4  503    0  0.41486391059E+02  0.88973874811E+02  0.12485529047E+03  0.15889746569E+03  0.47000000000E+01 0. -1.
         -5    1    4    4    0  503 -0.18455337877E+02 -0.23771249205E+02  0.12748623990E+03  0.13107441836E+03  0.47000000000E+01 0. -1.
<mgrwt>
<rscale>  0 0.14285771E+03</rscale>
<asrwt>0</asrwt>
<pdfrwt beam="1">  1        5 0.67770976E-01 0.14285874E+03</pdfrwt>
<pdfrwt beam="2">  1       -5 0.75295725E-02 0.14285874E+03</pdfrwt>
<totfact> 0.18864345E+02</totfact>
</mgrwt>
</event>
<event>
 8    1  0.3573290E-007  0.1253667E+03  0.7546771E-02  0.1234498E+00
          5   -1    0    0  501    0  0.00000000000E+00  0.00000000000E+00  0.41657830888E+02  0.41922128694E+02  0.47000000000E+01 0. -1.
         -5   -1    0    0    0  501 -0.00000000000E+00 -0.00000000000E+00 -0.41340294383E+03  0.41342966024E+03  0.47000000000E+01 0. -1.
         25    2    1    2    0    0  0.22249110308E+00  0.95781723888E+01 -0.25451165037E+03  0.28371288502E+03  0.12500012025E+03 0.  0.
         25    2    1    2    0    0 -0.22249110308E+00 -0.95781723888E+01 -0.11723346257E+03  0.17163890391E+03  0.12499775079E+03 0.  0.
          5    1    4    4  502    0  0.53847509451E+02  0.12554897463E+02 -0.21752080060E+02  0.59602203913E+02  0.47000000000E+01 0. -1.
         -5    1    4    4    0  502 -0.54070000554E+02 -0.22133069852E+02 -0.95481382509E+02  0.11203670000E+03  0.47000000000E+01 0. -1.
          5    1    3    3  503    0 -0.46492699783E+02 -0.32808046018E+02 -0.81576677628E+02  0.99573005125E+02  0.47000000000E+01 0. -1.
         -5    1    3    3    0  503  0.46715190886E+02  0.42386218407E+02 -0.17293497274E+03  0.18413987990E+03  0.47000000000E+01 0. -1.
<mgrwt>
<rscale>  0 0.12536616E+03</rscale>
<asrwt>0</asrwt>
<pdfrwt beam="1">  1        5 0.64312831E-02 0.12536675E+03</pdfrwt>
<pdfrwt beam="2">  1       -5 0.63622836E-01 0.12536675E+03</pdfrwt>
<totfact> 0.27119269E+02</totfact>
</mgrwt>
</event>
<event>
 8    1  0.3573290E-007  0.1438612E+03  0.7546771E-02  0.1208242E+00
          5   -1    0    0  501    0  0.00000000000E+00  0.00000000000E+00  0.45062314356E+02  0.45306756396E+02  0.47000000000E+01 0. -1.
         -5   -1    0    0    0  501 -0.00000000000E+00 -0.00000000000E+00 -0.45838173504E+03  0.45840583005E+03  0.47000000000E+01 0. -1.
         25    2    1    2    0    0 -0.18742543412E+01 -0.71162490312E+02 -0.21687013696E+03  0.26022057069E+03  0.12495789790E+03 0.  0.
         25    2    1    2    0    0  0.18742543412E+01  0.71162490312E+02 -0.19644928373E+03  0.24349201575E+03  0.12501371046E+03 0.  0.
          5    1    3    3  502    0  0.42319077564E+02 -0.86680427992E+02 -0.13986369684E+03  0.16996571601E+03  0.47000000000E+01 0. -1.
         -5    1    3    3    0  502 -0.44193331905E+02  0.15517937680E+02 -0.77006440113E+02  0.90254854682E+02  0.47000000000E+01 0. -1.
          5    1    4    4  503    0 -0.19132501617E+02  0.30299689745E+02 -0.19389596097E+03  0.19723553812E+03  0.47000000000E+01 0. -1.
         -5    1    4    4    0  503  0.21006755958E+02  0.40862800566E+02 -0.25533227578E+01  0.46256477634E+02  0.47000000000E+01 0. -1.
<mgrwt>
<rscale>  0 0.14384906E+03</rscale>
<asrwt>0</asrwt>
<pdfrwt beam="1">  1        5 0.69533207E-02 0.14386119E+03</pdfrwt>
<pdfrwt beam="2">  1       -5 0.70540921E-01 0.14386119E+03</pdfrwt>
<totfact> 0.19788613E+02</totfact>
</mgrwt>
</event>
<event>
 8    1  0.3573290E-007  0.1350981E+03  0.7546771E-02  0.1220083E+00
         -5   -1    0    0    0  501 -0.00000000000E+00  0.00000000000E+00  0.11915064798E+03  0.11924330972E+03  0.47000000000E+01 0. -1.
          5   -1    0    0  501    0  0.00000000000E+00 -0.00000000000E+00 -0.16098368937E+03  0.16105228419E+03  0.47000000000E+01 0. -1.
         25    2    1    2    0    0 -0.50748014717E+02 -0.71333059957E+01  0.10303271631E+02  0.13548647580E+03  0.12499673063E+03 0.  0.
         25    2    1    2    0    0  0.50748014717E+02  0.71333059957E+01 -0.52136313023E+02  0.14480911811E+03  0.12500096200E+03 0.  0.
          5    1    4    4  502    0  0.87169790056E+01  0.56745810344E+02 -0.54876550123E+02  0.79558773670E+02  0.47000000000E+01 0. -1.
         -5    1    4    4    0  502  0.42031035712E+02 -0.49612504348E+02  0.27402370999E+01  0.65250344444E+02  0.47000000000E+01 0. -1.
          5    1    3    3  503    0 -0.19246600951E+02 -0.45054705271E+02 -0.41090221100E+02  0.64115944860E+02  0.47000000000E+01 0.  1.
         -5    1    3    3    0  503 -0.31501413766E+02  0.37921399275E+02  0.51393492731E+02  0.71370530944E+02  0.47000000000E+01 0.  1.
<mgrwt>
<rscale>  0 0.13509708E+03</rscale>
<asrwt>0</asrwt>
<pdfrwt beam="2">  1        5 0.24779126E-01 0.13509806E+03</pdfrwt>
<pdfrwt beam="1">  1       -5 0.18343273E-01 0.13509806E+03</pdfrwt>
<totfact> 0.30381469E+02</totfact>
</mgrwt>
</event>
<event>
 8    1  0.3573290E-007  0.1413082E+03  0.7546771E-02  0.1211583E+00
         -5   -1    0    0    0  501 -0.00000000000E+00  0.00000000000E+00  0.24956219135E+02  0.25394937951E+02  0.47000000000E+01 0. -1.
          5   -1    0    0  501    0  0.00000000000E+00 -0.00000000000E+00 -0.81029935551E+03  0.81031298616E+03  0.47000000000E+01 0. -1.
         25    2    1    2    0    0  0.34908032588E+02 -0.55887676870E+02 -0.33099818557E+03  0.35989561407E+03  0.12499220380E+03 0.  0.
         25    2    1    2    0    0 -0.34908032588E+02  0.55887676870E+02 -0.45434495081E+03  0.47581231004E+03  0.12500406754E+03 0.  0.
          5    1    4    4  502    0 -0.17989507267E+02 -0.76724558581E+01 -0.38031517899E+01  0.20470537710E+02  0.47000000000E+01 0.  1.
         -5    1    4    4    0  502 -0.16918525321E+02  0.63560132728E+02 -0.45054179902E+03  0.45534177233E+03  0.47000000000E+01 0.  1.
          5    1    3    3  503    0 -0.35219799500E+02 -0.60717240826E+02 -0.18046034084E+03  0.19368800228E+03  0.47000000000E+01 0. -1.
         -5    1    3    3    0  503  0.70127832087E+02  0.48295639561E+01 -0.15053784473E+03  0.16620761179E+03  0.47000000000E+01 0. -1.
<mgrwt>
<rscale>  0 0.14130562E+03</rscale>
<asrwt>0</asrwt>
<pdfrwt beam="2">  1        5 0.12469622E+00 0.14130824E+03</pdfrwt>
<pdfrwt beam="1">  1       -5 0.38742151E-02 0.14130824E+03</pdfrwt>
<totfact> 0.13261110E+02</totfact>
</mgrwt>
</event>
<event>
 8    1  0.3573290E-007  0.1312418E+03  0.7546771E-02  0.1225625E+00
         -5   -1    0    0    0  501 -0.00000000000E+00  0.00000000000E+00  0.27787542196E+02  0.28182219595E+02  0.47000000000E+01 0. -1.
          5   -1    0    0  501    0  0.00000000000E+00 -0.00000000000E+00 -0.72566884819E+03  0.72568406847E+03  0.47000000000E+01 0. -1.
         25    2    1    2    0    0  0.18737038205E+02  0.35339647747E+02 -0.20183799125E+03  0.24075503272E+03  0.12499777504E+03 0.  0.
         25    2    1    2    0    0 -0.18737038205E+02 -0.35339647747E+02 -0.49604331475E+03  0.51311125535E+03  0.12499689179E+03 0.  0.
          5    1    3    3  502    0  0.34661571330E+02 -0.21233632107E+02 -0.16771186416E+03  0.17263154705E+03  0.47000000000E+01 0.  1.
         -5    1    3    3    0  502 -0.15924533125E+02  0.56573279853E+02 -0.34126127091E+02  0.68123485663E+02  0.47000000000E+01 0.  1.
          5    1    4    4  503    0  0.31610360637E+02 -0.57690549578E+02 -0.16871800030E+03  0.18114984967E+03  0.47000000000E+01 0. -1.
         -5    1    4    4    0  503 -0.50347398842E+02  0.22350901831E+02 -0.32732531445E+03  0.33196140569E+03  0.47000000000E+01 0. -1.
<mgrwt>
<rscale>  0 0.13124159E+03</rscale>
<asrwt>0</asrwt>
<pdfrwt beam="2">  1        5 0.11167288E+00 0.13124180E+03</pdfrwt>
<pdfrwt beam="1">  1       -5 0.43065376E-02 0.13124180E+03</pdfrwt>
<totfact> 0.14392268E+02</totfact>
</mgrwt>
</event>
<event>
 8    1  0.3573290E-007  0.1367755E+03  0.7546771E-02  0.1217736E+00
         -5   -1    0    0    0  501 -0.00000000000E+00  0.00000000000E+00  0.42359102179E+03  0.42361709566E+03  0.47000000000E+01 0.  1.
          5   -1    0    0  501    0  0.00000000000E+00 -0.00000000000E+00 -0.44021297633E+02  0.44271487950E+02  0.47000000000E+01 0.  1.
         25    2    1    2    0    0  0.45376582920E+02 -0.31975062790E+02  0.19346588838E+03  0.23692934112E+03  0.12500009521E+03 0.  0.
         25    2    1    2    0    0 -0.45376582920E+02  0.31975062790E+02  0.18610383578E+03  0.23095924249E+03  0.12500438026E+03 0.  0.
          5    1    3    3  502    0  0.62720184711E+02  0.26014509209E+02  0.14148886457E+03  0.15700880567E+03  0.47000000000E+01 0. -1.
         -5    1    3    3    0  502 -0.17343601791E+02 -0.57989571999E+02  0.51977023806E+02  0.79920535455E+02  0.47000000000E+01 0. -1.
          5    1    4    4  503    0  0.39089740114E+02  0.28642453946E+02  0.93967650510E+02  0.10583197670E+03  0.47000000000E+01 0.  1.
         -5    1    4    4    0  503 -0.84466323034E+02  0.33326088446E+01  0.92136185268E+02  0.12512726579E+03  0.47000000000E+01 0.  1.
<mgrwt>
<rscale>  0 0.13677451E+03</rscale>
<asrwt>0</asrwt>
<pdfrwt beam="2">  1        5 0.67937587E-02 0.13677549E+03</pdfrwt>
<pdfrwt beam="1">  1       -5 0.65189098E-01 0.13677549E+03</pdfrwt>
<totfact> 0.24152594E+02</totfact>
</mgrwt>
</event>
<event>
 8    1  0.3573290E-007  0.1707708E+03  0.7546771E-02  0.1177049E+00
          5   -1    0    0  501    0  0.00000000000E+00  0.00000000000E+00  0.65617511384E+03  0.65619194602E+03  0.47000000000E+01 0.  1.
         -5   -1    0    0    0  501 -0.00000000000E+00 -0.00000000000E+00 -0.62732495439E+02  0.62908314109E+02  0.47000000000E+01 0.  1.
         25    2    1    2    0    0 -0.10780545558E+03  0.43730764063E+02  0.10216823723E+03  0.19899144999E+03  0.12499940996E+03 0.  0.
         25    2    1    2    0    0  0.10780545558E+03 -0.43730764063E+02  0.49127438117E+03  0.52010881014E+03  0.12501304259E+03 0.  0.
          5    1    3    3  502    0 -0.90335646775E+02  0.80420307288E+02  0.45951743907E+02  0.12946662763E+03  0.47000000000E+01 0. -1.
         -5    1    3    3    0  502 -0.17469808801E+02 -0.36689543226E+02  0.56216493323E+02  0.69524822352E+02  0.47000000000E+01 0. -1.
          5    1    4    4  503    0  0.10563977444E+03 -0.33364919249E+02  0.49551613746E+03  0.50777092499E+03  0.47000000000E+01 0.  1.
         -5    1    4    4    0  503  0.21656811378E+01 -0.10365844814E+02 -0.42417562958E+01  0.12337885150E+02  0.47000000000E+01 0.  1.
<mgrwt>
<rscale>  0 0.17076828E+03</rscale>
<asrwt>0</asrwt>
<pdfrwt beam="1">  1        5 0.10096483E+00 0.17077077E+03</pdfrwt>
<pdfrwt beam="2">  1       -5 0.96659732E-02 0.17077077E+03</pdfrwt>
<totfact> 0.50938820E+01</totfact>
</mgrwt>
</event>
<event>
 8    1  0.3573290E-007  0.1287993E+03  0.7546771E-02  0.1229252E+00
          5   -1    0    0  501    0  0.00000000000E+00  0.00000000000E+00  0.20421725009E+02  0.20955592388E+02  0.47000000000E+01 0.  1.
         -5   -1    0    0    0  501 -0.00000000000E+00 -0.00000000000E+00 -0.11118434576E+04  0.11118533915E+04  0.47000000000E+01 0.  1.
         25    2    1    2    0    0 -0.80816618012E+01  0.29976208206E+02 -0.84501257433E+03  0.85477219370E+03  0.12500146410E+03 0.  0.
         25    2    1    2    0    0  0.80816618012E+01 -0.29976208206E+02 -0.24640915823E+03  0.27803679016E+03  0.12499238821E+03 0.  0.
          5    1    4    4  502    0  0.15097502218E+02 -0.63661361721E+02 -0.23083996428E+03  0.23997892128E+03  0.47000000000E+01 0.  1.
         -5    1    4    4    0  502 -0.70158404171E+01  0.33685153514E+02 -0.15569193951E+02  0.38057868889E+02  0.47000000000E+01 0.  1.
          5    1    3    3  503    0  0.46240440853E+02 -0.18366767087E+02 -0.47726661551E+03  0.47987605565E+03  0.47000000000E+01 0.  1.
         -5    1    3    3    0  503 -0.54322102654E+02  0.48342975293E+02 -0.36774595882E+03  0.37489613805E+03  0.47000000000E+01 0.  1.
<mgrwt>
<rscale>  0 0.12879707E+03</rscale>
<asrwt>0</asrwt>
<pdfrwt beam="1">  1        5 0.31836356E-02 0.12879927E+03</pdfrwt>
<pdfrwt beam="2">  1       -5 0.17109462E+00 0.12879927E+03</pdfrwt>
<totfact> 0.75252689E+01</totfact>
</mgrwt>
</event>
<event>
 8    1  0.3573290E-007  0.1287626E+03  0.7546771E-02  0.1229305E+00
         -5   -1    0    0    0  501 -0.00000000000E+00  0.00000000000E+00  0.39699137821E+02  0.39976387327E+02  0.47000000000E+01 0.  1.
          5   -1    0    0  501    0  0.00000000000E+00 -0.00000000000E+00 -0.42521794029E+03  0.42524391442E+03  0.47000000000E+01 0.  1.
         25    2    1    2    0    0 -0.21893073378E+02  0.21792875862E+02 -0.22720986887E+03  0.26115774984E+03  0.12499923876E+03 0.  0.
         25    2    1    2    0    0  0.21893073378E+02 -0.21792875862E+02 -0.15830893360E+03  0.20406255190E+03  0.12500228209E+03 0.  0.
          5    1    4    4  502    0 -0.23187340774E+02  0.16048913489E+02  0.62217759533E+01  0.29257834718E+02  0.47000000000E+01 0. -1.
         -5    1    4    4    0  502  0.45080414152E+02 -0.37841789351E+02 -0.16453070956E+03  0.17480471718E+03  0.47000000000E+01 0. -1.
          5    1    3    3  503    0  0.29221211454E+02  0.51854211922E+02 -0.64388774317E+02  0.87810835043E+02  0.47000000000E+01 0. -1.
         -5    1    3    3    0  503 -0.51114284832E+02 -0.30061336060E+02 -0.16282109455E+03  0.17334691480E+03  0.47000000000E+01 0. -1.
<mgrwt>
<rscale>  0 0.12876186E+03</rscale>
<asrwt>0</asrwt>
<pdfrwt beam="2">  1        5 0.65441466E-01 0.12876260E+03</pdfrwt>
<pdfrwt beam="1">  1       -5 0.61308849E-02 0.12876260E+03</pdfrwt>
<totfact> 0.27883441E+02</totfact>
</mgrwt>
</event>
<event>
 8    1  0.3573290E-007  0.1296387E+03  0.7546771E-02  0.1227994E+00
         -5   -1    0    0    0  501 -0.00000000000E+00  0.00000000000E+00  0.14543214471E+02  0.15283817820E+02  0.47000000000E+01 0.  1.
          5   -1    0    0  501    0  0.00000000000E+00 -0.00000000000E+00 -0.11560623346E+04  0.11560718885E+04  0.47000000000E+01 0.  1.
         25    2    1    2    0    0  0.32664736268E+02  0.10650281499E+02 -0.47658079629E+03  0.49389821143E+03  0.12500309744E+03 0.  0.
         25    2    1    2    0    0 -0.32664736268E+02 -0.10650281499E+02 -0.66493832382E+03  0.67745749491E+03  0.12500107775E+03 0.  0.
          5    1    4    4  502    0  0.18107548569E+02  0.26342415018E+01 -0.55724201606E+03  0.55756217322E+03  0.47000000000E+01 0.  1.
         -5    1    4    4    0  502 -0.50772284837E+02 -0.13284523001E+02 -0.10769630775E+03  0.11989532169E+03  0.47000000000E+01 0.  1.
          5    1    3    3  503    0 -0.38625345307E+02  0.36274273133E+02 -0.17453002573E+03  0.18245700883E+03  0.47000000000E+01 0.  1.
         -5    1    3    3    0  503  0.71290081576E+02 -0.25623991634E+02 -0.30205077056E+03  0.31144120260E+03  0.47000000000E+01 0.  1.
<mgrwt>
<rscale>  0 0.12963820E+03</rscale>
<asrwt>0</asrwt>
<pdfrwt beam="2">  1        5 0.17791338E+00 0.12963868E+03</pdfrwt>
<pdfrwt beam="1">  1       -5 0.22951229E-02 0.12963868E+03</pdfrwt>
<totfact> 0.11385964E+02</totfact>
</mgrwt>
</event>
<event>
 8    1  0.3573290E-007  0.1569613E+03  0.7546771E-02  0.1192172E+00
          5   -1    0    0  501    0  0.00000000000E+00  0.00000000000E+00  0.10684006107E+04  0.10684109485E+04  0.47000000000E+01 0.  1.
         -5   -1    0    0    0  501 -0.00000000000E+00 -0.00000000000E+00 -0.24474719984E+02  0.24921916425E+02  0.47000000000E+01 0.  1.
         25    2    1    2    0    0 -0.93379477429E+02  0.17054580260E+02  0.38070368898E+03  0.41179138654E+03  0.12500504675E+03 0.  0.
         25    2    1    2    0    0  0.93379477429E+02 -0.17054580260E+02  0.66322220169E+03  0.68154147837E+03  0.12499804963E+03 0.  0.
          5    1    3    3  502    0 -0.12893304910E+02  0.12670617927E+02 -0.36644747674E+01  0.19034186231E+02  0.47000000000E+01 0. -1.
         -5    1    3    3    0  502 -0.80486172519E+02  0.43839623329E+01  0.38436816375E+03  0.39275720031E+03  0.47000000000E+01 0. -1.
          5    1    4    4  503    0  0.10297824419E+03 -0.46045367940E+02  0.37389601904E+03  0.39057011885E+03  0.47000000000E+01 0. -1.
         -5    1    4    4    0  503 -0.95987667611E+01  0.28990787680E+02  0.28932618265E+03  0.29097135952E+03  0.47000000000E+01 0. -1.
<mgrwt>
<rscale>  0 0.15695990E+03</rscale>
<asrwt>0</asrwt>
<pdfrwt beam="1">  1        5 0.16440453E+00 0.15696129E+03</pdfrwt>
<pdfrwt beam="2">  1       -5 0.38005364E-02 0.15696129E+03</pdfrwt>
<totfact> 0.67029100E+01</totfact>
</mgrwt>
</event>
<event>
 8    1  0.3573290E-007  0.1303239E+03  0.7546771E-02  0.1226979E+00
         -5   -1    0    0    0  501 -0.00000000000E+00  0.00000000000E+00  0.47340191294E+03  0.47342524349E+03  0.47000000000E+01 0. -1.
          5   -1    0    0  501    0  0.00000000000E+00 -0.00000000000E+00 -0.45656294649E+02  0.45897573368E+02  0.47000000000E+01 0. -1.
         25    2    1    2    0    0 -0.22007760843E+02 -0.29564517124E+02  0.33476300258E+03  0.35923610744E+03  0.12500364307E+03 0.  0.
         25    2    1    2    0    0  0.22007760843E+02  0.29564517124E+02  0.92982615708E+02  0.16008670942E+03  0.12499434187E+03 0.  0.
          5    1    4    4  502    0 -0.43635752927E+02 -0.14808973877E+02  0.55554980076E+02  0.72331393268E+02  0.47000000000E+01 0. -1.
         -5    1    4    4    0  502  0.65643513770E+02  0.44373491001E+02  0.37427635632E+02  0.87755316151E+02  0.47000000000E+01 0. -1.
          5    1    3    3  503    0  0.18748215276E+01  0.16766066057E+02 -0.27167201255E+01  0.17722485577E+02  0.47000000000E+01 0.  1.
         -5    1    3    3    0  503 -0.23882582370E+02 -0.46330583181E+02  0.33747972271E+03  0.34151362186E+03  0.47000000000E+01 0.  1.
<mgrwt>
<rscale>  0 0.13032165E+03</rscale>
<asrwt>0</asrwt>
<pdfrwt beam="2">  1        5 0.70443997E-02 0.13032388E+03</pdfrwt>
<pdfrwt beam="1">  1       -5 0.72851421E-01 0.13032388E+03</pdfrwt>
<totfact> 0.17409487E+02</totfact>
</mgrwt>
</event>
<event>
 8    1  0.3573290E-007  0.1264147E+03  0.7546771E-02  0.1232889E+00
          5   -1    0    0  501    0  0.00000000000E+00  0.00000000000E+00  0.13521215674E+03  0.13529381852E+03  0.47000000000E+01 0.  1.
         -5   -1    0    0    0  501 -0.00000000000E+00 -0.00000000000E+00 -0.11960416980E+03  0.11969648045E+03  0.47000000000E+01 0.  1.
         25    2    1    2    0    0 -0.18251269695E+02  0.34009733095E+01 -0.69938110634E+01  0.12657100531E+03  0.12500652193E+03 0.  0.
         25    2    1    2    0    0  0.18251269695E+02 -0.34009733095E+01  0.22601798003E+02  0.12841929367E+03  0.12504398525E+03 0.  0.
          5    1    4    4  502    0 -0.18245205638E+02 -0.55311208603E+02  0.27542448078E+02  0.64597939379E+02  0.47000000000E+01 0. -1.
         -5    1    4    4    0  502  0.36496475332E+02  0.51910235294E+02 -0.49406500746E+01  0.63821354288E+02  0.47000000000E+01 0. -1.
          5    1    3    3  503    0 -0.64300306844E+02 -0.21513908340E+02 -0.22782668925E+02  0.71683454964E+02  0.47000000000E+01 0. -1.
         -5    1    3    3    0  503  0.46049037149E+02  0.24914881649E+02  0.15788857861E+02  0.54887550342E+02  0.47000000000E+01 0. -1.
<mgrwt>
<rscale>  0 0.12640542E+03</rscale>
<asrwt>0</asrwt>
<pdfrwt beam="1">  1        5 0.20815253E-01 0.12641469E+03</pdfrwt>
<pdfrwt beam="2">  1       -5 0.18414024E-01 0.12641469E+03</pdfrwt>
<totfact> 0.40957236E+02</totfact>
</mgrwt>
</event>
<event>
 8    1  0.3573290E-007  0.1370797E+03  0.7546771E-02  0.1217314E+00
         -5   -1    0    0    0  501 -0.00000000000E+00  0.00000000000E+00  0.17895527176E+03  0.17901698045E+03  0.47000000000E+01 0.  1.
          5   -1    0    0  501    0  0.00000000000E+00 -0.00000000000E+00 -0.11318537505E+03  0.11328291629E+03  0.47000000000E+01 0.  1.
         25    2    1    2    0    0  0.48464440982E+02 -0.28597574167E+02  0.72471703611E+02  0.15505804659E+03  0.12499690676E+03 0.  0.
         25    2    1    2    0    0 -0.48464440982E+02  0.28597574167E+02 -0.67018068996E+01  0.13724185016E+03  0.12499515163E+03 0.  0.
          5    1    3    3  502    0 -0.24390088185E+02  0.32369076676E+02  0.31257245237E+02  0.51397849239E+02  0.47000000000E+01 0.  1.
         -5    1    3    3    0  502  0.72854529167E+02 -0.60966650843E+02  0.41214458374E+02  0.10366019735E+03  0.47000000000E+01 0.  1.
          5    1    4    4  503    0 -0.15488801169E+02  0.33873259528E+02  0.55195984529E+02  0.66753182552E+02  0.47000000000E+01 0.  1.
         -5    1    4    4    0  503 -0.32975639813E+02 -0.52756853615E+01 -0.61897791428E+02  0.70488667606E+02  0.47000000000E+01 0.  1.
<mgrwt>
<rscale>  0 0.13707932E+03</rscale>
<asrwt>0</asrwt>
<pdfrwt beam="2">  1        5 0.17425385E-01 0.13707972E+03</pdfrwt>
<pdfrwt beam="1">  1       -5 0.27543830E-01 0.13707972E+03</pdfrwt>
<totfact> 0.27375637E+02</totfact>
</mgrwt>
</event>
<event>
 8    1  0.3573290E-007  0.1279295E+03  0.7546771E-02  0.1230562E+00
          5   -1    0    0  501    0  0.00000000000E+00  0.00000000000E+00  0.82998006433E+02  0.83130975405E+02  0.47000000000E+01 0.  1.
         -5   -1    0    0    0  501 -0.00000000000E+00 -0.00000000000E+00 -0.22839899420E+03  0.22844734744E+03  0.47000000000E+01 0.  1.
         25    2    1    2    0    0 -0.52539726634E+01 -0.26699276770E+02 -0.13056828882E+03  0.18279507204E+03  0.12500201882E+03 0.  0.
         25    2    1    2    0    0  0.52539726634E+01  0.26699276770E+02 -0.14832698951E+02  0.12878325081E+03  0.12499864448E+03 0.  0.
          5    1    4    4  502    0  0.42957533784E+02  0.50651046677E+02 -0.39625559007E+02  0.77480017842E+02  0.47000000000E+01 0.  1.
         -5    1    4    4    0  502 -0.37703561120E+02 -0.23951769907E+02  0.24792860057E+02  0.51303232964E+02  0.47000000000E+01 0.  1.
          5    1    3    3  503    0 -0.14111244834E+02 -0.50886013637E+02 -0.14394190428E+03  0.15339450910E+03  0.47000000000E+01 0. -1.
         -5    1    3    3    0  503  0.88572721706E+01  0.24186736867E+02  0.13373615462E+02  0.29400562938E+02  0.47000000000E+01 0. -1.
<mgrwt>
<rscale>  0 0.12792869E+03</rscale>
<asrwt>0</asrwt>
<pdfrwt beam="1">  1        5 0.12782872E-01 0.12792951E+03</pdfrwt>
<pdfrwt beam="2">  1       -5 0.35152254E-01 0.12792951E+03</pdfrwt>
<totfact> 0.28928419E+02</totfact>
</mgrwt>
</event>
<event>
 8    1  0.3573290E-007  0.1335127E+03  0.7546771E-02  0.1222338E+00
         -5   -1    0    0    0  501 -0.00000000000E+00  0.00000000000E+00  0.34630730226E+03  0.34633919443E+03  0.47000000000E+01 0.  1.
          5   -1    0    0  501    0  0.00000000000E+00 -0.00000000000E+00 -0.60465897072E+02  0.60648286940E+02  0.47000000000E+01 0.  1.
         25    2    1    2    0    0 -0.39802582756E+02  0.24793595333E+02  0.22187333800E+03  0.25894166140E+03  0.12499615166E+03 0.  0.
         25    2    1    2    0    0  0.39802582756E+02 -0.24793595333E+02  0.63968067189E+02  0.14804581997E+03  0.12500673273E+03 0.  0.
          5    1    3    3  502    0 -0.37540067331E+02 -0.13546709284E+02  0.21611817519E+03  0.21982248665E+03  0.47000000000E+01 0. -1.
         -5    1    3    3    0  502 -0.22625154252E+01  0.38340304617E+02  0.57551628018E+01  0.39119174749E+02  0.47000000000E+01 0. -1.
          5    1    4    4  503    0 -0.11172279186E+02 -0.23634299507E+02  0.87682144087E+02  0.91616856130E+02  0.47000000000E+01 0. -1.
         -5    1    4    4    0  503  0.50974861942E+02 -0.11592958261E+01 -0.23714076898E+02  0.56428963839E+02  0.47000000000E+01 0. -1.
<mgrwt>
<rscale>  0 0.13351026E+03</rscale>
<asrwt>0</asrwt>
<pdfrwt beam="2">  1        5 0.93189290E-02 0.13351274E+03</pdfrwt>
<pdfrwt beam="1">  1       -5 0.53294529E-01 0.13351274E+03</pdfrwt>
<totfact> 0.21628251E+02</totfact>
</mgrwt>
</event>
<event>
 8    1  0.3573290E-007  0.1317794E+03  0.7546771E-02  0.1224845E+00
          5   -1    0    0  501    0  0.00000000000E+00  0.00000000000E+00  0.12910940123E+03  0.12919492051E+03  0.47000000000E+01 0. -1.
         -5   -1    0    0    0  501 -0.00000000000E+00 -0.00000000000E+00 -0.14721349560E+03  0.14728850358E+03  0.47000000000E+01 0. -1.
         25    2    1    2    0    0  0.28241912093E+02  0.30697679099E+02 -0.49944790446E+02  0.14092651421E+03  0.12500338881E+03 0.  0.
         25    2    1    2    0    0 -0.28241912093E+02 -0.30697679099E+02  0.31840696075E+02  0.13555690988E+03  0.12498757053E+03 0.  0.
          5    1    3    3  502    0  0.36186905485E+02  0.75991555326E+02 -0.22829016304E+02  0.87335345622E+02  0.47000000000E+01 0.  1.
         -5    1    3    3    0  502 -0.79449933928E+01 -0.45293876227E+02 -0.27115774142E+02  0.53591168592E+02  0.47000000000E+01 0.  1.
          5    1    4    4  503    0 -0.40182462630E+02  0.41779234903E+02  0.13576387529E+02  0.59720541445E+02  0.47000000000E+01 0.  1.
         -5    1    4    4    0  503  0.11940550537E+02 -0.72476914002E+02  0.18264308546E+02  0.75836368433E+02  0.47000000000E+01 0.  1.
<mgrwt>
<rscale>  0 0.13177561E+03</rscale>
<asrwt>0</asrwt>
<pdfrwt beam="1">  1        5 0.19875333E-01 0.13177936E+03</pdfrwt>
<pdfrwt beam="2">  1       -5 0.22660579E-01 0.13177936E+03</pdfrwt>
<totfact> 0.30763502E+02</totfact>
</mgrwt>
</event>
<event>
 8    1  0.3573290E-007  0.1599015E+03  0.7546771E-02  0.1188811E+00
          5   -1    0    0  501    0  0.00000000000E+00  0.00000000000E+00  0.85875144211E+02  0.86003664999E+02  0.47000000000E+01 0. -1.
         -5   -1    0    0    0  501 -0.00000000000E+00 -0.00000000000E+00 -0.29853659208E+03  0.29857358693E+03  0.47000000000E+01 0. -1.
         25    2    1    2    0    0 -0.86066766324E+02  0.50351197567E+02 -0.11846092234E+03  0.19900118306E+03  0.12500299747E+03 0.  0.
         25    2    1    2    0    0  0.86066766324E+02 -0.50351197567E+02 -0.94200525527E+02  0.18557606887E+03  0.12498802728E+03 0.  0.
          5    1    4    4  502    0 -0.63740443559E+01 -0.46163279513E+02  0.81221907318E+01  0.47536688979E+02  0.47000000000E+01 0.  1.
         -5    1    4    4    0  502  0.92440810680E+02 -0.41879180544E+01 -0.10232271626E+03  0.13803937989E+03  0.47000000000E+01 0.  1.
          5    1    3    3  503    0 -0.15234957748E+02 -0.20319659236E+02 -0.91774167379E+02  0.95339290364E+02  0.47000000000E+01 0.  1.
         -5    1    3    3    0  503 -0.70831808576E+02  0.70670856803E+02 -0.26686754966E+02  0.10366189270E+03  0.47000000000E+01 0.  1.
<mgrwt>
<rscale>  0 0.15989855E+03</rscale>
<asrwt>0</asrwt>
<pdfrwt beam="1">  1        5 0.13224293E-01 0.15990147E+03</pdfrwt>
<pdfrwt beam="2">  1       -5 0.45941438E-01 0.15990147E+03</pdfrwt>
<totfact> 0.16962511E+02</totfact>
</mgrwt>
</event>
<event>
 8    1  0.3573290E-007  0.1265127E+03  0.7546771E-02  0.1232730E+00
         -5   -1    0    0    0  501 -0.00000000000E+00  0.00000000000E+00  0.13925470791E+04  0.13925550106E+04  0.47000000000E+01 0.  1.
          5   -1    0    0  501    0  0.00000000000E+00 -0.00000000000E+00 -0.11682032075E+02  0.12592055964E+02  0.47000000000E+01 0.  1.
         25    2    1    2    0    0 -0.16929903445E+02  0.95815218540E+01  0.85337284990E+03  0.86269965144E+03  0.12500816152E+03 0.  0.
         25    2    1    2    0    0  0.16929903445E+02 -0.95815218540E+01  0.52749219711E+03  0.54244741510E+03  0.12499101146E+03 0.  0.
          5    1    3    3  502    0 -0.47378936545E+02  0.33611508750E+02  0.20425494654E+03  0.21240685096E+03  0.47000000000E+01 0.  1.
         -5    1    3    3    0  502  0.30449033100E+02 -0.24029986896E+02  0.64911790336E+03  0.65029280048E+03  0.47000000000E+01 0.  1.
          5    1    4    4  503    0  0.20854402886E+02  0.28413505086E+02  0.40326040325E+02  0.53763490580E+02  0.47000000000E+01 0.  1.
         -5    1    4    4    0  503 -0.39244994406E+01 -0.37995026940E+02  0.48716615678E+03  0.48868392452E+03  0.47000000000E+01 0.  1.
<mgrwt>
<rscale>  0 0.12650848E+03</rscale>
<asrwt>0</asrwt>
<pdfrwt beam="2">  1        5 0.18678483E-02 0.12651272E+03</pdfrwt>
<pdfrwt beam="1">  1       -5 0.21430855E+00 0.12651272E+03</pdfrwt>
<totfact> 0.88503640E+01</totfact>
</mgrwt>
</event>
<event>
 8    1  0.3573290E-007  0.1473535E+03  0.7546771E-02  0.1203767E+00
         -5   -1    0    0    0  501 -0.00000000000E+00  0.00000000000E+00  0.13482919221E+04  0.13483001139E+04  0.47000000000E+01 0. -1.
          5   -1    0    0  501    0  0.00000000000E+00 -0.00000000000E+00 -0.16792305147E+02  0.17437646405E+02  0.47000000000E+01 0. -1.
         25    2    1    2    0    0  0.51763024832E+02 -0.58357229928E+02  0.83246584660E+03  0.84540667526E+03  0.12501233460E+03 0.  0.
         25    2    1    2    0    0 -0.51763024832E+02  0.58357229928E+02  0.49903377036E+03  0.52033108507E+03  0.12499902841E+03 0.  0.
          5    1    3    3  502    0  0.42506158526E+02  0.32702800881E+02  0.24593731796E+03  0.25176080128E+03  0.47000000000E+01 0.  1.
         -5    1    3    3    0  502  0.92568663065E+01 -0.91060030809E+02  0.58652852864E+03  0.59364587398E+03  0.47000000000E+01 0.  1.
          5    1    4    4  503    0  0.17038821098E+02 -0.50149099968E+00  0.31179770998E+03  0.31229869494E+03  0.47000000000E+01 0.  1.
         -5    1    4    4    0  503 -0.68801845930E+02  0.58858720927E+02  0.18723606039E+03  0.20803239013E+03  0.47000000000E+01 0.  1.
<mgrwt>
<rscale>  0 0.14735070E+03</rscale>
<asrwt>0</asrwt>
<pdfrwt beam="2">  1        5 0.26337041E-02 0.14735352E+03</pdfrwt>
<pdfrwt beam="1">  1       -5 0.20747974E+00 0.14735352E+03</pdfrwt>
<totfact> 0.59398942E+01</totfact>
</mgrwt>
</event>
<event>
 8    1  0.3573290E-007  0.1625496E+03  0.7546771E-02  0.1185849E+00
         -5   -1    0    0    0  501 -0.00000000000E+00  0.00000000000E+00  0.46044445023E+03  0.46046843730E+03  0.47000000000E+01 0. -1.
          5   -1    0    0  501    0  0.00000000000E+00 -0.00000000000E+00 -0.69991089823E+02  0.70148718125E+02  0.47000000000E+01 0. -1.
         25    2    1    2    0    0  0.80044741322E+02  0.66246895244E+02  0.30821008466E+03  0.34844596884E+03  0.12500130071E+03 0.  0.
         25    2    1    2    0    0 -0.80044741322E+02 -0.66246895244E+02  0.82243275756E+02  0.18217118658E+03  0.12500629213E+03 0.  0.
          5    1    3    3  502    0  0.10229368278E+03  0.83108722998E+02  0.22811327955E+03  0.26349348319E+03  0.47000000000E+01 0.  1.
         -5    1    3    3    0  502 -0.22248941459E+02 -0.16861827754E+02  0.80096805105E+02  0.84952485657E+02  0.47000000000E+01 0.  1.
          5    1    4    4  503    0 -0.57505435121E+02 -0.35338162628E+01  0.97774193447E+02  0.11358365124E+03  0.47000000000E+01 0. -1.
         -5    1    4    4    0  503 -0.22539306201E+02 -0.62713078981E+02 -0.15530917692E+02  0.68587535337E+02  0.47000000000E+01 0. -1.
<mgrwt>
<rscale>  0 0.16254868E+03</rscale>
<asrwt>0</asrwt>
<pdfrwt beam="2">  1        5 0.10781830E-01 0.16254964E+03</pdfrwt>
<pdfrwt beam="1">  1       -5 0.70851578E-01 0.16254964E+03</pdfrwt>
<totfact> 0.95408486E+01</totfact>
</mgrwt>
</event>
<event>
 8    1  0.3573290E-007  0.1812351E+03  0.7546771E-02  0.1166613E+00
          5   -1    0    0  501    0  0.00000000000E+00  0.00000000000E+00  0.11101939191E+03  0.11111883450E+03  0.47000000000E+01 0. -1.
         -5   -1    0    0    0  501 -0.00000000000E+00 -0.00000000000E+00 -0.39627023222E+03  0.39629810364E+03  0.47000000000E+01 0. -1.
         25    2    1    2    0    0 -0.66807787171E+02  0.11295093024E+03 -0.27047581633E+03  0.32558059596E+03  0.12499745669E+03 0.  0.
         25    2    1    2    0    0  0.66807787171E+02 -0.11295093024E+03 -0.14775023982E+02  0.18183634218E+03  0.12499984374E+03 0.  0.
          5    1    4    4  502    0  0.68563246059E+02 -0.82744449265E+02 -0.63042475165E+02  0.12467560415E+03  0.47000000000E+01 0. -1.
         -5    1    4    4    0  502 -0.17554588883E+01 -0.30206480974E+02  0.48267451183E+02  0.57160738033E+02  0.47000000000E+01 0. -1.
          5    1    3    3  503    0  0.30327323771E+02  0.41025142934E+02 -0.13267622662E+03  0.14222475182E+03  0.47000000000E+01 0. -1.
         -5    1    3    3    0  503 -0.97135110942E+02  0.71925787305E+02 -0.13779958970E+03  0.18335584414E+03  0.47000000000E+01 0. -1.
<mgrwt>
<rscale>  0 0.18123467E+03</rscale>
<asrwt>0</asrwt>
<pdfrwt beam="1">  1        5 0.17089700E-01 0.18123508E+03</pdfrwt>
<pdfrwt beam="2">  1       -5 0.60974444E-01 0.18123508E+03</pdfrwt>
<totfact> 0.60077724E+01</totfact>
</mgrwt>
</event>
<event>
 8    1  0.3573290E-007  0.1504284E+03  0.7546771E-02  0.1199948E+00
          5   -1    0    0  501    0  0.00000000000E+00  0.00000000000E+00  0.11832970026E+03  0.11842300437E+03  0.47000000000E+01 0.  1.
         -5   -1    0    0    0  501 -0.00000000000E+00 -0.00000000000E+00 -0.19107783626E+03  0.19113563119E+03  0.47000000000E+01 0.  1.
         25    2    1    2    0    0 -0.75349481080E+02 -0.36403533204E+02 -0.38677180962E+02  0.15532106410E+03  0.12500378833E+03 0.  0.
         25    2    1    2    0    0  0.75349481080E+02  0.36403533204E+02 -0.34070955036E+02  0.15423757147E+03  0.12500254776E+03 0.  0.
          5    1    4    4  502    0  0.70158083636E+02  0.11679425297E+02  0.35819554392E+02  0.79772778262E+02  0.47000000000E+01 0. -1.
         -5    1    4    4    0  502  0.51913974439E+01  0.24724107908E+02 -0.69890509428E+02  0.74464793207E+02  0.47000000000E+01 0. -1.
          5    1    3    3  503    0 -0.44650424265E+02 -0.54025317489E+02  0.31189153024E+02  0.76858627253E+02  0.47000000000E+01 0. -1.
         -5    1    3    3    0  503 -0.30699056816E+02  0.17621784285E+02 -0.69866333986E+02  0.78462436844E+02  0.47000000000E+01 0. -1.
<mgrwt>
<rscale>  0 0.15042816E+03</rscale>
<asrwt>0</asrwt>
<pdfrwt beam="1">  1        5 0.18216192E-01 0.15042842E+03</pdfrwt>
<pdfrwt beam="2">  1       -5 0.29408213E-01 0.15042842E+03</pdfrwt>
<totfact> 0.22905144E+02</totfact>
</mgrwt>
</event>
<event>
 8    1  0.3573290E-007  0.1372166E+03  0.7546771E-02  0.1217127E+00
          5   -1    0    0  501    0  0.00000000000E+00  0.00000000000E+00  0.37026147753E+02  0.37323258397E+02  0.47000000000E+01 0.  1.
         -5   -1    0    0    0  501 -0.00000000000E+00 -0.00000000000E+00 -0.56826702547E+03  0.56828646142E+03  0.47000000000E+01 0.  1.
         25    2    1    2    0    0 -0.78870086322E+01 -0.56012812417E+02 -0.36570565841E+03  0.39059735594E+03  0.12500410318E+03 0.  0.
         25    2    1    2    0    0  0.78870086322E+01  0.56012812417E+02 -0.16553521930E+03  0.21501236388E+03  0.12501507001E+03 0.  0.
          5    1    4    4  502    0  0.76425431495E+01  0.95684375210E+02 -0.12909530422E+03  0.16093972690E+03  0.47000000000E+01 0. -1.
         -5    1    4    4    0  502  0.24446548273E+00 -0.39671562793E+02 -0.36439915085E+02  0.54072636973E+02  0.47000000000E+01 0. -1.
          5    1    3    3  503    0 -0.13677168670E+02 -0.27688410331E+01 -0.31911651222E+03  0.31945605299E+03  0.47000000000E+01 0. -1.
         -5    1    3    3    0  503  0.57901600382E+01 -0.53243971384E+02 -0.46589146195E+02  0.71141302949E+02  0.47000000000E+01 0. -1.
<mgrwt>
<rscale>  0 0.13721415E+03</rscale>
<asrwt>0</asrwt>
<pdfrwt beam="1">  1        5 0.57206806E-02 0.13721665E+03</pdfrwt>
<pdfrwt beam="2">  1       -5 0.87450040E-01 0.13721665E+03</pdfrwt>
<totfact> 0.16496349E+02</totfact>
</mgrwt>
</event>
<event>
 8    1  0.3573290E-007  0.1457861E+03  0.7546771E-02  0.1205750E+00
         -5   -1    0    0    0  501 -0.00000000000E+00  0.00000000000E+00  0.32359439396E+03  0.32362852440E+03  0.47000000000E+01 0. -1.
          5   -1    0    0  501    0  0.00000000000E+00 -0.00000000000E+00 -0.66520119459E+02  0.66685952740E+02  0.47000000000E+01 0. -1.
         25    2    1    2    0    0 -0.25226170019E+02 -0.70647773741E+02  0.15199827682E+03  0.21061117740E+03  0.12500449712E+03 0.  0.
         25    2    1    2    0    0  0.25226170019E+02  0.70647773741E+02  0.10507599768E+03  0.17970329974E+03  0.12499937224E+03 0.  0.
          5    1    3    3  502    0  0.14286163284E+02 -0.32370632187E+02 -0.11929871139E+02  0.37634613256E+02  0.47000000000E+01 0.  1.
         -5    1    3    3    0  502 -0.39512333303E+02 -0.38277141555E+02  0.16392814796E+03  0.17297656414E+03  0.47000000000E+01 0.  1.
          5    1    4    4  503    0 -0.46564594566E+02  0.38511998430E+02  0.72349135899E+02  0.94381793559E+02  0.47000000000E+01 0. -1.
         -5    1    4    4    0  503  0.71790764585E+02  0.32135775311E+02  0.32726861781E+02  0.85321506179E+02  0.47000000000E+01 0. -1.
<mgrwt>
<rscale>  0 0.14578502E+03</rscale>
<asrwt>0</asrwt>
<pdfrwt beam="2">  1        5 0.10249247E-01 0.14578612E+03</pdfrwt>
<pdfrwt beam="1">  1       -5 0.49799134E-01 0.14578612E+03</pdfrwt>
<totfact> 0.21805907E+02</totfact>
</mgrwt>
</event>
<event>
 8    1  0.3573290E-007  0.1725444E+03  0.7546771E-02  0.1175222E+00
          5   -1    0    0  501    0  0.00000000000E+00  0.00000000000E+00  0.15842305253E+03  0.15849275559E+03  0.47000000000E+01 0. -1.
         -5   -1    0    0    0  501 -0.00000000000E+00 -0.00000000000E+00 -0.22779641669E+03  0.22784489780E+03  0.47000000000E+01 0. -1.
         25    2    1    2    0    0 -0.10509915943E+02  0.11846332948E+03 -0.11562855194E+03  0.20770086528E+03  0.12500267457E+03 0.  0.
         25    2    1    2    0    0  0.10509915943E+02 -0.11846332948E+03  0.46255187784E+02  0.17863678811E+03  0.12501016320E+03 0.  0.
          5    1    3    3  502    0 -0.47607586280E+00  0.83542860344E+02 -0.14042271975E+03  0.16346334875E+03  0.47000000000E+01 0.  1.
         -5    1    3    3    0  502 -0.10033840080E+02  0.34920469139E+02  0.24794167809E+02  0.44237516533E+02  0.47000000000E+01 0.  1.
          5    1    4    4  503    0  0.45476452513E+02 -0.11343254009E+03  0.64860956705E+02  0.13843439815E+03  0.47000000000E+01 0. -1.
         -5    1    4    4    0  503 -0.34966536570E+02 -0.50307893885E+01 -0.18605768921E+02  0.40202389962E+02  0.47000000000E+01 0. -1.
<mgrwt>
<rscale>  0 0.17254301E+03</rscale>
<asrwt>0</asrwt>
<pdfrwt beam="1">  1        5 0.24381868E-01 0.17254437E+03</pdfrwt>
<pdfrwt beam="2">  1       -5 0.35054694E-01 0.17254437E+03</pdfrwt>
<totfact> 0.97390070E+01</totfact>
</mgrwt>
</event>
<event>
 8    1  0.3573290E-007  0.1352543E+03  0.7546771E-02  0.1219861E+00
         -5   -1    0    0    0  501 -0.00000000000E+00  0.00000000000E+00  0.47272303149E+03  0.47274639555E+03  0.47000000000E+01 0. -1.
          5   -1    0    0  501    0  0.00000000000E+00 -0.00000000000E+00 -0.57947933169E+02  0.58138222871E+02  0.47000000000E+01 0. -1.
         25    2    1    2    0    0  0.24230538209E+01 -0.51606023453E+02  0.36069394408E+03  0.38521895211E+03  0.12499786768E+03 0.  0.
         25    2    1    2    0    0 -0.24230538209E+01  0.51606023453E+02  0.54081154242E+02  0.14566566631E+03  0.12499864899E+03 0.  0.
          5    1    3    3  502    0  0.45013084506E+00  0.84334486050E+01 -0.74332673168E+01  0.12192995373E+02  0.47000000000E+01 0.  1.
         -5    1    3    3    0  502  0.19729229758E+01 -0.60039472058E+02  0.36812721140E+03  0.37302595674E+03  0.47000000000E+01 0.  1.
          5    1    4    4  503    0  0.40368524393E+02 -0.18005756236E+02 -0.49864675868E+01  0.44730078004E+02  0.47000000000E+01 0.  1.
         -5    1    4    4    0  503 -0.42791578214E+02  0.69611779688E+02  0.59067621829E+02  0.10093558830E+03  0.47000000000E+01 0.  1.
<mgrwt>
<rscale>  0 0.13525408E+03</rscale>
<asrwt>0</asrwt>
<pdfrwt beam="2">  1        5 0.89315012E-02 0.13525426E+03</pdfrwt>
<pdfrwt beam="1">  1       -5 0.72743058E-01 0.13525426E+03</pdfrwt>
<totfact> 0.11780248E+02</totfact>
</mgrwt>
</event>
<event>
 8    1  0.3573290E-007  0.1257616E+03  0.7546771E-02  0.1233891E+00
         -5   -1    0    0    0  501 -0.00000000000E+00  0.00000000000E+00  0.51249556056E+03  0.51251711151E+03  0.47000000000E+01 0. -1.
          5   -1    0    0  501    0  0.00000000000E+00 -0.00000000000E+00 -0.39705244077E+02  0.39982451241E+02  0.47000000000E+01 0. -1.
         25    2    1    2    0    0  0.13691937744E+02 -0.47476003488E+00  0.36774110272E+03  0.38865087312E+03  0.12501315128E+03 0.  0.
         25    2    1    2    0    0 -0.13691937744E+02  0.47476003488E+00  0.10504921376E+03  0.16384868963E+03  0.12499344473E+03 0.  0.
          5    1    4    4  502    0 -0.66464623709E+02  0.16987659968E+02  0.45518563871E+02  0.82463061142E+02  0.47000000000E+01 0.  1.
         -5    1    4    4    0  502  0.52772685964E+02 -0.16512899933E+02  0.59530649891E+02  0.81385628489E+02  0.47000000000E+01 0.  1.
          5    1    3    3  503    0  0.39630265255E+02  0.28585743537E+02  0.56081862822E+02  0.74531657672E+02  0.47000000000E+01 0.  1.
         -5    1    3    3    0  503 -0.25938327511E+02 -0.29060503571E+02  0.31165923990E+03  0.31411921545E+03  0.47000000000E+01 0.  1.
<mgrwt>
<rscale>  0 0.12575671E+03</rscale>
<asrwt>0</asrwt>
<pdfrwt beam="2">  1        5 0.61314805E-02 0.12576161E+03</pdfrwt>
<pdfrwt beam="1">  1       -5 0.78868451E-01 0.12576161E+03</pdfrwt>
<totfact> 0.18129202E+02</totfact>
</mgrwt>
</event>
<event>
 8    1  0.3573290E-007  0.1372135E+03  0.7546771E-02  0.1217129E+00
         -5   -1    0    0    0  501 -0.00000000000E+00  0.00000000000E+00  0.78709006004E+02  0.78849208151E+02  0.47000000000E+01 0.  1.
          5   -1    0    0  501    0  0.00000000000E+00 -0.00000000000E+00 -0.23905683166E+03  0.23910302960E+03  0.47000000000E+01 0.  1.
         25    2    1    2    0    0 -0.54104757826E+02 -0.16622920036E+02 -0.85109065642E+02  0.16146448213E+03  0.12499431845E+03 0.  0.
         25    2    1    2    0    0  0.54104757826E+02  0.16622920036E+02 -0.75238760016E+02  0.15648775562E+03  0.12499560137E+03 0.  0.
          5    1    4    4  502    0  0.57933557708E+02  0.20054850736E+01 -0.10655888069E+03  0.12139688683E+03  0.47000000000E+01 0. -1.
         -5    1    4    4    0  502 -0.38287998821E+01  0.14617434962E+02  0.31320120673E+02  0.35090868790E+02  0.47000000000E+01 0. -1.
          5    1    3    3  503    0 -0.53783474831E+02 -0.67125088666E+02 -0.47957203451E+02  0.98592205859E+02  0.47000000000E+01 0.  1.
         -5    1    3    3    0  503 -0.32128299459E+00  0.50502168630E+02 -0.37151862190E+02  0.62872276269E+02  0.47000000000E+01 0.  1.
<mgrwt>
<rscale>  0 0.13721322E+03</rscale>
<asrwt>0</asrwt>
<pdfrwt beam="2">  1        5 0.36792312E-01 0.13721351E+03</pdfrwt>
<pdfrwt beam="1">  1       -5 0.12123416E-01 0.13721351E+03</pdfrwt>
<totfact> 0.29725305E+02</totfact>
</mgrwt>
</event>
<event>
 8    1  0.3573290E-007  0.1394109E+03  0.7546771E-02  0.1214125E+00
          5   -1    0    0  501    0  0.00000000000E+00  0.00000000000E+00  0.32434183743E+03  0.32437588922E+03  0.47000000000E+01 0.  1.
         -5   -1    0    0    0  501 -0.00000000000E+00 -0.00000000000E+00 -0.60114474374E+02  0.60297927239E+02  0.47000000000E+01 0.  1.
         25    2    1    2    0    0  0.60628801364E+02  0.11524604243E+02  0.11803003226E+03  0.18266132123E+03  0.12500160679E+03 0.  0.
         25    2    1    2    0    0 -0.60628801364E+02 -0.11524604243E+02  0.14619733080E+03  0.20201249523E+03  0.12500688237E+03 0.  0.
          5    1    4    4  502    0  0.35943965125E+02 -0.31691903076E+01  0.16316071517E+02  0.39878773625E+02  0.47000000000E+01 0.  1.
         -5    1    4    4    0  502 -0.96572766489E+02 -0.83554139350E+01  0.12988125928E+03  0.16213372160E+03  0.47000000000E+01 0.  1.
          5    1    3    3  503    0  0.58959693267E+02 -0.32863902233E+01  0.14210552944E+03  0.15395816733E+03  0.47000000000E+01 0. -1.
         -5    1    3    3    0  503  0.16691080964E+01  0.14810994466E+02 -0.24075497183E+02  0.28703153895E+02  0.47000000000E+01 0. -1.
<mgrwt>
<rscale>  0 0.13940968E+03</rscale>
<asrwt>0</asrwt>
<pdfrwt beam="1">  1        5 0.49915475E-01 0.13941086E+03</pdfrwt>
<pdfrwt beam="2">  1       -5 0.92651119E-02 0.13941086E+03</pdfrwt>
<totfact> 0.25487187E+02</totfact>
</mgrwt>
</event>
<event>
 8    1  0.3573290E-007  0.1255068E+03  0.7546771E-02  0.1234286E+00
         -5   -1    0    0    0  501 -0.00000000000E+00  0.00000000000E+00  0.26859007157E+03  0.26863119057E+03  0.47000000000E+01 0. -1.
          5   -1    0    0  501    0  0.00000000000E+00 -0.00000000000E+00 -0.61295546398E+02  0.61475474851E+02  0.47000000000E+01 0. -1.
         25    2    1    2    0    0  0.42837740925E+01  0.10351476785E+02  0.13884264426E+03  0.18716097771E+03  0.12500579155E+03 0.  0.
         25    2    1    2    0    0 -0.42837740925E+01 -0.10351476785E+02  0.68451880915E+02  0.14294568771E+03  0.12498922290E+03 0.  0.
          5    1    4    4  502    0 -0.27724871027E+01 -0.18024510734E+02 -0.34652029117E+02  0.39438848790E+02  0.47000000000E+01 0. -1.
         -5    1    4    4    0  502 -0.15112869898E+01  0.76730339493E+01  0.10310391003E+03  0.10350683892E+03  0.47000000000E+01 0. -1.
          5    1    3    3  503    0 -0.49707661819E+02 -0.10141761387E+02  0.19604272620E+02  0.54590516323E+02  0.47000000000E+01 0.  1.
         -5    1    3    3    0  503  0.53991435911E+02  0.20493238172E+02  0.11923837164E+03  0.13257046139E+03  0.47000000000E+01 0.  1.
<mgrwt>
<rscale>  0 0.12550265E+03</rscale>
<asrwt>0</asrwt>
<pdfrwt beam="2">  1        5 0.94470876E-02 0.12550678E+03</pdfrwt>
<pdfrwt beam="1">  1       -5 0.41338553E-01 0.12550678E+03</pdfrwt>
<totfact> 0.35177083E+02</totfact>
</mgrwt>
</event>
<event>
 8    1  0.3573290E-007  0.1409975E+03  0.7546771E-02  0.1211994E+00
         -5   -1    0    0    0  501 -0.00000000000E+00  0.00000000000E+00  0.84976571976E+02  0.85106449725E+02  0.47000000000E+01 0. -1.
          5   -1    0    0  501    0  0.00000000000E+00 -0.00000000000E+00 -0.23402650422E+03  0.23407369497E+03  0.47000000000E+01 0. -1.
         25    2    1    2    0    0  0.47377769767E+02 -0.44841838244E+02 -0.81239660317E+02  0.16272731965E+03  0.12499941851E+03 0.  0.
         25    2    1    2    0    0 -0.47377769767E+02  0.44841838244E+02 -0.67810271925E+02  0.15645282504E+03  0.12499523975E+03 0.  0.
          5    1    3    3  502    0  0.73971373390E+02 -0.28670805862E+02 -0.42895887149E+01  0.79588125756E+02  0.47000000000E+01 0.  1.
         -5    1    3    3    0  502 -0.26593603623E+02 -0.16171032381E+02 -0.76950071602E+02  0.83139193895E+02  0.47000000000E+01 0.  1.
          5    1    4    4  503    0 -0.86129856166E+02  0.46782466131E+02 -0.31380060621E+02  0.10302305308E+03  0.47000000000E+01 0. -1.
         -5    1    4    4    0  503  0.38752086399E+02 -0.19406278872E+01 -0.36430211305E+02  0.53429771968E+02  0.47000000000E+01 0. -1.
<mgrwt>
<rscale>  0 0.14099658E+03</rscale>
<asrwt>0</asrwt>
<pdfrwt beam="2">  1        5 0.36017698E-01 0.14099751E+03</pdfrwt>
<pdfrwt beam="1">  1       -5 0.13086940E-01 0.14099751E+03</pdfrwt>
<totfact> 0.27330570E+02</totfact>
</mgrwt>
</event>
<event>
 8    1  0.3573290E-007  0.1288272E+03  0.7546771E-02  0.1229207E+00
         -5   -1    0    0    0  501 -0.00000000000E+00  0.00000000000E+00  0.18149186962E+04  0.18149247819E+04  0.47000000000E+01 0.  1.
          5   -1    0    0  501    0  0.00000000000E+00 -0.00000000000E+00 -0.92831565573E+01  0.10405142751E+02  0.47000000000E+01 0.  1.
         25    2    1    2    0    0  0.27884624519E+02  0.13902101571E+02  0.11471252539E+04  0.11543365216E+04  0.12500254491E+03 0.  0.
         25    2    1    2    0    0 -0.27884624519E+02 -0.13902101571E+02  0.65851028577E+03  0.67099340305E+03  0.12500211901E+03 0.  0.
          5    1    4    4  502    0  0.40372656834E+02  0.13645924429E+02  0.11946905677E+03  0.12692954030E+03  0.47000000000E+01 0.  1.
         -5    1    4    4    0  502 -0.68257281353E+02 -0.27548026000E+02  0.53904122900E+03  0.54406386275E+03  0.47000000000E+01 0.  1.
          5    1    3    3  503    0  0.75777535358E+02 -0.26006868740E+01  0.58455299522E+03  0.58946865282E+03  0.47000000000E+01 0. -1.
         -5    1    3    3    0  503 -0.47892910838E+02  0.16502788445E+02  0.56257225866E+03  0.56486786875E+03  0.47000000000E+01 0. -1.
<mgrwt>
<rscale>  0 0.12882713E+03</rscale>
<asrwt>0</asrwt>
<pdfrwt beam="2">  1        5 0.15149536E-02 0.12882724E+03</pdfrwt>
<pdfrwt beam="1">  1       -5 0.27930488E+00 0.12882724E+03</pdfrwt>
<totfact> 0.47797919E+01</totfact>
</mgrwt>
</event>
<event>
 8    1  0.3573290E-007  0.1418230E+03  0.7546771E-02  0.1210902E+00
         -5   -1    0    0    0  501 -0.00000000000E+00  0.00000000000E+00  0.12425278261E+03  0.12434164220E+03  0.47000000000E+01 0.  1.
          5   -1    0    0  501    0  0.00000000000E+00 -0.00000000000E+00 -0.19891086365E+03  0.19896638328E+03  0.47000000000E+01 0.  1.
         25    2    1    2    0    0 -0.53290033703E+02 -0.40553026575E+02  0.32580696592E+02  0.14551719340E+03  0.12501750329E+03 0.  0.
         25    2    1    2    0    0  0.53290033703E+02  0.40553026575E+02 -0.10723877763E+03  0.17779083209E+03  0.12500019556E+03 0.  0.
          5    1    3    3  502    0 -0.70091134323E+02 -0.69613302397E+02  0.57600220124E+00  0.98899953285E+02  0.47000000000E+01 0. -1.
         -5    1    3    3    0  502  0.16801100619E+02  0.29060275822E+02  0.32004694391E+02  0.46617240115E+02  0.47000000000E+01 0. -1.
          5    1    4    4  503    0  0.56526789040E+02  0.81176816732E+02 -0.88002311417E+02  0.13248188657E+03  0.47000000000E+01 0. -1.
         -5    1    4    4    0  503 -0.32367553363E+01 -0.40623790157E+02 -0.19236466214E+02  0.45308945521E+02  0.47000000000E+01 0. -1.
<mgrwt>
<rscale>  0 0.14181914E+03</rscale>
<asrwt>0</asrwt>
<pdfrwt beam="2">  1        5 0.30612777E-01 0.14182296E+03</pdfrwt>
<pdfrwt beam="1">  1       -5 0.19126919E-01 0.14182296E+03</pdfrwt>
<totfact> 0.18963128E+02</totfact>
</mgrwt>
</event>
<event>
 8    1  0.3573290E-007  0.1281142E+03  0.7546771E-02  0.1230283E+00
          5   -1    0    0  501    0  0.00000000000E+00  0.00000000000E+00  0.46332551815E+03  0.46334935607E+03  0.47000000000E+01 0. -1.
         -5   -1    0    0    0  501 -0.00000000000E+00 -0.00000000000E+00 -0.35632996128E+02  0.35941625076E+02  0.47000000000E+01 0. -1.
         25    2    1    2    0    0  0.26990749208E+02  0.76794443439E+01  0.18784903066E+03  0.22737743574E+03  0.12500306219E+03 0.  0.
         25    2    1    2    0    0 -0.26990749208E+02 -0.76794443439E+01  0.23984349137E+03  0.27191354541E+03  0.12499840566E+03 0.  0.
          5    1    4    4  502    0 -0.66464105714E+02  0.29001543379E+02  0.11764112030E+03  0.13827541377E+03  0.47000000000E+01 0.  1.
         -5    1    4    4    0  502  0.39473356506E+02 -0.36680987723E+02  0.12220237106E+03  0.13363813164E+03  0.47000000000E+01 0.  1.
          5    1    3    3  503    0 -0.31856684312E+02  0.36534642105E+02  0.13349526091E+03  0.14210103129E+03  0.47000000000E+01 0.  1.
         -5    1    3    3    0  503  0.58847433520E+02 -0.28855197761E+02  0.54353769750E+02  0.85276404449E+02  0.47000000000E+01 0.  1.
<mgrwt>
<rscale>  0 0.12811303E+03</rscale>
<asrwt>0</asrwt>
<pdfrwt beam="1">  1        5 0.71306420E-01 0.12811417E+03</pdfrwt>
<pdfrwt beam="2">  1       -5 0.55075740E-02 0.12811417E+03</pdfrwt>
<totfact> 0.27483688E+02</totfact>
</mgrwt>
</event>
<event>
 8    1  0.3573290E-007  0.1890673E+03  0.7546771E-02  0.1159306E+00
          5   -1    0    0  501    0  0.00000000000E+00  0.00000000000E+00  0.64010869627E+02  0.64183186508E+02  0.47000000000E+01 0.  1.
         -5   -1    0    0    0  501 -0.00000000000E+00 -0.00000000000E+00 -0.71995203244E+03  0.71996737357E+03  0.47000000000E+01 0.  1.
         25    2    1    2    0    0  0.69424460100E+02  0.12369906159E+03 -0.51419135577E+03  0.54784961173E+03  0.12500093291E+03 0.  0.
         25    2    1    2    0    0 -0.69424460100E+02 -0.12369906159E+03 -0.14174980705E+03  0.23630094835E+03  0.12499566751E+03 0.  0.
          5    1    4    4  502    0  0.24052109512E+02 -0.53782677373E+02 -0.91943313223E+02  0.10930115829E+03  0.47000000000E+01 0. -1.
         -5    1    4    4    0  502 -0.93476569612E+02 -0.69916384221E+02 -0.49806493823E+02  0.12699979006E+03  0.47000000000E+01 0. -1.
          5    1    3    3  503    0  0.10325751042E+03  0.11026279945E+03 -0.38690080842E+03  0.41537251229E+03  0.47000000000E+01 0.  1.
         -5    1    3    3    0  503 -0.33833050324E+02  0.13436262140E+02 -0.12729054734E+03  0.13247709944E+03  0.47000000000E+01 0.  1.
<mgrwt>
<rscale>  0 0.18906644E+03</rscale>
<asrwt>0</asrwt>
<pdfrwt beam="1">  1        5 0.98622618E-02 0.18906731E+03</pdfrwt>
<pdfrwt beam="2">  1       -5 0.11077628E+00 0.18906731E+03</pdfrwt>
<totfact> 0.40149101E+01</totfact>
</mgrwt>
</event>
<event>
 8    1  0.3573290E-007  0.1282546E+03  0.7546771E-02  0.1230087E+00
          5   -1    0    0  501    0  0.00000000000E+00  0.00000000000E+00  0.13726984093E+04  0.13727064555E+04  0.47000000000E+01 0. -1.
         -5   -1    0    0    0  501 -0.00000000000E+00 -0.00000000000E+00 -0.12167974932E+02  0.13044140982E+02  0.47000000000E+01 0. -1.
         25    2    1    2    0    0  0.17003894275E+02 -0.22873111632E+02  0.52460722150E+03  0.54004564156E+03  0.12499698581E+03 0.  0.
         25    2    1    2    0    0 -0.17003894275E+02  0.22873111632E+02  0.83592321290E+03  0.84570495493E+03  0.12504775595E+03 0.  0.
          5    1    3    3  502    0  0.46674460136E+02 -0.11956693556E+01  0.47898062011E+03  0.48127378829E+03  0.47000000000E+01 0.  1.
         -5    1    3    3    0  502 -0.29670565861E+02 -0.21677442276E+02  0.45626601387E+02  0.58771853266E+02  0.47000000000E+01 0.  1.
          5    1    4    4  503    0  0.30399590293E+02  0.51361262647E+02  0.61534746768E+03  0.61825295015E+03  0.47000000000E+01 0. -1.
         -5    1    4    4    0  503 -0.47403484567E+02 -0.28488151015E+02  0.22057574522E+03  0.22745200478E+03  0.47000000000E+01 0. -1.
<mgrwt>
<rscale>  0 0.12824226E+03</rscale>
<asrwt>0</asrwt>
<pdfrwt beam="1">  1        5 0.21125248E+00 0.12825464E+03</pdfrwt>
<pdfrwt beam="2">  1       -5 0.19400117E-02 0.12825464E+03</pdfrwt>
<totfact> 0.87678974E+01</totfact>
</mgrwt>
</event>
<event>
 8    1  0.3573290E-007  0.1344419E+03  0.7546771E-02  0.1221010E+00
         -5   -1    0    0    0  501 -0.00000000000E+00  0.00000000000E+00  0.39484043555E+02  0.39762792853E+02  0.47000000000E+01 0.  1.
          5   -1    0    0  501    0  0.00000000000E+00 -0.00000000000E+00 -0.45816601286E+03  0.45819011921E+03  0.47000000000E+01 0.  1.
         25    2    1    2    0    0  0.15412648625E+02 -0.47025981127E+02 -0.19171402160E+03  0.23415552148E+03  0.12500219808E+03 0.  0.
         25    2    1    2    0    0 -0.15412648625E+02  0.47025981127E+02 -0.22696794771E+03  0.26379739058E+03  0.12500248538E+03 0.  0.
          5    1    4    4  502    0 -0.10421844504E+01 -0.40338956687E+02 -0.40708580502E+02  0.57511704039E+02  0.47000000000E+01 0. -1.
         -5    1    4    4    0  502 -0.14370464175E+02  0.87364937814E+02 -0.18625936721E+03  0.20628568654E+03  0.47000000000E+01 0. -1.
          5    1    3    3  503    0 -0.15591559455E+02 -0.73881794555E+02 -0.17301266064E+03  0.18883084238E+03  0.47000000000E+01 0. -1.
         -5    1    3    3    0  503  0.31004208080E+02  0.26855813428E+02 -0.18701360954E+02  0.45324679096E+02  0.47000000000E+01 0. -1.
<mgrwt>
<rscale>  0 0.13444179E+03</rscale>
<asrwt>0</asrwt>
<pdfrwt beam="2">  1        5 0.70510372E-01 0.13444186E+03</pdfrwt>
<pdfrwt beam="1">  1       -5 0.60977651E-02 0.13444186E+03</pdfrwt>
<totfact> 0.24177285E+02</totfact>
</mgrwt>
</event>
<event>
 8    1  0.3573290E-007  0.1572076E+03  0.7546771E-02  0.1191886E+00
          5   -1    0    0  501    0  0.00000000000E+00  0.00000000000E+00  0.21162316936E+03  0.21167535475E+03  0.47000000000E+01 0. -1.
         -5   -1    0    0    0  501 -0.00000000000E+00 -0.00000000000E+00 -0.12527031094E+03  0.12535844927E+03  0.47000000000E+01 0. -1.
         25    2    1    2    0    0 -0.23279790167E+02 -0.92454163531E+02 -0.95324874658E+00  0.15721050611E+03  0.12499805425E+03 0.  0.
         25    2    1    2    0    0  0.23279790167E+02  0.92454163531E+02  0.87306107165E+02  0.17982329790E+03  0.12499736451E+03 0.  0.
          5    1    3    3  502    0 -0.25349324020E+01  0.21824246179E+02  0.29466266591E+02  0.37055019503E+02  0.47000000000E+01 0. -1.
         -5    1    3    3    0  502 -0.20744857765E+02 -0.11427840971E+03 -0.30419515337E+02  0.12015548661E+03  0.47000000000E+01 0. -1.
          5    1    4    4  503    0 -0.46436697125E+02  0.57485539976E+02  0.65093252458E+02  0.98590951217E+02  0.47000000000E+01 0. -1.
         -5    1    4    4    0  503  0.69716487293E+02  0.34968623554E+02  0.22212854707E+02  0.81232346685E+02  0.47000000000E+01 0. -1.
<mgrwt>
<rscale>  0 0.15720748E+03</rscale>
<asrwt>0</asrwt>
<pdfrwt beam="1">  1        5 0.32568205E-01 0.15720762E+03</pdfrwt>
<pdfrwt beam="2">  1       -5 0.19283150E-01 0.15720762E+03</pdfrwt>
<totfact> 0.17091893E+02</totfact>
</mgrwt>
</event>
<event>
 8    1  0.3573290E-007  0.3042507E+03  0.7546771E-02  0.1083135E+00
          5   -1    0    0  501    0  0.00000000000E+00  0.00000000000E+00  0.83768594856E+02  0.83900342575E+02  0.47000000000E+01 0.  1.
         -5   -1    0    0    0  501 -0.00000000000E+00 -0.00000000000E+00 -0.11359530102E+04  0.11359627333E+04  0.47000000000E+01 0.  1.
         25    2    1    2    0    0  0.15238767348E+03  0.23177687008E+03 -0.62833544643E+03  0.69812172428E+03  0.12500395247E+03 0.  0.
         25    2    1    2    0    0 -0.15238767348E+03 -0.23177687008E+03 -0.42384896892E+03  0.52174135158E+03  0.12499427570E+03 0.  0.
          5    1    3    3  502    0  0.16357309774E+03  0.18054559003E+03 -0.44463746818E+03  0.50702804310E+03  0.47000000000E+01 0. -1.
         -5    1    3    3    0  502 -0.11185424255E+02  0.51231280051E+02 -0.18369797825E+03  0.19109368117E+03  0.47000000000E+01 0. -1.
          5    1    4    4  503    0 -0.39935203397E+02 -0.17231243595E+03 -0.24430845186E+03  0.30165395026E+03  0.47000000000E+01 0. -1.
         -5    1    4    4    0  503 -0.11245247009E+03 -0.59464434125E+02 -0.17954051706E+03  0.22008740132E+03  0.47000000000E+01 0. -1.
<mgrwt>
<rscale>  0 0.30424974E+03</rscale>
<asrwt>0</asrwt>
<pdfrwt beam="1">  1        5 0.12898359E-01 0.30425073E+03</pdfrwt>
<pdfrwt beam="2">  1       -5 0.17477287E+00 0.30425073E+03</pdfrwt>
<totfact> 0.79992773E+00</totfact>
</mgrwt>
</event>
<event>
 8    1  0.3573290E-007  0.1306119E+03  0.7546771E-02  0.1226552E+00
         -5   -1    0    0    0  501 -0.00000000000E+00  0.00000000000E+00  0.16872022535E+03  0.16878567606E+03  0.47000000000E+01 0.  1.
          5   -1    0    0  501    0  0.00000000000E+00 -0.00000000000E+00 -0.14795713174E+03  0.14803176292E+03  0.47000000000E+01 0.  1.
         25    2    1    2    0    0  0.12115148694E+02  0.35881723688E+02  0.99604381921E+02  0.16425461095E+03  0.12499707755E+03 0.  0.
         25    2    1    2    0    0 -0.12115148694E+02 -0.35881723688E+02 -0.78841288315E+02  0.15256282803E+03  0.12500077132E+03 0.  0.
          5    1    3    3  502    0  0.46535221400E+02  0.45926147575E+02  0.83297524901E+01  0.66077323178E+02  0.47000000000E+01 0.  1.
         -5    1    3    3    0  502 -0.34420072705E+02 -0.10044423886E+02  0.91274629431E+02  0.98177287771E+02  0.47000000000E+01 0.  1.
          5    1    4    4  503    0  0.49587620987E+01  0.46131911613E+02 -0.30622919328E+02  0.55790642394E+02  0.47000000000E+01 0.  1.
         -5    1    4    4    0  503 -0.17073910793E+02 -0.82013635301E+02 -0.48218368987E+02  0.96772185637E+02  0.47000000000E+01 0.  1.
<mgrwt>
<rscale>  0 0.13061101E+03</rscale>
<asrwt>0</asrwt>
<pdfrwt beam="2">  1        5 0.22773411E-01 0.13061190E+03</pdfrwt>
<pdfrwt beam="1">  1       -5 0.25967733E-01 0.13061190E+03</pdfrwt>
<totfact> 0.18314335E+02</totfact>
</mgrwt>
</event>
<event>
 8    1  0.3573290E-007  0.1554026E+03  0.7546771E-02  0.1193988E+00
          5   -1    0    0  501    0  0.00000000000E+00  0.00000000000E+00  0.39224954668E+03  0.39227770376E+03  0.47000000000E+01 0.  1.
         -5   -1    0    0    0  501 -0.00000000000E+00 -0.00000000000E+00 -0.77395077192E+02  0.77537655198E+02  0.47000000000E+01 0.  1.
         25    2    1    2    0    0  0.76348761224E+02  0.51922496436E+02  0.50924758028E+02  0.16353379807E+03  0.12499957262E+03 0.  0.
         25    2    1    2    0    0 -0.76348761224E+02 -0.51922496436E+02  0.26392971146E+03  0.30628156089E+03  0.12499769187E+03 0.  0.
          5    1    3    3  502    0  0.64232268788E+02  0.45475431471E+02 -0.27712483303E+02  0.83569557567E+02  0.47000000000E+01 0. -1.
         -5    1    3    3    0  502  0.12116492437E+02  0.64470649656E+01  0.78637241331E+02  0.79964240506E+02  0.47000000000E+01 0. -1.
          5    1    4    4  503    0  0.31127261587E+02 -0.20000015552E+02  0.34167619708E+02  0.50580858756E+02  0.47000000000E+01 0.  1.
         -5    1    4    4    0  503 -0.10747602281E+03 -0.31922480885E+02  0.22976209175E+03  0.25570070213E+03  0.47000000000E+01 0.  1.
<mgrwt>
<rscale>  0 0.15540223E+03</rscale>
<asrwt>0</asrwt>
<pdfrwt beam="1">  1        5 0.60359219E-01 0.15540261E+03</pdfrwt>
<pdfrwt beam="2">  1       -5 0.11920068E-01 0.15540261E+03</pdfrwt>
<totfact> 0.11265932E+02</totfact>
</mgrwt>
</event>
<event>
 8    1  0.3573290E-007  0.1261563E+03  0.7546771E-02  0.1233282E+00
         -5   -1    0    0    0  501 -0.00000000000E+00  0.00000000000E+00  0.70457634217E+03  0.70459201808E+03  0.47000000000E+01 0. -1.
          5   -1    0    0  501    0  0.00000000000E+00 -0.00000000000E+00 -0.28424531353E+02  0.28810483902E+02  0.47000000000E+01 0. -1.
         25    2    1    2    0    0  0.13679256639E+02 -0.10065762790E+02  0.50659784761E+03  0.52206401139E+03  0.12498404358E+03 0.  0.
         25    2    1    2    0    0 -0.13679256639E+02  0.10065762790E+02  0.16955396321E+03  0.21133849059E+03  0.12500787784E+03 0.  0.
          5    1    3    3  502    0  0.21180662363E+02  0.55477510001E+02  0.21876113698E+03  0.22672648638E+03  0.47000000000E+01 0. -1.
         -5    1    3    3    0  502 -0.75014057237E+01 -0.65543272790E+02  0.28783671063E+03  0.29533752501E+03  0.47000000000E+01 0. -1.
          5    1    4    4  503    0 -0.32700759311E+02  0.61864518017E+02  0.84061711071E+02  0.10947611391E+03  0.47000000000E+01 0. -1.
         -5    1    4    4    0  503  0.19021502672E+02 -0.51798755227E+02  0.85492252137E+02  0.10186237668E+03  0.47000000000E+01 0. -1.
<mgrwt>
<rscale>  0 0.12615039E+03</rscale>
<asrwt>0</asrwt>
<pdfrwt beam="2">  1        5 0.44038997E-02 0.12615630E+03</pdfrwt>
<pdfrwt beam="1">  1       -5 0.10842725E+00 0.12615630E+03</pdfrwt>
<totfact> 0.14725093E+02</totfact>
</mgrwt>
</event>
<event>
 8    1  0.3573290E-007  0.1459152E+03  0.7546771E-02  0.1205586E+00
          5   -1    0    0  501    0  0.00000000000E+00  0.00000000000E+00  0.46395257195E+02  0.46632712662E+02  0.47000000000E+01 0.  1.
         -5   -1    0    0    0  501 -0.00000000000E+00 -0.00000000000E+00 -0.50483874899E+03  0.50486062679E+03  0.47000000000E+01 0.  1.
         25    2    1    2    0    0 -0.18660457673E+02  0.72928521361E+02 -0.31365791675E+03  0.34593527456E+03  0.12499257392E+03 0.  0.
         25    2    1    2    0    0  0.18660457673E+02 -0.72928521361E+02 -0.14478557504E+03  0.20555806489E+03  0.12499789356E+03 0.  0.
          5    1    4    4  502    0  0.19368067798E+02 -0.96049455263E+02 -0.15197394698E+03  0.18088336150E+03  0.47000000000E+01 0. -1.
         -5    1    4    4    0  502 -0.70761012467E+00  0.23120933902E+02  0.71883719341E+01  0.24674703396E+02  0.47000000000E+01 0. -1.
          5    1    3    3  503    0 -0.65035368075E+02  0.74783920433E+02 -0.21721982385E+03  0.23880698425E+03  0.47000000000E+01 0. -1.
         -5    1    3    3    0  503  0.46374910402E+02 -0.18553990724E+01 -0.96438092904E+02  0.10712829030E+03  0.47000000000E+01 0. -1.
<mgrwt>
<rscale>  0 0.14591409E+03</rscale>
<asrwt>0</asrwt>
<pdfrwt beam="1">  1        5 0.71576809E-02 0.14591523E+03</pdfrwt>
<pdfrwt beam="2">  1       -5 0.77687445E-01 0.14591523E+03</pdfrwt>
<totfact> 0.15187033E+02</totfact>
</mgrwt>
</event>
<event>
 8    1  0.3573290E-007  0.1262098E+03  0.7546771E-02  0.1233193E+00
          5   -1    0    0  501    0  0.00000000000E+00  0.00000000000E+00  0.63458244255E+03  0.63459984746E+03  0.47000000000E+01 0.  1.
         -5   -1    0    0    0  501 -0.00000000000E+00 -0.00000000000E+00 -0.25471615321E+02  0.25901605878E+02  0.47000000000E+01 0.  1.
         25    2    1    2    0    0 -0.17370901223E+02 -0.60110726607E+00  0.25393768563E+03  0.28357232306E+03  0.12500721851E+03 0.  0.
         25    2    1    2    0    0  0.17370901223E+02  0.60110726607E+00  0.35517314160E+03  0.37692913028E+03  0.12500199680E+03 0.  0.
          5    1    4    4  502    0 -0.41566239740E+02  0.37168353901E+02  0.13852255589E+03  0.14939821722E+03  0.47000000000E+01 0. -1.
         -5    1    4    4    0  502  0.58937140963E+02 -0.36567246635E+02  0.21665058571E+03  0.22753091306E+03  0.47000000000E+01 0. -1.
          5    1    3    3  503    0 -0.15391524171E+02  0.24656329049E+02  0.11408292193E+01  0.29465659161E+02  0.47000000000E+01 0.  1.
         -5    1    3    3    0  503 -0.19793770517E+01 -0.25257436315E+02  0.25279685641E+03  0.25410666389E+03  0.47000000000E+01 0.  1.
<mgrwt>
<rscale>  0 0.12620851E+03</rscale>
<asrwt>0</asrwt>
<pdfrwt beam="1">  1        5 0.97662479E-01 0.12620980E+03</pdfrwt>
<pdfrwt beam="2">  1       -5 0.39531253E-02 0.12620980E+03</pdfrwt>
<totfact> 0.22711191E+02</totfact>
</mgrwt>
</event>
<event>
 8    1  0.3573290E-007  0.1339156E+03  0.7546771E-02  0.1221759E+00
          5   -1    0    0  501    0  0.00000000000E+00  0.00000000000E+00  0.58163570918E+02  0.58353157429E+02  0.47000000000E+01 0. -1.
         -5   -1    0    0    0  501 -0.00000000000E+00 -0.00000000000E+00 -0.32888284257E+03  0.32891642424E+03  0.47000000000E+01 0. -1.
         25    2    1    2    0    0 -0.29685715216E+02  0.37771097202E+02 -0.18458102526E+03  0.22804274994E+03  0.12500177376E+03 0.  0.
         25    2    1    2    0    0  0.29685715216E+02 -0.37771097202E+02 -0.86138246390E+02  0.15922683173E+03  0.12500195590E+03 0.  0.
          5    1    3    3  502    0 -0.50930008337E+02  0.42690463835E+02 -0.19301904518E+03  0.20419300491E+03  0.47000000000E+01 0. -1.
         -5    1    3    3    0  502  0.21244293121E+02 -0.49193666332E+01  0.84380199157E+01  0.23849745038E+02  0.47000000000E+01 0. -1.
          5    1    4    4  503    0 -0.46882441391E+02 -0.15366656966E+02 -0.13831266850E+02  0.51453779257E+02  0.47000000000E+01 0.  1.
         -5    1    4    4    0  503  0.76568156607E+02 -0.22404440236E+02 -0.72306979540E+02  0.10777305247E+03  0.47000000000E+01 0.  1.
<mgrwt>
<rscale>  0 0.13391555E+03</rscale>
<asrwt>0</asrwt>
<pdfrwt beam="1">  1        5 0.89654087E-02 0.13391559E+03</pdfrwt>
<pdfrwt beam="2">  1       -5 0.50614526E-01 0.13391559E+03</pdfrwt>
<totfact> 0.25841746E+02</totfact>
</mgrwt>
</event>
<event>
 8    1  0.3573290E-007  0.1733433E+03  0.7546771E-02  0.1174406E+00
          5   -1    0    0  501    0  0.00000000000E+00  0.00000000000E+00  0.30458377620E+03  0.30462003664E+03  0.47000000000E+01 0.  1.
         -5   -1    0    0    0  501 -0.00000000000E+00 -0.00000000000E+00 -0.98949293702E+02  0.99060853641E+02  0.47000000000E+01 0.  1.
         25    2    1    2    0    0 -0.24541801821E+02  0.11754879816E+03  0.11558830322E+03  0.20834721209E+03  0.12501153931E+03 0.  0.
         25    2    1    2    0    0  0.24541801821E+02 -0.11754879816E+03  0.90046179276E+02  0.19533367819E+03  0.12500764556E+03 0.  0.
          5    1    4    4  502    0 -0.15027462062E+02 -0.10462521733E+03  0.11644257131E+02  0.10644218826E+03  0.47000000000E+01 0. -1.
         -5    1    4    4    0  502  0.39569263883E+02 -0.12923580826E+02  0.78401922145E+02  0.88891489928E+02  0.47000000000E+01 0. -1.
          5    1    3    3  503    0 -0.75651167594E+02  0.71217303523E+02  0.74233992828E+02  0.12778019866E+03  0.47000000000E+01 0. -1.
         -5    1    3    3    0  503  0.51109365773E+02  0.46331494634E+02  0.41354310391E+02  0.80567013427E+02  0.47000000000E+01 0. -1.
<mgrwt>
<rscale>  0 0.17334261E+03</rscale>
<asrwt>0</asrwt>
<pdfrwt beam="1">  1        5 0.46870413E-01 0.17334332E+03</pdfrwt>
<pdfrwt beam="2">  1       -5 0.15234339E-01 0.17334332E+03</pdfrwt>
<totfact> 0.12904898E+02</totfact>
</mgrwt>
</event>
<event>
 8    1  0.3573290E-007  0.1305328E+03  0.7546771E-02  0.1226668E+00
          5   -1    0    0  501    0  0.00000000000E+00  0.00000000000E+00  0.35108812884E+02  0.35422009290E+02  0.47000000000E+01 0. -1.
         -5   -1    0    0    0  501 -0.00000000000E+00 -0.00000000000E+00 -0.48512963878E+03  0.48515240536E+03  0.47000000000E+01 0. -1.
         25    2    1    2    0    0 -0.19344066191E+02  0.32242423608E+02 -0.24291803701E+03  0.27576801096E+03  0.12500022554E+03 0.  0.
         25    2    1    2    0    0  0.19344066191E+02 -0.32242423608E+02 -0.20710278889E+03  0.24480640369E+03  0.12499937338E+03 0.  0.
          5    1    4    4  502    0  0.63209639516E+02 -0.25234647245E+02 -0.59272440310E+02  0.90374543592E+02  0.47000000000E+01 0. -1.
         -5    1    4    4    0  502 -0.43865573324E+02 -0.70077763624E+01 -0.14783034858E+03  0.15443186010E+03  0.47000000000E+01 0. -1.
          5    1    3    3  503    0 -0.13660630562E+02 -0.61418567934E+00  0.11904836375E+02  0.18729793926E+02  0.47000000000E+01 0.  1.
         -5    1    3    3    0  503 -0.56834356298E+01  0.32856609287E+02 -0.25482287339E+03  0.25703821703E+03  0.47000000000E+01 0.  1.
<mgrwt>
<rscale>  0 0.13053264E+03</rscale>
<asrwt>0</asrwt>
<pdfrwt beam="1">  1        5 0.54271995E-02 0.13053284E+03</pdfrwt>
<pdfrwt beam="2">  1       -5 0.74661167E-01 0.13053284E+03</pdfrwt>
<totfact> 0.25548208E+02</totfact>
</mgrwt>
</event>
<event>
 8    1  0.3573290E-007  0.1309549E+03  0.7546771E-02  0.1226057E+00
          5   -1    0    0  501    0  0.00000000000E+00  0.00000000000E+00  0.69531406534E+03  0.69532995007E+03  0.47000000000E+01 0.  1.
         -5   -1    0    0    0  501 -0.00000000000E+00 -0.00000000000E+00 -0.25471263462E+02  0.25901259860E+02  0.47000000000E+01 0.  1.
         25    2    1    2    0    0  0.22097919311E+02  0.32063371186E+02  0.26227291551E+03  0.29314888243E+03  0.12503122510E+03 0.  0.
         25    2    1    2    0    0 -0.22097919311E+02 -0.32063371186E+02  0.40756988637E+03  0.42808232750E+03  0.12499955612E+03 0.  0.
          5    1    4    4  502    0 -0.47503216292E+01 -0.20418314957E+02  0.40604428870E+03  0.40661225698E+03  0.47000000000E+01 0.  1.
         -5    1    4    4    0  502 -0.17347597682E+02 -0.11645056229E+02  0.15255976749E+01  0.21470070521E+02  0.47000000000E+01 0.  1.
          5    1    3    3  503    0  0.32079139917E+02  0.60589555441E+02  0.25150414718E+03  0.26072320859E+03  0.47000000000E+01 0. -1.
         -5    1    3    3    0  503 -0.99812206055E+01 -0.28526184255E+02  0.10768768327E+02  0.32425673843E+02  0.47000000000E+01 0. -1.
<mgrwt>
<rscale>  0 0.13094734E+03</rscale>
<asrwt>0</asrwt>
<pdfrwt beam="1">  1        5 0.10700568E+00 0.13095490E+03</pdfrwt>
<pdfrwt beam="2">  1       -5 0.39529550E-02 0.13095490E+03</pdfrwt>
<totfact> 0.18401922E+02</totfact>
</mgrwt>
</event>
<event>
 8    1  0.3573290E-007  0.1716188E+03  0.7546771E-02  0.1176172E+00
          5   -1    0    0  501    0  0.00000000000E+00  0.00000000000E+00  0.14686353909E+04  0.14686429115E+04  0.47000000000E+01 0.  1.
         -5   -1    0    0    0  501 -0.00000000000E+00 -0.00000000000E+00 -0.20307385689E+02  0.20844181767E+02  0.47000000000E+01 0.  1.
         25    2    1    2    0    0  0.31400618390E+02  0.11331367665E+03  0.60470138040E+03  0.62858122856E+03  0.12499845315E+03 0.  0.
         25    2    1    2    0    0 -0.31400618390E+02 -0.11331367665E+03  0.84362662484E+03  0.86090586470E+03  0.12500815009E+03 0.  0.
          5    1    4    4  502    0  0.17047145329E+02 -0.71801302031E+02  0.18577743130E+03  0.19995343487E+03  0.47000000000E+01 0.  1.
         -5    1    4    4    0  502 -0.48447763719E+02 -0.41512374618E+02  0.65784919354E+03  0.66095242983E+03  0.47000000000E+01 0.  1.
          5    1    3    3  503    0  0.42139392344E+02  0.83260662261E+02  0.18137052448E+03  0.20402309530E+03  0.47000000000E+01 0. -1.
         -5    1    3    3    0  503 -0.10738773954E+02  0.30053014388E+02  0.42333085592E+03  0.42455813326E+03  0.47000000000E+01 0. -1.
<mgrwt>
<rscale>  0 0.17161707E+03</rscale>
<asrwt>0</asrwt>
<pdfrwt beam="1">  1        5 0.22598584E+00 0.17161884E+03</pdfrwt>
<pdfrwt beam="2">  1       -5 0.31660828E-02 0.17161884E+03</pdfrwt>
<totfact> 0.34663965E+01</totfact>
</mgrwt>
</event>
<event>
 8    1  0.3573290E-007  0.1372896E+03  0.7546771E-02  0.1217029E+00
          5   -1    0    0  501    0  0.00000000000E+00  0.00000000000E+00  0.55408370157E+02  0.55607350984E+02  0.47000000000E+01 0.  1.
         -5   -1    0    0    0  501 -0.00000000000E+00 -0.00000000000E+00 -0.35364033222E+03  0.35367156314E+03  0.47000000000E+01 0.  1.
         25    2    1    2    0    0  0.44669975483E+02 -0.34968175801E+02 -0.19031521094E+03  0.23466636585E+03  0.12502097311E+03 0.  0.
         25    2    1    2    0    0 -0.44669975483E+02  0.34968175801E+02 -0.10791675112E+03  0.17461254827E+03  0.12500134724E+03 0.  0.
          5    1    3    3  502    0  0.75004982761E+02  0.12676414116E+02 -0.13742739053E+03  0.15714584494E+03  0.47000000000E+01 0. -1.
         -5    1    3    3    0  502 -0.30335007279E+02 -0.47644589916E+02 -0.52887820413E+02  0.77520520915E+02  0.47000000000E+01 0. -1.
          5    1    4    4  503    0  0.13356022319E+02 -0.30554151167E+02  0.23465712008E+01  0.33757012341E+02  0.47000000000E+01 0. -1.
         -5    1    4    4    0  503 -0.58025997802E+02  0.65522326968E+02 -0.11026332232E+03  0.14085553593E+03  0.47000000000E+01 0. -1.
<mgrwt>
<rscale>  0 0.13728509E+03</rscale>
<asrwt>0</asrwt>
<pdfrwt beam="1">  1        5 0.85420735E-02 0.13728956E+03</pdfrwt>
<pdfrwt beam="2">  1       -5 0.54423912E-01 0.13728956E+03</pdfrwt>
<totfact> 0.24261249E+02</totfact>
</mgrwt>
</event>
<event>
 8    1  0.3573290E-007  0.1473202E+03  0.7546771E-02  0.1203807E+00
          5   -1    0    0  501    0  0.00000000000E+00  0.00000000000E+00  0.45818226486E+03  0.45820637035E+03  0.47000000000E+01 0.  1.
         -5   -1    0    0    0  501 -0.00000000000E+00 -0.00000000000E+00 -0.47275292585E+02  0.47508349677E+02  0.47000000000E+01 0.  1.
         25    2    1    2    0    0  0.40019338849E+02 -0.66898150203E+02  0.19716469141E+03  0.24612429698E+03  0.12500537604E+03 0.  0.
         25    2    1    2    0    0 -0.40019338849E+02  0.66898150203E+02  0.21374228086E+03  0.25959042305E+03  0.12499806051E+03 0.  0.
          5    1    4    4  502    0 -0.71452510735E+02  0.60845210238E+02  0.84540518803E+02  0.12639932840E+03  0.47000000000E+01 0.  1.
         -5    1    4    4    0  502  0.31433171887E+02  0.60529399649E+01  0.12920176205E+03  0.13319109465E+03  0.47000000000E+01 0.  1.
          5    1    3    3  503    0  0.66580939712E+01  0.37015239484E+02  0.45584796610E+02  0.59283402832E+02  0.47000000000E+01 0.  1.
         -5    1    3    3    0  503  0.33361244877E+02 -0.10391338969E+03  0.15157989481E+03  0.18684089415E+03  0.47000000000E+01 0.  1.
<mgrwt>
<rscale>  0 0.14731869E+03</rscale>
<asrwt>0</asrwt>
<pdfrwt beam="1">  1        5 0.70509356E-01 0.14732024E+03</pdfrwt>
<pdfrwt beam="2">  1       -5 0.72929042E-02 0.14732024E+03</pdfrwt>
<totfact> 0.18407512E+02</totfact>
</mgrwt>
</event>
<event>
 8    1  0.3573290E-007  0.1462861E+03  0.7546771E-02  0.1205113E+00
          5   -1    0    0  501    0  0.00000000000E+00  0.00000000000E+00  0.21228872742E+03  0.21234074924E+03  0.47000000000E+01 0. -1.
         -5   -1    0    0    0  501 -0.00000000000E+00 -0.00000000000E+00 -0.10068355782E+03  0.10079319826E+03  0.47000000000E+01 0. -1.
         25    2    1    2    0    0 -0.53246380793E+02 -0.54209425575E+02  0.56109744954E+02  0.15667508530E+03  0.12499975995E+03 0.  0.
         25    2    1    2    0    0  0.53246380793E+02  0.54209425575E+02  0.55495424639E+02  0.15645886220E+03  0.12500317802E+03 0.  0.
          5    1    3    3  502    0 -0.58112769194E+02  0.76724590905E-01  0.78314998275E+02  0.97634157880E+02  0.47000000000E+01 0.  1.
         -5    1    3    3    0  502  0.48663884009E+01 -0.54286150166E+02 -0.22205253321E+02  0.59040927423E+02  0.47000000000E+01 0.  1.
          5    1    4    4  503    0  0.85160689385E+02  0.31909233739E+02  0.69776653496E+02  0.11472320422E+03  0.47000000000E+01 0.  1.
         -5    1    4    4    0  503 -0.31914308592E+02  0.22300191836E+02 -0.14281228857E+02  0.41735657974E+02  0.47000000000E+01 0.  1.
<mgrwt>
<rscale>  0 0.14628541E+03</rscale>
<asrwt>0</asrwt>
<pdfrwt beam="1">  1        5 0.32672239E-01 0.14628614E+03</pdfrwt>
<pdfrwt beam="2">  1       -5 0.15502214E-01 0.14628614E+03</pdfrwt>
<totfact> 0.24782034E+02</totfact>
</mgrwt>
</event>
<event>
 8    1  0.3573290E-007  0.1530788E+03  0.7546771E-02  0.1196743E+00
         -5   -1    0    0    0  501 -0.00000000000E+00  0.00000000000E+00  0.41038240770E+03  0.41040932074E+03  0.47000000000E+01 0. -1.
          5   -1    0    0  501    0  0.00000000000E+00 -0.00000000000E+00 -0.57235901170E+02  0.57428550241E+02  0.47000000000E+01 0. -1.
         25    2    1    2    0    0  0.56138743595E+02 -0.68230104682E+02  0.16068313996E+03  0.22192070428E+03  0.12499128690E+03 0.  0.
         25    2    1    2    0    0 -0.56138743595E+02  0.68230104682E+02  0.19246336657E+03  0.24591716670E+03  0.12500479868E+03 0.  0.
          5    1    4    4  502    0  0.36435127861E+02  0.97698855347E+01  0.81659066822E+02  0.90073649864E+02  0.47000000000E+01 0.  1.
         -5    1    4    4    0  502 -0.92573871457E+02  0.58460219147E+02  0.11080429975E+03  0.15584351684E+03  0.47000000000E+01 0.  1.
          5    1    3    3  503    0  0.40620684045E+02 -0.10491008203E+03  0.12505576744E+03  0.16827715310E+03  0.47000000000E+01 0. -1.
         -5    1    3    3    0  503  0.15518059550E+02  0.36679977348E+02  0.35627372523E+02  0.53643551181E+02  0.47000000000E+01 0. -1.
<mgrwt>
<rscale>  0 0.15307600E+03</rscale>
<asrwt>0</asrwt>
<pdfrwt beam="2">  1        5 0.88224127E-02 0.15307876E+03</pdfrwt>
<pdfrwt beam="1">  1       -5 0.63152644E-01 0.15307876E+03</pdfrwt>
<totfact> 0.17194747E+02</totfact>
</mgrwt>
</event>
<event>
 8    1  0.3573290E-007  0.1847631E+03  0.7546771E-02  0.1163272E+00
         -5   -1    0    0    0  501 -0.00000000000E+00  0.00000000000E+00  0.26452649994E+03  0.26456825049E+03  0.47000000000E+01 0. -1.
          5   -1    0    0  501    0  0.00000000000E+00 -0.00000000000E+00 -0.13533722284E+03  0.13541880920E+03  0.47000000000E+01 0. -1.
         25    2    1    2    0    0 -0.69956349258E+02 -0.11669331682E+03  0.10800321739E+03  0.21401325440E+03  0.12500302836E+03 0.  0.
         25    2    1    2    0    0  0.69956349258E+02  0.11669331682E+03  0.21186059708E+02  0.18597380530E+03  0.12500474447E+03 0.  0.
          5    1    4    4  502    0  0.75040796586E+02  0.13946720871E+03  0.77331024155E+01  0.15863200916E+03  0.47000000000E+01 0.  1.
         -5    1    4    4    0  502 -0.50844473277E+01 -0.22773891887E+02  0.13452957293E+02  0.27341796141E+02  0.47000000000E+01 0.  1.
          5    1    3    3  503    0 -0.42736644541E+02 -0.13695851224E+03  0.10819082746E+03  0.17975372043E+03  0.47000000000E+01 0. -1.
         -5    1    3    3    0  503 -0.27219704717E+02  0.20265195416E+02 -0.18761007619E+00  0.34259533967E+02  0.47000000000E+01 0. -1.
<mgrwt>
<rscale>  0 0.18476282E+03</rscale>
<asrwt>0</asrwt>
<pdfrwt beam="2">  1        5 0.20830599E-01 0.18476311E+03</pdfrwt>
<pdfrwt beam="1">  1       -5 0.40705872E-01 0.18476311E+03</pdfrwt>
<totfact> 0.98832039E+01</totfact>
</mgrwt>
</event>
<event>
 8    1  0.3573290E-007  0.1255661E+03  0.7546771E-02  0.1234194E+00
          5   -1    0    0  501    0  0.00000000000E+00  0.00000000000E+00  0.54952215112E+02  0.55152841683E+02  0.47000000000E+01 0.  1.
         -5   -1    0    0    0  501 -0.00000000000E+00 -0.00000000000E+00 -0.29251448663E+03  0.29255224301E+03  0.47000000000E+01 0.  1.
         25    2    1    2    0    0  0.73723933384E+01  0.90204306194E+01 -0.14444489124E+03  0.19139269157E+03  0.12502445933E+03 0.  0.
         25    2    1    2    0    0 -0.73723933384E+01 -0.90204306194E+01 -0.93117380281E+02  0.15631239312E+03  0.12500798927E+03 0.  0.
          5    1    3    3  502    0 -0.10284624680E+02  0.60419695915E+02 -0.11244436109E+03  0.12814888802E+03  0.47000000000E+01 0. -1.
         -5    1    3    3    0  502  0.17657018019E+02 -0.51399265296E+02 -0.32000530148E+02  0.63243803554E+02  0.47000000000E+01 0. -1.
          5    1    4    4  503    0 -0.50545703811E+02  0.22379118187E+02 -0.85872320980E+02  0.10223423407E+03  0.47000000000E+01 0.  1.
         -5    1    4    4    0  503  0.43173310472E+02 -0.31399548806E+02 -0.72450593017E+01  0.54078159054E+02  0.47000000000E+01 0.  1.
<mgrwt>
<rscale>  0 0.12556196E+03</rscale>
<asrwt>0</asrwt>
<pdfrwt beam="1">  1        5 0.84725242E-02 0.12556606E+03</pdfrwt>
<pdfrwt beam="2">  1       -5 0.45020565E-01 0.12556606E+03</pdfrwt>
<totfact> 0.35598477E+02</totfact>
</mgrwt>
</event>
<event>
 8    1  0.3573290E-007  0.1422120E+03  0.7546771E-02  0.1210384E+00
          5   -1    0    0  501    0  0.00000000000E+00  0.00000000000E+00  0.50669829836E+03  0.50672009587E+03  0.47000000000E+01 0. -1.
         -5   -1    0    0    0  501 -0.00000000000E+00 -0.00000000000E+00 -0.40786623754E+02  0.41056530263E+02  0.47000000000E+01 0. -1.
         25    2    1    2    0    0 -0.41848255752E+02 -0.53347221316E+02  0.18949391637E+03  0.23692231536E+03  0.12500814630E+03 0.  0.
         25    2    1    2    0    0  0.41848255752E+02  0.53347221316E+02  0.27641775823E+03  0.31085431078E+03  0.12500569159E+03 0.  0.
          5    1    4    4  502    0  0.52681099301E+02  0.82918372232E+02  0.25265715006E+03  0.27112447354E+03  0.47000000000E+01 0. -1.
         -5    1    4    4    0  502 -0.10832843550E+02 -0.29571150915E+02  0.23760608175E+02  0.39729837234E+02  0.47000000000E+01 0. -1.
          5    1    3    3  503    0 -0.36037090621E+02 -0.89010423214E+02  0.92939810387E+02  0.13372144815E+03  0.47000000000E+01 0. -1.
         -5    1    3    3    0  503 -0.58111651310E+01  0.35663201897E+02  0.96554105986E+02  0.10320086721E+03  0.47000000000E+01 0. -1.
<mgrwt>
<rscale>  0 0.14221141E+03</rscale>
<asrwt>0</asrwt>
<pdfrwt beam="1">  1        5 0.77976027E-01 0.14221195E+03</pdfrwt>
<pdfrwt beam="2">  1       -5 0.62973037E-02 0.14221195E+03</pdfrwt>
<totfact> 0.18551847E+02</totfact>
</mgrwt>
</event>
<event>
 8    1  0.3573290E-007  0.1267816E+03  0.7546771E-02  0.1232311E+00
         -5   -1    0    0    0  501 -0.00000000000E+00  0.00000000000E+00  0.29319884907E+02  0.29694202313E+02  0.47000000000E+01 0. -1.
          5   -1    0    0  501    0  0.00000000000E+00 -0.00000000000E+00 -0.74530622362E+03  0.74532104288E+03  0.47000000000E+01 0. -1.
         25    2    1    2    0    0 -0.14977861963E+02  0.14947311455E+02 -0.15682726778E+03  0.20166332006E+03  0.12500217707E+03 0.  0.
         25    2    1    2    0    0  0.14977861963E+02 -0.14947311455E+02 -0.55915907094E+03  0.57335192513E+03  0.12500321986E+03 0.  0.
          5    1    3    3  502    0  0.51608908834E+02  0.17983114839E+02 -0.99508420749E+02  0.11362608719E+03  0.47000000000E+01 0.  1.
         -5    1    3    3    0  502 -0.66586770797E+02 -0.30358033845E+01 -0.57318847027E+02  0.88037232872E+02  0.47000000000E+01 0.  1.
          5    1    4    4  503    0  0.51401012273E+02  0.36728000786E+02 -0.27261045980E+03  0.27987419119E+03  0.47000000000E+01 0.  1.
         -5    1    4    4    0  503 -0.36423150309E+02 -0.51675312241E+02 -0.28654861114E+03  0.29347773394E+03  0.47000000000E+01 0.  1.
<mgrwt>
<rscale>  0 0.12678130E+03</rscale>
<asrwt>0</asrwt>
<pdfrwt beam="2">  1        5 0.11469242E+00 0.12678156E+03</pdfrwt>
<pdfrwt beam="1">  1       -5 0.45406857E-02 0.12678156E+03</pdfrwt>
<totfact> 0.12195743E+02</totfact>
</mgrwt>
</event>
<event>
 8    1  0.3573290E-007  0.1319226E+03  0.7546771E-02  0.1224631E+00
          5   -1    0    0  501    0  0.00000000000E+00  0.00000000000E+00  0.28900510318E+02  0.29280189491E+02  0.47000000000E+01 0.  1.
         -5   -1    0    0    0  501 -0.00000000000E+00 -0.00000000000E+00 -0.62430215116E+03  0.62431984266E+03  0.47000000000E+01 0.  1.
         25    2    1    2    0    0  0.18386920318E+02 -0.37936438279E+02 -0.36493458570E+03  0.38804659997E+03  0.12500263885E+03 0.  0.
         25    2    1    2    0    0 -0.18386920318E+02  0.37936438279E+02 -0.23046705514E+03  0.26555343218E+03  0.12500523849E+03 0.  0.
          5    1    3    3  502    0 -0.43337601995E+02 -0.17021935470E+01 -0.56502864109E+02  0.71384233988E+02  0.47000000000E+01 0. -1.
         -5    1    3    3    0  502  0.61724522313E+02 -0.36234244732E+02 -0.30843172159E+03  0.31666236598E+03  0.47000000000E+01 0. -1.
          5    1    4    4  503    0 -0.32241482154E+02 -0.40570089262E+02 -0.93725381096E+02  0.10720066406E+03  0.47000000000E+01 0.  1.
         -5    1    4    4    0  503  0.13854561836E+02  0.78506527541E+02 -0.13674167404E+03  0.15835276812E+03  0.47000000000E+01 0.  1.
<mgrwt>
<rscale>  0 0.13192194E+03</rscale>
<asrwt>0</asrwt>
<pdfrwt beam="1">  1        5 0.44767998E-02 0.13192256E+03</pdfrwt>
<pdfrwt beam="2">  1       -5 0.96077042E-01 0.13192256E+03</pdfrwt>
<totfact> 0.19561220E+02</totfact>
</mgrwt>
</event>
<event>
 8    1  0.3573290E-007  0.1359151E+03  0.7546771E-02  0.1218937E+00
         -5   -1    0    0    0  501 -0.00000000000E+00  0.00000000000E+00  0.86466623662E+02  0.86594266597E+02  0.47000000000E+01 0. -1.
          5   -1    0    0  501    0  0.00000000000E+00 -0.00000000000E+00 -0.23195138265E+03  0.23199899550E+03  0.47000000000E+01 0. -1.
         25    2    1    2    0    0 -0.85081156748E+01 -0.52668917464E+02 -0.27607378781E+02  0.13868219670E+03  0.12499672563E+03 0.  0.
         25    2    1    2    0    0  0.85081156748E+01  0.52668917464E+02 -0.11787738021E+03  0.17991106540E+03  0.12500604702E+03 0.  0.
          5    1    4    4  502    0 -0.38952703766E+02 -0.12282399334E+02 -0.52806202893E+01  0.41450517666E+02  0.47000000000E+01 0.  1.
         -5    1    4    4    0  502  0.47460819441E+02  0.64951316798E+02 -0.11259675992E+03  0.13846054774E+03  0.47000000000E+01 0.  1.
          5    1    3    3  503    0 -0.18014183476E+02 -0.57898107074E+02 -0.71127961432E+02  0.93584071864E+02  0.47000000000E+01 0. -1.
         -5    1    3    3    0  503  0.95060678013E+01  0.52291896104E+01  0.43520582651E+02  0.45098124832E+02  0.47000000000E+01 0. -1.
<mgrwt>
<rscale>  0 0.13591296E+03</rscale>
<asrwt>0</asrwt>
<pdfrwt beam="2">  1        5 0.35698309E-01 0.13591510E+03</pdfrwt>
<pdfrwt beam="1">  1       -5 0.13316039E-01 0.13591510E+03</pdfrwt>
<totfact> 0.26639829E+02</totfact>
</mgrwt>
</event>
<event>
 8    1  0.3573290E-007  0.1260467E+03  0.7546771E-02  0.1233446E+00
         -5   -1    0    0    0  501 -0.00000000000E+00  0.00000000000E+00  0.70087865171E+03  0.70089441032E+03  0.47000000000E+01 0. -1.
          5   -1    0    0  501    0  0.00000000000E+00 -0.00000000000E+00 -0.22917299682E+02  0.23394286155E+02  0.47000000000E+01 0. -1.
         25    2    1    2    0    0 -0.91537444690E+01  0.13340731925E+02  0.39242917780E+03  0.41217272352E+03  0.12499571298E+03 0.  0.
         25    2    1    2    0    0  0.91537444690E+01 -0.13340731925E+02  0.28553217423E+03  0.31211597295E+03  0.12500396749E+03 0.  0.
          5    1    4    4  502    0 -0.26045197972E+02 -0.59372950099E+02  0.11710715921E+03  0.13393907674E+03  0.47000000000E+01 0.  1.
         -5    1    4    4    0  502  0.35198942441E+02  0.46032218174E+02  0.16842501502E+03  0.17817689621E+03  0.47000000000E+01 0.  1.
          5    1    3    3  503    0 -0.60315156299E+01 -0.53759699446E+02  0.23031905100E+03  0.23663355577E+03  0.47000000000E+01 0.  1.
         -5    1    3    3    0  503 -0.31222288391E+01  0.67100431371E+02  0.16211012680E+03  0.17553916775E+03  0.47000000000E+01 0.  1.
<mgrwt>
<rscale>  0 0.12604460E+03</rscale>
<asrwt>0</asrwt>
<pdfrwt beam="2">  1        5 0.35636422E-02 0.12604665E+03</pdfrwt>
<pdfrwt beam="1">  1       -5 0.10786538E+00 0.12604665E+03</pdfrwt>
<totfact> 0.21083660E+02</totfact>
</mgrwt>
</event>
<event>
 8    1  0.3573290E-007  0.1340956E+03  0.7546771E-02  0.1221503E+00
          5   -1    0    0  501    0  0.00000000000E+00  0.00000000000E+00  0.86720129062E+02  0.86847399412E+02  0.47000000000E+01 0.  1.
         -5   -1    0    0    0  501 -0.00000000000E+00 -0.00000000000E+00 -0.42755199354E+03  0.42757782588E+03  0.47000000000E+01 0.  1.
         25    2    1    2    0    0  0.46257795082E+02 -0.14748886875E+02 -0.35509958105E+03  0.37957522610E+03  0.12499730614E+03 0.  0.
         25    2    1    2    0    0 -0.46257795082E+02  0.14748886875E+02  0.14267716566E+02  0.13484999918E+03  0.12499456498E+03 0.  0.
          5    1    3    3  502    0  0.18783129654E+02  0.39854026277E+02 -0.27582423937E+03  0.27936043097E+03  0.47000000000E+01 0. -1.
         -5    1    3    3    0  502  0.27474665428E+02 -0.54602913152E+02 -0.79275341676E+02  0.10021479513E+03  0.47000000000E+01 0. -1.
          5    1    4    4  503    0 -0.62362428038E+02  0.59440098004E+02  0.70020993923E+01  0.86563947909E+02  0.47000000000E+01 0. -1.
         -5    1    4    4    0  503  0.16104632957E+02 -0.44691211129E+02  0.72656171741E+01  0.48286051276E+02  0.47000000000E+01 0. -1.
<mgrwt>
<rscale>  0 0.13409500E+03</rscale>
<asrwt>0</asrwt>
<pdfrwt beam="1">  1        5 0.13353336E-01 0.13409564E+03</pdfrwt>
<pdfrwt beam="2">  1       -5 0.65789006E-01 0.13409564E+03</pdfrwt>
<totfact> 0.72603955E+01</totfact>
</mgrwt>
</event>
<event>
 8    1  0.3573290E-007  0.1342226E+03  0.7546771E-02  0.1221324E+00
          5   -1    0    0  501    0  0.00000000000E+00  0.00000000000E+00  0.90950189309E+03  0.90951403702E+03  0.47000000000E+01 0.  1.
         -5   -1    0    0    0  501 -0.00000000000E+00 -0.00000000000E+00 -0.21997885987E+02  0.22494376806E+02  0.47000000000E+01 0.  1.
         25    2    1    2    0    0  0.41736847060E+02  0.25455979455E+02  0.28910517501E+03  0.31874104789E+03  0.12499632836E+03 0.  0.
         25    2    1    2    0    0 -0.41736847060E+02 -0.25455979455E+02  0.59839883210E+03  0.61326736593E+03  0.12500291425E+03 0.  0.
          5    1    4    4  502    0  0.73285161580E+01  0.44035459257E+02  0.28417483270E+03  0.28769820013E+03  0.47000000000E+01 0.  1.
         -5    1    4    4    0  502 -0.49065363218E+02 -0.69491438712E+02  0.31422399940E+03  0.32556916580E+03  0.47000000000E+01 0.  1.
          5    1    3    3  503    0  0.68979423916E+02  0.42379248976E+02  0.26814893212E+03  0.28014300182E+03  0.47000000000E+01 0.  1.
         -5    1    3    3    0  503 -0.27242576856E+02 -0.16923269520E+02  0.20956242882E+02  0.38598046074E+02  0.47000000000E+01 0.  1.
<mgrwt>
<rscale>  0 0.13422104E+03</rscale>
<asrwt>0</asrwt>
<pdfrwt beam="1">  1        5 0.13996245E+00 0.13422258E+03</pdfrwt>
<pdfrwt beam="2">  1       -5 0.34234169E-02 0.13422258E+03</pdfrwt>
<totfact> 0.11801640E+02</totfact>
</mgrwt>
</event>
<event>
 8    1  0.3573290E-007  0.1458173E+03  0.7546771E-02  0.1205714E+00
         -5   -1    0    0    0  501 -0.00000000000E+00  0.00000000000E+00  0.27426223013E+03  0.27430249885E+03  0.47000000000E+01 0.  1.
          5   -1    0    0  501    0  0.00000000000E+00 -0.00000000000E+00 -0.77689801987E+02  0.77831840097E+02  0.47000000000E+01 0.  1.
         25    2    1    2    0    0  0.74770441513E+02 -0.65196134142E+01  0.10902071032E+03  0.18206648562E+03  0.12501826116E+03 0.  0.
         25    2    1    2    0    0 -0.74770441513E+02  0.65196134142E+01  0.87551717817E+02  0.17006785333E+03  0.12499858863E+03 0.  0.
          5    1    3    3  502    0  0.49387035593E+02 -0.25247926691E+02 -0.11974379179E+02  0.56938676166E+02  0.47000000000E+01 0.  1.
         -5    1    3    3    0  502  0.25383405920E+02  0.18728313277E+02  0.12099508950E+03  0.12512780945E+03  0.47000000000E+01 0.  1.
          5    1    4    4  503    0 -0.13253846740E+02 -0.34396727865E+01  0.10435444728E+03  0.10535386310E+03  0.47000000000E+01 0. -1.
         -5    1    4    4    0  503 -0.61516594772E+02  0.99592862007E+01 -0.16802729464E+02  0.64713990230E+02  0.47000000000E+01 0. -1.
<mgrwt>
<rscale>  0 0.14581310E+03</rscale>
<asrwt>0</asrwt>
<pdfrwt beam="2">  1        5 0.11966301E-01 0.14581732E+03</pdfrwt>
<pdfrwt beam="1">  1       -5 0.42208212E-01 0.14581732E+03</pdfrwt>
<totfact> 0.23460901E+02</totfact>
</mgrwt>
</event>
<event>
 8    1  0.3573290E-007  0.1666328E+03  0.7546771E-02  0.1181406E+00
          5   -1    0    0  501    0  0.00000000000E+00  0.00000000000E+00  0.14585531516E+03  0.14593102124E+03  0.47000000000E+01 0.  1.
         -5   -1    0    0    0  501 -0.00000000000E+00 -0.00000000000E+00 -0.19738240860E+03  0.19743835804E+03  0.47000000000E+01 0.  1.
         25    2    1    2    0    0 -0.10508077986E+03 -0.33156508963E+02 -0.58469299196E+02  0.17659317697E+03  0.12500066728E+03 0.  0.
         25    2    1    2    0    0  0.10508077986E+03  0.33156508963E+02  0.69422057597E+01  0.16677620231E+03  0.12499913222E+03 0.  0.
          5    1    4    4  502    0 -0.28590855977E+02  0.87819954867E+01  0.57304699182E+01  0.30813775746E+02  0.47000000000E+01 0. -1.
         -5    1    4    4    0  502  0.13367163584E+03  0.24374513476E+02  0.12117358415E+01  0.13596242657E+03  0.47000000000E+01 0. -1.
          5    1    3    3  503    0  0.23049635387E+02 -0.29928525298E+02 -0.89238667443E+01  0.39098947756E+02  0.47000000000E+01 0.  1.
         -5    1    3    3    0  503 -0.12813041525E+03 -0.32279836651E+01 -0.49545432451E+02  0.13749422921E+03  0.47000000000E+01 0.  1.
<mgrwt>
<rscale>  0 0.16663252E+03</rscale>
<asrwt>0</asrwt>
<pdfrwt beam="1">  1        5 0.22449407E-01 0.16663280E+03</pdfrwt>
<pdfrwt beam="2">  1       -5 0.30376652E-01 0.16663280E+03</pdfrwt>
<totfact> 0.15010540E+02</totfact>
</mgrwt>
</event>
<event>
 8    1  0.3573290E-007  0.1347438E+03  0.7546771E-02  0.1220587E+00
         -5   -1    0    0    0  501 -0.00000000000E+00  0.00000000000E+00  0.47456121023E+03  0.47458448379E+03  0.47000000000E+01 0.  1.
          5   -1    0    0  501    0  0.00000000000E+00 -0.00000000000E+00 -0.46132560085E+02  0.46371360773E+02  0.47000000000E+01 0.  1.
         25    2    1    2    0    0 -0.49228155300E+02 -0.10149756209E+02  0.32267360536E+03  0.34967719473E+03  0.12501782309E+03 0.  0.
         25    2    1    2    0    0  0.49228155300E+02  0.10149756209E+02  0.10575504478E+03  0.17127864983E+03  0.12500327022E+03 0.  0.
          5    1    4    4  502    0 -0.39374838037E+02  0.21770730725E+02  0.34664094956E+02  0.56991508717E+02  0.47000000000E+01 0. -1.
         -5    1    4    4    0  502  0.88602993337E+02 -0.11620974516E+02  0.71090949824E+02  0.11428714111E+03  0.47000000000E+01 0. -1.
          5    1    3    3  503    0 -0.19478897514E+01  0.16444507054E+02  0.27991877956E+03  0.28044755167E+03  0.47000000000E+01 0.  1.
         -5    1    3    3    0  503 -0.47280265549E+02 -0.26594263263E+02  0.42754825800E+02  0.69229643059E+02  0.47000000000E+01 0.  1.
<mgrwt>
<rscale>  0 0.13474040E+03</rscale>
<asrwt>0</asrwt>
<pdfrwt beam="2">  1        5 0.71174760E-02 0.13474378E+03</pdfrwt>
<pdfrwt beam="1">  1       -5 0.73029581E-01 0.13474378E+03</pdfrwt>
<totfact> 0.17207211E+02</totfact>
</mgrwt>
</event>
<event>
 8    1  0.3573290E-007  0.1471923E+03  0.7546771E-02  0.1203970E+00
         -5   -1    0    0    0  501 -0.00000000000E+00  0.00000000000E+00  0.20272247873E+03  0.20277695476E+03  0.47000000000E+01 0.  1.
          5   -1    0    0  501    0  0.00000000000E+00 -0.00000000000E+00 -0.11795316596E+03  0.11804676768E+03  0.47000000000E+01 0.  1.
         25    2    1    2    0    0 -0.49374578690E+02  0.59991125042E+02  0.91805186109E+02  0.17347552255E+03  0.12501512158E+03 0.  0.
         25    2    1    2    0    0  0.49374578690E+02 -0.59991125042E+02 -0.70358733429E+01  0.14734819990E+03  0.12500081757E+03 0.  0.
          5    1    3    3  502    0  0.48285250506E+01 -0.32734521052E+02  0.45410807698E+02  0.56383463696E+02  0.47000000000E+01 0.  1.
         -5    1    3    3    0  502 -0.54203103740E+02  0.92725646093E+02  0.46394378411E+02  0.11709205885E+03  0.47000000000E+01 0.  1.
          5    1    4    4  503    0  0.70250619740E+02  0.34418645090E+01 -0.29949669784E+02  0.76590265213E+02  0.47000000000E+01 0. -1.
         -5    1    4    4    0  503 -0.20876041050E+02 -0.63432989551E+02  0.22913796441E+02  0.70757934683E+02  0.47000000000E+01 0. -1.
<mgrwt>
<rscale>  0 0.14718923E+03</rscale>
<asrwt>0</asrwt>
<pdfrwt beam="2">  1        5 0.18158032E-01 0.14719227E+03</pdfrwt>
<pdfrwt beam="1">  1       -5 0.31199464E-01 0.14719227E+03</pdfrwt>
<totfact> 0.20362922E+02</totfact>
</mgrwt>
</event>
<event>
 8    1  0.3573290E-007  0.2037272E+03  0.7546771E-02  0.1146633E+00
         -5   -1    0    0    0  501 -0.00000000000E+00  0.00000000000E+00  0.16211442394E+03  0.16218254052E+03  0.47000000000E+01 0.  1.
          5   -1    0    0  501    0  0.00000000000E+00 -0.00000000000E+00 -0.27617461100E+03  0.27621460092E+03  0.47000000000E+01 0.  1.
         25    2    1    2    0    0  0.15880874281E+03  0.25676327176E+02  0.23927850334E+01  0.20373554299E+03  0.12499182169E+03 0.  0.
         25    2    1    2    0    0 -0.15880874281E+03 -0.25676327176E+02 -0.11645297210E+03  0.23466159845E+03  0.12500112203E+03 0.  0.
          5    1    3    3  502    0  0.15794219765E+03 -0.17248736663E+01 -0.30206353182E+02  0.16088264903E+03  0.47000000000E+01 0.  1.
         -5    1    3    3    0  502  0.86654515527E+00  0.27401200842E+02  0.32599138215E+02  0.42852893957E+02  0.47000000000E+01 0.  1.
          5    1    4    4  503    0 -0.23107458157E+02 -0.57158959563E+02 -0.19353994034E+02  0.64790187265E+02  0.47000000000E+01 0. -1.
         -5    1    4    4    0  503 -0.13570128465E+03  0.31482632387E+02 -0.97098978063E+02  0.16987141119E+03  0.47000000000E+01 0. -1.
<mgrwt>
<rscale>  0 0.20372577E+03</rscale>
<asrwt>0</asrwt>
<pdfrwt beam="2">  1        5 0.42496718E-01 0.20372720E+03</pdfrwt>
<pdfrwt beam="1">  1       -5 0.24948996E-01 0.20372720E+03</pdfrwt>
<totfact> 0.65836622E+01</totfact>
</mgrwt>
</event>
<event>
 8    1  0.3573290E-007  0.1376535E+03  0.7546771E-02  0.1216528E+00
          5   -1    0    0  501    0  0.00000000000E+00  0.00000000000E+00  0.13064888007E+03  0.13073339231E+03  0.47000000000E+01 0. -1.
         -5   -1    0    0    0  501 -0.00000000000E+00 -0.00000000000E+00 -0.14836974068E+03  0.14844416442E+03  0.47000000000E+01 0. -1.
         25    2    1    2    0    0 -0.56683715060E+02 -0.10528821642E+02 -0.30362967665E+02  0.14096237272E+03  0.12499832431E+03 0.  0.
         25    2    1    2    0    0  0.56683715060E+02  0.10528821642E+02  0.12642107053E+02  0.13821518400E+03  0.12497885653E+03 0.  0.
          5    1    3    3  502    0 -0.76215144357E+02  0.28027935771E+02  0.96047699635E+01  0.81906379599E+02  0.47000000000E+01 0.  1.
         -5    1    3    3    0  502  0.19531429297E+02 -0.38556757412E+02 -0.39967737628E+02  0.59055993122E+02  0.47000000000E+01 0.  1.
          5    1    4    4  503    0  0.61599054028E+02 -0.37598173717E+01  0.61262246375E+02  0.87084628464E+02  0.47000000000E+01 0. -1.
         -5    1    4    4    0  503 -0.49153389673E+01  0.14288639013E+02 -0.48620139322E+02  0.51130555539E+02  0.47000000000E+01 0. -1.
<mgrwt>
<rscale>  0 0.13764906E+03</rscale>
<asrwt>0</asrwt>
<pdfrwt beam="1">  1        5 0.20112054E-01 0.13765348E+03</pdfrwt>
<pdfrwt beam="2">  1       -5 0.22838340E-01 0.13765348E+03</pdfrwt>
<totfact> 0.30101212E+02</totfact>
</mgrwt>
</event>
<event>
 8    1  0.3573290E-007  0.1452934E+03  0.7546771E-02  0.1206380E+00
          5   -1    0    0  501    0  0.00000000000E+00  0.00000000000E+00  0.13981278405E+03  0.13989176024E+03  0.47000000000E+01 0. -1.
         -5   -1    0    0    0  501 -0.00000000000E+00 -0.00000000000E+00 -0.18442321723E+03  0.18448309693E+03  0.47000000000E+01 0. -1.
         25    2    1    2    0    0  0.60174993464E+02  0.43178000593E+02 -0.91502425063E+02  0.17170194509E+03  0.12499397819E+03 0.  0.
         25    2    1    2    0    0 -0.60174993464E+02 -0.43178000593E+02  0.46891991882E+02  0.15267291207E+03  0.12499915842E+03 0.  0.
          5    1    4    4  502    0 -0.96435249645E+02 -0.45480777574E+02  0.23738448702E+02  0.10933372055E+03  0.47000000000E+01 0. -1.
         -5    1    4    4    0  502  0.36260256181E+02  0.23027769815E+01  0.23153543180E+02  0.43339191524E+02  0.47000000000E+01 0. -1.
          5    1    3    3  503    0  0.31189304595E+02  0.17609328839E+02  0.28198990419E+02  0.45827221647E+02  0.47000000000E+01 0. -1.
         -5    1    3    3    0  503  0.28985688869E+02  0.25568671754E+02 -0.11970141548E+03  0.12587472345E+03  0.47000000000E+01 0. -1.
<mgrwt>
<rscale>  0 0.14529224E+03</rscale>
<asrwt>0</asrwt>
<pdfrwt beam="1">  1        5 0.21520340E-01 0.14529336E+03</pdfrwt>
<pdfrwt beam="2">  1       -5 0.28383484E-01 0.14529336E+03</pdfrwt>
<totfact> 0.17779607E+02</totfact>
</mgrwt>
</event>
<event>
 8    1  0.3573290E-007  0.1712297E+03  0.7546771E-02  0.1176573E+00
          5   -1    0    0  501    0  0.00000000000E+00  0.00000000000E+00  0.26124074135E+03  0.26128301694E+03  0.47000000000E+01 0.  1.
         -5   -1    0    0    0  501 -0.00000000000E+00 -0.00000000000E+00 -0.12079791111E+03  0.12088931023E+03  0.47000000000E+01 0.  1.
         25    2    1    2    0    0  0.11368977343E+03  0.27654147869E+02  0.19059334735E+02  0.17228712160E+03  0.12501790893E+03 0.  0.
         25    2    1    2    0    0 -0.11368977343E+03 -0.27654147869E+02  0.12138349551E+03  0.20988520557E+03  0.12501091975E+03 0.  0.
          5    1    4    4  502    0  0.13812147680E+02 -0.88716973981E+00 -0.15189241051E+02  0.21079979540E+02  0.47000000000E+01 0. -1.
         -5    1    4    4    0  502 -0.12750192111E+03 -0.26766978129E+02  0.13657273656E+03  0.18880522603E+03  0.47000000000E+01 0. -1.
          5    1    3    3  503    0  0.65964605458E+01 -0.26764055513E+02  0.41451372165E+02  0.50001342118E+02  0.47000000000E+01 0.  1.
         -5    1    3    3    0  503  0.10709331288E+03  0.54418203382E+02 -0.22392037429E+02  0.12228577948E+03  0.47000000000E+01 0.  1.
<mgrwt>
<rscale>  0 0.17122838E+03</rscale>
<asrwt>0</asrwt>
<pdfrwt beam="1">  1        5 0.40201166E-01 0.17122965E+03</pdfrwt>
<pdfrwt beam="2">  1       -5 0.18594577E-01 0.17122965E+03</pdfrwt>
<totfact> 0.12265120E+02</totfact>
</mgrwt>
</event>
<event>
 8    1  0.3573290E-007  0.1260738E+03  0.7546771E-02  0.1233402E+00
          5   -1    0    0  501    0  0.00000000000E+00  0.00000000000E+00  0.39797429266E+03  0.39800204474E+03  0.47000000000E+01 0. -1.
         -5   -1    0    0    0  501 -0.00000000000E+00 -0.00000000000E+00 -0.69149677983E+02  0.69309219915E+02  0.47000000000E+01 0. -1.
         25    2    1    2    0    0  0.51649864439E+01  0.15608340006E+02  0.12379410210E+02  0.12667630261E+03  0.12499335376E+03 0.  0.
         25    2    1    2    0    0 -0.51649864439E+01 -0.15608340006E+02  0.31644520447E+03  0.34063496204E+03  0.12499725026E+03 0.  0.
          5    1    4    4  502    0 -0.91126174577E+01  0.46415810355E+02  0.22501872275E+03  0.22998474479E+03  0.47000000000E+01 0. -1.
         -5    1    4    4    0  502  0.39476310139E+01 -0.62024150361E+02  0.91426481713E+02  0.11065021725E+03  0.47000000000E+01 0. -1.
          5    1    3    3  503    0 -0.47907120452E+02 -0.24870874526E+02  0.23116437257E+02  0.58907658765E+02  0.47000000000E+01 0.  1.
         -5    1    3    3    0  503  0.53072106896E+02  0.40479214532E+02 -0.10737027047E+02  0.67768643850E+02  0.47000000000E+01 0.  1.
<mgrwt>
<rscale>  0 0.12607286E+03</rscale>
<asrwt>0</asrwt>
<pdfrwt beam="1">  1        5 0.61241221E-01 0.12607383E+03</pdfrwt>
<pdfrwt beam="2">  1       -5 0.10652819E-01 0.12607383E+03</pdfrwt>
<totfact> 0.12424530E+02</totfact>
</mgrwt>
</event>
<event>
 8    1  0.3573290E-007  0.1475762E+03  0.7546771E-02  0.1203486E+00
         -5   -1    0    0    0  501 -0.00000000000E+00  0.00000000000E+00  0.14235586251E+02  0.14991394729E+02  0.47000000000E+01 0.  1.
          5   -1    0    0  501    0  0.00000000000E+00 -0.00000000000E+00 -0.19679802638E+04  0.19679858761E+04  0.47000000000E+01 0.  1.
         25    2    1    2    0    0  0.76961470338E+02  0.15156800249E+02 -0.48808737262E+03  0.50990981269E+03  0.12500374895E+03 0.  0.
         25    2    1    2    0    0 -0.76961470338E+02 -0.15156800249E+02 -0.14656573049E+04  0.14730674582E+04  0.12499441735E+03 0.  0.
          5    1    4    4  502    0  0.31875474700E+02 -0.11898372399E+02 -0.22168649969E+03  0.22433147639E+03  0.47000000000E+01 0.  1.
         -5    1    4    4    0  502 -0.10883694504E+03 -0.32584278500E+01 -0.12439708052E+04  0.12487359818E+04  0.47000000000E+01 0.  1.
          5    1    3    3  503    0  0.65456180226E+02 -0.12856711033E+02 -0.98125616446E+02  0.11874566582E+03  0.47000000000E+01 0.  1.
         -5    1    3    3    0  503  0.11505290112E+02  0.28013511282E+02 -0.38996175617E+03  0.39116414687E+03  0.47000000000E+01 0.  1.
<mgrwt>
<rscale>  0 0.14757422E+03</rscale>
<asrwt>0</asrwt>
<pdfrwt beam="2">  1        5 0.30282456E+00 0.14757620E+03</pdfrwt>
<pdfrwt beam="1">  1       -5 0.22486626E-02 0.14757620E+03</pdfrwt>
<totfact> 0.18826249E+01</totfact>
</mgrwt>
</event>
<event>
 8    1  0.3573290E-007  0.1573528E+03  0.7546771E-02  0.1191719E+00
         -5   -1    0    0    0  501 -0.00000000000E+00  0.00000000000E+00  0.15917933633E+03  0.15924870837E+03  0.47000000000E+01 0.  1.
          5   -1    0    0  501    0  0.00000000000E+00 -0.00000000000E+00 -0.16937822313E+03  0.16944341968E+03  0.47000000000E+01 0.  1.
         25    2    1    2    0    0  0.82235100142E+02  0.48703767371E+02  0.42086301152E+02  0.16288392531E+03  0.12500099091E+03 0.  0.
         25    2    1    2    0    0 -0.82235100142E+02 -0.48703767371E+02 -0.52285187952E+02  0.16580820273E+03  0.12499580218E+03 0.  0.
          5    1    4    4  502    0 -0.37738246990E+02 -0.18594179226E+02 -0.90364067407E+02  0.99788142909E+02  0.47000000000E+01 0.  1.
         -5    1    4    4    0  502 -0.44496853152E+02 -0.30109588145E+02  0.38078879455E+02  0.66020059824E+02  0.47000000000E+01 0.  1.
          5    1    3    3  503    0 -0.13557942521E+02 -0.55383299207E+01 -0.28248411271E+02  0.32164477970E+02  0.47000000000E+01 0. -1.
         -5    1    3    3    0  503  0.95793042663E+02  0.54242097292E+02  0.70334712423E+02  0.13071944734E+03  0.47000000000E+01 0. -1.
<mgrwt>
<rscale>  0 0.15735181E+03</rscale>
<asrwt>0</asrwt>
<pdfrwt beam="2">  1        5 0.26068540E-01 0.15735284E+03</pdfrwt>
<pdfrwt beam="1">  1       -5 0.24499480E-01 0.15735284E+03</pdfrwt>
<totfact> 0.16824998E+02</totfact>
</mgrwt>
</event>
<event>
 8    1  0.3573290E-007  0.1317584E+03  0.7546771E-02  0.1224873E+00
          5   -1    0    0  501    0  0.00000000000E+00  0.00000000000E+00  0.26024484161E+02  0.26445486871E+02  0.47000000000E+01 0. -1.
         -5   -1    0    0    0  501 -0.00000000000E+00 -0.00000000000E+00 -0.66504843484E+03  0.66506504245E+03  0.47000000000E+01 0. -1.
         25    2    1    2    0    0 -0.57899210287E+00 -0.41626930109E+02 -0.34561384335E+03  0.36987446971E+03  0.12500023233E+03 0.  0.
         25    2    1    2    0    0  0.57899210287E+00  0.41626930109E+02 -0.29341010733E+03  0.32163605961E+03  0.12500850858E+03 0.  0.
          5    1    4    4  502    0  0.85910404909E+01 -0.43494774427E+02 -0.78187761803E+02  0.90005652461E+02  0.47000000000E+01 0.  1.
         -5    1    4    4    0  502 -0.80120483880E+01  0.85121704536E+02 -0.21522234553E+03  0.23163040715E+03  0.47000000000E+01 0.  1.
          5    1    3    3  503    0 -0.44477259857E+02 -0.66234574077E+02 -0.23608789080E+03  0.24924852583E+03  0.47000000000E+01 0.  1.
         -5    1    3    3    0  503  0.43898267754E+02  0.24607643968E+02 -0.10952595255E+03  0.12062594388E+03  0.47000000000E+01 0.  1.
<mgrwt>
<rscale>  0 0.13175639E+03</rscale>
<asrwt>0</asrwt>
<pdfrwt beam="1">  1        5 0.40374297E-02 0.13175835E+03</pdfrwt>
<pdfrwt beam="2">  1       -5 0.10234879E+00 0.13175835E+03</pdfrwt>
<totfact> 0.19875470E+02</totfact>
</mgrwt>
</event>
<event>
 8    1  0.3573290E-007  0.1348331E+03  0.7546771E-02  0.1220458E+00
         -5   -1    0    0    0  501 -0.00000000000E+00  0.00000000000E+00  0.83672787518E+02  0.83804685854E+02  0.47000000000E+01 0.  1.
          5   -1    0    0  501    0  0.00000000000E+00 -0.00000000000E+00 -0.23865830443E+03  0.23870457950E+03  0.47000000000E+01 0.  1.
         25    2    1    2    0    0  0.26366200822E+02  0.43105332870E+02 -0.28863370449E+02  0.13788789018E+03  0.12500691915E+03 0.  0.
         25    2    1    2    0    0 -0.26366200822E+02 -0.43105332870E+02 -0.12612214646E+03  0.18462137518E+03  0.12500004030E+03 0.  0.
          5    1    4    4  502    0  0.44306936484E+02  0.10756595786E+02 -0.43873786412E+02  0.63449256163E+02  0.47000000000E+01 0.  1.
         -5    1    4    4    0  502 -0.70673137306E+02 -0.53861928656E+02 -0.82248360050E+02  0.12117211901E+03  0.47000000000E+01 0.  1.
          5    1    3    3  503    0  0.24512309195E+02  0.77422434336E+02  0.14216609919E+02  0.82578984241E+02  0.47000000000E+01 0.  1.
         -5    1    3    3    0  503  0.18538916275E+01 -0.34317101466E+02 -0.43079980367E+02  0.55308905934E+02  0.47000000000E+01 0.  1.
<mgrwt>
<rscale>  0 0.13483155E+03</rscale>
<asrwt>0</asrwt>
<pdfrwt beam="2">  1        5 0.36730367E-01 0.13483314E+03</pdfrwt>
<pdfrwt beam="1">  1       -5 0.12886442E-01 0.13483314E+03</pdfrwt>
<totfact> 0.26598854E+02</totfact>
</mgrwt>
</event>
<event>
 8    1  0.3573290E-007  0.1263064E+03  0.7546771E-02  0.1233047E+00
         -5   -1    0    0    0  501 -0.00000000000E+00  0.00000000000E+00  0.15653595701E+03  0.15660649998E+03  0.47000000000E+01 0. -1.
          5   -1    0    0  501    0  0.00000000000E+00 -0.00000000000E+00 -0.12083574370E+03  0.12092711423E+03  0.47000000000E+01 0. -1.
         25    2    1    2    0    0  0.16626252784E+02  0.71456933577E+01  0.72954731968E+02  0.14586189033E+03  0.12500321963E+03 0.  0.
         25    2    1    2    0    0 -0.16626252784E+02 -0.71456933577E+01 -0.37254518660E+02  0.13167172388E+03  0.12498820142E+03 0.  0.
          5    1    3    3  502    0 -0.29947042094E+02 -0.67341842375E+01 -0.22701434053E+02  0.38465824775E+02  0.47000000000E+01 0.  1.
         -5    1    3    3    0  502  0.46573294878E+02  0.13879877595E+02  0.95656166022E+02  0.10739606555E+03  0.47000000000E+01 0.  1.
          5    1    4    4  503    0  0.53505991275E+02  0.76842803957E+01 -0.19665954303E+02  0.57712901731E+02  0.47000000000E+01 0.  1.
         -5    1    4    4    0  503 -0.70132244059E+02 -0.14829973753E+02 -0.17588564357E+02  0.73958822154E+02  0.47000000000E+01 0.  1.
<mgrwt>
<rscale>  0 0.12630265E+03</rscale>
<asrwt>0</asrwt>
<pdfrwt beam="2">  1        5 0.18602569E-01 0.12630637E+03</pdfrwt>
<pdfrwt beam="1">  1       -5 0.24094910E-01 0.12630637E+03</pdfrwt>
<totfact> 0.30483056E+02</totfact>
</mgrwt>
</event>
<event>
 8    1  0.3573290E-007  0.1531715E+03  0.7546771E-02  0.1196634E+00
         -5   -1    0    0    0  501 -0.00000000000E+00  0.00000000000E+00  0.44786285488E+03  0.44788751577E+03  0.47000000000E+01 0.  1.
          5   -1    0    0  501    0  0.00000000000E+00 -0.00000000000E+00 -0.65343541119E+02  0.65512352774E+02  0.47000000000E+01 0.  1.
         25    2    1    2    0    0 -0.81426346429E+02 -0.34730348443E+02  0.30597767340E+03  0.34216868759E+03  0.12498250739E+03 0.  0.
         25    2    1    2    0    0  0.81426346429E+02  0.34730348443E+02  0.76541640364E+02  0.17123118095E+03  0.12500019050E+03 0.  0.
          5    1    4    4  502    0 -0.14827852861E+02  0.40996720650E+02  0.58303107314E+02  0.72951618535E+02  0.47000000000E+01 0. -1.
         -5    1    4    4    0  502  0.96254199289E+02 -0.62663722065E+01  0.18238533050E+02  0.98279562419E+02  0.47000000000E+01 0. -1.
          5    1    3    3  503    0 -0.10017214164E+03 -0.43431266794E+02  0.30124141320E+03  0.32045157501E+03  0.47000000000E+01 0. -1.
         -5    1    3    3    0  503  0.18745795211E+02  0.87009183504E+01  0.47362601945E+01  0.21717112581E+02  0.47000000000E+01 0. -1.
<mgrwt>
<rscale>  0 0.15316785E+03</rscale>
<asrwt>0</asrwt>
<pdfrwt beam="2">  1        5 0.10067735E-01 0.15317145E+03</pdfrwt>
<pdfrwt beam="1">  1       -5 0.68916862E-01 0.15317145E+03</pdfrwt>
<totfact> 0.11246554E+02</totfact>
</mgrwt>
</event>
<event>
 8    1  0.3573290E-007  0.1489422E+03  0.7546771E-02  0.1201782E+00
          5   -1    0    0  501    0  0.00000000000E+00  0.00000000000E+00  0.27701524300E+03  0.27705511158E+03  0.47000000000E+01 0. -1.
         -5   -1    0    0    0  501 -0.00000000000E+00 -0.00000000000E+00 -0.12124089312E+03  0.12133195854E+03  0.47000000000E+01 0. -1.
         25    2    1    2    0    0 -0.64108724906E+02  0.49469979231E+02 -0.38271175123E+02  0.15377016260E+03  0.12499349026E+03 0.  0.
         25    2    1    2    0    0  0.64108724906E+02 -0.49469979231E+02  0.19404552501E+03  0.24461690752E+03  0.12500623271E+03 0.  0.
          5    1    3    3  502    0 -0.81321340219E+02  0.78756438754E+02 -0.37898603402E+02  0.11947439542E+03  0.47000000000E+01 0.  1.
         -5    1    3    3    0  502  0.17212615312E+02 -0.29286459523E+02 -0.37257172033E+00  0.34295767187E+02  0.47000000000E+01 0.  1.
          5    1    4    4  503    0  0.95602351832E+02 -0.14774803843E+02  0.15796304359E+03  0.18529036037E+03  0.47000000000E+01 0.  1.
         -5    1    4    4    0  503 -0.31493626926E+02 -0.34695175388E+02  0.36082481418E+02  0.59326547156E+02  0.47000000000E+01 0.  1.
<mgrwt>
<rscale>  0 0.14893948E+03</rscale>
<asrwt>0</asrwt>
<pdfrwt beam="1">  1        5 0.42627801E-01 0.14894216E+03</pdfrwt>
<pdfrwt beam="2">  1       -5 0.18662517E-01 0.14894216E+03</pdfrwt>
<totfact> 0.10342547E+02</totfact>
</mgrwt>
</event>
<event>
 8    1  0.3573290E-007  0.1320900E+03  0.7546771E-02  0.1224391E+00
         -5   -1    0    0    0  501 -0.00000000000E+00  0.00000000000E+00  0.44198466287E+03  0.44200965172E+03  0.47000000000E+01 0. -1.
          5   -1    0    0  501    0  0.00000000000E+00 -0.00000000000E+00 -0.40544440496E+02  0.40815948539E+02  0.47000000000E+01 0. -1.
         25    2    1    2    0    0 -0.27078074510E+02 -0.32986289321E+02  0.24273276776E+03  0.27634117129E+03  0.12499571593E+03 0.  0.
         25    2    1    2    0    0  0.27078074510E+02  0.32986289321E+02  0.15870745462E+03  0.20648442897E+03  0.12500578329E+03 0.  0.
          5    1    3    3  502    0  0.43664260091E+02 -0.17912965147E+02  0.43589922271E+02  0.64417491827E+02  0.47000000000E+01 0. -1.
         -5    1    3    3    0  502 -0.70742334601E+02 -0.15073324174E+02  0.19914284549E+03  0.21192367946E+03  0.47000000000E+01 0. -1.
          5    1    4    4  503    0  0.33138909609E+02 -0.35048690528E+02  0.11618714456E+03  0.12588939828E+03  0.47000000000E+01 0.  1.
         -5    1    4    4    0  503 -0.60608350986E+01  0.68034979850E+02  0.42520310054E+02  0.80595030693E+02  0.47000000000E+01 0.  1.
<mgrwt>
<rscale>  0 0.13208760E+03</rscale>
<asrwt>0</asrwt>
<pdfrwt beam="2">  1        5 0.62604134E-02 0.13208998E+03</pdfrwt>
<pdfrwt beam="1">  1       -5 0.68020451E-01 0.13208998E+03</pdfrwt>
<totfact> 0.24924236E+02</totfact>
</mgrwt>
</event>
<event>
 8    1  0.3573290E-007  0.2508964E+03  0.7546771E-02  0.1112743E+00
         -5   -1    0    0    0  501 -0.00000000000E+00  0.00000000000E+00  0.82995405990E+03  0.82996736776E+03  0.47000000000E+01 0. -1.
          5   -1    0    0  501    0  0.00000000000E+00 -0.00000000000E+00 -0.10276021885E+03  0.10286764592E+03  0.47000000000E+01 0. -1.
         25    2    1    2    0    0 -0.10802681168E+03  0.18882212235E+03  0.60255866855E+03  0.65270663859E+03  0.12500168430E+03 0.  0.
         25    2    1    2    0    0  0.10802681168E+03 -0.18882212235E+03  0.12463517250E+03  0.28012837509E+03  0.12495757030E+03 0.  0.
          5    1    3    3  502    0 -0.41531598647E+02 -0.32849443469E+01  0.16440840152E+03  0.16966990610E+03  0.47000000000E+01 0. -1.
         -5    1    3    3    0  502 -0.66495213029E+02  0.19210706670E+03  0.43815026703E+03  0.48303673249E+03  0.47000000000E+01 0. -1.
          5    1    4    4  503    0  0.13598699428E+03 -0.16189442661E+03  0.10998839480E+03  0.23837324718E+03  0.47000000000E+01 0.  1.
         -5    1    4    4    0  503 -0.27960182606E+02 -0.26927695743E+02  0.14646777697E+02  0.41755127905E+02  0.47000000000E+01 0.  1.
<mgrwt>
<rscale>  0 0.25089091E+03</rscale>
<asrwt>0</asrwt>
<pdfrwt beam="2">  1        5 0.15818552E-01 0.25089641E+03</pdfrwt>
<pdfrwt beam="1">  1       -5 0.12769453E+00 0.25089641E+03</pdfrwt>
<totfact> 0.12751053E+01</totfact>
</mgrwt>
</event>
<event>
 8    1  0.3573290E-007  0.1716361E+03  0.7546771E-02  0.1176157E+00
         -5   -1    0    0    0  501 -0.00000000000E+00  0.00000000000E+00  0.52101013139E+03  0.52103133016E+03  0.47000000000E+01 0.  1.
          5   -1    0    0  501    0  0.00000000000E+00 -0.00000000000E+00 -0.63009107748E+02  0.63184156711E+02  0.47000000000E+01 0.  1.
         25    2    1    2    0    0  0.99522175921E+02 -0.62656714296E+02  0.32332681988E+03  0.36605023746E+03  0.12498806562E+03 0.  0.
         25    2    1    2    0    0 -0.99522175921E+02  0.62656714296E+02  0.13467420376E+03  0.21816524941E+03  0.12501362944E+03 0.  0.
          5    1    4    4  502    0 -0.11615834210E+03  0.10870668597E+02  0.85878537839E+02  0.14494186813E+03  0.47000000000E+01 0. -1.
         -5    1    4    4    0  502  0.16636166174E+02  0.51786045699E+02  0.48795665924E+02  0.73223381287E+02  0.47000000000E+01 0. -1.
          5    1    3    3  503    0  0.23625520260E+02 -0.84785118231E+02  0.12931158332E+03  0.15649363265E+03  0.47000000000E+01 0.  1.
         -5    1    3    3    0  503  0.75896655661E+02  0.22128403935E+02  0.19401523656E+03  0.20955660481E+03  0.47000000000E+01 0.  1.
<mgrwt>
<rscale>  0 0.17163140E+03</rscale>
<asrwt>0</asrwt>
<pdfrwt beam="2">  1        5 0.97088051E-02 0.17163605E+03</pdfrwt>
<pdfrwt beam="1">  1       -5 0.80170499E-01 0.17163605E+03</pdfrwt>
<totfact> 0.87732937E+01</totfact>
</mgrwt>
</event>
<event>
 8    1  0.3573290E-007  0.1283403E+03  0.7546771E-02  0.1229943E+00
          5   -1    0    0  501    0  0.00000000000E+00  0.00000000000E+00  0.20605385841E+03  0.20610745393E+03  0.47000000000E+01 0.  1.
         -5   -1    0    0    0  501 -0.00000000000E+00 -0.00000000000E+00 -0.10062822660E+03  0.10073792726E+03  0.47000000000E+01 0.  1.
         25    2    1    2    0    0  0.15998319242E+01  0.29012710398E+02 -0.17029047882E+02  0.12946515223E+03  0.12500776113E+03 0.  0.
         25    2    1    2    0    0 -0.15998319242E+01 -0.29012710398E+02  0.12245467968E+03  0.17738022896E+03  0.12499720086E+03 0.  0.
          5    1    4    4  502    0  0.39808729056E+02 -0.62270133065E+02  0.81707722289E+02  0.11027486687E+03  0.47000000000E+01 0. -1.
         -5    1    4    4    0  502 -0.41408560980E+02  0.33257422666E+02  0.40746957395E+02  0.67105362094E+02  0.47000000000E+01 0. -1.
          5    1    3    3  503    0 -0.26464782406E+02  0.71637010616E+02 -0.16193773768E+02  0.78208530907E+02  0.47000000000E+01 0.  1.
         -5    1    3    3    0  503  0.28064614331E+02 -0.42624300217E+02 -0.83527411383E+00  0.51256621322E+02  0.47000000000E+01 0.  1.
<mgrwt>
<rscale>  0 0.12833775E+03</rscale>
<asrwt>0</asrwt>
<pdfrwt beam="1">  1        5 0.31713155E-01 0.12834032E+03</pdfrwt>
<pdfrwt beam="2">  1       -5 0.15493827E-01 0.12834032E+03</pdfrwt>
<totfact> 0.25156911E+02</totfact>
</mgrwt>
</event>
<event>
 8    1  0.3573290E-007  0.1390069E+03  0.7546771E-02  0.1214681E+00
         -5   -1    0    0    0  501 -0.00000000000E+00  0.00000000000E+00  0.11181861708E+03  0.11191734953E+03  0.47000000000E+01 0.  1.
          5   -1    0    0  501    0  0.00000000000E+00 -0.00000000000E+00 -0.17320178759E+03  0.17326554540E+03  0.47000000000E+01 0.  1.
         25    2    1    2    0    0 -0.43826696889E+02  0.42086220176E+02 -0.22045082205E+02  0.14074413970E+03  0.12502358946E+03 0.  0.
         25    2    1    2    0    0  0.43826696889E+02 -0.42086220176E+02 -0.39338088298E+02  0.14443875524E+03  0.12499215789E+03 0.  0.
          5    1    4    4  502    0  0.71767379378E+02 -0.68230993208E+02 -0.19332036676E+02  0.10100417229E+03  0.47000000000E+01 0. -1.
         -5    1    4    4    0  502 -0.27940682489E+02  0.26144773032E+02 -0.20006051622E+02  0.43434582954E+02  0.47000000000E+01 0. -1.
          5    1    3    3  503    0 -0.45130104873E+02  0.74488171497E+02 -0.47441531203E+02  0.99287476258E+02  0.47000000000E+01 0.  1.
         -5    1    3    3    0  503  0.13034079840E+01 -0.32401951320E+02  0.25396448998E+02  0.41456663439E+02  0.47000000000E+01 0.  1.
<mgrwt>
<rscale>  0 0.13899986E+03</rscale>
<asrwt>0</asrwt>
<pdfrwt beam="2">  1        5 0.26658928E-01 0.13900693E+03</pdfrwt>
<pdfrwt beam="1">  1       -5 0.17215363E-01 0.13900693E+03</pdfrwt>
<totfact> 0.29961434E+02</totfact>
</mgrwt>
</event>
<event>
 8    1  0.3573290E-007  0.1288595E+03  0.7546771E-02  0.1229160E+00
         -5   -1    0    0    0  501 -0.00000000000E+00  0.00000000000E+00  0.57363200694E+02  0.57555423670E+02  0.47000000000E+01 0. -1.
          5   -1    0    0  501    0  0.00000000000E+00 -0.00000000000E+00 -0.38518903981E+03  0.38521771297E+03  0.47000000000E+01 0. -1.
         25    2    1    2    0    0 -0.30113089954E+02  0.84960606247E+01 -0.53179206058E+02  0.13940154138E+03  0.12500312216E+03 0.  0.
         25    2    1    2    0    0  0.30113089954E+02 -0.84960606247E+01 -0.27464663305E+03  0.30337159526E+03  0.12499828211E+03 0.  0.
          5    1    3    3  502    0  0.16216689601E+02  0.46212390078E+02  0.12224216694E+02  0.50696030339E+02  0.47000000000E+01 0. -1.
         -5    1    3    3    0  502 -0.46329779555E+02 -0.37716329453E+02 -0.65403422752E+02  0.88705511039E+02  0.47000000000E+01 0. -1.
          5    1    4    4  503    0  0.52387939213E+02  0.61749144831E+01 -0.27090285183E+03  0.27603092376E+03  0.47000000000E+01 0.  1.
         -5    1    4    4    0  503 -0.22274849259E+02 -0.14670975108E+02 -0.37437812226E+01  0.27340671498E+02  0.47000000000E+01 0.  1.
<mgrwt>
<rscale>  0 0.12885829E+03</rscale>
<asrwt>0</asrwt>
<pdfrwt beam="2">  1        5 0.59276843E-01 0.12885947E+03</pdfrwt>
<pdfrwt beam="1">  1       -5 0.88421000E-02 0.12885947E+03</pdfrwt>
<totfact> 0.18588556E+02</totfact>
</mgrwt>
</event>
<event>
 8    1  0.3573290E-007  0.1377457E+03  0.7546771E-02  0.1216396E+00
         -5   -1    0    0    0  501 -0.00000000000E+00  0.00000000000E+00  0.43398148473E+02  0.43651910507E+02  0.47000000000E+01 0.  1.
          5   -1    0    0  501    0  0.00000000000E+00 -0.00000000000E+00 -0.60996708301E+03  0.60998519027E+03  0.47000000000E+01 0.  1.
         25    2    1    2    0    0 -0.32920826538E+02 -0.47601846624E+02 -0.10861558236E+03  0.17541726488E+03  0.12499662181E+03 0.  0.
         25    2    1    2    0    0  0.32920826538E+02  0.47601846624E+02 -0.45795335217E+03  0.47821983590E+03  0.12499288805E+03 0.  0.
          5    1    3    3  502    0 -0.13800900749E+02  0.39644464741E+02 -0.12336684047E+02  0.44004911310E+02  0.47000000000E+01 0.  1.
         -5    1    3    3    0  502 -0.19119925789E+02 -0.87246311366E+02 -0.96278898317E+02  0.13141235357E+03  0.47000000000E+01 0.  1.
          5    1    4    4  503    0  0.76249161191E+02  0.37842421252E+02 -0.21669097300E+03  0.23285843598E+03  0.47000000000E+01 0. -1.
         -5    1    4    4    0  503 -0.43328334653E+02  0.97594253718E+01 -0.24126237917E+03  0.24536139992E+03  0.47000000000E+01 0. -1.
<mgrwt>
<rscale>  0 0.13774483E+03</rscale>
<asrwt>0</asrwt>
<pdfrwt beam="2">  1        5 0.93861997E-01 0.13774568E+03</pdfrwt>
<pdfrwt beam="1">  1       -5 0.66975517E-02 0.13774568E+03</pdfrwt>
<totfact> 0.10706263E+02</totfact>
</mgrwt>
</event>
<event>
 8    1  0.3573290E-007  0.1265432E+03  0.7546771E-02  0.1232694E+00
         -5   -1    0    0    0  501 -0.00000000000E+00  0.00000000000E+00  0.13095022297E+02  0.13912929561E+02  0.47000000000E+01 0.  1.
          5   -1    0    0  501    0  0.00000000000E+00 -0.00000000000E+00 -0.13085360974E+04  0.13085445381E+04  0.47000000000E+01 0.  1.
         25    2    1    2    0    0 -0.16863868786E+02 -0.94820699461E+01 -0.44416984720E+03  0.46183218350E+03  0.12501125084E+03 0.  0.
         25    2    1    2    0    0  0.16863868786E+02  0.94820699461E+01 -0.85127122794E+03  0.86062528420E+03  0.12505549392E+03 0.  0.
          5    1    3    3  502    0  0.57137076681E+01  0.43287187347E+02 -0.33982253090E+03  0.34264831760E+03  0.47000000000E+01 0. -1.
         -5    1    3    3    0  502 -0.22577576454E+02 -0.52769257293E+02 -0.10434731630E+03  0.11918386591E+03  0.47000000000E+01 0. -1.
          5    1    4    4  503    0  0.64799864909E+02  0.77968919403E+01 -0.29011066393E+03  0.29739889263E+03  0.47000000000E+01 0. -1.
         -5    1    4    4    0  503 -0.47935996123E+02  0.16851780057E+01 -0.56116056401E+03  0.56322639156E+03  0.47000000000E+01 0. -1.
<mgrwt>
<rscale>  0 0.12653225E+03</rscale>
<asrwt>0</asrwt>
<pdfrwt beam="2">  1        5 0.20137671E+00 0.12654318E+03</pdfrwt>
<pdfrwt beam="1">  1       -5 0.20781851E-02 0.12654318E+03</pdfrwt>
<totfact> 0.91077534E+01</totfact>
</mgrwt>
</event>
<event>
 8    1  0.3573290E-007  0.1281491E+03  0.7546771E-02  0.1230234E+00
         -5   -1    0    0    0  501 -0.00000000000E+00  0.00000000000E+00  0.27492314406E+02  0.27891169775E+02  0.47000000000E+01 0. -1.
          5   -1    0    0  501    0  0.00000000000E+00 -0.00000000000E+00 -0.64437672866E+03  0.64439386903E+03  0.47000000000E+01 0. -1.
         25    2    1    2    0    0 -0.11681397406E+02 -0.25668180022E+02 -0.21313155570E+03  0.24868314313E+03  0.12499174025E+03 0.  0.
         25    2    1    2    0    0  0.11681397406E+02  0.25668180022E+02 -0.40375285855E+03  0.42360189567E+03  0.12500753864E+03 0.  0.
          5    1    3    3  502    0  0.54494157782E+02 -0.14069468506E+02 -0.12968448600E+03  0.14144864469E+03  0.47000000000E+01 0.  1.
         -5    1    3    3    0  502 -0.66175555188E+02 -0.11598711516E+02 -0.83447069704E+02  0.10723449844E+03  0.47000000000E+01 0.  1.
          5    1    4    4  503    0 -0.21001328246E+01  0.68790160845E+02 -0.14138953159E+03  0.15732001281E+03  0.47000000000E+01 0.  1.
         -5    1    4    4    0  503  0.13781530231E+02 -0.43121980823E+02 -0.26236332696E+03  0.26628188286E+03  0.47000000000E+01 0.  1.
<mgrwt>
<rscale>  0 0.12814526E+03</rscale>
<asrwt>0</asrwt>
<pdfrwt beam="2">  1        5 0.99166870E-01 0.12814911E+03</pdfrwt>
<pdfrwt beam="1">  1       -5 0.42615870E-02 0.12814911E+03</pdfrwt>
<totfact> 0.19455307E+02</totfact>
</mgrwt>
</event>
<event>
 8    1  0.3573290E-007  0.1500354E+03  0.7546771E-02  0.1200430E+00
         -5   -1    0    0    0  501 -0.00000000000E+00  0.00000000000E+00  0.77898994069E+03  0.77900411918E+03  0.47000000000E+01 0.  1.
          5   -1    0    0  501    0  0.00000000000E+00 -0.00000000000E+00 -0.29331004374E+02  0.29705181662E+02  0.47000000000E+01 0.  1.
         25    2    1    2    0    0 -0.81235953681E+02  0.16910160959E+02  0.43415944092E+03  0.45935195924E+03  0.12499827441E+03 0.  0.
         25    2    1    2    0    0  0.81235953681E+02 -0.16910160959E+02  0.31549949540E+03  0.34935734160E+03  0.12500154727E+03 0.  0.
          5    1    3    3  502    0 -0.27587649121E+02  0.79649216003E+01  0.38435636871E+03  0.38545612789E+03  0.47000000000E+01 0. -1.
         -5    1    3    3    0  502 -0.53648304560E+02  0.89452393588E+01  0.49803072207E+02  0.73895831347E+02  0.47000000000E+01 0. -1.
          5    1    4    4  503    0  0.75516552307E+02 -0.13611031737E+02  0.32664886002E+03  0.33557350552E+03  0.47000000000E+01 0.  1.
         -5    1    4    4    0  503  0.57194013737E+01 -0.32991292226E+01 -0.11149364618E+02  0.13783836080E+02  0.47000000000E+01 0.  1.
<mgrwt>
<rscale>  0 0.15003472E+03</rscale>
<asrwt>0</asrwt>
<pdfrwt beam="2">  1        5 0.45423364E-02 0.15003540E+03</pdfrwt>
<pdfrwt beam="1">  1       -5 0.11987446E+00 0.15003540E+03</pdfrwt>
<totfact> 0.11508757E+02</totfact>
</mgrwt>
</event>
<event>
 8    1  0.3573290E-007  0.1314344E+03  0.7546771E-02  0.1225345E+00
         -5   -1    0    0    0  501 -0.00000000000E+00  0.00000000000E+00  0.64008243888E+02  0.64180567819E+02  0.47000000000E+01 0. -1.
          5   -1    0    0  501    0  0.00000000000E+00 -0.00000000000E+00 -0.27112954853E+03  0.27117028245E+03  0.47000000000E+01 0. -1.
         25    2    1    2    0    0 -0.27656563934E+02  0.29720498321E+02 -0.89860590231E+02  0.15921149413E+03  0.12500072255E+03 0.  0.
         25    2    1    2    0    0  0.27656563934E+02 -0.29720498321E+02 -0.11726071441E+03  0.17613935614E+03  0.12500721614E+03 0.  0.
          5    1    4    4  502    0  0.77577357679E+02 -0.16250059923E+02 -0.67281309052E+02  0.10407293318E+03  0.47000000000E+01 0. -1.
         -5    1    4    4    0  502 -0.49920793745E+02 -0.13470438397E+02 -0.49979405355E+02  0.72066422961E+02  0.47000000000E+01 0. -1.
          5    1    3    3  503    0  0.35188949938E+02  0.31956226839E+02 -0.83020736126E+02  0.95780975452E+02  0.47000000000E+01 0. -1.
         -5    1    3    3    0  503 -0.62845513872E+02 -0.22357285181E+01 -0.68398541044E+01  0.63430518680E+02  0.47000000000E+01 0. -1.
<mgrwt>
<rscale>  0 0.13143284E+03</rscale>
<asrwt>0</asrwt>
<pdfrwt beam="2">  1        5 0.41728627E-01 0.13143439E+03</pdfrwt>
<pdfrwt beam="1">  1       -5 0.98638113E-02 0.13143439E+03</pdfrwt>
<totfact> 0.32557222E+02</totfact>
</mgrwt>
</event>
<event>
 8    1  0.3573290E-007  0.1269157E+03  0.7546771E-02  0.1232107E+00
         -5   -1    0    0    0  501 -0.00000000000E+00  0.00000000000E+00  0.12373585791E+02  0.13236148432E+02  0.47000000000E+01 0.  1.
          5   -1    0    0  501    0  0.00000000000E+00 -0.00000000000E+00 -0.13453021016E+04  0.13453103116E+04  0.47000000000E+01 0.  1.
         25    2    1    2    0    0 -0.60723988986E+00  0.21982175407E+02 -0.49250227190E+03  0.50859124809E+03  0.12499193984E+03 0.  0.
         25    2    1    2    0    0  0.60723988986E+00 -0.21982175407E+02 -0.84042624393E+03  0.84995521199E+03  0.12499602448E+03 0.  0.
          5    1    4    4  502    0  0.36479303095E+02  0.28463212506E+02 -0.15776551343E+03  0.16447778345E+03  0.47000000000E+01 0. -1.
         -5    1    4    4    0  502 -0.35872063206E+02 -0.50445387913E+02 -0.68266073049E+03  0.68547742854E+03  0.47000000000E+01 0. -1.
          5    1    3    3  503    0 -0.46370372043E+02 -0.19642488657E+02 -0.34328006907E+03  0.34698607261E+03  0.47000000000E+01 0. -1.
         -5    1    3    3    0  503  0.45763132153E+02  0.41624664064E+02 -0.14922220283E+03  0.16160517548E+03  0.47000000000E+01 0. -1.
<mgrwt>
<rscale>  0 0.12691468E+03</rscale>
<asrwt>0</asrwt>
<pdfrwt beam="2">  1        5 0.20703642E+00 0.12691568E+03</pdfrwt>
<pdfrwt beam="1">  1       -5 0.19706122E-02 0.12691568E+03</pdfrwt>
<totfact> 0.90907778E+01</totfact>
</mgrwt>
</event>
<event>
 8    1  0.3573290E-007  0.1339072E+03  0.7546771E-02  0.1221783E+00
         -5   -1    0    0    0  501 -0.00000000000E+00  0.00000000000E+00  0.25590608662E+03  0.25594924334E+03  0.47000000000E+01 0. -1.
          5   -1    0    0  501    0  0.00000000000E+00 -0.00000000000E+00 -0.80978465848E+02  0.81114745461E+02  0.47000000000E+01 0. -1.
         25    2    1    2    0    0 -0.23976288843E+02  0.41619044710E+02  0.14967322703E+03  0.20083131124E+03  0.12499653345E+03 0.  0.
         25    2    1    2    0    0  0.23976288843E+02 -0.41619044710E+02  0.25254393740E+02  0.13623267756E+03  0.12495819590E+03 0.  0.
          5    1    4    4  502    0  0.51017476521E+02 -0.51349297656E+02  0.57662202860E+02  0.92663654790E+02  0.47000000000E+01 0. -1.
         -5    1    4    4    0  502 -0.27041187678E+02  0.97302529459E+01 -0.32407809121E+02  0.43569022774E+02  0.47000000000E+01 0. -1.
          5    1    3    3  503    0 -0.63147437817E+02 -0.50845382379E+01  0.11273710338E+03  0.12940322991E+03  0.47000000000E+01 0.  1.
         -5    1    3    3    0  503  0.39171148975E+02  0.46703582948E+02  0.36936123643E+02  0.71428081327E+02  0.47000000000E+01 0.  1.
<mgrwt>
<rscale>  0 0.13389826E+03</rscale>
<asrwt>0</asrwt>
<pdfrwt beam="2">  1        5 0.12472029E-01 0.13390721E+03</pdfrwt>
<pdfrwt beam="1">  1       -5 0.39383969E-01 0.13390721E+03</pdfrwt>
<totfact> 0.24415808E+02</totfact>
</mgrwt>
</event>
<event>
 8    1  0.3573290E-007  0.1276213E+03  0.7546771E-02  0.1231029E+00
         -5   -1    0    0    0  501 -0.00000000000E+00  0.00000000000E+00  0.37130570061E+02  0.37426851765E+02  0.47000000000E+01 0.  1.
          5   -1    0    0  501    0  0.00000000000E+00 -0.00000000000E+00 -0.43707487547E+03  0.43710014501E+03  0.47000000000E+01 0.  1.
         25    2    1    2    0    0  0.25629348868E+02  0.13050621138E+01 -0.20787831013E+03  0.24392741784E+03  0.12501450572E+03 0.  0.
         25    2    1    2    0    0 -0.25629348868E+02 -0.13050621138E+01 -0.19206599528E+03  0.23059957894E+03  0.12501300953E+03 0.  0.
          5    1    3    3  502    0  0.34796708524E+02 -0.53879489187E+02 -0.15045007597E+03  0.16361884256E+03  0.47000000000E+01 0. -1.
         -5    1    3    3    0  502 -0.91673596561E+01  0.55184551301E+02 -0.57428234155E+02  0.80308575280E+02  0.47000000000E+01 0. -1.
          5    1    4    4  503    0  0.19222358784E+02  0.13979564902E+01  0.10921282954E+02  0.22645480364E+02  0.47000000000E+01 0. -1.
         -5    1    4    4    0  503 -0.44851707652E+02 -0.27030186040E+01 -0.20298727823E+03  0.20795409857E+03  0.47000000000E+01 0. -1.
<mgrwt>
<rscale>  0 0.12762092E+03</rscale>
<asrwt>0</asrwt>
<pdfrwt beam="2">  1        5 0.67267020E-01 0.12762129E+03</pdfrwt>
<pdfrwt beam="1">  1       -5 0.57371304E-02 0.12762129E+03</pdfrwt>
<totfact> 0.29220231E+02</totfact>
</mgrwt>
</event>
<event>
 8    1  0.3573290E-007  0.1305867E+03  0.7546771E-02  0.1226590E+00
          5   -1    0    0  501    0  0.00000000000E+00  0.00000000000E+00  0.18285599115E+03  0.18291638390E+03  0.47000000000E+01 0. -1.
         -5   -1    0    0    0  501 -0.00000000000E+00 -0.00000000000E+00 -0.98636099767E+02  0.98748013536E+02  0.47000000000E+01 0. -1.
         25    2    1    2    0    0 -0.16354407802E+02  0.34044680483E+02  0.88326908382E+01  0.13088506481E+03  0.12500550724E+03 0.  0.
         25    2    1    2    0    0  0.16354407802E+02 -0.34044680483E+02  0.75387200546E+02  0.15077933263E+03  0.12499868086E+03 0.  0.
          5    1    3    3  502    0 -0.19948663089E+01  0.81016686896E+02  0.34589626674E+01  0.81251076731E+02  0.47000000000E+01 0.  1.
         -5    1    3    3    0  502 -0.14359541493E+02 -0.46972006413E+02  0.53737281707E+01  0.49633988081E+02  0.47000000000E+01 0.  1.
          5    1    4    4  503    0 -0.33395248480E+02 -0.28164612611E+02  0.88478895891E+02  0.98788121971E+02  0.47000000000E+01 0. -1.
         -5    1    4    4    0  503  0.49749656282E+02 -0.58800678720E+01 -0.13091695345E+02  0.51991210655E+02  0.47000000000E+01 0. -1.
<mgrwt>
<rscale>  0 0.13058506E+03</rscale>
<asrwt>0</asrwt>
<pdfrwt beam="1">  1        5 0.28144945E-01 0.13058669E+03</pdfrwt>
<pdfrwt beam="2">  1       -5 0.15188039E-01 0.13058669E+03</pdfrwt>
<totfact> 0.33162288E+02</totfact>
</mgrwt>
</event>
<event>
 8    1  0.3573290E-007  0.1382394E+03  0.7546771E-02  0.1215721E+00
         -5   -1    0    0    0  501 -0.00000000000E+00  0.00000000000E+00  0.16363658259E+03  0.16370406580E+03  0.47000000000E+01 0. -1.
          5   -1    0    0  501    0  0.00000000000E+00 -0.00000000000E+00 -0.16370584634E+03  0.16377330101E+03  0.47000000000E+01 0. -1.
         25    2    1    2    0    0  0.43404786858E+02  0.40021996010E+02  0.87722631839E+02  0.16371673649E+03  0.12498869542E+03 0.  0.
         25    2    1    2    0    0 -0.43404786858E+02 -0.40021996010E+02 -0.87791895588E+02  0.16376063033E+03  0.12499756569E+03 0.  0.
          5    1    4    4  502    0  0.23051567498E+02 -0.61873694262E+02 -0.56296524016E+02  0.86897165788E+02  0.47000000000E+01 0. -1.
         -5    1    4    4    0  502 -0.66456354357E+02  0.21851698252E+02 -0.31495371573E+02  0.76863464542E+02  0.47000000000E+01 0. -1.
          5    1    3    3  503    0  0.97169207168E+01  0.64232080678E+02 -0.15635494582E+01  0.65151465243E+02  0.47000000000E+01 0. -1.
         -5    1    3    3    0  503  0.33687866142E+02 -0.24210084668E+02  0.89286181297E+02  0.98565271244E+02  0.47000000000E+01 0. -1.
<mgrwt>
<rscale>  0 0.13823738E+03</rscale>
<asrwt>0</asrwt>
<pdfrwt beam="2">  1        5 0.25195895E-01 0.13823938E+03</pdfrwt>
<pdfrwt beam="1">  1       -5 0.25185239E-01 0.13823938E+03</pdfrwt>
<totfact> 0.16331097E+02</totfact>
</mgrwt>
</event>
<event>
 8    1  0.3573290E-007  0.1299145E+03  0.7546771E-02  0.1227596E+00
          5   -1    0    0  501    0  0.00000000000E+00  0.00000000000E+00  0.36176053764E+03  0.36179106760E+03  0.47000000000E+01 0.  1.
         -5   -1    0    0    0  501 -0.00000000000E+00 -0.00000000000E+00 -0.47157009621E+02  0.47390648407E+02  0.47000000000E+01 0.  1.
         25    2    1    2    0    0 -0.25178198670E+02 -0.24849672301E+02  0.13306936742E+03  0.18597106442E+03  0.12500532930E+03 0.  0.
         25    2    1    2    0    0  0.25178198670E+02  0.24849672301E+02  0.18153416060E+03  0.22321065159E+03  0.12496757826E+03 0.  0.
          5    1    3    3  502    0 -0.34016222679E+02 -0.70758909845E+02  0.59272055237E+02  0.98484482330E+02  0.47000000000E+01 0. -1.
         -5    1    3    3    0  502  0.88380240086E+01  0.45909237544E+02  0.73797312181E+02  0.87486582087E+02  0.47000000000E+01 0. -1.
          5    1    4    4  503    0 -0.42020476451E+02 -0.15416195715E+02  0.10194003385E+03  0.11143267040E+03  0.47000000000E+01 0.  1.
         -5    1    4    4    0  503  0.67198675121E+02  0.40265868016E+02  0.79594126758E+02  0.11177798119E+03  0.47000000000E+01 0.  1.
<mgrwt>
<rscale>  0 0.12990543E+03</rscale>
<asrwt>0</asrwt>
<pdfrwt beam="1">  1        5 0.55675790E-01 0.12991451E+03</pdfrwt>
<pdfrwt beam="2">  1       -5 0.72752449E-02 0.12991451E+03</pdfrwt>
<totfact> 0.29829984E+02</totfact>
</mgrwt>
</event>
<event>
 8    1  0.3573290E-007  0.1408830E+03  0.7546771E-02  0.1212149E+00
          5   -1    0    0  501    0  0.00000000000E+00  0.00000000000E+00  0.27690402471E+03  0.27694390931E+03  0.47000000000E+01 0.  1.
         -5   -1    0    0    0  501 -0.00000000000E+00 -0.00000000000E+00 -0.71966095104E+02  0.72119406851E+02  0.47000000000E+01 0.  1.
         25    2    1    2    0    0  0.51158883575E+02 -0.40036310477E+02  0.89242114578E+02  0.16676985250E+03  0.12501156412E+03 0.  0.
         25    2    1    2    0    0 -0.51158883575E+02  0.40036310477E+02  0.11569581503E+03  0.18229346366E+03  0.12500099100E+03 0.  0.
          5    1    3    3  502    0  0.50638962262E+01 -0.21177897595E+02  0.11027557877E+03  0.11250306513E+03  0.47000000000E+01 0. -1.
         -5    1    3    3    0  502  0.46094987349E+02 -0.18858412883E+02 -0.21033464191E+02  0.54266787366E+02  0.47000000000E+01 0. -1.
          5    1    4    4  503    0 -0.58213114418E+02  0.69204939402E+02  0.36789994736E+02  0.97742948803E+02  0.47000000000E+01 0.  1.
         -5    1    4    4    0  503  0.70542308429E+01 -0.29168628925E+02  0.78905820294E+02  0.84550514856E+02  0.47000000000E+01 0.  1.
<mgrwt>
<rscale>  0 0.14088069E+03</rscale>
<asrwt>0</asrwt>
<pdfrwt beam="1">  1        5 0.42615480E-01 0.14088303E+03</pdfrwt>
<pdfrwt beam="2">  1       -5 0.11086568E-01 0.14088303E+03</pdfrwt>
<totfact> 0.26020731E+02</totfact>
</mgrwt>
</event>
<event>
 8    1  0.3573290E-007  0.1265611E+03  0.7546771E-02  0.1232650E+00
          5   -1    0    0  501    0  0.00000000000E+00  0.00000000000E+00  0.55371085454E+02  0.55570199787E+02  0.47000000000E+01 0.  1.
         -5   -1    0    0    0  501 -0.00000000000E+00 -0.00000000000E+00 -0.29645832183E+03  0.29649557599E+03  0.47000000000E+01 0.  1.
         25    2    1    2    0    0 -0.18078758793E+02  0.82889425831E+01 -0.14929912301E+03  0.19572416043E+03  0.12498868251E+03 0.  0.
         25    2    1    2    0    0  0.18078758793E+02 -0.82889425831E+01 -0.91788113363E+02  0.15634161535E+03  0.12498837884E+03 0.  0.
          5    1    4    4  502    0  0.56799599087E+02  0.29036302128E+02 -0.77517680362E+02  0.10050065704E+03  0.47000000000E+01 0.  1.
         -5    1    4    4    0  502 -0.38720840295E+02 -0.37325244711E+02 -0.14270433002E+02  0.55840958301E+02  0.47000000000E+01 0.  1.
          5    1    3    3  503    0 -0.78944119199E+01  0.19814474778E+02 -0.16893598075E+03  0.17034198174E+03  0.47000000000E+01 0.  1.
         -5    1    3    3    0  503 -0.10184346873E+02 -0.11525532195E+02  0.19636857736E+02  0.25382178696E+02  0.47000000000E+01 0.  1.
<mgrwt>
<rscale>  0 0.12656105E+03</rscale>
<asrwt>0</asrwt>
<pdfrwt beam="1">  1        5 0.85368109E-02 0.12656113E+03</pdfrwt>
<pdfrwt beam="2">  1       -5 0.45627154E-01 0.12656113E+03</pdfrwt>
<totfact> 0.34272559E+02</totfact>
</mgrwt>
</event>
<event>
 8    1  0.3573290E-007  0.1902347E+03  0.7546771E-02  0.1158252E+00
         -5   -1    0    0    0  501 -0.00000000000E+00  0.00000000000E+00  0.50342910851E+03  0.50345104756E+03  0.47000000000E+01 0.  1.
          5   -1    0    0  501    0  0.00000000000E+00 -0.00000000000E+00 -0.92199737432E+02  0.92319453976E+02  0.47000000000E+01 0.  1.
         25    2    1    2    0    0  0.14333847401E+03 -0.42046654513E+01  0.34567420797E+03  0.39455737293E+03  0.12498505963E+03 0.  0.
         25    2    1    2    0    0 -0.14333847401E+03  0.42046654513E+01  0.65555163101E+02  0.20121312861E+03  0.12500258546E+03 0.  0.
          5    1    3    3  502    0  0.48884970582E+02  0.31787848229E+02  0.24474253622E+03  0.25163705347E+03  0.47000000000E+01 0. -1.
         -5    1    3    3    0  502  0.94453503430E+02 -0.35992513681E+02  0.10093167175E+03  0.14292031946E+03  0.47000000000E+01 0. -1.
          5    1    4    4  503    0 -0.51178947321E+01 -0.28644868278E+02 -0.19705445885E+02  0.35455830588E+02  0.47000000000E+01 0. -1.
         -5    1    4    4    0  503 -0.13822057928E+03  0.32849533730E+02  0.85260608986E+02  0.16575729802E+03  0.47000000000E+01 0. -1.
<mgrwt>
<rscale>  0 0.19023183E+03</rscale>
<asrwt>0</asrwt>
<pdfrwt beam="2">  1        5 0.14195471E-01 0.19023471E+03</pdfrwt>
<pdfrwt beam="1">  1       -5 0.77461529E-01 0.19023471E+03</pdfrwt>
<totfact> 0.49771764E+01</totfact>
</mgrwt>
</event>
<event>
 8    1  0.3573290E-007  0.1283493E+03  0.7546771E-02  0.1229930E+00
          5   -1    0    0  501    0  0.00000000000E+00  0.00000000000E+00  0.27333590672E+03  0.27337631189E+03  0.47000000000E+01 0. -1.
         -5   -1    0    0    0  501 -0.00000000000E+00 -0.00000000000E+00 -0.61350232984E+02  0.61530001521E+02  0.47000000000E+01 0. -1.
         25    2    1    2    0    0 -0.60151681392E+01 -0.28498763671E+02  0.82387913864E+02  0.15250807594E+03  0.12499033202E+03 0.  0.
         25    2    1    2    0    0  0.60151681392E+01  0.28498763671E+02  0.12959775987E+03  0.18239823747E+03  0.12500070356E+03 0.  0.
          5    1    3    3  502    0 -0.27174429095E+02  0.10985247153E+02  0.99872914824E+02  0.10419123940E+03  0.47000000000E+01 0. -1.
         -5    1    3    3    0  502  0.21159260955E+02 -0.39484010825E+02 -0.17485000961E+02  0.48316836544E+02  0.47000000000E+01 0. -1.
          5    1    4    4  503    0  0.43732501577E+01  0.14429719608E+02  0.15345070444E+03  0.15426130693E+03  0.47000000000E+01 0. -1.
         -5    1    4    4    0  503  0.16419179815E+01  0.14069044064E+02 -0.23852944565E+02  0.28136930535E+02  0.47000000000E+01 0. -1.
<mgrwt>
<rscale>  0 0.12834675E+03</rscale>
<asrwt>0</asrwt>
<pdfrwt beam="1">  1        5 0.42068614E-01 0.12834928E+03</pdfrwt>
<pdfrwt beam="2">  1       -5 0.94554338E-02 0.12834928E+03</pdfrwt>
<totfact> 0.34162365E+02</totfact>
</mgrwt>
</event>
<event>
 8    1  0.3573290E-007  0.1389328E+03  0.7546771E-02  0.1214773E+00
         -5   -1    0    0    0  501 -0.00000000000E+00  0.00000000000E+00  0.17790383801E+03  0.17796591128E+03  0.47000000000E+01 0.  1.
          5   -1    0    0  501    0  0.00000000000E+00 -0.00000000000E+00 -0.30173652762E+03  0.30177313018E+03  0.47000000000E+01 0.  1.
         25    2    1    2    0    0  0.36592241801E+02  0.48346105750E+02  0.13006716330E+03  0.19031297458E+03  0.12500089289E+03 0.  0.
         25    2    1    2    0    0 -0.36592241801E+02 -0.48346105750E+02 -0.25389985291E+03  0.28942606688E+03  0.12500389906E+03 0.  0.
          5    1    3    3  502    0 -0.21688984931E+02  0.60993307624E+02  0.10905376920E+03  0.12690709287E+03  0.47000000000E+01 0. -1.
         -5    1    3    3    0  502  0.58281226732E+02 -0.12647201874E+02  0.21013394098E+02  0.63405881716E+02  0.47000000000E+01 0. -1.
          5    1    4    4  503    0  0.40867241631E+02 -0.28742416819E+02 -0.52124582360E+02  0.72355511534E+02  0.47000000000E+01 0. -1.
         -5    1    4    4    0  503 -0.77459483432E+02 -0.19603688931E+02 -0.20177527055E+03  0.21707055535E+03  0.47000000000E+01 0. -1.
<mgrwt>
<rscale>  0 0.13893209E+03</rscale>
<asrwt>0</asrwt>
<pdfrwt beam="2">  1        5 0.46428595E-01 0.13893276E+03</pdfrwt>
<pdfrwt beam="1">  1       -5 0.27377412E-01 0.13893276E+03</pdfrwt>
<totfact> 0.40985226E+01</totfact>
</mgrwt>
</event>
<event>
 8    1  0.3573290E-007  0.1459748E+03  0.7546771E-02  0.1205511E+00
         -5   -1    0    0    0  501 -0.00000000000E+00  0.00000000000E+00  0.23429659873E+03  0.23434373509E+03  0.47000000000E+01 0.  1.
          5   -1    0    0  501    0  0.00000000000E+00 -0.00000000000E+00 -0.11985449923E+03  0.11994661724E+03  0.47000000000E+01 0.  1.
         25    2    1    2    0    0  0.73797024940E+02  0.15426651378E+02  0.14434730327E+03  0.20529193219E+03  0.12499860398E+03 0.  0.
         25    2    1    2    0    0 -0.73797024940E+02 -0.15426651378E+02 -0.29905203773E+02  0.14899842014E+03  0.12498890162E+03 0.  0.
          5    1    4    4  502    0 -0.27432788311E+02 -0.59809550422E+01 -0.76987856564E+02  0.82082578883E+02  0.47000000000E+01 0. -1.
         -5    1    4    4    0  502 -0.46364236629E+02 -0.94456963358E+01  0.47082652791E+02  0.66915841258E+02  0.47000000000E+01 0. -1.
          5    1    3    3  503    0  0.10284608088E+03  0.37083580001E+02  0.10721474804E+03  0.15319791270E+03  0.47000000000E+01 0. -1.
         -5    1    3    3    0  503 -0.29049055942E+02 -0.21656928623E+02  0.37132555228E+02  0.52094019486E+02  0.47000000000E+01 0. -1.
<mgrwt>
<rscale>  0 0.14597269E+03</rscale>
<asrwt>0</asrwt>
<pdfrwt beam="2">  1        5 0.18449866E-01 0.14597477E+03</pdfrwt>
<pdfrwt beam="1">  1       -5 0.36056342E-01 0.14597477E+03</pdfrwt>
<totfact> 0.14773520E+02</totfact>
</mgrwt>
</event>
<event>
 8    1  0.3573290E-007  0.1252234E+03  0.7546771E-02  0.1234722E+00
          5   -1    0    0  501    0  0.00000000000E+00  0.00000000000E+00  0.26216030014E+02  0.26634005138E+02  0.47000000000E+01 0. -1.
         -5   -1    0    0    0  501 -0.00000000000E+00 -0.00000000000E+00 -0.61873255303E+03  0.61875040378E+03  0.47000000000E+01 0. -1.
         25    2    1    2    0    0 -0.35701492556E+01 -0.64759152303E+01 -0.36209639110E+03  0.38313794683E+03  0.12500482554E+03 0.  0.
         25    2    1    2    0    0  0.35701492556E+01  0.64759152303E+01 -0.23042013191E+03  0.26224646209E+03  0.12500034497E+03 0.  0.
          5    1    4    4  502    0 -0.40119786850E+02 -0.22265536723E+02 -0.19126426329E+03  0.19674719778E+03  0.47000000000E+01 0.  1.
         -5    1    4    4    0  502  0.43689936105E+02  0.28741451954E+02 -0.39155868624E+02  0.65499264309E+02  0.47000000000E+01 0.  1.
          5    1    3    3  503    0 -0.24791756506E-01 -0.37497678887E+02 -0.26731152818E+02  0.46289535183E+02  0.47000000000E+01 0. -1.
         -5    1    3    3    0  503 -0.35453574991E+01  0.31021763656E+02 -0.33536523829E+03  0.33684841165E+03  0.47000000000E+01 0. -1.
<mgrwt>
<rscale>  0 0.12522224E+03</rscale>
<asrwt>0</asrwt>
<pdfrwt beam="1">  1        5 0.40667609E-02 0.12522336E+03</pdfrwt>
<pdfrwt beam="2">  1       -5 0.95223138E-01 0.12522336E+03</pdfrwt>
<totfact> 0.22976800E+02</totfact>
</mgrwt>
</event>
<event>
 8    1  0.3573290E-007  0.1350217E+03  0.7546771E-02  0.1220190E+00
         -5   -1    0    0    0  501 -0.00000000000E+00  0.00000000000E+00  0.12554228750E+03  0.12563023502E+03  0.47000000000E+01 0. -1.
          5   -1    0    0  501    0  0.00000000000E+00 -0.00000000000E+00 -0.19235435970E+03  0.19241177120E+03  0.47000000000E+01 0. -1.
         25    2    1    2    0    0  0.48948032956E+02 -0.14445732308E+02  0.45433224446E+02  0.14245766025E+03  0.12500167186E+03 0.  0.
         25    2    1    2    0    0 -0.48948032956E+02  0.14445732308E+02 -0.11224529665E+03  0.17558434597E+03  0.12500506717E+03 0.  0.
          5    1    3    3  502    0  0.37835326413E+02 -0.68922379919E+02  0.32337299909E+02  0.85144567319E+02  0.47000000000E+01 0. -1.
         -5    1    3    3    0  502  0.11112706543E+02  0.54476647611E+02  0.13095924537E+02  0.57313092929E+02  0.47000000000E+01 0. -1.
          5    1    4    4  503    0 -0.87593201787E+02  0.18718240444E+02 -0.10048460587E+03  0.13469293798E+03  0.47000000000E+01 0. -1.
         -5    1    4    4    0  503  0.38645168831E+02 -0.42725081357E+01 -0.11760690778E+02  0.40891407989E+02  0.47000000000E+01 0. -1.
<mgrwt>
<rscale>  0 0.13502090E+03</rscale>
<asrwt>0</asrwt>
<pdfrwt beam="2">  1        5 0.29604160E-01 0.13502169E+03</pdfrwt>
<pdfrwt beam="1">  1       -5 0.19325380E-01 0.13502169E+03</pdfrwt>
<totfact> 0.19544298E+02</totfact>
</mgrwt>
</event>
<event>
 8    1  0.3573290E-007  0.2123956E+03  0.7546771E-02  0.1139688E+00
         -5   -1    0    0    0  501 -0.00000000000E+00  0.00000000000E+00  0.68396255536E+02  0.68557550797E+02  0.47000000000E+01 0. -1.
          5   -1    0    0  501    0  0.00000000000E+00 -0.00000000000E+00 -0.66967767851E+03  0.66969417132E+03  0.47000000000E+01 0. -1.
         25    2    1    2    0    0  0.17112683594E+03  0.13887261715E+02 -0.25303001536E+03  0.33034128526E+03  0.12499570416E+03 0.  0.
         25    2    1    2    0    0 -0.17112683594E+03 -0.13887261715E+02 -0.34825140762E+03  0.40791043686E+03  0.12503852035E+03 0.  0.
          5    1    4    4  502    0 -0.13955835376E+03 -0.21576835447E+02 -0.34743897621E+03  0.37507069483E+03  0.47000000000E+01 0. -1.
         -5    1    4    4    0  502 -0.31568482181E+02  0.76895737319E+01 -0.81243140690E+00  0.32839742024E+02  0.47000000000E+01 0. -1.
          5    1    3    3  503    0  0.40658930173E+02  0.53340869263E+02 -0.13138921539E+03  0.14759272630E+03  0.47000000000E+01 0.  1.
         -5    1    3    3    0  503  0.13046790577E+03 -0.39453607548E+02 -0.12164079996E+03  0.18274855895E+03  0.47000000000E+01 0.  1.
<mgrwt>
<rscale>  0 0.21238928E+03</rscale>
<asrwt>0</asrwt>
<pdfrwt beam="2">  1        5 0.10304101E+00 0.21239558E+03</pdfrwt>
<pdfrwt beam="1">  1       -5 0.10536177E-01 0.21239558E+03</pdfrwt>
<totfact> 0.44097154E+01</totfact>
</mgrwt>
</event>
<event>
 8    1  0.3573290E-007  0.1382935E+03  0.7546771E-02  0.1215645E+00
         -5   -1    0    0    0  501 -0.00000000000E+00  0.00000000000E+00  0.53061251751E+02  0.53269000717E+02  0.47000000000E+01 0. -1.
          5   -1    0    0  501    0  0.00000000000E+00 -0.00000000000E+00 -0.38491164994E+03  0.38494034377E+03  0.47000000000E+01 0. -1.
         25    2    1    2    0    0  0.53189560950E+02  0.25905944631E+02 -0.10964031890E+03  0.17647971103E+03  0.12499536598E+03 0.  0.
         25    2    1    2    0    0 -0.53189560950E+02 -0.25905944631E+02 -0.22221007929E+03  0.26172963345E+03  0.12499933731E+03 0.  0.
          5    1    3    3  502    0  0.79043912140E+02 -0.22790229633E+02 -0.57740531597E+02  0.10061507642E+03  0.47000000000E+01 0.  1.
         -5    1    3    3    0  502 -0.25854351190E+02  0.48696174265E+02 -0.51899787303E+02  0.75864634617E+02  0.47000000000E+01 0.  1.
          5    1    4    4  503    0  0.34609200009E+02  0.92968049673E+01 -0.28222139146E+02  0.45856367560E+02  0.47000000000E+01 0. -1.
         -5    1    4    4    0  503 -0.87798760960E+02 -0.35202749599E+02 -0.19398794014E+03  0.21587326589E+03  0.47000000000E+01 0. -1.
<mgrwt>
<rscale>  0 0.13829256E+03</rscale>
<asrwt>0</asrwt>
<pdfrwt beam="2">  1        5 0.59235363E-01 0.13829346E+03</pdfrwt>
<pdfrwt beam="1">  1       -5 0.81814576E-02 0.13829346E+03</pdfrwt>
<totfact> 0.21801489E+02</totfact>
</mgrwt>
</event>
<event>
 8    1  0.3573290E-007  0.1637526E+03  0.7546771E-02  0.1184524E+00
         -5   -1    0    0    0  501 -0.00000000000E+00  0.00000000000E+00  0.85767268717E+02  0.85895950913E+02  0.47000000000E+01 0. -1.
          5   -1    0    0  501    0  0.00000000000E+00 -0.00000000000E+00 -0.31841816438E+03  0.31845284958E+03  0.47000000000E+01 0. -1.
         25    2    1    2    0    0  0.10459793910E+03 -0.15779451712E+02 -0.88226668245E+02  0.18600770165E+03  0.12500080049E+03 0.  0.
         25    2    1    2    0    0 -0.10459793910E+03  0.15779451712E+02 -0.14442422742E+03  0.21834109885E+03  0.12499903208E+03 0.  0.
          5    1    4    4  502    0 -0.10258447148E+03 -0.13205851341E+02 -0.41932153981E+02  0.11170659710E+03  0.47000000000E+01 0. -1.
         -5    1    4    4    0  502 -0.20134676169E+01  0.28985303052E+02 -0.10249207343E+03  0.10663450174E+03  0.47000000000E+01 0. -1.
          5    1    3    3  503    0  0.12478483815E+03 -0.29401532153E+02 -0.44592628409E+02  0.13581715073E+03  0.47000000000E+01 0.  1.
         -5    1    3    3    0  503 -0.20186899050E+02  0.13622080442E+02 -0.43634039836E+02  0.50190550915E+02  0.47000000000E+01 0.  1.
<mgrwt>
<rscale>  0 0.16375228E+03</rscale>
<asrwt>0</asrwt>
<pdfrwt beam="2">  1        5 0.48999976E-01 0.16375262E+03</pdfrwt>
<pdfrwt beam="1">  1       -5 0.13207531E-01 0.16375262E+03</pdfrwt>
<totfact> 0.14949479E+02</totfact>
</mgrwt>
</event>
<event>
 8    1  0.3573290E-007  0.1286478E+03  0.7546771E-02  0.1229477E+00
         -5   -1    0    0    0  501 -0.00000000000E+00  0.00000000000E+00  0.28933902460E+03  0.28937719529E+03  0.47000000000E+01 0. -1.
          5   -1    0    0  501    0  0.00000000000E+00 -0.00000000000E+00 -0.57646466684E+02  0.57837748237E+02  0.47000000000E+01 0. -1.
         25    2    1    2    0    0  0.29751576533E+02  0.63247386364E+01  0.13331834254E+03  0.18526750623E+03  0.12500043913E+03 0.  0.
         25    2    1    2    0    0 -0.29751576533E+02 -0.63247386364E+01  0.98374215366E+02  0.16194743730E+03  0.12499731026E+03 0.  0.
          5    1    4    4  502    0 -0.74138606232E+02  0.98041465869E+01  0.34816733133E+02  0.82625354040E+02  0.47000000000E+01 0. -1.
         -5    1    4    4    0  502  0.44387029699E+02 -0.16128885223E+02  0.63557482234E+02  0.79322083255E+02  0.47000000000E+01 0. -1.
          5    1    3    3  503    0 -0.31742844813E+02 -0.25143575592E+02  0.72055039184E+01  0.41398271427E+02  0.47000000000E+01 0. -1.
         -5    1    3    3    0  503  0.61494421346E+02  0.31468314229E+02  0.12611283863E+03  0.14386923481E+03  0.47000000000E+01 0. -1.
<mgrwt>
<rscale>  0 0.12864709E+03</rscale>
<asrwt>0</asrwt>
<pdfrwt beam="2">  1        5 0.88863373E-02 0.12864785E+03</pdfrwt>
<pdfrwt beam="1">  1       -5 0.44531347E-01 0.12864785E+03</pdfrwt>
<totfact> 0.33844700E+02</totfact>
</mgrwt>
</event>
<event>
 8    1  0.3573290E-007  0.1608897E+03  0.7546771E-02  0.1187697E+00
          5   -1    0    0  501    0  0.00000000000E+00  0.00000000000E+00  0.17163789577E+03  0.17170223430E+03  0.47000000000E+01 0. -1.
         -5   -1    0    0    0  501 -0.00000000000E+00 -0.00000000000E+00 -0.21031505874E+03  0.21036756863E+03  0.47000000000E+01 0. -1.
         25    2    1    2    0    0  0.54562520266E+02 -0.85342750659E+02 -0.12103172042E+03  0.20132750168E+03  0.12499452738E+03 0.  0.
         25    2    1    2    0    0 -0.54562520266E+02  0.85342750659E+02  0.82354557460E+02  0.18074230126E+03  0.12500021049E+03 0.  0.
          5    1    3    3  502    0  0.43371782250E+02 -0.53037445960E+02  0.67145828112E+01  0.69001868031E+02  0.47000000000E+01 0. -1.
         -5    1    3    3    0  502  0.11190738017E+02 -0.32305304699E+02 -0.12774630324E+03  0.13232563364E+03  0.47000000000E+01 0. -1.
          5    1    4    4  503    0  0.30358170638E+02  0.67251749270E+02  0.38066373859E+02  0.83159816757E+02  0.47000000000E+01 0.  1.
         -5    1    4    4    0  503 -0.84920690904E+02  0.18091001389E+02  0.44288183601E+02  0.97582484502E+02  0.47000000000E+01 0.  1.
<mgrwt>
<rscale>  0 0.16088863E+03</rscale>
<asrwt>0</asrwt>
<pdfrwt beam="1">  1        5 0.26414819E-01 0.16088973E+03</pdfrwt>
<pdfrwt beam="2">  1       -5 0.32365151E-01 0.16088973E+03</pdfrwt>
<totfact> 0.95930235E+01</totfact>
</mgrwt>
</event>
<event>
 8    1  0.3573290E-007  0.1347198E+03  0.7546771E-02  0.1220617E+00
          5   -1    0    0  501    0  0.00000000000E+00  0.00000000000E+00  0.56059804296E+02  0.56256481028E+02  0.47000000000E+01 0.  1.
         -5   -1    0    0    0  501 -0.00000000000E+00 -0.00000000000E+00 -0.34374453950E+03  0.34377666942E+03  0.47000000000E+01 0.  1.
         25    2    1    2    0    0 -0.46030248179E+02 -0.20128655840E+02 -0.19300293306E+03  0.23536967348E+03  0.12499921797E+03 0.  0.
         25    2    1    2    0    0  0.46030248179E+02  0.20128655840E+02 -0.94681802145E+02  0.16466347696E+03  0.12500188180E+03 0.  0.
          5    1    4    4  502    0  0.60198659003E+01  0.38048063032E+02 -0.11104750389E+03  0.11763303961E+03  0.47000000000E+01 0. -1.
         -5    1    4    4    0  502  0.40010382279E+02 -0.17919407191E+02  0.16365701749E+02  0.47030437356E+02  0.47000000000E+01 0. -1.
          5    1    3    3  503    0 -0.40737178710E+02  0.28381750384E+01 -0.23174895331E+00  0.41106163460E+02  0.47000000000E+01 0. -1.
         -5    1    3    3    0  503 -0.52930694690E+01 -0.22966830879E+02 -0.19277118411E+03  0.19426351002E+03  0.47000000000E+01 0. -1.
<mgrwt>
<rscale>  0 0.13471915E+03</rscale>
<asrwt>0</asrwt>
<pdfrwt beam="1">  1        5 0.86421860E-02 0.13471977E+03</pdfrwt>
<pdfrwt beam="2">  1       -5 0.52901375E-01 0.13471977E+03</pdfrwt>
<totfact> 0.25109688E+02</totfact>
</mgrwt>
</event>
<event>
 8    1  0.3573290E-007  0.1275546E+03  0.7546771E-02  0.1231132E+00
          5   -1    0    0  501    0  0.00000000000E+00  0.00000000000E+00  0.58928666856E+03  0.58930541126E+03  0.47000000000E+01 0.  1.
         -5   -1    0    0    0  501 -0.00000000000E+00 -0.00000000000E+00 -0.28086342091E+02  0.28476878551E+02  0.47000000000E+01 0.  1.
         25    2    1    2    0    0  0.23930412800E+02  0.85578951040E+01  0.23228951332E+03  0.26500403047E+03  0.12499126345E+03 0.  0.
         25    2    1    2    0    0 -0.23930412800E+02 -0.85578951040E+01  0.32891081314E+03  0.35277825934E+03  0.12499710011E+03 0.  0.
          5    1    3    3  502    0  0.73030368534E+01  0.33715560004E+02  0.23188217474E+03  0.23448135597E+03  0.47000000000E+01 0.  1.
         -5    1    3    3    0  502  0.16627375946E+02 -0.25157664900E+02  0.40733858450E+00  0.30522674503E+02  0.47000000000E+01 0.  1.
          5    1    4    4  503    0 -0.67684098492E+02  0.58270723235E+00  0.10954273362E+03  0.12885331671E+03  0.47000000000E+01 0. -1.
         -5    1    4    4    0  503  0.43753685692E+02 -0.91406023364E+01  0.21936807952E+03  0.22392494263E+03  0.47000000000E+01 0. -1.
<mgrwt>
<rscale>  0 0.12755318E+03</rscale>
<asrwt>0</asrwt>
<pdfrwt beam="1">  1        5 0.90690969E-01 0.12755461E+03</pdfrwt>
<pdfrwt beam="2">  1       -5 0.43524588E-02 0.12755461E+03</pdfrwt>
<totfact> 0.23239478E+02</totfact>
</mgrwt>
</event>
<event>
 8    1  0.3573290E-007  0.1386575E+03  0.7546771E-02  0.1215148E+00
          5   -1    0    0  501    0  0.00000000000E+00  0.00000000000E+00  0.75117002664E+03  0.75118473023E+03  0.47000000000E+01 0.  1.
         -5   -1    0    0    0  501 -0.00000000000E+00 -0.00000000000E+00 -0.37426885935E+02  0.37720840271E+02  0.47000000000E+01 0.  1.
         25    2    1    2    0    0  0.10409727656E+02 -0.59098053615E+02  0.13404986547E+03  0.19286076694E+03  0.12499986649E+03 0.  0.
         25    2    1    2    0    0 -0.10409727656E+02  0.59098053615E+02  0.57969327524E+03  0.59604480355E+03  0.12499668841E+03 0.  0.
          5    1    3    3  502    0 -0.39253637394E+02 -0.54482902993E+02  0.23174754632E+02  0.71192654252E+02  0.47000000000E+01 0. -1.
         -5    1    3    3    0  502  0.49663365049E+02 -0.46151506222E+01  0.11087511084E+03  0.12166811269E+03  0.47000000000E+01 0. -1.
          5    1    4    4  503    0 -0.20913849680E+02 -0.31661516805E+02  0.88530094540E+02  0.96433958718E+02  0.47000000000E+01 0.  1.
         -5    1    4    4    0  503  0.10504122024E+02  0.90759570420E+02  0.49116318070E+03  0.49961084483E+03  0.47000000000E+01 0.  1.
<mgrwt>
<rscale>  0 0.13865681E+03</rscale>
<asrwt>0</asrwt>
<pdfrwt beam="1">  1        5 0.11558836E+00 0.13865752E+03</pdfrwt>
<pdfrwt beam="2">  1       -5 0.57817257E-02 0.13865752E+03</pdfrwt>
<totfact> 0.82402088E+01</totfact>
</mgrwt>
</event>
<event>
 8    1  0.3573290E-007  0.1451545E+03  0.7546771E-02  0.1206558E+00
          5   -1    0    0  501    0  0.00000000000E+00  0.00000000000E+00  0.51495443842E+03  0.51497588648E+03  0.47000000000E+01 0.  1.
         -5   -1    0    0    0  501 -0.00000000000E+00 -0.00000000000E+00 -0.51241037430E+02  0.51456135853E+02  0.47000000000E+01 0.  1.
         25    2    1    2    0    0  0.72985706950E+02 -0.10807700904E+02  0.10407800529E+03  0.17860803935E+03  0.12499952286E+03 0.  0.
         25    2    1    2    0    0 -0.72985706950E+02  0.10807700904E+02  0.35963539570E+03  0.38782398298E+03  0.12500441639E+03 0.  0.
          5    1    3    3  502    0  0.32123211814E+02  0.36689171278E+02 -0.84623368689E+01  0.49716166099E+02  0.47000000000E+01 0. -1.
         -5    1    3    3    0  502  0.40862495136E+02 -0.47496872182E+02  0.11254034216E+03  0.12889187325E+03  0.47000000000E+01 0. -1.
          5    1    4    4  503    0 -0.75621603963E+02  0.57346026614E+02  0.19946322147E+03  0.22094085289E+03  0.47000000000E+01 0. -1.
         -5    1    4    4    0  503  0.26358970130E+01 -0.46538325710E+02  0.16017217423E+03  0.16688313009E+03  0.47000000000E+01 0. -1.
<mgrwt>
<rscale>  0 0.14515343E+03</rscale>
<asrwt>0</asrwt>
<pdfrwt beam="1">  1        5 0.79241957E-01 0.14515448E+03</pdfrwt>
<pdfrwt beam="2">  1       -5 0.79014323E-02 0.14515448E+03</pdfrwt>
<totfact> 0.12233068E+02</totfact>
</mgrwt>
</event>
<event>
 8    1  0.3573290E-007  0.1396848E+03  0.7546771E-02  0.1213754E+00
          5   -1    0    0  501    0  0.00000000000E+00  0.00000000000E+00  0.69563245621E+02  0.69721841207E+02  0.47000000000E+01 0.  1.
         -5   -1    0    0    0  501 -0.00000000000E+00 -0.00000000000E+00 -0.38407936489E+03  0.38410812089E+03  0.47000000000E+01 0.  1.
         25    2    1    2    0    0 -0.16552660780E+02 -0.60106165872E+02 -0.27535685006E+03  0.30875996715E+03  0.12499832271E+03 0.  0.
         25    2    1    2    0    0  0.16552660780E+02  0.60106165872E+02 -0.39159269208E+02  0.14506999495E+03  0.12500045326E+03 0.  0.
          5    1    3    3  502    0  0.26183262827E+02 -0.12594071019E+02 -0.37184642938E+01  0.29666325250E+02  0.47000000000E+01 0.  1.
         -5    1    3    3    0  502 -0.42735923608E+02 -0.47512094853E+02 -0.27163838577E+03  0.27909364190E+03  0.47000000000E+01 0.  1.
          5    1    4    4  503    0  0.34313966070E+02  0.31757138002E+02  0.38263373477E+02  0.60598183400E+02  0.47000000000E+01 0.  1.
         -5    1    4    4    0  503 -0.17761305289E+02  0.28349027870E+02 -0.77422642685E+02  0.84471811553E+02  0.47000000000E+01 0.  1.
<mgrwt>
<rscale>  0 0.13968437E+03</rscale>
<asrwt>0</asrwt>
<pdfrwt beam="1">  1        5 0.10716450E-01 0.13968484E+03</pdfrwt>
<pdfrwt beam="2">  1       -5 0.59103544E-01 0.13968484E+03</pdfrwt>
<totfact> 0.13756484E+02</totfact>
</mgrwt>
</event>
<event>
 8    1  0.3573290E-007  0.1297873E+03  0.7546771E-02  0.1227776E+00
          5   -1    0    0  501    0  0.00000000000E+00  0.00000000000E+00  0.17025125253E+04  0.17025190128E+04  0.47000000000E+01 0.  1.
         -5   -1    0    0    0  501 -0.00000000000E+00 -0.00000000000E+00 -0.93357360064E+01  0.10452079543E+02  0.47000000000E+01 0.  1.
         25    2    1    2    0    0  0.18325890268E+02  0.29725923233E+02  0.82348168904E+03  0.83364503271E+03  0.12498991806E+03 0.  0.
         25    2    1    2    0    0 -0.18325890268E+02 -0.29725923233E+02  0.86969510029E+03  0.87932605962E+03  0.12500113160E+03 0.  0.
          5    1    3    3  502    0 -0.10038279421E+02  0.18659290582E+02  0.78029204640E+03  0.78059381490E+03  0.47000000000E+01 0. -1.
         -5    1    3    3    0  502  0.28364169688E+02  0.11066632651E+02  0.43189642634E+02  0.53051217810E+02  0.47000000000E+01 0. -1.
          5    1    4    4  503    0 -0.60009289166E+02 -0.51246885206E+02  0.43928464889E+03  0.44634118204E+03  0.47000000000E+01 0. -1.
         -5    1    4    4    0  503  0.41683398899E+02  0.21520961972E+02  0.43041045139E+03  0.43298487758E+03  0.47000000000E+01 0. -1.
<mgrwt>
<rscale>  0 0.12978463E+03</rscale>
<asrwt>0</asrwt>
<pdfrwt beam="1">  1        5 0.26201122E+00 0.12978733E+03</pdfrwt>
<pdfrwt beam="2">  1       -5 0.15226396E-02 0.12978733E+03</pdfrwt>
<totfact> 0.61002269E+01</totfact>
</mgrwt>
</event>
<event>
 8    1  0.3573290E-007  0.1519696E+03  0.7546771E-02  0.1198075E+00
          5   -1    0    0  501    0  0.00000000000E+00  0.00000000000E+00  0.16869663376E+03  0.16876209361E+03  0.47000000000E+01 0.  1.
         -5   -1    0    0    0  501 -0.00000000000E+00 -0.00000000000E+00 -0.18288335610E+03  0.18294373982E+03  0.47000000000E+01 0.  1.
         25    2    1    2    0    0  0.13695363660E+02 -0.85331683448E+02 -0.95369590684E+02  0.17941130849E+03  0.12499599834E+03 0.  0.
         25    2    1    2    0    0 -0.13695363660E+02  0.85331683448E+02  0.81182868337E+02  0.17229452495E+03  0.12500274409E+03 0.  0.
          5    1    4    4  502    0 -0.53833487655E+01  0.94682891752E+02  0.51455113801E+01  0.95091517612E+02  0.47000000000E+01 0.  1.
         -5    1    4    4    0  502 -0.83120148947E+01 -0.93512083034E+01  0.76037356957E+02  0.77203007334E+02  0.47000000000E+01 0.  1.
          5    1    3    3  503    0  0.61438791759E+02 -0.33747574323E+02 -0.13735544675E+02  0.71584768582E+02  0.47000000000E+01 0.  1.
         -5    1    3    3    0  503 -0.47743428098E+02 -0.51584109125E+02 -0.81634046009E+02  0.10782653991E+03  0.47000000000E+01 0.  1.
<mgrwt>
<rscale>  0 0.15196817E+03</rscale>
<asrwt>0</asrwt>
<pdfrwt beam="1">  1        5 0.25963009E-01 0.15196955E+03</pdfrwt>
<pdfrwt beam="2">  1       -5 0.28145581E-01 0.15196955E+03</pdfrwt>
<totfact> 0.12825046E+02</totfact>
</mgrwt>
</event>
<event>
 8    1  0.3573290E-007  0.1300773E+03  0.7546771E-02  0.1227343E+00
          5   -1    0    0  501    0  0.00000000000E+00  0.00000000000E+00  0.14723997983E+03  0.14731497432E+03  0.47000000000E+01 0.  1.
         -5   -1    0    0    0  501 -0.00000000000E+00 -0.00000000000E+00 -0.11842206105E+03  0.11851529245E+03  0.47000000000E+01 0.  1.
         25    2    1    2    0    0  0.35937023492E+02  0.20067648599E+01 -0.89500957018E+01  0.13038482291E+03  0.12499840427E+03 0.  0.
         25    2    1    2    0    0 -0.35937023492E+02 -0.20067648599E+01  0.37768014473E+02  0.13544544386E+03  0.12499419420E+03 0.  0.
          5    1    4    4  502    0 -0.44691591873E+02  0.13951380674E+02 -0.36046896972E+02  0.59274346797E+02  0.47000000000E+01 0. -1.
         -5    1    4    4    0  502  0.87545683809E+01 -0.15958145534E+02  0.73814911446E+02  0.76171097065E+02  0.47000000000E+01 0. -1.
          5    1    3    3  503    0  0.60402332840E+02 -0.36024011736E+02  0.23753047114E+02  0.74380565213E+02  0.47000000000E+01 0.  1.
         -5    1    3    3    0  503 -0.24465309348E+02  0.38030776596E+02 -0.32703142816E+02  0.56004257696E+02  0.47000000000E+01 0.  1.
<mgrwt>
<rscale>  0 0.13007626E+03</rscale>
<asrwt>0</asrwt>
<pdfrwt beam="1">  1        5 0.22665245E-01 0.13007728E+03</pdfrwt>
<pdfrwt beam="2">  1       -5 0.18231719E-01 0.13007728E+03</pdfrwt>
<totfact> 0.35918076E+02</totfact>
</mgrwt>
</event>
<event>
 8    1  0.3573290E-007  0.1253488E+03  0.7546771E-02  0.1234525E+00
          5   -1    0    0  501    0  0.00000000000E+00  0.00000000000E+00  0.27152913065E+03  0.27156980464E+03  0.47000000000E+01 0.  1.
         -5   -1    0    0    0  501 -0.00000000000E+00 -0.00000000000E+00 -0.57728763023E+02  0.57919772791E+02  0.47000000000E+01 0.  1.
         25    2    1    2    0    0 -0.20257313870E+01  0.90023610535E+01  0.10818439898E+03  0.16557833362E+03  0.12500869686E+03 0.  0.
         25    2    1    2    0    0  0.20257313870E+01 -0.90023610535E+01  0.10561596865E+03  0.16391124381E+03  0.12500806743E+03 0.  0.
          5    1    4    4  502    0  0.77833730546E+01 -0.60950004936E+02  0.22476298351E+02  0.65595411313E+02  0.47000000000E+01 0.  1.
         -5    1    4    4    0  502 -0.57576416677E+01  0.51947643882E+02  0.83139670303E+02  0.98315832502E+02  0.47000000000E+01 0.  1.
          5    1    3    3  503    0  0.54783282503E+02  0.32154291318E+02  0.51297775559E+02  0.81784217727E+02  0.47000000000E+01 0. -1.
         -5    1    3    3    0  503 -0.56809013890E+02 -0.23151930264E+02  0.56886623418E+02  0.83794115891E+02  0.47000000000E+01 0. -1.
<mgrwt>
<rscale>  0 0.12534864E+03</rscale>
<asrwt>0</asrwt>
<pdfrwt beam="1">  1        5 0.41791534E-01 0.12534879E+03</pdfrwt>
<pdfrwt beam="2">  1       -5 0.88991701E-02 0.12534879E+03</pdfrwt>
<totfact> 0.38126949E+02</totfact>
</mgrwt>
</event>
<event>
 8    1  0.3573290E-007  0.1262257E+03  0.7546771E-02  0.1233172E+00
          5   -1    0    0  501    0  0.00000000000E+00  0.00000000000E+00  0.13217952835E+02  0.14028694777E+02  0.47000000000E+01 0.  1.
         -5   -1    0    0    0  501 -0.00000000000E+00 -0.00000000000E+00 -0.13480600016E+04  0.13480681948E+04  0.47000000000E+01 0.  1.
         25    2    1    2    0    0 -0.10610731149E+02 -0.13851830171E+02 -0.91581650749E+03  0.92447223920E+03  0.12499833941E+03 0.  0.
         25    2    1    2    0    0  0.10610731149E+02  0.13851830171E+02 -0.41902554126E+03  0.43762465039E+03  0.12501387757E+03 0.  0.
          5    1    3    3  502    0 -0.59825968186E+02  0.94987277749E+01 -0.29140835357E+03  0.29767480718E+03  0.47000000000E+01 0. -1.
         -5    1    3    3    0  502  0.49215237037E+02 -0.23350557946E+02 -0.62440815392E+03  0.62679743202E+03  0.47000000000E+01 0. -1.
          5    1    4    4  503    0 -0.55564839328E+02  0.15420219105E+02 -0.15682718166E+03  0.16715887483E+03  0.47000000000E+01 0.  1.
         -5    1    4    4    0  503  0.66175570477E+02 -0.15683889343E+01 -0.26219835960E+03  0.27046577556E+03  0.47000000000E+01 0.  1.
<mgrwt>
<rscale>  0 0.12622186E+03</rscale>
<asrwt>0</asrwt>
<pdfrwt beam="1">  1        5 0.20965273E-02 0.12622571E+03</pdfrwt>
<pdfrwt beam="2">  1       -5 0.20745674E+00 0.12622571E+03</pdfrwt>
<totfact> 0.81747129E+01</totfact>
</mgrwt>
</event>
<event>
 8    1  0.3573290E-007  0.1305300E+03  0.7546771E-02  0.1226680E+00
          5   -1    0    0  501    0  0.00000000000E+00  0.00000000000E+00  0.13566342616E+03  0.13574481647E+03  0.47000000000E+01 0. -1.
         -5   -1    0    0    0  501 -0.00000000000E+00 -0.00000000000E+00 -0.20244572742E+03  0.20250027790E+03  0.47000000000E+01 0. -1.
         25    2    1    2    0    0 -0.15515664318E+00  0.37584460128E+02 -0.13768274531E+03  0.18972244738E+03  0.12500181186E+03 0.  0.
         25    2    1    2    0    0  0.15515664318E+00 -0.37584460128E+02  0.70900444058E+02  0.14852264699E+03  0.12497794999E+03 0.  0.
          5    1    3    3  502    0 -0.87824633015E+01  0.56218972361E+02 -0.71961004369E+01  0.57546315055E+02  0.47000000000E+01 0.  1.
         -5    1    3    3    0  502  0.86273066583E+01 -0.18634512233E+02 -0.13048664487E+03  0.13217613233E+03  0.47000000000E+01 0.  1.
          5    1    4    4  503    0 -0.40909520640E+02 -0.62637351956E+01 -0.18179567861E+02  0.45446781461E+02  0.47000000000E+01 0. -1.
         -5    1    4    4    0  503  0.41064677283E+02 -0.31320724932E+02  0.89080011919E+02  0.10307586553E+03  0.47000000000E+01 0. -1.
<mgrwt>
<rscale>  0 0.13052424E+03</rscale>
<asrwt>0</asrwt>
<pdfrwt beam="1">  1        5 0.20881753E-01 0.13052995E+03</pdfrwt>
<pdfrwt beam="2">  1       -5 0.31155953E-01 0.13052995E+03</pdfrwt>
<totfact> 0.15122583E+02</totfact>
</mgrwt>
</event>
<event>
 8    1  0.3573290E-007  0.1364254E+03  0.7546771E-02  0.1218230E+00
          5   -1    0    0  501    0  0.00000000000E+00  0.00000000000E+00  0.11496725511E+04  0.11496821582E+04  0.47000000000E+01 0.  1.
         -5   -1    0    0    0  501 -0.00000000000E+00 -0.00000000000E+00 -0.15948138438E+02  0.16626277985E+02  0.47000000000E+01 0.  1.
         25    2    1    2    0    0  0.52533510616E+02 -0.14936021426E+02  0.61504599862E+03  0.62999480820E+03  0.12501609282E+03 0.  0.
         25    2    1    2    0    0 -0.52533510616E+02  0.14936021426E+02  0.51867841409E+03  0.53631362798E+03  0.12498862284E+03 0.  0.
          5    1    4    4  502    0 -0.38994530256E+02  0.35909302355E+01  0.36342440704E+02  0.53631438226E+02  0.47000000000E+01 0.  1.
         -5    1    4    4    0  502 -0.13538980360E+02  0.11345091191E+02  0.48233597338E+03  0.48268218975E+03  0.47000000000E+01 0.  1.
          5    1    3    3  503    0 -0.34875776978E+02 -0.31470992885E+02  0.20007673902E+03  0.20557123998E+03  0.47000000000E+01 0.  1.
         -5    1    3    3    0  503  0.87409287594E+02  0.16534971459E+02  0.41496925960E+03  0.42442356821E+03  0.47000000000E+01 0.  1.
<mgrwt>
<rscale>  0 0.13641906E+03</rscale>
<asrwt>0</asrwt>
<pdfrwt beam="1">  1        5 0.17692559E+00 0.13642536E+03</pdfrwt>
<pdfrwt beam="2">  1       -5 0.25064635E-02 0.13642536E+03</pdfrwt>
<totfact> 0.10215331E+02</totfact>
</mgrwt>
</event>
<event>
 8    1  0.3573290E-007  0.1311678E+03  0.7546771E-02  0.1225740E+00
          5   -1    0    0  501    0  0.00000000000E+00  0.00000000000E+00  0.40845340938E+02  0.41114861989E+02  0.47000000000E+01 0. -1.
         -5   -1    0    0    0  501 -0.00000000000E+00 -0.00000000000E+00 -0.44635615398E+03  0.44638089811E+03  0.47000000000E+01 0. -1.
         25    2    1    2    0    0 -0.39703319937E+02 -0.41695336827E+00 -0.26251715792E+03  0.29345410044E+03  0.12499409344E+03 0.  0.
         25    2    1    2    0    0  0.39703319937E+02  0.41695336827E+00 -0.14299365512E+03  0.19404165966E+03  0.12501381050E+03 0.  0.
          5    1    3    3  502    0  0.17952232201E+02  0.29322476233E+01 -0.22189632307E+03  0.22269025328E+03  0.47000000000E+01 0. -1.
         -5    1    3    3    0  502 -0.57655552138E+02 -0.33492009916E+01 -0.40620834856E+02  0.70763847154E+02  0.47000000000E+01 0. -1.
          5    1    4    4  503    0  0.49996757542E+02  0.35931253999E+02 -0.19057762711E+02  0.64622125454E+02  0.47000000000E+01 0.  1.
         -5    1    4    4    0  503 -0.10293437605E+02 -0.35514300631E+02 -0.12393589241E+03  0.12941953421E+03  0.47000000000E+01 0.  1.
<mgrwt>
<rscale>  0 0.13116306E+03</rscale>
<asrwt>0</asrwt>
<pdfrwt beam="1">  1        5 0.63065347E-02 0.13116776E+03</pdfrwt>
<pdfrwt beam="2">  1       -5 0.68692810E-01 0.13116776E+03</pdfrwt>
<totfact> 0.24021283E+02</totfact>
</mgrwt>
</event>
<event>
 8    1  0.3573290E-007  0.1324971E+03  0.7546771E-02  0.1223798E+00
         -5   -1    0    0    0  501 -0.00000000000E+00  0.00000000000E+00  0.66546972120E+02  0.66712738651E+02  0.47000000000E+01 0. -1.
          5   -1    0    0  501    0  0.00000000000E+00 -0.00000000000E+00 -0.28977646955E+03  0.28981458263E+03  0.47000000000E+01 0. -1.
         25    2    1    2    0    0  0.17523377844E+02 -0.40271685982E+02 -0.57732808078E+02  0.14452582528E+03  0.12500303829E+03 0.  0.
         25    2    1    2    0    0 -0.17523377844E+02  0.40271685982E+02 -0.16549668936E+03  0.21200149600E+03  0.12500641046E+03 0.  0.
          5    1    3    3  502    0  0.27685812787E+02 -0.21445992057E+02  0.34705577102E+02  0.49527789038E+02  0.47000000000E+01 0.  1.
         -5    1    3    3    0  502 -0.10162434943E+02 -0.18825693924E+02 -0.92438385180E+02  0.94998036245E+02  0.47000000000E+01 0.  1.
          5    1    4    4  503    0 -0.65174239329E+02  0.23839764858E+01 -0.53676107517E+02  0.84596568099E+02  0.47000000000E+01 0.  1.
         -5    1    4    4    0  503  0.47650861484E+02  0.37887709496E+02 -0.11182058184E+03  0.12740492790E+03  0.47000000000E+01 0.  1.
<mgrwt>
<rscale>  0 0.13249630E+03</rscale>
<asrwt>0</asrwt>
<pdfrwt beam="2">  1        5 0.44596678E-01 0.13249709E+03</pdfrwt>
<pdfrwt beam="1">  1       -5 0.10253679E-01 0.13249709E+03</pdfrwt>
<totfact> 0.26598121E+02</totfact>
</mgrwt>
</event>
<event>
 8    1  0.3573290E-007  0.1355609E+03  0.7546771E-02  0.1219430E+00
         -5   -1    0    0    0  501 -0.00000000000E+00  0.00000000000E+00  0.92256138433E+02  0.92375781884E+02  0.47000000000E+01 0.  1.
          5   -1    0    0  501    0  0.00000000000E+00 -0.00000000000E+00 -0.23382734828E+03  0.23387457921E+03  0.47000000000E+01 0.  1.
         25    2    1    2    0    0 -0.44094031656E+02 -0.28420741352E+02 -0.77762580922E+01  0.13578288688E+03  0.12499800004E+03 0.  0.
         25    2    1    2    0    0  0.44094031656E+02  0.28420741352E+02 -0.13379495175E+03  0.19046747422E+03  0.12499898981E+03 0.  0.
          5    1    3    3  502    0 -0.81653418619E+02 -0.73929580317E+01 -0.29599506532E+02  0.87293512861E+02  0.47000000000E+01 0.  1.
         -5    1    3    3    0  502  0.37559386963E+02 -0.21027783320E+02  0.21823248440E+02  0.48489374020E+02  0.47000000000E+01 0.  1.
          5    1    4    4  503    0  0.22636235625E+02  0.20467374623E+02 -0.15552573311E+03  0.15856120663E+03  0.47000000000E+01 0.  1.
         -5    1    4    4    0  503  0.21457796032E+02  0.79533667291E+01  0.21730781361E+02  0.31906267589E+02  0.47000000000E+01 0.  1.
<mgrwt>
<rscale>  0 0.13556072E+03</rscale>
<asrwt>0</asrwt>
<pdfrwt beam="2">  1        5 0.35986274E-01 0.13556094E+03</pdfrwt>
<pdfrwt beam="1">  1       -5 0.14206089E-01 0.13556094E+03</pdfrwt>
<totfact> 0.23318242E+02</totfact>
</mgrwt>
</event>
<event>
 8    1  0.3573290E-007  0.1358642E+03  0.7546771E-02  0.1219006E+00
          5   -1    0    0  501    0  0.00000000000E+00  0.00000000000E+00  0.81176048755E+02  0.81311997217E+02  0.47000000000E+01 0.  1.
         -5   -1    0    0    0  501 -0.00000000000E+00 -0.00000000000E+00 -0.23644813518E+03  0.23649484271E+03  0.47000000000E+01 0.  1.
         25    2    1    2    0    0  0.30433436821E+01  0.53136251911E+02 -0.10932006084E+03  0.17438203942E+03  0.12500198703E+03 0.  0.
         25    2    1    2    0    0 -0.30433436821E+01 -0.53136251911E+02 -0.45952025580E+02  0.14342480051E+03  0.12500544603E+03 0.  0.
          5    1    4    4  502    0 -0.50671889775E+02  0.89174358928E+01 -0.39036732445E+02  0.64754286006E+02  0.47000000000E+01 0.  1.
         -5    1    4    4    0  502  0.47628546093E+02 -0.62053687804E+02 -0.69152931353E+01  0.78670514503E+02  0.47000000000E+01 0.  1.
          5    1    3    3  503    0  0.36802473323E+02 -0.11588158487E+02 -0.91027620637E+02  0.98978912798E+02  0.47000000000E+01 0.  1.
         -5    1    3    3    0  503 -0.33759129641E+02  0.64724410399E+02 -0.18292440206E+02  0.75403126621E+02  0.47000000000E+01 0.  1.
<mgrwt>
<rscale>  0 0.13586342E+03</rscale>
<asrwt>0</asrwt>
<pdfrwt beam="1">  1        5 0.12502673E-01 0.13586421E+03</pdfrwt>
<pdfrwt beam="2">  1       -5 0.36390686E-01 0.13586421E+03</pdfrwt>
<totfact> 0.28675626E+02</totfact>
</mgrwt>
</event>
<event>
 8    1  0.3573290E-007  0.1305859E+03  0.7546771E-02  0.1226591E+00
         -5   -1    0    0    0  501 -0.00000000000E+00  0.00000000000E+00  0.18714408030E+03  0.18720308970E+03  0.47000000000E+01 0. -1.
          5   -1    0    0  501    0  0.00000000000E+00 -0.00000000000E+00 -0.10086412966E+03  0.10097357403E+03  0.47000000000E+01 0. -1.
         25    2    1    2    0    0  0.36346229602E+02 -0.10263292400E+02  0.88201071765E+02  0.15758208055E+03  0.12500519779E+03 0.  0.
         25    2    1    2    0    0 -0.36346229602E+02  0.10263292400E+02 -0.19211211247E+01  0.13059458318E+03  0.12499948349E+03 0.  0.
          5    1    3    3  502    0  0.13257040808E+02 -0.58300066207E+02  0.70579014332E+01  0.60386677532E+02  0.47000000000E+01 0.  1.
         -5    1    3    3    0  502  0.23089188794E+02  0.48036773807E+02  0.81143170332E+02  0.97195403021E+02  0.47000000000E+01 0.  1.
          5    1    4    4  503    0  0.39010841932E+02 -0.24969060625E+02 -0.71980292930E+01  0.47108400551E+02  0.47000000000E+01 0.  1.
         -5    1    4    4    0  503 -0.75357071534E+02  0.35232353025E+02  0.52769081683E+01  0.83486182627E+02  0.47000000000E+01 0.  1.
<mgrwt>
<rscale>  0 0.13058455E+03</rscale>
<asrwt>0</asrwt>
<pdfrwt beam="2">  1        5 0.15530516E-01 0.13058592E+03</pdfrwt>
<pdfrwt beam="1">  1       -5 0.28804355E-01 0.13058592E+03</pdfrwt>
<totfact> 0.30444407E+02</totfact>
</mgrwt>
</event>
<event>
 8    1  0.3573290E-007  0.1300172E+03  0.7546771E-02  0.1227440E+00
         -5   -1    0    0    0  501 -0.00000000000E+00  0.00000000000E+00  0.35672577368E+03  0.35675673450E+03  0.47000000000E+01 0.  1.
          5   -1    0    0  501    0  0.00000000000E+00 -0.00000000000E+00 -0.48154098914E+02  0.48382923043E+02  0.47000000000E+01 0.  1.
         25    2    1    2    0    0 -0.24714382014E+02  0.25863708010E+02  0.18227352374E+03  0.22387826114E+03  0.12497242209E+03 0.  0.
         25    2    1    2    0    0  0.24714382014E+02 -0.25863708010E+02  0.12629815103E+03  0.18126139641E+03  0.12499895520E+03 0.  0.
          5    1    4    4  502    0 -0.49498349231E+02 -0.17879808560E+02  0.35633336508E+02  0.63730673944E+02  0.47000000000E+01 0. -1.
         -5    1    4    4    0  502  0.74212731245E+02 -0.79838994495E+01  0.90664814525E+02  0.11753072246E+03  0.47000000000E+01 0. -1.
          5    1    3    3  503    0  0.44712661058E+01 -0.21498593903E+02 -0.93219308961E+01  0.24313990952E+02  0.47000000000E+01 0.  1.
         -5    1    3    3    0  503 -0.29185648119E+02  0.47362301912E+02  0.19159545463E+03  0.19956427019E+03  0.47000000000E+01 0.  1.
<mgrwt>
<rscale>  0 0.13001082E+03</rscale>
<asrwt>0</asrwt>
<pdfrwt beam="2">  1        5 0.74283061E-02 0.13001719E+03</pdfrwt>
<pdfrwt beam="1">  1       -5 0.54900873E-01 0.13001719E+03</pdfrwt>
<totfact> 0.29682096E+02</totfact>
</mgrwt>
</event>
<event>
 8    1  0.3573290E-007  0.1413719E+03  0.7546771E-02  0.1211495E+00
         -5   -1    0    0    0  501 -0.00000000000E+00  0.00000000000E+00  0.31440492497E+02  0.31789850086E+02  0.47000000000E+01 0.  1.
          5   -1    0    0  501    0  0.00000000000E+00 -0.00000000000E+00 -0.63565808977E+03  0.63567546522E+03  0.47000000000E+01 0.  1.
         25    2    1    2    0    0 -0.23484738588E+01 -0.65993917688E+02 -0.32808778068E+03  0.35725005685E+03  0.12500119512E+03 0.  0.
         25    2    1    2    0    0  0.23484738588E+01  0.65993917688E+02 -0.27612981659E+03  0.31021525846E+03  0.12500047389E+03 0.  0.
          5    1    4    4  502    0 -0.30981901368E+02  0.82390439448E+02 -0.24853418540E+03  0.26370323099E+03  0.47000000000E+01 0. -1.
         -5    1    4    4    0  502  0.33330375227E+02 -0.16396521761E+02 -0.27595631192E+02  0.46512027472E+02  0.47000000000E+01 0. -1.
          5    1    3    3  503    0 -0.92247959549E+01  0.26678406256E+02 -0.18727538915E+02  0.34200072143E+02  0.47000000000E+01 0.  1.
         -5    1    3    3    0  503  0.68763220961E+01 -0.92672323944E+02 -0.30936024177E+03  0.32304998470E+03  0.47000000000E+01 0.  1.
<mgrwt>
<rscale>  0 0.14137173E+03</rscale>
<asrwt>0</asrwt>
<pdfrwt beam="2">  1        5 0.97821753E-01 0.14137189E+03</pdfrwt>
<pdfrwt beam="1">  1       -5 0.48652096E-02 0.14137189E+03</pdfrwt>
<totfact> 0.16698422E+02</totfact>
</mgrwt>
</event>
<event>
 8    1  0.3573290E-007  0.1550330E+03  0.7546771E-02  0.1194435E+00
          5   -1    0    0  501    0  0.00000000000E+00  0.00000000000E+00  0.22579368832E+03  0.22584259936E+03  0.47000000000E+01 0. -1.
         -5   -1    0    0    0  501 -0.00000000000E+00 -0.00000000000E+00 -0.12496997295E+03  0.12505832295E+03  0.47000000000E+01 0. -1.
         25    2    1    2    0    0 -0.91592765969E+02  0.25018684552E+01 -0.17364453417E+02  0.15595562129E+03  0.12500054978E+03 0.  0.
         25    2    1    2    0    0  0.91592765969E+02 -0.25018684552E+01  0.11818816879E+03  0.19494530101E+03  0.12505891821E+03 0.  0.
          5    1    3    3  502    0  0.18648437878E+02 -0.17819866481E+02  0.24807602266E+02  0.36094584177E+02  0.47000000000E+01 0.  1.
         -5    1    3    3    0  502 -0.11024120385E+03  0.20321734936E+02 -0.42172055683E+02  0.11986103711E+03  0.47000000000E+01 0.  1.
          5    1    4    4  503    0  0.11631853475E+03 -0.42435736119E+01  0.58947180205E+02  0.13055600138E+03  0.47000000000E+01 0.  1.
         -5    1    4    4    0  503 -0.24725768781E+02  0.17417051568E+01  0.59240988582E+02  0.64389299630E+02  0.47000000000E+01 0.  1.
<mgrwt>
<rscale>  0 0.15502122E+03</rscale>
<asrwt>0</asrwt>
<pdfrwt beam="1">  1        5 0.34748049E-01 0.15503299E+03</pdfrwt>
<pdfrwt beam="2">  1       -5 0.19236708E-01 0.15503299E+03</pdfrwt>
<totfact> 0.15016322E+02</totfact>
</mgrwt>
</event>
<event>
 8    1  0.3573290E-007  0.1391686E+03  0.7546771E-02  0.1214454E+00
          5   -1    0    0  501    0  0.00000000000E+00  0.00000000000E+00  0.58539202802E+03  0.58541089541E+03  0.47000000000E+01 0.  1.
         -5   -1    0    0    0  501 -0.00000000000E+00 -0.00000000000E+00 -0.33074573784E+02  0.33406847068E+02  0.47000000000E+01 0.  1.
         25    2    1    2    0    0 -0.41907861662E+02  0.44574133254E+02  0.29868183925E+03  0.32951008883E+03  0.12499174100E+03 0.  0.
         25    2    1    2    0    0  0.41907861662E+02 -0.44574133254E+02  0.25363561498E+03  0.28930765365E+03  0.12499908419E+03 0.  0.
          5    1    3    3  502    0 -0.61177701729E+02 -0.51260095272E+01  0.24896971105E+03  0.25647025984E+03  0.47000000000E+01 0.  1.
         -5    1    3    3    0  502  0.19269840067E+02  0.49700142781E+02  0.49712128200E+02  0.73039828990E+02  0.47000000000E+01 0.  1.
          5    1    4    4  503    0 -0.24249979635E+02  0.18940787167E+02  0.13891131326E+03  0.14235609535E+03  0.47000000000E+01 0.  1.
         -5    1    4    4    0  503  0.66157841297E+02 -0.63514920420E+02  0.11472430172E+03  0.14695155829E+03  0.47000000000E+01 0.  1.
<mgrwt>
<rscale>  0 0.13916693E+03</rscale>
<asrwt>0</asrwt>
<pdfrwt beam="1">  1        5 0.90087318E-01 0.13916858E+03</pdfrwt>
<pdfrwt beam="2">  1       -5 0.51154071E-02 0.13916858E+03</pdfrwt>
<totfact> 0.18619072E+02</totfact>
</mgrwt>
</event>
<event>
 8    1  0.3573290E-007  0.1414480E+03  0.7546771E-02  0.1211396E+00
          5   -1    0    0  501    0  0.00000000000E+00  0.00000000000E+00  0.15049527590E+02  0.15766365488E+02  0.47000000000E+01 0.  1.
         -5   -1    0    0    0  501 -0.00000000000E+00 -0.00000000000E+00 -0.12991815829E+04  0.12991900844E+04  0.47000000000E+01 0.  1.
         25    2    1    2    0    0  0.13168069180E+02 -0.64874276172E+02 -0.66406258993E+03  0.67895827242E+03  0.12499257014E+03 0.  0.
         25    2    1    2    0    0 -0.13168069180E+02  0.64874276172E+02 -0.62006946538E+03  0.63599817744E+03  0.12500188023E+03 0.  0.
          5    1    4    4  502    0  0.17202049930E+02  0.41342577856E+02 -0.57427490550E+03  0.57603721786E+03  0.47000000000E+01 0. -1.
         -5    1    4    4    0  502 -0.30370119110E+02  0.23531698316E+02 -0.45794559875E+02  0.59960959587E+02  0.47000000000E+01 0. -1.
          5    1    3    3  503    0  0.43857737995E+02 -0.24070452912E+02 -0.93941812985E+02  0.10653657641E+03  0.47000000000E+01 0. -1.
         -5    1    3    3    0  503 -0.30689668815E+02 -0.40803823260E+02 -0.57012077694E+03  0.57242169601E+03  0.47000000000E+01 0. -1.
<mgrwt>
<rscale>  0 0.14144595E+03</rscale>
<asrwt>0</asrwt>
<pdfrwt beam="1">  1        5 0.23711083E-02 0.14144801E+03</pdfrwt>
<pdfrwt beam="2">  1       -5 0.19992980E+00 0.14144801E+03</pdfrwt>
<totfact> 0.78073930E+01</totfact>
</mgrwt>
</event>
<event>
 8    1  0.3573290E-007  0.1719363E+03  0.7546771E-02  0.1175848E+00
         -5   -1    0    0    0  501 -0.00000000000E+00  0.00000000000E+00  0.58238951587E+02  0.58428293505E+02  0.47000000000E+01 0. -1.
          5   -1    0    0  501    0  0.00000000000E+00 -0.00000000000E+00 -0.51753706181E+03  0.51755840284E+03  0.47000000000E+01 0. -1.
         25    2    1    2    0    0 -0.11148716656E+03  0.38773452445E+02 -0.18764782162E+03  0.25449647414E+03  0.12499592581E+03 0.  0.
         25    2    1    2    0    0  0.11148716656E+03 -0.38773452445E+02 -0.27165028860E+03  0.32149022220E+03  0.12501725782E+03 0.  0.
          5    1    3    3  502    0 -0.12150575513E+03  0.67107124708E+02 -0.16927930294E+03  0.21896252446E+03  0.47000000000E+01 0. -1.
         -5    1    3    3    0  502  0.10018588576E+02 -0.28333672263E+02 -0.18368518687E+02  0.35533949678E+02  0.47000000000E+01 0. -1.
          5    1    4    4  503    0  0.10179105734E+03 -0.18128671216E+02 -0.27858685358E+03  0.29719150907E+03  0.47000000000E+01 0.  1.
         -5    1    4    4    0  503  0.96961092203E+01 -0.20644781229E+02  0.69365649839E+01  0.24298713130E+02  0.47000000000E+01 0.  1.
<mgrwt>
<rscale>  0 0.17193240E+03</rscale>
<asrwt>0</asrwt>
<pdfrwt beam="2">  1        5 0.79637290E-01 0.17193628E+03</pdfrwt>
<pdfrwt beam="1">  1       -5 0.89760454E-02 0.17193628E+03</pdfrwt>
<totfact> 0.10221066E+02</totfact>
</mgrwt>
</event>
<event>
 8    1  0.3573290E-007  0.1437021E+03  0.7546771E-02  0.1208435E+00
         -5   -1    0    0    0  501 -0.00000000000E+00  0.00000000000E+00  0.11433983798E+03  0.11443639521E+03  0.47000000000E+01 0. -1.
          5   -1    0    0  501    0  0.00000000000E+00 -0.00000000000E+00 -0.19406144307E+03  0.19411834969E+03  0.47000000000E+01 0. -1.
         25    2    1    2    0    0  0.14533545059E+02 -0.69390072338E+02  0.10675760723E+01  0.14369973387E+03  0.12498907042E+03 0.  0.
         25    2    1    2    0    0 -0.14533545059E+02  0.69390072338E+02 -0.80789181167E+02  0.16485501104E+03  0.12499630715E+03 0.  0.
          5    1    3    3  502    0  0.64583792272E+02 -0.27200890144E+02  0.23934768386E+02  0.74201871854E+02  0.47000000000E+01 0. -1.
         -5    1    3    3    0  502 -0.50050247213E+02 -0.42189182194E+02 -0.22867192314E+02  0.69497862015E+02  0.47000000000E+01 0. -1.
          5    1    4    4  503    0  0.46938660533E+02  0.49517993073E+02 -0.72306423848E+02  0.99526772379E+02  0.47000000000E+01 0. -1.
         -5    1    4    4    0  503 -0.61472205592E+02  0.19872079265E+02 -0.84827573191E+01  0.65328238660E+02  0.47000000000E+01 0. -1.
<mgrwt>
<rscale>  0 0.14370049E+03</rscale>
<asrwt>0</asrwt>
<pdfrwt beam="2">  1        5 0.29867411E-01 0.14370206E+03</pdfrwt>
<pdfrwt beam="1">  1       -5 0.17602549E-01 0.14370206E+03</pdfrwt>
<totfact> 0.23311609E+02</totfact>
</mgrwt>
</event>
<event>
 8    1  0.3573290E-007  0.1472121E+03  0.7546771E-02  0.1203941E+00
          5   -1    0    0  501    0  0.00000000000E+00  0.00000000000E+00  0.33447418009E+03  0.33450720044E+03  0.47000000000E+01 0. -1.
         -5   -1    0    0    0  501 -0.00000000000E+00 -0.00000000000E+00 -0.66364962046E+02  0.66531182068E+02  0.47000000000E+01 0. -1.
         25    2    1    2    0    0  0.47865186866E+02 -0.61280983659E+02  0.10206455882E+03  0.17913285273E+03  0.12499987876E+03 0.  0.
         25    2    1    2    0    0 -0.47865186866E+02  0.61280983659E+02  0.16604465922E+03  0.22190552977E+03  0.12499920087E+03 0.  0.
          5    1    3    3  502    0  0.41709607734E+02 -0.67059619133E+02  0.12854801105E+03  0.15094159480E+03  0.47000000000E+01 0.  1.
         -5    1    3    3    0  502  0.61555791324E+01  0.57786354741E+01 -0.26483452224E+02  0.28191257937E+02  0.47000000000E+01 0.  1.
          5    1    4    4  503    0 -0.35705749765E+02 -0.27116607990E+02  0.10334066892E+03  0.11274570878E+03  0.47000000000E+01 0.  1.
         -5    1    4    4    0  503 -0.12159437101E+02  0.88397591649E+02  0.62703990294E+02  0.10915982099E+03  0.47000000000E+01 0.  1.
<mgrwt>
<rscale>  0 0.14721196E+03</rscale>
<asrwt>0</asrwt>
<pdfrwt beam="1">  1        5 0.51472892E-01 0.14721211E+03</pdfrwt>
<pdfrwt beam="2">  1       -5 0.10225320E-01 0.14721211E+03</pdfrwt>
<totfact> 0.20474847E+02</totfact>
</mgrwt>
</event>
<event>
 8    1  0.3573290E-007  0.1477763E+03  0.7546771E-02  0.1203233E+00
         -5   -1    0    0    0  501 -0.00000000000E+00  0.00000000000E+00  0.23646007104E+03  0.23650677621E+03  0.47000000000E+01 0.  1.
          5   -1    0    0  501    0  0.00000000000E+00 -0.00000000000E+00 -0.11324444090E+03  0.11334193132E+03  0.47000000000E+01 0.  1.
         25    2    1    2    0    0  0.26710307907E+02  0.74160020035E+02  0.13689724092E+03  0.20144041375E+03  0.12499694637E+03 0.  0.
         25    2    1    2    0    0 -0.26710307907E+02 -0.74160020035E+02 -0.13681610784E+02  0.14840829378E+03  0.12499874427E+03 0.  0.
          5    1    3    3  502    0 -0.41387769003E+02  0.15691549606E+02  0.94734969427E+01  0.45508343151E+02  0.47000000000E+01 0. -1.
         -5    1    3    3    0  502  0.68098076910E+02  0.58468470429E+02  0.12742374398E+03  0.15593207060E+03  0.47000000000E+01 0. -1.
          5    1    4    4  503    0 -0.74557345705E+02 -0.46538296227E+02  0.90562034656E+01  0.88480029586E+02  0.47000000000E+01 0.  1.
         -5    1    4    4    0  503  0.47847037798E+02 -0.27621723807E+02 -0.22737814249E+02  0.59928264191E+02  0.47000000000E+01 0.  1.
<mgrwt>
<rscale>  0 0.14777592E+03</rscale>
<asrwt>0</asrwt>
<pdfrwt beam="2">  1        5 0.17433314E-01 0.14777630E+03</pdfrwt>
<pdfrwt beam="1">  1       -5 0.36389564E-01 0.14777630E+03</pdfrwt>
<totfact> 0.16165624E+02</totfact>
</mgrwt>
</event>
<event>
 8    1  0.3573290E-007  0.1292003E+03  0.7546771E-02  0.1228650E+00
          5   -1    0    0  501    0  0.00000000000E+00  0.00000000000E+00  0.34513630996E+02  0.34832179440E+02  0.47000000000E+01 0. -1.
         -5   -1    0    0    0  501 -0.00000000000E+00 -0.00000000000E+00 -0.51526807417E+03  0.51528950917E+03  0.47000000000E+01 0. -1.
         25    2    1    2    0    0  0.22842408119E+02 -0.23347265424E+02 -0.31120051423E+03  0.33695212195E+03  0.12499640802E+03 0.  0.
         25    2    1    2    0    0 -0.22842408119E+02  0.23347265424E+02 -0.16955392894E+03  0.21316956666E+03  0.12500343562E+03 0.  0.
          5    1    3    3  502    0  0.50123584790E+01 -0.30152899020E+02 -0.31535093889E+03  0.31686373367E+03  0.47000000000E+01 0. -1.
         -5    1    3    3    0  502  0.17830049640E+02  0.68056335958E+01  0.41504246599E+01  0.20088388279E+02  0.47000000000E+01 0. -1.
          5    1    4    4  503    0  0.12827518660E+02 -0.22735128032E+02  0.67963519903E+01  0.27380863426E+02  0.47000000000E+01 0. -1.
         -5    1    4    4    0  503 -0.35669926779E+02  0.46082393456E+02 -0.17635028093E+03  0.18578870323E+03  0.47000000000E+01 0. -1.
<mgrwt>
<rscale>  0 0.12919865E+03</rscale>
<asrwt>0</asrwt>
<pdfrwt beam="1">  1        5 0.53359424E-02 0.12920035E+03</pdfrwt>
<pdfrwt beam="2">  1       -5 0.79298158E-01 0.12920035E+03</pdfrwt>
<totfact> 0.22806467E+02</totfact>
</mgrwt>
</event>
<event>
 8    1  0.3573290E-007  0.1437745E+03  0.7546771E-02  0.1208339E+00
         -5   -1    0    0    0  501 -0.00000000000E+00  0.00000000000E+00  0.70342844386E+03  0.70344414535E+03  0.47000000000E+01 0. -1.
          5   -1    0    0  501    0  0.00000000000E+00 -0.00000000000E+00 -0.29342029742E+02  0.29716068201E+02  0.47000000000E+01 0. -1.
         25    2    1    2    0    0  0.29390887896E+02 -0.64670797698E+02  0.36395005033E+03  0.39131924281E+03  0.12499989719E+03 0.  0.
         25    2    1    2    0    0 -0.29390887896E+02  0.64670797698E+02  0.31013636379E+03  0.34184097074E+03  0.12499819505E+03 0.  0.
          5    1    3    3  502    0  0.16291469882E+02 -0.32457366622E+02  0.35251500652E+03  0.35441192483E+03  0.47000000000E+01 0. -1.
         -5    1    3    3    0  502  0.13099418014E+02 -0.32213431076E+02  0.11435043809E+02  0.36907317986E+02  0.47000000000E+01 0. -1.
          5    1    4    4  503    0 -0.50708765315E+02  0.80910688707E+02  0.13991330456E+03  0.16945719584E+03  0.47000000000E+01 0. -1.
         -5    1    4    4    0  503  0.21317877419E+02 -0.16239891009E+02  0.17022305922E+03  0.17238377490E+03  0.47000000000E+01 0. -1.
<mgrwt>
<rscale>  0 0.14377414E+03</rscale>
<asrwt>0</asrwt>
<pdfrwt beam="2">  1        5 0.45441383E-02 0.14377451E+03</pdfrwt>
<pdfrwt beam="1">  1       -5 0.10824974E+00 0.14377451E+03</pdfrwt>
<totfact> 0.14659539E+02</totfact>
</mgrwt>
</event>
<event>
 8    1  0.3573290E-007  0.1445365E+03  0.7546771E-02  0.1207354E+00
         -5   -1    0    0    0  501 -0.00000000000E+00  0.00000000000E+00  0.58074260019E+02  0.58264137141E+02  0.47000000000E+01 0. -1.
          5   -1    0    0  501    0  0.00000000000E+00 -0.00000000000E+00 -0.40014423064E+03  0.40017183223E+03  0.47000000000E+01 0. -1.
         25    2    1    2    0    0 -0.48846628574E+02 -0.53637464187E+02 -0.97480506398E+02  0.17433246091E+03  0.12500554833E+03 0.  0.
         25    2    1    2    0    0  0.48846628574E+02  0.53637464187E+02 -0.24458946422E+03  0.28410350846E+03  0.12501130679E+03 0.  0.
          5    1    3    3  502    0 -0.12187725253E+02 -0.90639756137E+02 -0.53937398128E+02  0.10628000262E+03  0.47000000000E+01 0.  1.
         -5    1    3    3    0  502 -0.36658903321E+02  0.37002291950E+02 -0.43543108270E+02  0.68052458295E+02  0.47000000000E+01 0.  1.
          5    1    4    4  503    0  0.81394270626E+02  0.86245847363E+01 -0.18581139423E+03  0.20309449766E+03  0.47000000000E+01 0.  1.
         -5    1    4    4    0  503 -0.32547642053E+02  0.45012879451E+02 -0.58778069991E+02  0.81009010805E+02  0.47000000000E+01 0.  1.
<mgrwt>
<rscale>  0 0.14453525E+03</rscale>
<asrwt>0</asrwt>
<pdfrwt beam="2">  1        5 0.61577378E-01 0.14453649E+03</pdfrwt>
<pdfrwt beam="1">  1       -5 0.89512309E-02 0.14453649E+03</pdfrwt>
<totfact> 0.17401611E+02</totfact>
</mgrwt>
</event>
<event>
 8    1  0.3573290E-007  0.1266997E+03  0.7546771E-02  0.1232439E+00
         -5   -1    0    0    0  501 -0.00000000000E+00  0.00000000000E+00  0.67492677238E+03  0.67494313692E+03  0.47000000000E+01 0.  1.
          5   -1    0    0  501    0  0.00000000000E+00 -0.00000000000E+00 -0.26211774845E+02  0.26629816758E+02  0.47000000000E+01 0.  1.
         25    2    1    2    0    0 -0.10450442540E+02 -0.17815330843E+02  0.43550818260E+03  0.45356388105E+03  0.12500487718E+03 0.  0.
         25    2    1    2    0    0  0.10450442540E+02  0.17815330843E+02  0.21320681493E+03  0.24800907263E+03  0.12499902563E+03 0.  0.
          5    1    4    4  502    0  0.65478937333E+02 -0.59648047733E+01  0.98961651876E+02  0.11890571337E+03  0.47000000000E+01 0. -1.
         -5    1    4    4    0  502 -0.55028494792E+02  0.23780135616E+02  0.11424516306E+03  0.12910335926E+03  0.47000000000E+01 0. -1.
          5    1    3    3  503    0 -0.31868076883E+02 -0.10941614937E+02  0.24524947804E+02  0.41938721087E+02  0.47000000000E+01 0. -1.
         -5    1    3    3    0  503  0.21417634342E+02 -0.68737159061E+01  0.41098323479E+03  0.41162515996E+03  0.47000000000E+01 0. -1.
<mgrwt>
<rscale>  0 0.12669827E+03</rscale>
<asrwt>0</asrwt>
<pdfrwt beam="2">  1        5 0.40659961E-02 0.12669971E+03</pdfrwt>
<pdfrwt beam="1">  1       -5 0.10386832E+00 0.12669971E+03</pdfrwt>
<totfact> 0.18691847E+02</totfact>
</mgrwt>
</event>
<event>
 8    1  0.3573290E-007  0.1442971E+03  0.7546771E-02  0.1207663E+00
          5   -1    0    0  501    0  0.00000000000E+00  0.00000000000E+00  0.77160470382E+02  0.77303481096E+02  0.47000000000E+01 0.  1.
         -5   -1    0    0    0  501 -0.00000000000E+00 -0.00000000000E+00 -0.38547542944E+03  0.38550408130E+03  0.47000000000E+01 0.  1.
         25    2    1    2    0    0 -0.72085872795E+02 -0.67762085895E+00 -0.28110012863E+03  0.31597299096E+03  0.12499926589E+03 0.  0.
         25    2    1    2    0    0  0.72085872795E+02  0.67762085895E+00 -0.27214830428E+02  0.14683457144E+03  0.12499164832E+03 0.  0.
          5    1    4    4  502    0 -0.33710083009E+02  0.15397390859E+02 -0.61156669364E+01  0.37854203516E+02  0.47000000000E+01 0. -1.
         -5    1    4    4    0  502  0.10579595580E+03 -0.14719770000E+02 -0.21099163492E+02  0.10898036793E+03  0.47000000000E+01 0. -1.
          5    1    3    3  503    0  0.16684969069E+02  0.24796937478E+02 -0.16397573680E+03  0.16674354129E+03  0.47000000000E+01 0. -1.
         -5    1    3    3    0  503 -0.88770841864E+02 -0.25474558337E+02 -0.11712439183E+03  0.14922944967E+03  0.47000000000E+01 0. -1.
<mgrwt>
<rscale>  0 0.14429544E+03</rscale>
<asrwt>0</asrwt>
<pdfrwt beam="1">  1        5 0.11884047E-01 0.14429708E+03</pdfrwt>
<pdfrwt beam="2">  1       -5 0.59317116E-01 0.14429708E+03</pdfrwt>
<totfact> 0.11492695E+02</totfact>
</mgrwt>
</event>
<event>
 8    1  0.3573290E-007  0.1262239E+03  0.7546771E-02  0.1233170E+00
         -5   -1    0    0    0  501 -0.00000000000E+00  0.00000000000E+00  0.30209756156E+03  0.30213412039E+03  0.47000000000E+01 0. -1.
          5   -1    0    0  501    0  0.00000000000E+00 -0.00000000000E+00 -0.54464436266E+02  0.54666853008E+02  0.47000000000E+01 0. -1.
         25    2    1    2    0    0  0.17241464285E+02  0.32407483835E+01  0.15680383292E+03  0.20129557543E+03  0.12499878451E+03 0.  0.
         25    2    1    2    0    0 -0.17241464285E+02 -0.32407483835E+01  0.90829292375E+02  0.15550539796E+03  0.12499679157E+03 0.  0.
          5    1    4    4  502    0 -0.68687940306E+02 -0.16406238265E+02  0.65691041266E+02  0.96563972061E+02  0.47000000000E+01 0. -1.
         -5    1    4    4    0  502  0.51446476021E+02  0.13165489881E+02  0.25138251109E+02  0.58941425904E+02  0.47000000000E+01 0. -1.
          5    1    3    3  503    0 -0.31276132362E+02  0.36673858718E+02  0.20237447202E+02  0.52486309054E+02  0.47000000000E+01 0. -1.
         -5    1    3    3    0  503  0.48517596647E+02 -0.33433110335E+02  0.13656638572E+03  0.14880926637E+03  0.47000000000E+01 0. -1.
<mgrwt>
<rscale>  0 0.12622338E+03</rscale>
<asrwt>0</asrwt>
<pdfrwt beam="2">  1        5 0.83975266E-02 0.12622388E+03</pdfrwt>
<pdfrwt beam="1">  1       -5 0.46494931E-01 0.12622388E+03</pdfrwt>
<totfact> 0.33862690E+02</totfact>
</mgrwt>
</event>
<event>
 8    1  0.3573290E-007  0.1318285E+03  0.7546771E-02  0.1224769E+00
          5   -1    0    0  501    0  0.00000000000E+00  0.00000000000E+00  0.28925099743E+02  0.29304460329E+02  0.47000000000E+01 0.  1.
         -5   -1    0    0    0  501 -0.00000000000E+00 -0.00000000000E+00 -0.60420258757E+03  0.60422086758E+03  0.47000000000E+01 0.  1.
         25    2    1    2    0    0 -0.39281145454E+02 -0.14485405932E+02 -0.32341538054E+03  0.34925099818E+03  0.12500366391E+03 0.  0.
         25    2    1    2    0    0  0.39281145454E+02  0.14485405932E+02 -0.25186210729E+03  0.28427432973E+03  0.12499815231E+03 0.  0.
          5    1    3    3  502    0  0.21893441418E+02  0.15331765550E+02 -0.23983748947E+03  0.24136797047E+03  0.47000000000E+01 0.  1.
         -5    1    3    3    0  502 -0.61174586872E+02 -0.29817171482E+02 -0.83577891065E+02  0.10788302772E+03  0.47000000000E+01 0.  1.
          5    1    4    4  503    0 -0.14690561757E+02  0.59287847330E+02 -0.12622200407E+03  0.14030304970E+03  0.47000000000E+01 0.  1.
         -5    1    4    4    0  503  0.53971707211E+02 -0.44802441398E+02 -0.12564010322E+03  0.14397128003E+03  0.47000000000E+01 0.  1.
<mgrwt>
<rscale>  0 0.13182719E+03</rscale>
<asrwt>0</asrwt>
<pdfrwt beam="1">  1        5 0.44806035E-02 0.13182849E+03</pdfrwt>
<pdfrwt beam="2">  1       -5 0.92984823E-01 0.13182849E+03</pdfrwt>
<totfact> 0.21121115E+02</totfact>
</mgrwt>
</event>
<event>
 8    1  0.3573290E-007  0.1547410E+03  0.7546771E-02  0.1194772E+00
          5   -1    0    0  501    0  0.00000000000E+00  0.00000000000E+00  0.27881011754E+03  0.27884972950E+03  0.47000000000E+01 0.  1.
         -5   -1    0    0    0  501 -0.00000000000E+00 -0.00000000000E+00 -0.94352708371E+02  0.94469696607E+02  0.47000000000E+01 0.  1.
         25    2    1    2    0    0 -0.60317571422E+02  0.68390752643E+02  0.35951136428E+02  0.15886242585E+03  0.12501712550E+03 0.  0.
         25    2    1    2    0    0  0.60317571422E+02 -0.68390752643E+02  0.14850627274E+03  0.21445700026E+03  0.12498874928E+03 0.  0.
          5    1    4    4  502    0  0.44056388892E+02  0.18819391850E+02  0.88570901284E+01  0.48945612238E+02  0.47000000000E+01 0. -1.
         -5    1    4    4    0  502  0.16261182530E+02 -0.87210144492E+02  0.13964918261E+03  0.16551138802E+03  0.47000000000E+01 0. -1.
          5    1    3    3  503    0 -0.65960168983E+02  0.72079082091E+02  0.72274108736E+02  0.12162144038E+03  0.47000000000E+01 0. -1.
         -5    1    3    3    0  503  0.56425975618E+01 -0.36883294480E+01 -0.36322972308E+02  0.37240985468E+02  0.47000000000E+01 0. -1.
<mgrwt>
<rscale>  0 0.15473530E+03</rscale>
<asrwt>0</asrwt>
<pdfrwt beam="1">  1        5 0.42905911E-01 0.15474103E+03</pdfrwt>
<pdfrwt beam="2">  1       -5 0.14527847E-01 0.15474103E+03</pdfrwt>
<totfact> 0.16339219E+02</totfact>
</mgrwt>
</event>
<event>
 8    1  0.3573290E-007  0.1282306E+03  0.7546771E-02  0.1230110E+00
         -5   -1    0    0    0  501 -0.00000000000E+00  0.00000000000E+00  0.16855831519E+02  0.17498830138E+02  0.47000000000E+01 0. -1.
          5   -1    0    0  501    0  0.00000000000E+00 -0.00000000000E+00 -0.12798657308E+04  0.12798743606E+04  0.47000000000E+01 0. -1.
         25    2    1    2    0    0 -0.21713336072E+02  0.18620688536E+02 -0.30551272581E+03  0.33132768086E+03  0.12498722922E+03 0.  0.
         25    2    1    2    0    0  0.21713336072E+02 -0.18620688536E+02 -0.95749717345E+03  0.96604550984E+03  0.12499956362E+03 0.  0.
          5    1    3    3  502    0 -0.15017317980E+02  0.45911056620E+02 -0.29791431655E+03  0.30184163888E+03  0.47000000000E+01 0. -1.
         -5    1    3    3    0  502 -0.66960180927E+01 -0.27290368084E+02 -0.75984092655E+01  0.29486041983E+02  0.47000000000E+01 0. -1.
          5    1    4    4  503    0  0.57727353040E+02  0.26636093057E+02 -0.65017900229E+03  0.65329683434E+03  0.47000000000E+01 0.  1.
         -5    1    4    4    0  503 -0.36014016968E+02 -0.45256781592E+02 -0.30731817116E+03  0.31274867550E+03  0.47000000000E+01 0.  1.
<mgrwt>
<rscale>  0 0.12822761E+03</rscale>
<asrwt>0</asrwt>
<pdfrwt beam="2">  1        5 0.19695247E+00 0.12823061E+03</pdfrwt>
<pdfrwt beam="1">  1       -5 0.26433311E-02 0.12823061E+03</pdfrwt>
<totfact> 0.66763594E+01</totfact>
</mgrwt>
</event>
<event>
 8    1  0.3573290E-007  0.1315172E+03  0.7546771E-02  0.1225224E+00
         -5   -1    0    0    0  501 -0.00000000000E+00  0.00000000000E+00  0.23275934925E+03  0.23280679685E+03  0.47000000000E+01 0. -1.
          5   -1    0    0  501    0  0.00000000000E+00 -0.00000000000E+00 -0.82438728127E+02  0.82572597726E+02  0.47000000000E+01 0. -1.
         25    2    1    2    0    0  0.37429350876E+02  0.16402395258E+02  0.12501753213E+03  0.18145027680E+03  0.12499929893E+03 0.  0.
         25    2    1    2    0    0 -0.37429350876E+02 -0.16402395258E+02  0.25303088989E+02  0.13392911778E+03  0.12500706940E+03 0.  0.
          5    1    4    4  502    0  0.28462086609E+02  0.26446860290E+02 -0.19083844115E+02  0.43540899159E+02  0.47000000000E+01 0. -1.
         -5    1    4    4    0  502 -0.65891437485E+02 -0.42849255547E+02  0.44386933104E+02  0.90388218620E+02  0.47000000000E+01 0. -1.
          5    1    3    3  503    0  0.78813088177E+02 -0.56441651245E+01  0.52558589281E+02  0.95015023944E+02  0.47000000000E+01 0. -1.
         -5    1    3    3    0  503 -0.41383737301E+02  0.22046560382E+02  0.72458942849E+02  0.86435252857E+02  0.47000000000E+01 0. -1.
<mgrwt>
<rscale>  0 0.13151531E+03</rscale>
<asrwt>0</asrwt>
<pdfrwt beam="2">  1        5 0.12696829E-01 0.13151716E+03</pdfrwt>
<pdfrwt beam="1">  1       -5 0.35823078E-01 0.13151716E+03</pdfrwt>
<totfact> 0.28473277E+02</totfact>
</mgrwt>
</event>
<event>
 8    1  0.3573290E-007  0.1277182E+03  0.7546771E-02  0.1230883E+00
         -5   -1    0    0    0  501 -0.00000000000E+00  0.00000000000E+00  0.87881671917E+02  0.88007262535E+02  0.47000000000E+01 0. -1.
          5   -1    0    0  501    0  0.00000000000E+00 -0.00000000000E+00 -0.20503883913E+03  0.20509269989E+03  0.47000000000E+01 0. -1.
         25    2    1    2    0    0  0.16030884268E+01 -0.26147754237E+02 -0.13151676841E+02  0.12839359388E+03  0.12500269358E+03 0.  0.
         25    2    1    2    0    0 -0.16030884268E+01  0.26147754237E+02 -0.10400549037E+03  0.16470636855E+03  0.12499908347E+03 0.  0.
          5    1    3    3  502    0  0.37754524347E+02 -0.36775690616E+02  0.37668952553E+02  0.64953025452E+02  0.47000000000E+01 0. -1.
         -5    1    3    3    0  502 -0.36151435920E+02  0.10627936379E+02 -0.50820629394E+02  0.63440568430E+02  0.47000000000E+01 0. -1.
          5    1    4    4  503    0 -0.27302300543E+02  0.39413816851E+02  0.80845956448E+01  0.48849925900E+02  0.47000000000E+01 0. -1.
         -5    1    4    4    0  503  0.25699212116E+02 -0.13266062614E+02 -0.11209008601E+03  0.11585644265E+03  0.47000000000E+01 0. -1.
<mgrwt>
<rscale>  0 0.12771735E+03</rscale>
<asrwt>0</asrwt>
<pdfrwt beam="2">  1        5 0.31558241E-01 0.12771824E+03</pdfrwt>
<pdfrwt beam="1">  1       -5 0.13534061E-01 0.12771824E+03</pdfrwt>
<totfact> 0.32352414E+02</totfact>
</mgrwt>
</event>
<event>
 8    1  0.3573290E-007  0.1404864E+03  0.7546771E-02  0.1212678E+00
          5   -1    0    0  501    0  0.00000000000E+00  0.00000000000E+00  0.18719551858E+03  0.18725451177E+03  0.47000000000E+01 0.  1.
         -5   -1    0    0    0  501 -0.00000000000E+00 -0.00000000000E+00 -0.10686265539E+03  0.10696596243E+03  0.47000000000E+01 0.  1.
         25    2    1    2    0    0  0.63298376874E+02  0.10219858268E+02  0.22394186249E+02  0.14225565448E+03  0.12499616649E+03 0.  0.
         25    2    1    2    0    0 -0.63298376874E+02 -0.10219858268E+02  0.57938676940E+02  0.15196481971E+03  0.12500114450E+03 0.  0.
          5    1    3    3  502    0  0.48908640131E+02 -0.26445563850E+02  0.63906273004E+02  0.84838226385E+02  0.47000000000E+01 0. -1.
         -5    1    3    3    0  502  0.14389736743E+02  0.36665422118E+02 -0.41512086756E+02  0.57417428098E+02  0.47000000000E+01 0. -1.
          5    1    4    4  503    0 -0.15694837989E+02  0.45160289041E+02 -0.13289225865E+02  0.49844489865E+02  0.47000000000E+01 0.  1.
         -5    1    4    4    0  503 -0.47603538885E+02 -0.55380147309E+02  0.71227902805E+02  0.10212032985E+03  0.47000000000E+01 0.  1.
<mgrwt>
<rscale>  0 0.14048525E+03</rscale>
<asrwt>0</asrwt>
<pdfrwt beam="1">  1        5 0.28811795E-01 0.14048636E+03</pdfrwt>
<pdfrwt beam="2">  1       -5 0.16452893E-01 0.14048636E+03</pdfrwt>
<totfact> 0.28097035E+02</totfact>
</mgrwt>
</event>
<event>
 8    1  0.3573290E-007  0.1395378E+03  0.7546771E-02  0.1213955E+00
         -5   -1    0    0    0  501 -0.00000000000E+00  0.00000000000E+00  0.47434443691E+02  0.47666722651E+02  0.47000000000E+01 0. -1.
          5   -1    0    0  501    0  0.00000000000E+00 -0.00000000000E+00 -0.43876094225E+03  0.43878611469E+03  0.47000000000E+01 0. -1.
         25    2    1    2    0    0  0.18775041258E+02 -0.59100716395E+02 -0.13256379889E+03  0.19246808239E+03  0.12500162043E+03 0.  0.
         25    2    1    2    0    0 -0.18775041258E+02  0.59100716395E+02 -0.25876269967E+03  0.29398475495E+03  0.12499401806E+03 0.  0.
          5    1    3    3  502    0  0.33167497551E+02  0.32210257365E+02 -0.36728007643E+02  0.59233606329E+02  0.47000000000E+01 0. -1.
         -5    1    3    3    0  502 -0.14392456293E+02 -0.91310973760E+02 -0.95835791248E+02  0.13323447606E+03  0.47000000000E+01 0. -1.
          5    1    4    4  503    0 -0.46275700064E+02  0.74827037597E+02 -0.10568818570E+03  0.13759581595E+03  0.47000000000E+01 0. -1.
         -5    1    4    4    0  503  0.27500658806E+02 -0.15726321202E+02 -0.15307451397E+03  0.15638893899E+03  0.47000000000E+01 0. -1.
<mgrwt>
<rscale>  0 0.13953611E+03</rscale>
<asrwt>0</asrwt>
<pdfrwt beam="2">  1        5 0.67521485E-01 0.13953782E+03</pdfrwt>
<pdfrwt beam="1">  1       -5 0.73174110E-02 0.13953782E+03</pdfrwt>
<totfact> 0.19816564E+02</totfact>
</mgrwt>
</event>
<event>
 8    1  0.3573290E-007  0.1253763E+03  0.7546771E-02  0.1234485E+00
         -5   -1    0    0    0  501 -0.00000000000E+00  0.00000000000E+00  0.10461113548E+04  0.10461219129E+04  0.47000000000E+01 0. -1.
          5   -1    0    0  501    0  0.00000000000E+00 -0.00000000000E+00 -0.14657431837E+02  0.15392540663E+02  0.47000000000E+01 0. -1.
         25    2    1    2    0    0  0.95366961339E+01  0.18490420167E+01  0.52946407002E+03  0.54410606334E+03  0.12499935677E+03 0.  0.
         25    2    1    2    0    0 -0.95366961339E+01 -0.18490420167E+01  0.50198985295E+03  0.51740839023E+03  0.12499304894E+03 0.  0.
          5    1    3    3  502    0 -0.44685548082E+02 -0.36928832738E+02  0.26784553496E+03  0.27408731727E+03  0.47000000000E+01 0. -1.
         -5    1    3    3    0  502  0.54222244216E+02  0.38777874754E+02  0.26161853507E+03  0.27001874607E+03  0.47000000000E+01 0. -1.
          5    1    4    4  503    0  0.12705551901E+02 -0.52856802147E+02  0.37128890952E+03  0.37527698692E+03  0.47000000000E+01 0. -1.
         -5    1    4    4    0  503 -0.22242248035E+02  0.51007760131E+02  0.13070094344E+03  0.14213140331E+03  0.47000000000E+01 0. -1.
<mgrwt>
<rscale>  0 0.12537469E+03</rscale>
<asrwt>0</asrwt>
<pdfrwt beam="2">  1        5 0.23123485E-02 0.12537626E+03</pdfrwt>
<pdfrwt beam="1">  1       -5 0.16099757E+00 0.12537626E+03</pdfrwt>
<totfact> 0.14804425E+02</totfact>
</mgrwt>
</event>
<event>
 8    1  0.3573290E-007  0.1250591E+03  0.7546771E-02  0.1234983E+00
         -5   -1    0    0    0  501 -0.00000000000E+00  0.00000000000E+00  0.55750513285E+02  0.55948277289E+02  0.47000000000E+01 0.  1.
          5   -1    0    0  501    0  0.00000000000E+00 -0.00000000000E+00 -0.29946002275E+03  0.29949690353E+03  0.47000000000E+01 0.  1.
         25    2    1    2    0    0 -0.35060857803E+01  0.75457357693E+00 -0.76320109634E+02  0.14650779421E+03  0.12500765021E+03 0.  0.
         25    2    1    2    0    0  0.35060857803E+01 -0.75457357693E+00 -0.16738939983E+03  0.20893738662E+03  0.12499103300E+03 0.  0.
          5    1    4    4  502    0  0.55790644526E+01 -0.27700474876E+02 -0.17742924139E+03  0.17972664791E+03  0.47000000000E+01 0.  1.
         -5    1    4    4    0  502 -0.20729786723E+01  0.26945901299E+02  0.10039841557E+02  0.29210738708E+02  0.47000000000E+01 0.  1.
          5    1    3    3  503    0 -0.59845015997E+02 -0.75507899262E+01 -0.63965322365E+02  0.88045970001E+02  0.47000000000E+01 0. -1.
         -5    1    3    3    0  503  0.56338930217E+02  0.83053635031E+01 -0.12354787269E+02  0.58461824205E+02  0.47000000000E+01 0. -1.
<mgrwt>
<rscale>  0 0.12505493E+03</rscale>
<asrwt>0</asrwt>
<pdfrwt beam="2">  1        5 0.46088821E-01 0.12505908E+03</pdfrwt>
<pdfrwt beam="1">  1       -5 0.85950518E-02 0.12505908E+03</pdfrwt>
<totfact> 0.33024648E+02</totfact>
</mgrwt>
</event>
<event>
 8    1  0.3573290E-007  0.1519046E+03  0.7546771E-02  0.1198153E+00
         -5   -1    0    0    0  501 -0.00000000000E+00  0.00000000000E+00  0.69433634648E+02  0.69592525607E+02  0.47000000000E+01 0. -1.
          5   -1    0    0  501    0  0.00000000000E+00 -0.00000000000E+00 -0.34712515782E+03  0.34715697486E+03  0.47000000000E+01 0. -1.
         25    2    1    2    0    0 -0.78858208775E+02  0.35081162143E+02 -0.95028582206E+02  0.17917689482E+03  0.12499849268E+03 0.  0.
         25    2    1    2    0    0  0.78858208775E+02 -0.35081162143E+02 -0.18266294097E+03  0.23757260564E+03  0.12500275165E+03 0.  0.
          5    1    4    4  502    0  0.31752518758E+02 -0.72810706165E+02 -0.14742294434E+03  0.16752682143E+03  0.47000000000E+01 0.  1.
         -5    1    4    4    0  502  0.47105690017E+02  0.37729544022E+02 -0.35239996625E+02  0.70045784214E+02  0.47000000000E+01 0.  1.
          5    1    3    3  503    0 -0.75774924166E+01  0.42642626259E+02  0.16442576660E+02  0.46564581957E+02  0.47000000000E+01 0.  1.
         -5    1    3    3    0  503 -0.71280716358E+02 -0.75614641162E+01 -0.11147115887E+03  0.13261231286E+03  0.47000000000E+01 0.  1.
<mgrwt>
<rscale>  0 0.15190368E+03</rscale>
<asrwt>0</asrwt>
<pdfrwt beam="2">  1        5 0.53418539E-01 0.15190455E+03</pdfrwt>
<pdfrwt beam="1">  1       -5 0.10696768E-01 0.15190455E+03</pdfrwt>
<totfact> 0.17654910E+02</totfact>
</mgrwt>
</event>
<event>
 8    1  0.3573290E-007  0.1590265E+03  0.7546771E-02  0.1189801E+00
         -5   -1    0    0    0  501 -0.00000000000E+00  0.00000000000E+00  0.32259809447E+03  0.32263233031E+03  0.47000000000E+01 0.  1.
          5   -1    0    0  501    0  0.00000000000E+00 -0.00000000000E+00 -0.91780752253E+02  0.91901014598E+02  0.47000000000E+01 0.  1.
         25    2    1    2    0    0  0.56221022321E+02 -0.80643254274E+02  0.19482112345E+03  0.25148496554E+03  0.12500111975E+03 0.  0.
         25    2    1    2    0    0 -0.56221022321E+02  0.80643254274E+02  0.35996218772E+02  0.16304837937E+03  0.12499963375E+03 0.  0.
          5    1    3    3  502    0  0.50446161253E+02 -0.76169677613E+02  0.21273812501E+03  0.23157338967E+03  0.47000000000E+01 0. -1.
         -5    1    3    3    0  502  0.57748610670E+01 -0.44735766614E+01 -0.17917001560E+02  0.19911575864E+02  0.47000000000E+01 0. -1.
          5    1    4    4  503    0  0.29869060157E-01  0.80852242100E+02 -0.20123264769E+02  0.83451313529E+02  0.47000000000E+01 0.  1.
         -5    1    4    4    0  503 -0.56250891381E+02 -0.20898782552E+00  0.56119483541E+02  0.79597065837E+02  0.47000000000E+01 0.  1.
<mgrwt>
<rscale>  0 0.15902618E+03</rscale>
<asrwt>0</asrwt>
<pdfrwt beam="2">  1        5 0.14132000E-01 0.15902647E+03</pdfrwt>
<pdfrwt beam="1">  1       -5 0.49642361E-01 0.15902647E+03</pdfrwt>
<totfact> 0.12760984E+02</totfact>
</mgrwt>
</event>
<event>
 8    1  0.3573290E-007  0.1673355E+03  0.7546771E-02  0.1180656E+00
         -5   -1    0    0    0  501 -0.00000000000E+00  0.00000000000E+00  0.50054042761E+03  0.50056249327E+03  0.47000000000E+01 0.  1.
          5   -1    0    0  501    0  0.00000000000E+00 -0.00000000000E+00 -0.10300880031E+03  0.10311596841E+03  0.47000000000E+01 0.  1.
         25    2    1    2    0    0  0.42751109128E+02  0.10269903220E+03  0.40289287385E+03  0.43626119304E+03  0.12500564870E+03 0.  0.
         25    2    1    2    0    0 -0.42751109128E+02 -0.10269903220E+03 -0.53612465457E+01  0.16741726864E+03  0.12500020131E+03 0.  0.
          5    1    3    3  502    0  0.59285631918E+02  0.11974547821E+03  0.38041438463E+03  0.40322569330E+03  0.47000000000E+01 0. -1.
         -5    1    3    3    0  502 -0.16534522790E+02 -0.17046446008E+02  0.22478489211E+02  0.33035499733E+02  0.47000000000E+01 0. -1.
          5    1    4    4  503    0 -0.57865508805E+02 -0.11191013547E+03  0.28196595865E+02  0.12918759053E+03  0.47000000000E+01 0. -1.
         -5    1    4    4    0  503  0.15114399677E+02  0.92111032684E+01 -0.33557842410E+02  0.38229678108E+02  0.47000000000E+01 0. -1.
<mgrwt>
<rscale>  0 0.16733446E+03</rscale>
<asrwt>0</asrwt>
<pdfrwt beam="2">  1        5 0.15857449E-01 0.16733547E+03</pdfrwt>
<pdfrwt beam="1">  1       -5 0.77016161E-01 0.16733547E+03</pdfrwt>
<totfact> 0.39811103E+01</totfact>
</mgrwt>
</event>
<event>
 8    1  0.3573290E-007  0.1521491E+03  0.7546771E-02  0.1197859E+00
          5   -1    0    0  501    0  0.00000000000E+00  0.00000000000E+00  0.64362424206E+02  0.64533802380E+02  0.47000000000E+01 0. -1.
         -5   -1    0    0    0  501 -0.00000000000E+00 -0.00000000000E+00 -0.36384555571E+03  0.36387591073E+03  0.47000000000E+01 0. -1.
         25    2    1    2    0    0 -0.47791532390E+02  0.72370994096E+02 -0.17448085841E+03  0.23150147485E+03  0.12501108572E+03 0.  0.
         25    2    1    2    0    0  0.47791532390E+02 -0.72370994096E+02 -0.12500227309E+03  0.19690823826E+03  0.12500277861E+03 0.  0.
          5    1    3    3  502    0 -0.59222538933E+02  0.34979923139E+02 -0.19573432043E+02  0.71666682513E+02  0.47000000000E+01 0.  1.
         -5    1    3    3    0  502  0.11431006543E+02  0.37391070956E+02 -0.15490742637E+03  0.15983479234E+03  0.47000000000E+01 0.  1.
          5    1    4    4  503    0  0.12840152636E+02 -0.82053770308E+01  0.25193663125E+02  0.29816243787E+02  0.47000000000E+01 0. -1.
         -5    1    4    4    0  503  0.34951379755E+02 -0.64165617065E+02 -0.15019593622E+03  0.16709199447E+03  0.47000000000E+01 0. -1.
<mgrwt>
<rscale>  0 0.15214744E+03</rscale>
<asrwt>0</asrwt>
<pdfrwt beam="1">  1        5 0.99174296E-02 0.15214915E+03</pdfrwt>
<pdfrwt beam="2">  1       -5 0.55991756E-01 0.15214915E+03</pdfrwt>
<totfact> 0.18222613E+02</totfact>
</mgrwt>
</event>
<event>
 8    1  0.3573290E-007  0.1389916E+03  0.7546771E-02  0.1214693E+00
         -5   -1    0    0    0  501 -0.00000000000E+00  0.00000000000E+00  0.35138848772E+02  0.35451779829E+02  0.47000000000E+01 0.  1.
          5   -1    0    0  501    0  0.00000000000E+00 -0.00000000000E+00 -0.54830705559E+03  0.54832719905E+03  0.47000000000E+01 0.  1.
         25    2    1    2    0    0  0.33010663632E+01  0.60681535515E+02 -0.27078686101E+03  0.30437358729E+03  0.12499844300E+03 0.  0.
         25    2    1    2    0    0 -0.33010663632E+01 -0.60681535515E+02 -0.24238134581E+03  0.27940539158E+03  0.12500204102E+03 0.  0.
          5    1    3    3  502    0  0.53329172543E+02  0.46465764938E+02 -0.81501402895E+02  0.10801683493E+03  0.47000000000E+01 0.  1.
         -5    1    3    3    0  502 -0.50028106180E+02  0.14215770576E+02 -0.18928545812E+03  0.19635675236E+03  0.47000000000E+01 0.  1.
          5    1    4    4  503    0 -0.17535660351E+02 -0.69120068768E+02 -0.25041984903E+03  0.26041749956E+03  0.47000000000E+01 0.  1.
         -5    1    4    4    0  503  0.14234593988E+02  0.84385332531E+01  0.80385032193E+01  0.18987892023E+02  0.47000000000E+01 0.  1.
<mgrwt>
<rscale>  0 0.13899076E+03</rscale>
<asrwt>0</asrwt>
<pdfrwt beam="2">  1        5 0.84380547E-01 0.13899157E+03</pdfrwt>
<pdfrwt beam="1">  1       -5 0.54315982E-02 0.13899157E+03</pdfrwt>
<totfact> 0.19648145E+02</totfact>
</mgrwt>
</event>
<event>
 8    1  0.3573290E-007  0.1426647E+03  0.7546771E-02  0.1209789E+00
         -5   -1    0    0    0  501 -0.00000000000E+00  0.00000000000E+00  0.27361495467E+03  0.27365531864E+03  0.47000000000E+01 0.  1.
          5   -1    0    0  501    0  0.00000000000E+00 -0.00000000000E+00 -0.74468052708E+02  0.74616223934E+02  0.47000000000E+01 0.  1.
         25    2    1    2    0    0  0.64989808470E+02 -0.22456186748E+02  0.10866586092E+03  0.17933357889E+03  0.12499723060E+03 0.  0.
         25    2    1    2    0    0 -0.64989808470E+02  0.22456186748E+02  0.90481041037E+02  0.16893796369E+03  0.12500104503E+03 0.  0.
          5    1    4    4  502    0 -0.41741049790E+02 -0.44494206815E+02  0.10695372865E+02  0.62117072358E+02  0.47000000000E+01 0.  1.
         -5    1    4    4    0  502 -0.23248758681E+02  0.66950393564E+02  0.79785668172E+02  0.10682089133E+03  0.47000000000E+01 0.  1.
          5    1    3    3  503    0 -0.36566483562E+01  0.33378435105E+02  0.78866740773E+02  0.85846047128E+02  0.47000000000E+01 0. -1.
         -5    1    3    3    0  503  0.68646456827E+02 -0.55834621853E+02  0.29799120151E+02  0.93487531758E+02  0.47000000000E+01 0. -1.
<mgrwt>
<rscale>  0 0.14266387E+03</rscale>
<asrwt>0</asrwt>
<pdfrwt beam="2">  1        5 0.11471126E-01 0.14266470E+03</pdfrwt>
<pdfrwt beam="1">  1       -5 0.42109111E-01 0.14266470E+03</pdfrwt>
<totfact> 0.25220803E+02</totfact>
</mgrwt>
</event>
<event>
 8    1  0.3573290E-007  0.1255164E+03  0.7546771E-02  0.1234266E+00
          5   -1    0    0  501    0  0.00000000000E+00  0.00000000000E+00  0.15875196075E+02  0.16556323578E+02  0.47000000000E+01 0.  1.
         -5   -1    0    0    0  501 -0.00000000000E+00 -0.00000000000E+00 -0.97086964631E+03  0.97088102264E+03  0.47000000000E+01 0.  1.
         25    2    1    2    0    0  0.11283980060E+02  0.11742094639E+01 -0.48045937931E+03  0.49658390377E+03  0.12500260534E+03 0.  0.
         25    2    1    2    0    0 -0.11283980060E+02 -0.11742094639E+01 -0.47453507093E+03  0.49085344245E+03  0.12499944581E+03 0.  0.
          5    1    3    3  502    0  0.65221717085E+02 -0.86145217550E+01 -0.19447552536E+03  0.20535555101E+03  0.47000000000E+01 0.  1.
         -5    1    3    3    0  502 -0.53937737025E+02  0.97887312189E+01 -0.28598385394E+03  0.29122835276E+03  0.47000000000E+01 0.  1.
          5    1    4    4  503    0 -0.42240820003E+02 -0.50945864458E+02 -0.23281711047E+03  0.24208606921E+03  0.47000000000E+01 0. -1.
         -5    1    4    4    0  503  0.30956839943E+02  0.49771654994E+02 -0.24171796046E+03  0.24876737324E+03  0.47000000000E+01 0. -1.
<mgrwt>
<rscale>  0 0.12551558E+03</rscale>
<asrwt>0</asrwt>
<pdfrwt beam="1">  1        5 0.24956081E-02 0.12551637E+03</pdfrwt>
<pdfrwt beam="2">  1       -5 0.14941779E+00 0.12551637E+03</pdfrwt>
<totfact> 0.16108302E+02</totfact>
</mgrwt>
</event>
<event>
 8    1  0.3573290E-007  0.1392012E+03  0.7546771E-02  0.1214409E+00
         -5   -1    0    0    0  501 -0.00000000000E+00  0.00000000000E+00  0.10976828885E+03  0.10986886382E+03  0.47000000000E+01 0.  1.
          5   -1    0    0  501    0  0.00000000000E+00 -0.00000000000E+00 -0.17738246339E+03  0.17744471905E+03  0.47000000000E+01 0.  1.
         25    2    1    2    0    0  0.43864922549E+02 -0.42748025350E+02 -0.22628671116E+02  0.14102385997E+03  0.12499658885E+03 0.  0.
         25    2    1    2    0    0 -0.43864922549E+02  0.42748025350E+02 -0.44985503417E+02  0.14628972290E+03  0.12500184961E+03 0.  0.
          5    1    3    3  502    0  0.87737600789E+02 -0.33557406979E+02 -0.13167804250E+02  0.94970875662E+02  0.47000000000E+01 0. -1.
         -5    1    3    3    0  502 -0.43872678239E+02 -0.91906183714E+01 -0.94608668667E+01  0.46052984310E+02  0.47000000000E+01 0. -1.
          5    1    4    4  503    0  0.37931007582E+02  0.80082755437E+01  0.11714237243E+02  0.40770174976E+02  0.47000000000E+01 0. -1.
         -5    1    4    4    0  503 -0.81795930131E+02  0.34739749806E+02 -0.56699740660E+02  0.10551954792E+03  0.47000000000E+01 0. -1.
<mgrwt>
<rscale>  0 0.13920007E+03</rscale>
<asrwt>0</asrwt>
<pdfrwt beam="2">  1        5 0.27302135E-01 0.13920125E+03</pdfrwt>
<pdfrwt beam="1">  1       -5 0.16899955E-01 0.13920125E+03</pdfrwt>
<totfact> 0.29611876E+02</totfact>
</mgrwt>
</event>
<event>
 8    1  0.3573290E-007  0.1313958E+03  0.7546771E-02  0.1225401E+00
         -5   -1    0    0    0  501 -0.00000000000E+00  0.00000000000E+00  0.10693790826E+03  0.10704114267E+03  0.47000000000E+01 0. -1.
          5   -1    0    0  501    0  0.00000000000E+00 -0.00000000000E+00 -0.16229037179E+03  0.16235841456E+03  0.47000000000E+01 0. -1.
         25    2    1    2    0    0 -0.39712197298E+02  0.78647018677E+01 -0.16772955747E+02  0.13246199668E+03  0.12500374542E+03 0.  0.
         25    2    1    2    0    0  0.39712197298E+02 -0.78647018677E+01 -0.38579507782E+02  0.13693756055E+03  0.12499841966E+03 0.  0.
          5    1    3    3  502    0  0.24648212172E+02  0.22473474534E+02 -0.48526683101E+02  0.59072162596E+02  0.47000000000E+01 0.  1.
         -5    1    3    3    0  502 -0.64360409471E+02 -0.14608772666E+02  0.31753727354E+02  0.73389834084E+02  0.47000000000E+01 0.  1.
          5    1    4    4  503    0  0.81055194340E+02 -0.20252456170E+02 -0.41540089077E+02  0.93422564250E+02  0.47000000000E+01 0. -1.
         -5    1    4    4    0  503 -0.41342997042E+02  0.12387754302E+02  0.29605812946E+01  0.43514996296E+02  0.47000000000E+01 0. -1.
<mgrwt>
<rscale>  0 0.13139450E+03</rscale>
<asrwt>0</asrwt>
<pdfrwt beam="2">  1        5 0.24980925E-01 0.13139577E+03</pdfrwt>
<pdfrwt beam="1">  1       -5 0.16465161E-01 0.13139577E+03</pdfrwt>
<totfact> 0.36121359E+02</totfact>
</mgrwt>
</event>
<event>
 8    1  0.3573290E-007  0.1357088E+03  0.7546771E-02  0.1219225E+00
          5   -1    0    0  501    0  0.00000000000E+00  0.00000000000E+00  0.12457898141E+03  0.12466760850E+03  0.47000000000E+01 0.  1.
         -5   -1    0    0    0  501 -0.00000000000E+00 -0.00000000000E+00 -0.17863483608E+03  0.17869665542E+03  0.47000000000E+01 0.  1.
         25    2    1    2    0    0 -0.19055841603E+02  0.49265830059E+02 -0.90176559850E+02  0.16293066278E+03  0.12499736724E+03 0.  0.
         25    2    1    2    0    0  0.19055841603E+02 -0.49265830059E+02  0.36120705185E+02  0.14043360115E+03  0.12500657534E+03 0.  0.
          5    1    3    3  502    0 -0.39863287840E+01 -0.42266243307E+02 -0.25469666265E+02  0.49730473958E+02  0.47000000000E+01 0. -1.
         -5    1    3    3    0  502 -0.15069512819E+02  0.91532073366E+02 -0.64706893585E+02  0.11320018882E+03  0.47000000000E+01 0. -1.
          5    1    4    4  503    0 -0.53106836626E+02 -0.13419856118E+02  0.13479195021E+02  0.56605718201E+02  0.47000000000E+01 0.  1.
         -5    1    4    4    0  503  0.72162678229E+02 -0.35845973940E+02  0.22641510164E+02  0.83827882947E+02  0.47000000000E+01 0.  1.
<mgrwt>
<rscale>  0 0.13570673E+03</rscale>
<asrwt>0</asrwt>
<pdfrwt beam="1">  1        5 0.19177570E-01 0.13570885E+03</pdfrwt>
<pdfrwt beam="2">  1       -5 0.27493855E-01 0.13570885E+03</pdfrwt>
<totfact> 0.22937450E+02</totfact>
</mgrwt>
</event>
<event>
 8    1  0.3573290E-007  0.1348099E+03  0.7546771E-02  0.1220492E+00
          5   -1    0    0  501    0  0.00000000000E+00  0.00000000000E+00  0.83480277455E+02  0.83612479475E+02  0.47000000000E+01 0.  1.
         -5   -1    0    0    0  501 -0.00000000000E+00 -0.00000000000E+00 -0.23877593471E+03  0.23882218698E+03  0.47000000000E+01 0.  1.
         25    2    1    2    0    0 -0.27298073875E+02 -0.42467600284E+02 -0.12591760466E+03  0.18446087554E+03  0.12498755749E+03 0.  0.
         25    2    1    2    0    0  0.27298073875E+02  0.42467600284E+02 -0.29378052586E+02  0.13797379092E+03  0.12500006039E+03 0.  0.
          5    1    4    4  502    0  0.58982707660E+02  0.70595336167E+02 -0.22128095214E+02  0.94733330403E+02  0.47000000000E+01 0. -1.
         -5    1    4    4    0  502 -0.31684633785E+02 -0.28127735882E+02 -0.72499573723E+01  0.43240460519E+02  0.47000000000E+01 0. -1.
          5    1    3    3  503    0  0.10276444413E+02 -0.79851028003E+01  0.23078313434E+02  0.26908469437E+02  0.47000000000E+01 0. -1.
         -5    1    3    3    0  503 -0.37574518288E+02 -0.34482497484E+02 -0.14899591810E+03  0.15755240610E+03  0.47000000000E+01 0. -1.
<mgrwt>
<rscale>  0 0.13480696E+03</rscale>
<asrwt>0</asrwt>
<pdfrwt beam="1">  1        5 0.12856847E-01 0.13480986E+03</pdfrwt>
<pdfrwt beam="2">  1       -5 0.36748486E-01 0.13480986E+03</pdfrwt>
<totfact> 0.26679975E+02</totfact>
</mgrwt>
</event>
<event>
 8    1  0.3573290E-007  0.1275342E+03  0.7546771E-02  0.1231165E+00
         -5   -1    0    0    0  501 -0.00000000000E+00  0.00000000000E+00  0.53752547379E+02  0.53957634768E+02  0.47000000000E+01 0. -1.
          5   -1    0    0  501    0  0.00000000000E+00 -0.00000000000E+00 -0.30312718771E+03  0.30316362238E+03  0.47000000000E+01 0. -1.
         25    2    1    2    0    0 -0.12788129985E+02 -0.21844098176E+02 -0.11273310030E+03  0.17020980504E+03  0.12498769914E+03 0.  0.
         25    2    1    2    0    0  0.12788129985E+02  0.21844098176E+02 -0.13664154004E+03  0.18691145210E+03  0.12499711824E+03 0.  0.
          5    1    4    4  502    0  0.68039690242E+02  0.20981258126E+01 -0.81043785780E+02  0.10594331878E+03  0.47000000000E+01 0. -1.
         -5    1    4    4    0  502 -0.55251560257E+02  0.19745972363E+02 -0.55597754256E+02  0.80968133322E+02  0.47000000000E+01 0. -1.
          5    1    3    3  503    0  0.16749111860E+02  0.41450962841E+02 -0.10264128988E+02  0.46110274477E+02  0.47000000000E+01 0.  1.
         -5    1    3    3    0  503 -0.29537241845E+02 -0.63295061016E+02 -0.10246897131E+03  0.12409953057E+03  0.47000000000E+01 0.  1.
<mgrwt>
<rscale>  0 0.12753192E+03</rscale>
<asrwt>0</asrwt>
<pdfrwt beam="2">  1        5 0.46653529E-01 0.12753423E+03</pdfrwt>
<pdfrwt beam="1">  1       -5 0.82882015E-02 0.12753423E+03</pdfrwt>
<totfact> 0.34518381E+02</totfact>
</mgrwt>
</event>
<event>
 8    1  0.3573290E-007  0.1749331E+03  0.7546771E-02  0.1172799E+00
          5   -1    0    0  501    0  0.00000000000E+00  0.00000000000E+00  0.45520242454E+03  0.45522668782E+03  0.47000000000E+01 0. -1.
         -5   -1    0    0    0  501 -0.00000000000E+00 -0.00000000000E+00 -0.72747745099E+02  0.72899413009E+02  0.47000000000E+01 0. -1.
         25    2    1    2    0    0  0.31400992695E+02 -0.11827659962E+03  0.11786059481E+03  0.21093273195E+03  0.12500448488E+03 0.  0.
         25    2    1    2    0    0 -0.31400992695E+02  0.11827659962E+03  0.26459408463E+03  0.31719336888E+03  0.12500490903E+03 0.  0.
          5    1    4    4  502    0 -0.38990903606E+00 -0.24680679286E+02  0.65011002239E+02  0.69697979678E+02  0.47000000000E+01 0.  1.
         -5    1    4    4    0  502 -0.31011083659E+02  0.14295727890E+03  0.19958308239E+03  0.24749538921E+03  0.47000000000E+01 0.  1.
          5    1    3    3  503    0  0.59164129417E+02 -0.12540651012E+03  0.71135924893E+02  0.15591535139E+03  0.47000000000E+01 0. -1.
         -5    1    3    3    0  503 -0.27763136723E+02  0.71299105021E+01  0.46724669914E+02  0.55017380554E+02  0.47000000000E+01 0. -1.
<mgrwt>
<rscale>  0 0.17493306E+03</rscale>
<asrwt>0</asrwt>
<pdfrwt beam="1">  1        5 0.70044676E-01 0.17493314E+03</pdfrwt>
<pdfrwt beam="2">  1       -5 0.11205494E-01 0.17493314E+03</pdfrwt>
<totfact> 0.93452074E+01</totfact>
</mgrwt>
</event>
<event>
 8    1  0.3573290E-007  0.1262588E+03  0.7546771E-02  0.1233116E+00
          5   -1    0    0  501    0  0.00000000000E+00  0.00000000000E+00  0.47353906136E+03  0.47356238515E+03  0.47000000000E+01 0. -1.
         -5   -1    0    0    0  501 -0.00000000000E+00 -0.00000000000E+00 -0.34405614302E+02  0.34725153643E+02  0.47000000000E+01 0. -1.
         25    2    1    2    0    0  0.15043609198E+02 -0.95019439109E+01  0.17797497704E+03  0.21820991408E+03  0.12499550807E+03 0.  0.
         25    2    1    2    0    0 -0.15043609198E+02  0.95019439109E+01  0.26115847002E+03  0.29007762472E+03  0.12499873912E+03 0.  0.
          5    1    4    4  502    0 -0.57107185556E+02  0.23512619798E+02  0.22284709369E+03  0.23129416572E+03  0.47000000000E+01 0. -1.
         -5    1    4    4    0  502  0.42063576357E+02 -0.14010675887E+02  0.38311376335E+02  0.58783458996E+02  0.47000000000E+01 0. -1.
          5    1    3    3  503    0 -0.53230224109E+02 -0.67559121299E+01  0.10573143748E+03  0.11866054938E+03  0.47000000000E+01 0.  1.
         -5    1    3    3    0  503  0.68273833307E+02 -0.27460317810E+01  0.72243539556E+02  0.99549364702E+02  0.47000000000E+01 0.  1.
<mgrwt>
<rscale>  0 0.12625799E+03</rscale>
<asrwt>0</asrwt>
<pdfrwt beam="1">  1        5 0.72878533E-01 0.12625879E+03</pdfrwt>
<pdfrwt beam="2">  1       -5 0.53195458E-02 0.12625879E+03</pdfrwt>
<totfact> 0.27574696E+02</totfact>
</mgrwt>
</event>
<event>
 8    1  0.3573290E-007  0.1534148E+03  0.7546771E-02  0.1196340E+00
          5   -1    0    0  501    0  0.00000000000E+00  0.00000000000E+00  0.36319399500E+03  0.36322440447E+03  0.47000000000E+01 0.  1.
         -5   -1    0    0    0  501 -0.00000000000E+00 -0.00000000000E+00 -0.64695358684E+02  0.64865857238E+02  0.47000000000E+01 0.  1.
         25    2    1    2    0    0  0.81638383256E+02  0.35308428959E+02  0.14629031714E+03  0.21198037002E+03  0.12499323825E+03 0.  0.
         25    2    1    2    0    0 -0.81638383256E+02 -0.35308428959E+02  0.15220831917E+03  0.21610989169E+03  0.12499840833E+03 0.  0.
          5    1    3    3  502    0  0.33859901311E+02  0.73659762731E+02  0.43238183658E+02  0.91999370044E+02  0.47000000000E+01 0. -1.
         -5    1    3    3    0  502  0.47778481945E+02 -0.38351333772E+02  0.10305213348E+03  0.11998099997E+03  0.47000000000E+01 0. -1.
          5    1    4    4  503    0 -0.11351380937E+03 -0.25003843219E+02  0.97489682257E+02  0.15177913308E+03  0.47000000000E+01 0.  1.
         -5    1    4    4    0  503  0.31875426113E+02 -0.10304585740E+02  0.54718636913E+02  0.64330758606E+02  0.47000000000E+01 0.  1.
<mgrwt>
<rscale>  0 0.15341379E+03</rscale>
<asrwt>0</asrwt>
<pdfrwt beam="1">  1        5 0.55891452E-01 0.15341484E+03</pdfrwt>
<pdfrwt beam="2">  1       -5 0.99685869E-02 0.15341484E+03</pdfrwt>
<totfact> 0.18178712E+02</totfact>
</mgrwt>
</event>
<event>
 8    1  0.3573290E-007  0.1726003E+03  0.7546771E-02  0.1175165E+00
          5   -1    0    0  501    0  0.00000000000E+00  0.00000000000E+00  0.25158932586E+03  0.25163322294E+03  0.47000000000E+01 0.  1.
         -5   -1    0    0    0  501 -0.00000000000E+00 -0.00000000000E+00 -0.11894929270E+03  0.11904211118E+03  0.47000000000E+01 0.  1.
         25    2    1    2    0    0 -0.11437992558E+03  0.32908182291E+02  0.52675629202E+02  0.18045936654E+03  0.12500058089E+03 0.  0.
         25    2    1    2    0    0  0.11437992558E+03 -0.32908182291E+02  0.79964403962E+02  0.19021596758E+03  0.12498836979E+03 0.  0.
          5    1    3    3  502    0 -0.36038158294E+02 -0.92607504871E+01  0.79090267425E+02  0.87532112702E+02  0.47000000000E+01 0. -1.
         -5    1    3    3    0  502 -0.78341767291E+02  0.42168932778E+02 -0.26414638223E+02  0.92927253840E+02  0.47000000000E+01 0. -1.
          5    1    4    4  503    0  0.28444463979E+02  0.79054003119E+01 -0.31614380630E+02  0.43510251065E+02  0.47000000000E+01 0. -1.
         -5    1    4    4    0  503  0.85935461606E+02 -0.40813582603E+02  0.11157878459E+03  0.14670571651E+03  0.47000000000E+01 0. -1.
<mgrwt>
<rscale>  0 0.17259808E+03</rscale>
<asrwt>0</asrwt>
<pdfrwt beam="1">  1        5 0.38716566E-01 0.17260029E+03</pdfrwt>
<pdfrwt beam="2">  1       -5 0.18310408E-01 0.17260029E+03</pdfrwt>
<totfact> 0.13664898E+02</totfact>
</mgrwt>
</event>
<event>
 8    1  0.3573290E-007  0.2930482E+03  0.7546771E-02  0.1088768E+00
          5   -1    0    0  501    0  0.00000000000E+00  0.00000000000E+00  0.18461475413E+04  0.18461535240E+04  0.47000000000E+01 0. -1.
         -5   -1    0    0    0  501 -0.00000000000E+00 -0.00000000000E+00 -0.79431044555E+02  0.79569974482E+02  0.47000000000E+01 0. -1.
         25    2    1    2    0    0  0.24042527781E+03  0.11156362719E+03  0.26313000271E+03  0.39384594702E+03  0.12500589798E+03 0.  0.
         25    2    1    2    0    0 -0.24042527781E+03 -0.11156362719E+03  0.15035864940E+04  0.15318775515E+04  0.12500292228E+03 0.  0.
          5    1    3    3  502    0  0.20730044820E+03  0.70552735102E+02  0.26120651403E+03  0.34088428715E+03  0.47000000000E+01 0. -1.
         -5    1    3    3    0  502  0.33124829612E+02  0.41010892087E+02  0.19234886771E+01  0.52961659862E+02  0.47000000000E+01 0. -1.
          5    1    4    4  503    0 -0.39211717821E+02 -0.10728339465E+02  0.57261699769E+03  0.57407749662E+03  0.47000000000E+01 0.  1.
         -5    1    4    4    0  503 -0.20121355999E+03 -0.10083528772E+03  0.93096949634E+03  0.95780005486E+03  0.47000000000E+01 0.  1.
<mgrwt>
<rscale>  0 0.29304786E+03</rscale>
<asrwt>0</asrwt>
<pdfrwt beam="1">  1        5 0.28403380E+00 0.29304817E+03</pdfrwt>
<pdfrwt beam="2">  1       -5 0.12231310E-01 0.29304817E+03</pdfrwt>
<totfact> 0.16134819E+00</totfact>
</mgrwt>
</event>
<event>
 8    1  0.3573290E-007  0.1595747E+03  0.7546771E-02  0.1189178E+00
          5   -1    0    0  501    0  0.00000000000E+00  0.00000000000E+00  0.44113445204E+03  0.44115948905E+03  0.47000000000E+01 0. -1.
         -5   -1    0    0    0  501 -0.00000000000E+00 -0.00000000000E+00 -0.59122418820E+02  0.59308940364E+02  0.47000000000E+01 0. -1.
         25    2    1    2    0    0  0.86229693327E+02  0.49018670170E+02  0.23107935202E+03  0.28082332788E+03  0.12500273803E+03 0.  0.
         25    2    1    2    0    0 -0.86229693327E+02 -0.49018670170E+02  0.15093268120E+03  0.21964510153E+03  0.12499962535E+03 0.  0.
          5    1    4    4  502    0 -0.60305045158E+02 -0.14984970154E+02  0.16336353010E+03  0.17484559122E+03  0.47000000000E+01 0.  1.
         -5    1    4    4    0  502 -0.25924648169E+02 -0.34033700016E+02 -0.12430848905E+02  0.44799510309E+02  0.47000000000E+01 0.  1.
          5    1    3    3  503    0  0.10492500727E+00  0.22347561803E+02  0.17067808906E+03  0.17219908423E+03  0.47000000000E+01 0. -1.
         -5    1    3    3    0  503  0.86124768319E+02  0.26671108367E+02  0.60401262965E+02  0.10862424364E+03  0.47000000000E+01 0. -1.
<mgrwt>
<rscale>  0 0.15957406E+03</rscale>
<asrwt>0</asrwt>
<pdfrwt beam="1">  1        5 0.67883112E-01 0.15957467E+03</pdfrwt>
<pdfrwt beam="2">  1       -5 0.91120305E-02 0.15957467E+03</pdfrwt>
<totfact> 0.14025366E+02</totfact>
</mgrwt>
</event>
<event>
 8    1  0.3573290E-007  0.1487708E+03  0.7546771E-02  0.1201998E+00
          5   -1    0    0  501    0  0.00000000000E+00  0.00000000000E+00  0.15664405549E+02  0.16354314452E+02  0.47000000000E+01 0. -1.
         -5   -1    0    0    0  501 -0.00000000000E+00 -0.00000000000E+00 -0.13890876670E+04  0.13890956183E+04  0.47000000000E+01 0. -1.
         25    2    1    2    0    0  0.78566752139E+02 -0.18104235074E+02 -0.73838009835E+03  0.75321838456E+03  0.12502906590E+03 0.  0.
         25    2    1    2    0    0 -0.78566752139E+02  0.18104235074E+02 -0.63504316312E+03  0.65223154816E+03  0.12500270204E+03 0.  0.
          5    1    4    4  502    0 -0.93158335401E+02  0.55339946334E+02 -0.46816547372E+03  0.48056423701E+03  0.47000000000E+01 0.  1.
         -5    1    4    4    0  502  0.14591583263E+02 -0.37235711260E+02 -0.16687768941E+03  0.17166731115E+03  0.47000000000E+01 0.  1.
          5    1    3    3  503    0 -0.36485067297E+01 -0.52560692974E+02 -0.17532084727E+03  0.18312680726E+03  0.47000000000E+01 0.  1.
         -5    1    3    3    0  503  0.82215258869E+02  0.34456457900E+02 -0.56305925108E+03  0.57009157730E+03  0.47000000000E+01 0.  1.
<mgrwt>
<rscale>  0 0.14876531E+03</rscale>
<asrwt>0</asrwt>
<pdfrwt beam="1">  1        5 0.24635912E-02 0.14877085E+03</pdfrwt>
<pdfrwt beam="2">  1       -5 0.21375938E+00 0.14877085E+03</pdfrwt>
<totfact> 0.60226986E+01</totfact>
</mgrwt>
</event>
<event>
 8    1  0.3573290E-007  0.1356591E+03  0.7546771E-02  0.1219293E+00
          5   -1    0    0  501    0  0.00000000000E+00  0.00000000000E+00  0.38777428012E+03  0.38780276214E+03  0.47000000000E+01 0. -1.
         -5   -1    0    0    0  501 -0.00000000000E+00 -0.00000000000E+00 -0.48310226647E+02  0.48538314749E+02  0.47000000000E+01 0. -1.
         25    2    1    2    0    0  0.17143631662E+02  0.49842328101E+02  0.13845173126E+03  0.19383467842E+03  0.12499935557E+03 0.  0.
         25    2    1    2    0    0 -0.17143631662E+02 -0.49842328101E+02  0.20101232221E+03  0.24250639847E+03  0.12500095135E+03 0.  0.
          5    1    3    3  502    0 -0.51601088573E+02  0.38969705094E+02  0.78852568271E+02  0.10208392518E+03  0.47000000000E+01 0. -1.
         -5    1    3    3    0  502  0.68744720235E+02  0.10872623007E+02  0.59599162987E+02  0.91750753240E+02  0.47000000000E+01 0. -1.
          5    1    4    4  503    0 -0.57489517382E+02 -0.67845476386E+02  0.11259767179E+03  0.14355618749E+03  0.47000000000E+01 0. -1.
         -5    1    4    4    0  503  0.40345885720E+02  0.18003148285E+02  0.88414650422E+02  0.98950210975E+02  0.47000000000E+01 0. -1.
<mgrwt>
<rscale>  0 0.13565876E+03</rscale>
<asrwt>0</asrwt>
<pdfrwt beam="1">  1        5 0.59677318E-01 0.13565913E+03</pdfrwt>
<pdfrwt beam="2">  1       -5 0.74520787E-02 0.13565913E+03</pdfrwt>
<totfact> 0.25004899E+02</totfact>
</mgrwt>
</event>
<event>
 8    1  0.3573290E-007  0.1660355E+03  0.7546771E-02  0.1182048E+00
         -5   -1    0    0    0  501 -0.00000000000E+00  0.00000000000E+00  0.49213228847E+02  0.49437150945E+02  0.47000000000E+01 0. -1.
          5   -1    0    0  501    0  0.00000000000E+00 -0.00000000000E+00 -0.57056208613E+03  0.57058144391E+03  0.47000000000E+01 0. -1.
         25    2    1    2    0    0 -0.38999574482E+02  0.10208145792E+03 -0.30547044843E+03  0.34767455708E+03  0.12499524758E+03 0.  0.
         25    2    1    2    0    0  0.38999574482E+02 -0.10208145792E+03 -0.21587840886E+03  0.27234403777E+03  0.12500478647E+03 0.  0.
          5    1    3    3  502    0 -0.32623912460E+02 -0.36546733527E+01 -0.18167557195E+03  0.18467750200E+03  0.47000000000E+01 0.  1.
         -5    1    3    3    0  502 -0.63756620217E+01  0.10573613127E+03 -0.12379487648E+03  0.16299705508E+03  0.47000000000E+01 0.  1.
          5    1    4    4  503    0  0.36024500421E+02 -0.12726584884E+03 -0.20573654574E+03  0.24463028669E+03  0.47000000000E+01 0.  1.
         -5    1    4    4    0  503  0.29750740610E+01  0.25184390924E+02 -0.10141863118E+02  0.27713751088E+02  0.47000000000E+01 0.  1.
<mgrwt>
<rscale>  0 0.16603371E+03</rscale>
<asrwt>0</asrwt>
<pdfrwt beam="2">  1        5 0.87797492E-01 0.16603550E+03</pdfrwt>
<pdfrwt beam="1">  1       -5 0.75899802E-02 0.16603550E+03</pdfrwt>
<totfact> 0.10748927E+02</totfact>
</mgrwt>
</event>
<event>
 8    1  0.3573290E-007  0.1502081E+03  0.7546771E-02  0.1200219E+00
          5   -1    0    0  501    0  0.00000000000E+00  0.00000000000E+00  0.17311528393E+03  0.17317907359E+03  0.47000000000E+01 0. -1.
         -5   -1    0    0    0  501 -0.00000000000E+00 -0.00000000000E+00 -0.13237788620E+03  0.13246129531E+03  0.47000000000E+01 0. -1.
         25    2    1    2    0    0  0.59339071186E+02  0.58443994347E+02  0.76698075957E+00  0.15020514533E+03  0.12499668628E+03 0.  0.
         25    2    1    2    0    0 -0.59339071186E+02 -0.58443994347E+02  0.39970416967E+02  0.15543522358E+03  0.12500259458E+03 0.  0.
          5    1    3    3  502    0 -0.19232200238E+02 -0.12688919019E+02  0.31908466060E+02  0.39637436827E+02  0.47000000000E+01 0. -1.
         -5    1    3    3    0  502  0.78571271424E+02  0.71132913366E+02 -0.31141485300E+02  0.11056770850E+03  0.47000000000E+01 0. -1.
          5    1    4    4  503    0 -0.50335122332E+01 -0.47428161335E+02 -0.36951551525E+02  0.60516724078E+02  0.47000000000E+01 0.  1.
         -5    1    4    4    0  503 -0.54305558952E+02 -0.11015833012E+02  0.76921968493E+02  0.94918499498E+02  0.47000000000E+01 0.  1.
<mgrwt>
<rscale>  0 0.15020687E+03</rscale>
<asrwt>0</asrwt>
<pdfrwt beam="1">  1        5 0.26644444E-01 0.15020810E+03</pdfrwt>
<pdfrwt beam="2">  1       -5 0.20377152E-01 0.15020810E+03</pdfrwt>
<totfact> 0.22519864E+02</totfact>
</mgrwt>
</event>
<event>
 8    1  0.3573290E-007  0.1303051E+03  0.7546771E-02  0.1227005E+00
          5   -1    0    0  501    0  0.00000000000E+00  0.00000000000E+00  0.22635603315E+03  0.22640482270E+03  0.47000000000E+01 0.  1.
         -5   -1    0    0    0  501 -0.00000000000E+00 -0.00000000000E+00 -0.20701130089E+03  0.20706464860E+03  0.47000000000E+01 0.  1.
         25    2    1    2    0    0  0.28057182665E+02 -0.23770738527E+02 -0.16341991993E+03  0.20901073451E+03  0.12500865330E+03 0.  0.
         25    2    1    2    0    0 -0.28057182665E+02  0.23770738527E+02  0.18276465218E+03  0.22445873679E+03  0.12500621155E+03 0.  0.
          5    1    3    3  502    0 -0.48640503999E+02 -0.19570548375E+02 -0.77237662149E+02  0.93470056421E+02  0.47000000000E+01 0.  1.
         -5    1    3    3    0  502  0.76697686664E+02 -0.42001901517E+01 -0.86182257779E+02  0.11554067809E+03  0.47000000000E+01 0.  1.
          5    1    4    4  503    0  0.34330131413E+02  0.51124019760E+02  0.93899498516E+02  0.11238963093E+03  0.47000000000E+01 0.  1.
         -5    1    4    4    0  503 -0.62387314078E+02 -0.27353281233E+02  0.88865153664E+02  0.11206910586E+03  0.47000000000E+01 0.  1.
<mgrwt>
<rscale>  0 0.13030451E+03</rscale>
<asrwt>0</asrwt>
<pdfrwt beam="1">  1        5 0.34831862E-01 0.13030509E+03</pdfrwt>
<pdfrwt beam="2">  1       -5 0.31855749E-01 0.13030509E+03</pdfrwt>
<totfact> 0.53765270E+01</totfact>
</mgrwt>
</event>
<event>
 8    1  0.3573290E-007  0.1761300E+03  0.7546771E-02  0.1171605E+00
         -5   -1    0    0    0  501 -0.00000000000E+00  0.00000000000E+00  0.40373152888E+03  0.40375888524E+03  0.47000000000E+01 0. -1.
          5   -1    0    0  501    0  0.00000000000E+00 -0.00000000000E+00 -0.98339990002E+02  0.98452240369E+02  0.47000000000E+01 0. -1.
         25    2    1    2    0    0 -0.81109269962E+02  0.93906682880E+02  0.27030783581E+03  0.32262087374E+03  0.12498289209E+03 0.  0.
         25    2    1    2    0    0  0.81109269962E+02 -0.93906682880E+02  0.35083703074E+02  0.17959025187E+03  0.12499845432E+03 0.  0.
          5    1    4    4  502    0  0.59088936100E+02  0.17994212281E+02  0.10524239508E+02  0.62834255484E+02  0.47000000000E+01 0.  1.
         -5    1    4    4    0  502  0.22020333862E+02 -0.11190089516E+03  0.24559463566E+02  0.11675599638E+03  0.47000000000E+01 0.  1.
          5    1    3    3  503    0 -0.76482366758E+02  0.42430356979E+02  0.60408447461E+02  0.10640093112E+03  0.47000000000E+01 0. -1.
         -5    1    3    3    0  503 -0.46269032035E+01  0.51476325901E+02  0.20989938834E+03  0.21621994262E+03  0.47000000000E+01 0. -1.
<mgrwt>
<rscale>  0 0.17612728E+03</rscale>
<asrwt>0</asrwt>
<pdfrwt beam="2">  1        5 0.15139968E-01 0.17613004E+03</pdfrwt>
<pdfrwt beam="1">  1       -5 0.62123282E-01 0.17613004E+03</pdfrwt>
<totfact> 0.71390681E+01</totfact>
</mgrwt>
</event>
<event>
 8    1  0.3573290E-007  0.1644757E+03  0.7546771E-02  0.1183746E+00
          5   -1    0    0  501    0  0.00000000000E+00  0.00000000000E+00  0.24475700336E+02  0.24922879187E+02  0.47000000000E+01 0. -1.
         -5   -1    0    0    0  501 -0.00000000000E+00 -0.00000000000E+00 -0.13474268215E+04  0.13474350186E+04  0.47000000000E+01 0. -1.
         25    2    1    2    0    0  0.10407736094E+03 -0.24398835230E+02 -0.95876184890E+03  0.97276746710E+03  0.12499944766E+03 0.  0.
         25    2    1    2    0    0 -0.10407736094E+03  0.24398835230E+02 -0.36418927227E+03  0.39959043068E+03  0.12494513208E+03 0.  0.
          5    1    4    4  502    0 -0.64093788822E+02  0.23306438407E+02 -0.54864939520E+02  0.87655321717E+02  0.47000000000E+01 0.  1.
         -5    1    4    4    0  502 -0.39983572123E+02  0.10923968225E+01 -0.30932433275E+03  0.31193510896E+03  0.47000000000E+01 0.  1.
          5    1    3    3  503    0  0.68427678094E+01  0.27756589565E+02 -0.50232314534E+03  0.50315791167E+03  0.47000000000E+01 0. -1.
         -5    1    3    3    0  503  0.97234593136E+02 -0.52155424795E+02 -0.45643870356E+03  0.46960955543E+03  0.47000000000E+01 0. -1.
<mgrwt>
<rscale>  0 0.16446540E+03</rscale>
<asrwt>0</asrwt>
<pdfrwt beam="1">  1        5 0.38005223E-02 0.16447572E+03</pdfrwt>
<pdfrwt beam="2">  1       -5 0.20733141E+00 0.16447572E+03</pdfrwt>
<totfact> 0.33808477E+01</totfact>
</mgrwt>
</event>
<event>
 8    1  0.3573290E-007  0.1260129E+03  0.7546771E-02  0.1233497E+00
         -5   -1    0    0    0  501 -0.00000000000E+00  0.00000000000E+00  0.55178751457E+02  0.55378557334E+02  0.47000000000E+01 0. -1.
          5   -1    0    0  501    0  0.00000000000E+00 -0.00000000000E+00 -0.28772718119E+03  0.28776556569E+03  0.47000000000E+01 0. -1.
         25    2    1    2    0    0  0.13492893658E+01 -0.15889614466E+02 -0.12474212089E+03  0.17731288451E+03  0.12499984743E+03 0.  0.
         25    2    1    2    0    0 -0.13492893658E+01  0.15889614466E+02 -0.10780630884E+03  0.16583123852E+03  0.12499399590E+03 0.  0.
          5    1    4    4  502    0  0.66897362085E+01 -0.50172655409E+02 -0.17938981012E+02  0.53906817390E+02  0.47000000000E+01 0.  1.
         -5    1    4    4    0  502 -0.80390255743E+01  0.66062269875E+02 -0.89867327831E+02  0.11192442113E+03  0.47000000000E+01 0.  1.
          5    1    3    3  503    0  0.32727282259E+02  0.42317130451E+02 -0.29500919257E+02  0.61271598401E+02  0.47000000000E+01 0. -1.
         -5    1    3    3    0  503 -0.31377992893E+02 -0.58206744917E+02 -0.95241201636E+02  0.11604128611E+03  0.47000000000E+01 0. -1.
<mgrwt>
<rscale>  0 0.12601149E+03</rscale>
<asrwt>0</asrwt>
<pdfrwt beam="2">  1        5 0.44284042E-01 0.12601294E+03</pdfrwt>
<pdfrwt beam="1">  1       -5 0.85073612E-02 0.12601294E+03</pdfrwt>
<totfact> 0.36628280E+02</totfact>
</mgrwt>
</event>
<event>
 8    1  0.3573290E-007  0.1284852E+03  0.7546771E-02  0.1229722E+00
         -5   -1    0    0    0  501 -0.00000000000E+00  0.00000000000E+00  0.47087746235E+03  0.47090091797E+03  0.47000000000E+01 0. -1.
          5   -1    0    0  501    0  0.00000000000E+00 -0.00000000000E+00 -0.34937291202E+02  0.35252011524E+02  0.47000000000E+01 0. -1.
         25    2    1    2    0    0  0.11372805660E+02  0.27448414937E+02  0.22847473602E+03  0.26212353765E+03  0.12500115121E+03 0.  0.
         25    2    1    2    0    0 -0.11372805660E+02 -0.27448414937E+02  0.20746543513E+03  0.24402939184E+03  0.12500272444E+03 0.  0.
          5    1    4    4  502    0 -0.18044719704E+02 -0.74999251456E+02  0.10128486804E+03  0.12740178226E+03  0.47000000000E+01 0.  1.
         -5    1    4    4    0  502  0.66719140432E+01  0.47550836519E+02  0.10618056709E+03  0.11662760958E+03  0.47000000000E+01 0.  1.
          5    1    3    3  503    0 -0.36563978820E+02 -0.30195604191E+02  0.12865240238E+03  0.13719413143E+03  0.47000000000E+01 0.  1.
         -5    1    3    3    0  503  0.47936784481E+02  0.57644019128E+02  0.99822333638E+02  0.12492940623E+03  0.47000000000E+01 0.  1.
<mgrwt>
<rscale>  0 0.12848478E+03</rscale>
<asrwt>0</asrwt>
<pdfrwt beam="2">  1        5 0.54009809E-02 0.12848516E+03</pdfrwt>
<pdfrwt beam="1">  1       -5 0.72468707E-01 0.12848516E+03</pdfrwt>
<totfact> 0.27403617E+02</totfact>
</mgrwt>
</event>
<event>
 8    1  0.3573290E-007  0.1766010E+03  0.7546771E-02  0.1171134E+00
          5   -1    0    0  501    0  0.00000000000E+00  0.00000000000E+00  0.62811819856E+02  0.62987417106E+02  0.47000000000E+01 0.  1.
         -5   -1    0    0    0  501 -0.00000000000E+00 -0.00000000000E+00 -0.77504103880E+03  0.77505528953E+03  0.47000000000E+01 0.  1.
         25    2    1    2    0    0  0.99622071066E+02 -0.75085860209E+02 -0.60767059049E+03  0.63281233779E+03  0.12500185946E+03 0.  0.
         25    2    1    2    0    0 -0.99622071066E+02  0.75085860209E+02 -0.10455862846E+03  0.20523036884E+03  0.12499821624E+03 0.  0.
          5    1    4    4  502    0 -0.11586719494E+03  0.93614206530E+02 -0.10066228163E+03  0.17984385302E+03  0.47000000000E+01 0.  1.
         -5    1    4    4    0  502  0.16245123870E+02 -0.18528346322E+02 -0.38963468226E+01  0.25386515821E+02  0.47000000000E+01 0.  1.
          5    1    3    3  503    0 -0.29469389620E+02 -0.19743237378E+02 -0.13840780816E+03  0.14295821665E+03  0.47000000000E+01 0.  1.
         -5    1    3    3    0  503  0.12909146069E+03 -0.55342622831E+02 -0.46926278233E+03  0.48985412115E+03  0.47000000000E+01 0.  1.
<mgrwt>
<rscale>  0 0.17660034E+03</rscale>
<asrwt>0</asrwt>
<pdfrwt beam="1">  1        5 0.96779612E-02 0.17660099E+03</pdfrwt>
<pdfrwt beam="2">  1       -5 0.11925168E+00 0.17660099E+03</pdfrwt>
<totfact> 0.33824429E+01</totfact>
</mgrwt>
</event>
<event>
 8    1  0.3573290E-007  0.1407410E+03  0.7546771E-02  0.1212338E+00
          5   -1    0    0  501    0  0.00000000000E+00  0.00000000000E+00  0.11077796228E+03  0.11087762139E+03  0.47000000000E+01 0.  1.
         -5   -1    0    0    0  501 -0.00000000000E+00 -0.00000000000E+00 -0.17869757712E+03  0.17875937477E+03  0.47000000000E+01 0.  1.
         25    2    1    2    0    0  0.80269350274E-01  0.64668367200E+02 -0.30358344535E+02  0.14397002539E+03  0.12499493977E+03 0.  0.
         25    2    1    2    0    0 -0.80269350274E-01 -0.64668367200E+02 -0.37561270312E+02  0.14566697078E+03  0.12500405269E+03 0.  0.
          5    1    4    4  502    0 -0.16506850047E+02 -0.94298168110E+02 -0.51412610874E+02  0.10876565250E+03  0.47000000000E+01 0.  1.
         -5    1    4    4    0  502  0.16426580697E+02  0.29629800910E+02  0.13851340562E+02  0.36901318279E+02  0.47000000000E+01 0.  1.
          5    1    3    3  503    0  0.10185837144E+02  0.17430888174E+02  0.47724870521E+02  0.52032109386E+02  0.47000000000E+01 0. -1.
         -5    1    3    3    0  503 -0.10105567793E+02  0.47237479026E+02 -0.78083215056E+02  0.91937916001E+02  0.47000000000E+01 0. -1.
<mgrwt>
<rscale>  0 0.14073893E+03</rscale>
<asrwt>0</asrwt>
<pdfrwt beam="1">  1        5 0.17055183E-01 0.14074096E+03</pdfrwt>
<pdfrwt beam="2">  1       -5 0.27504355E-01 0.14074096E+03</pdfrwt>
<totfact> 0.28813603E+02</totfact>
</mgrwt>
</event>
<event>
 8    1  0.3573290E-007  0.1643777E+03  0.7546771E-02  0.1183842E+00
         -5   -1    0    0    0  501 -0.00000000000E+00  0.00000000000E+00  0.88054902197E+03  0.88056156519E+03  0.47000000000E+01 0.  1.
          5   -1    0    0  501    0  0.00000000000E+00 -0.00000000000E+00 -0.37049896722E+02  0.37346818433E+02  0.47000000000E+01 0.  1.
         25    2    1    2    0    0  0.10269765504E+02 -0.10624306799E+03  0.61395077095E+03  0.63557441144E+03  0.12500490291E+03 0.  0.
         25    2    1    2    0    0 -0.10269765504E+02  0.10624306799E+03  0.22954835430E+03  0.28233397218E+03  0.12500786898E+03 0.  0.
          5    1    3    3  502    0  0.24439447402E+02 -0.11990267220E+03  0.59623315405E+03  0.60867889841E+03  0.47000000000E+01 0. -1.
         -5    1    3    3    0  502 -0.14169681898E+02  0.13659604211E+02  0.17717616902E+02  0.26895513027E+02  0.47000000000E+01 0. -1.
          5    1    4    4  503    0  0.14955363939E+02  0.11916893166E+03  0.12298734036E+03  0.17196765124E+03  0.47000000000E+01 0.  1.
         -5    1    4    4    0  503 -0.25225129443E+02 -0.12925863668E+02  0.10656101393E+03  0.11036632094E+03  0.47000000000E+01 0.  1.
<mgrwt>
<rscale>  0 0.16437713E+03</rscale>
<asrwt>0</asrwt>
<pdfrwt beam="2">  1        5 0.57237892E-02 0.16437769E+03</pdfrwt>
<pdfrwt beam="1">  1       -5 0.13549288E+00 0.16437769E+03</pdfrwt>
<totfact> 0.58497276E+01</totfact>
</mgrwt>
</event>
<event>
 8    1  0.3573290E-007  0.1383780E+03  0.7546771E-02  0.1215530E+00
         -5   -1    0    0    0  501 -0.00000000000E+00  0.00000000000E+00  0.79325726889E+03  0.79327119237E+03  0.47000000000E+01 0.  1.
          5   -1    0    0  501    0  0.00000000000E+00 -0.00000000000E+00 -0.23922841665E+02  0.24380163111E+02  0.47000000000E+01 0.  1.
         25    2    1    2    0    0  0.58918828879E+02  0.71518428207E+01  0.37084613221E+03  0.39582036883E+03  0.12499733338E+03 0.  0.
         25    2    1    2    0    0 -0.58918828879E+02 -0.71518428207E+01  0.39848829502E+03  0.42183098666E+03  0.12500353109E+03 0.  0.
          5    1    4    4  502    0  0.31413473769E+02 -0.59777299110E+01  0.21323340116E+03  0.21566898933E+03  0.47000000000E+01 0.  1.
         -5    1    4    4    0  502 -0.90332302647E+02 -0.11741129097E+01  0.18525489386E+03  0.20616199733E+03  0.47000000000E+01 0.  1.
          5    1    3    3  503    0  0.46057290608E+02 -0.49071340485E+02  0.28074699640E+03  0.28873904561E+03  0.47000000000E+01 0. -1.
         -5    1    3    3    0  503  0.12861538270E+02  0.56223183306E+02  0.90099135813E+02  0.10708132322E+03  0.47000000000E+01 0. -1.
<mgrwt>
<rscale>  0 0.13837656E+03</rscale>
<asrwt>0</asrwt>
<pdfrwt beam="2">  1        5 0.37166862E-02 0.13837796E+03</pdfrwt>
<pdfrwt beam="1">  1       -5 0.12207585E+00 0.13837796E+03</pdfrwt>
<totfact> 0.14889732E+02</totfact>
</mgrwt>
</event>
<event>
 8    1  0.3573290E-007  0.1405395E+03  0.7546771E-02  0.1212616E+00
          5   -1    0    0  501    0  0.00000000000E+00  0.00000000000E+00  0.33466905862E+03  0.33470205974E+03  0.47000000000E+01 0.  1.
         -5   -1    0    0    0  501 -0.00000000000E+00 -0.00000000000E+00 -0.71017045619E+02  0.71172401733E+02  0.47000000000E+01 0.  1.
         25    2    1    2    0    0 -0.62627742486E+02  0.13814226041E+02  0.48016172353E+02  0.14848338007E+03  0.12501477664E+03 0.  0.
         25    2    1    2    0    0  0.62627742486E+02 -0.13814226041E+02  0.21563584065E+03  0.25739108141E+03  0.12505313290E+03 0.  0.
          5    1    3    3  502    0 -0.48320763802E+02  0.15322155051E+02 -0.36487834612E+02  0.62634788453E+02  0.47000000000E+01 0. -1.
         -5    1    3    3    0  502 -0.14306978683E+02 -0.15079290101E+01  0.84504006966E+02  0.85848591615E+02  0.47000000000E+01 0. -1.
          5    1    4    4  503    0  0.45507886929E+02 -0.49258383539E+02  0.20586390575E+03  0.21656267871E+03  0.47000000000E+01 0.  1.
         -5    1    4    4    0  503  0.17119855556E+02  0.35444157498E+02  0.97719348961E+01  0.40828402695E+02  0.47000000000E+01 0.  1.
<mgrwt>
<rscale>  0 0.14053097E+03</rscale>
<asrwt>0</asrwt>
<pdfrwt beam="1">  1        5 0.51502037E-01 0.14053951E+03</pdfrwt>
<pdfrwt beam="2">  1       -5 0.10940188E-01 0.14053951E+03</pdfrwt>
<totfact> 0.17887258E+02</totfact>
</mgrwt>
</event>
<event>
 8    1  0.3573290E-007  0.1362243E+03  0.7546771E-02  0.1218503E+00
         -5   -1    0    0    0  501 -0.00000000000E+00  0.00000000000E+00  0.17413226058E+03  0.17419567783E+03  0.47000000000E+01 0.  1.
          5   -1    0    0  501    0  0.00000000000E+00 -0.00000000000E+00 -0.11116081684E+03  0.11126013302E+03  0.47000000000E+01 0.  1.
         25    2    1    2    0    0 -0.74667378134E+00 -0.54109787366E+02  0.60907997783E+02  0.14922078392E+03  0.12501452536E+03 0.  0.
         25    2    1    2    0    0  0.74667378134E+00  0.54109787366E+02  0.20634459597E+01  0.13623502694E+03  0.12500919224E+03 0.  0.
          5    1    4    4  502    0 -0.49048011384E+02  0.67185133589E+02  0.10066280195E+02  0.83922402213E+02  0.47000000000E+01 0.  1.
         -5    1    4    4    0  502  0.49794685165E+02 -0.13075346223E+02 -0.80028342351E+01  0.52312624723E+02  0.47000000000E+01 0.  1.
          5    1    3    3  503    0  0.28848517456E+02 -0.63513705631E+02 -0.10978241341E+02  0.70773155542E+02  0.47000000000E+01 0. -1.
         -5    1    3    3    0  503 -0.29595191237E+02  0.94039182651E+01  0.71886239124E+02  0.78447628380E+02  0.47000000000E+01 0. -1.
<mgrwt>
<rscale>  0 0.13622307E+03</rscale>
<asrwt>0</asrwt>
<pdfrwt beam="2">  1        5 0.17114182E-01 0.13622429E+03</pdfrwt>
<pdfrwt beam="1">  1       -5 0.26802097E-01 0.13622429E+03</pdfrwt>
<totfact> 0.29768626E+02</totfact>
</mgrwt>
</event>
<event>
 8    1  0.3573290E-007  0.1432187E+03  0.7546771E-02  0.1209078E+00
         -5   -1    0    0    0  501 -0.00000000000E+00  0.00000000000E+00  0.27017054463E+03  0.27021142312E+03  0.47000000000E+01 0. -1.
          5   -1    0    0  501    0  0.00000000000E+00 -0.00000000000E+00 -0.77295145917E+02  0.77437907915E+02  0.47000000000E+01 0. -1.
         25    2    1    2    0    0  0.61281480956E+02 -0.33629177444E+02  0.12078854264E+03  0.18735389183E+03  0.12500106906E+03 0.  0.
         25    2    1    2    0    0 -0.61281480956E+02  0.33629177444E+02  0.72086856074E+02  0.16029543921E+03  0.12494707491E+03 0.  0.
          5    1    4    4  502    0  0.19877850832E+02 -0.30972051290E+02  0.31979107721E+02  0.48981121316E+02  0.47000000000E+01 0.  1.
         -5    1    4    4    0  502 -0.81159331787E+02  0.64601228733E+02  0.40107748353E+02  0.11131431789E+03  0.47000000000E+01 0.  1.
          5    1    3    3  503    0  0.46115375634E+02 -0.79715342701E+02  0.62637384185E+02  0.11147508973E+03  0.47000000000E+01 0. -1.
         -5    1    3    3    0  503  0.15166105322E+02  0.46086165257E+02  0.58151158452E+02  0.75878802100E+02  0.47000000000E+01 0. -1.
<mgrwt>
<rscale>  0 0.14320696E+03</rscale>
<asrwt>0</asrwt>
<pdfrwt beam="2">  1        5 0.11905687E-01 0.14321874E+03</pdfrwt>
<pdfrwt beam="1">  1       -5 0.41578825E-01 0.14321874E+03</pdfrwt>
<totfact> 0.24271377E+02</totfact>
</mgrwt>
</event>
<event>
 8    1  0.3573290E-007  0.1494593E+03  0.7546771E-02  0.1201140E+00
         -5   -1    0    0    0  501 -0.00000000000E+00  0.00000000000E+00  0.51508808759E+02  0.51722793619E+02  0.47000000000E+01 0.  1.
          5   -1    0    0  501    0  0.00000000000E+00 -0.00000000000E+00 -0.43334251097E+03  0.43336799814E+03  0.47000000000E+01 0.  1.
         25    2    1    2    0    0  0.77316277745E+02 -0.27081942410E+02 -0.18045788643E+03  0.23431140139E+03  0.12500218253E+03 0.  0.
         25    2    1    2    0    0 -0.77316277745E+02  0.27081942410E+02 -0.20137581578E+03  0.25077939037E+03  0.12500737996E+03 0.  0.
          5    1    4    4  502    0 -0.35811259630E+02  0.16019873189E+02  0.50920014184E+01  0.39838437868E+02  0.47000000000E+01 0.  1.
         -5    1    4    4    0  502 -0.41505018115E+02  0.11062069221E+02 -0.20646781720E+03  0.21094095250E+03  0.47000000000E+01 0.  1.
          5    1    3    3  503    0  0.34249214275E+02 -0.13436973991E+02  0.10079565820E+02  0.38434991812E+02  0.47000000000E+01 0. -1.
         -5    1    3    3    0  503  0.43067063470E+02 -0.13644968420E+02 -0.19053745225E+03  0.19587640957E+03  0.47000000000E+01 0. -1.
<mgrwt>
<rscale>  0 0.14945822E+03</rscale>
<asrwt>0</asrwt>
<pdfrwt beam="2">  1        5 0.66686497E-01 0.14945930E+03</pdfrwt>
<pdfrwt beam="1">  1       -5 0.79428533E-02 0.14945930E+03</pdfrwt>
<totfact> 0.18114045E+02</totfact>
</mgrwt>
</event>
<event>
 8    1  0.3573290E-007  0.1276474E+03  0.7546771E-02  0.1231012E+00
         -5   -1    0    0    0  501 -0.00000000000E+00  0.00000000000E+00  0.87777626709E+02  0.87903365980E+02  0.47000000000E+01 0.  1.
          5   -1    0    0  501    0  0.00000000000E+00 -0.00000000000E+00 -0.18655591955E+03  0.18661511493E+03  0.47000000000E+01 0.  1.
         25    2    1    2    0    0 -0.81811059302E+01 -0.24188916615E+02 -0.60883815799E+02  0.14142379897E+03  0.12506725274E+03 0.  0.
         25    2    1    2    0    0  0.81811059302E+01  0.24188916615E+02 -0.37894477041E+02  0.13309468194E+03  0.12500467507E+03 0.  0.
          5    1    4    4  502    0  0.45187724335E+02  0.40111990882E+02  0.18737959223E+02  0.63435820787E+02  0.47000000000E+01 0. -1.
         -5    1    4    4    0  502 -0.37006618405E+02 -0.15923074267E+02 -0.56632436264E+02  0.69658861153E+02  0.47000000000E+01 0. -1.
          5    1    3    3  503    0 -0.13955871036E+02 -0.68224163434E+02 -0.51233929909E+01  0.69983154890E+02  0.47000000000E+01 0.  1.
         -5    1    3    3    0  503  0.57747651058E+01  0.44035246819E+02 -0.55760422809E+02  0.71440644078E+02  0.47000000000E+01 0.  1.
<mgrwt>
<rscale>  0 0.12763204E+03</rscale>
<asrwt>0</asrwt>
<pdfrwt beam="2">  1        5 0.28715136E-01 0.12764737E+03</pdfrwt>
<pdfrwt beam="1">  1       -5 0.13518476E-01 0.12764737E+03</pdfrwt>
<totfact> 0.39003115E+02</totfact>
</mgrwt>
</event>
<event>
 8    1  0.3573290E-007  0.1404850E+03  0.7546771E-02  0.1212678E+00
          5   -1    0    0  501    0  0.00000000000E+00  0.00000000000E+00  0.39030604130E+02  0.39312568712E+02  0.47000000000E+01 0.  1.
         -5   -1    0    0    0  501 -0.00000000000E+00 -0.00000000000E+00 -0.54954620710E+03  0.54956630513E+03  0.47000000000E+01 0.  1.
         25    2    1    2    0    0 -0.34547485870E+01  0.64028988524E+02 -0.34042590572E+03  0.36827394283E+03  0.12499701204E+03 0.  0.
         25    2    1    2    0    0  0.34547485870E+01 -0.64028988524E+02 -0.17008969724E+03  0.22060493101E+03  0.12499753525E+03 0.  0.
          5    1    4    4  502    0  0.58246595195E+02 -0.55083693712E+01 -0.56296067500E+02  0.81328624733E+02  0.47000000000E+01 0.  1.
         -5    1    4    4    0  502 -0.54791846608E+02 -0.58520619153E+02 -0.11379362974E+03  0.13927630628E+03  0.47000000000E+01 0.  1.
          5    1    3    3  503    0 -0.20390428897E+02 -0.32967902757E+02 -0.13304028807E+03  0.13865230057E+03  0.47000000000E+01 0. -1.
         -5    1    3    3    0  503  0.16935680311E+02  0.96996891280E+02 -0.20738561765E+03  0.22962164226E+03  0.47000000000E+01 0. -1.
<mgrwt>
<rscale>  0 0.14048487E+03</rscale>
<asrwt>0</asrwt>
<pdfrwt beam="1">  1        5 0.60279443E-02 0.14048498E+03</pdfrwt>
<pdfrwt beam="2">  1       -5 0.84568800E-01 0.14048498E+03</pdfrwt>
<totfact> 0.16473163E+02</totfact>
</mgrwt>
</event>
