<event>
 8    1  0.9373234E-006  0.3167026E+03  0.7546771E-02  0.1077177E+00
         21   -1    0    0  504  503  0.00000000000E+00  0.00000000000E+00  0.29269959877E+02  0.29269959877E+02  0.00000000000E+00 0. -1.
         21   -1    0    0  503  504 -0.00000000000E+00 -0.00000000000E+00 -0.85668513085E+03  0.85668513085E+03  0.00000000000E+00 0. -1.
         25    2    1    2    0    0  0.48227551397E+02  0.84268585935E+02 -0.42702181142E+03  0.45541013319E+03  0.12499468268E+03 0.  0.
         25    2    1    2    0    0 -0.48227551397E+02 -0.84268585935E+02 -0.40039335956E+03  0.43054495754E+03  0.12500810692E+03 0.  0.
          5    1    3    3  501    0 -0.23018257367E+02  0.82490639154E+02 -0.20627966980E+03  0.22340084578E+03  0.47000000000E+01 0. -1.
         -5    1    3    3    0  501  0.71245808763E+02  0.17779467802E+01 -0.22074214161E+03  0.23200928741E+03  0.47000000000E+01 0. -1.
          5    1    4    4  502    0 -0.88989524857E+02 -0.53372697327E+02 -0.22567569036E+03  0.24843386962E+03  0.47000000000E+01 0.  1.
         -5    1    4    4    0  502  0.40761973461E+02 -0.30895888608E+02 -0.17471766920E+03  0.18211108792E+03  0.47000000000E+01 0.  1.
<mgrwt>
<rscale>  0 0.31670263E+03</rscale>
<asrwt>0</asrwt>
<pdfrwt beam="1">  1       21 0.45030708E-02 0.31670263E+03</pdfrwt>
<pdfrwt beam="2">  1       21 0.13179771E+00 0.31670263E+03</pdfrwt>
<totfact> 0.12826030E+05</totfact>
</mgrwt>
</event>
<event>
 8    1  0.9373234E-006  0.2961823E+03  0.7546771E-02  0.1087165E+00
         21   -1    0    0  504  503  0.00000000000E+00  0.00000000000E+00  0.48780906186E+02  0.48780906186E+02  0.00000000000E+00 0. -1.
         21   -1    0    0  503  504 -0.00000000000E+00 -0.00000000000E+00 -0.44958149756E+03  0.44958149756E+03  0.00000000000E+00 0. -1.
         25    2    1    2    0    0 -0.26153279722E+02 -0.55616686753E+02 -0.28491801700E+03  0.31716978811E+03  0.12506473601E+03 0.  0.
         25    2    1    2    0    0  0.26153279722E+02  0.55616686753E+02 -0.11588257438E+03  0.18119261564E+03  0.12499913212E+03 0.  0.
          5    1    3    3  501    0 -0.43663622600E+02 -0.54360405701E+02 -0.28999815523E+03  0.29829948991E+03  0.47000000000E+01 0. -1.
         -5    1    3    3    0  501  0.17510342878E+02 -0.12562810523E+01  0.50801382265E+01  0.18870298201E+02  0.47000000000E+01 0. -1.
          5    1    4    4  502    0  0.47734156834E+02 -0.15938920778E+02 -0.87614141458E+02  0.10114804352E+03  0.47000000000E+01 0. -1.
         -5    1    4    4    0  502 -0.21580877112E+02  0.71555607531E+02 -0.28268432921E+02  0.80044572120E+02  0.47000000000E+01 0. -1.
<mgrwt>
<rscale>  0 0.29618233E+03</rscale>
<asrwt>0</asrwt>
<pdfrwt beam="1">  1       21 0.75047550E-02 0.29618233E+03</pdfrwt>
<pdfrwt beam="2">  1       21 0.69166383E-01 0.29618233E+03</pdfrwt>
<totfact> 0.24826991E+05</totfact>
</mgrwt>
</event>
<event>
 8    1  0.9373234E-006  0.2650080E+03  0.7546771E-02  0.1104171E+00
         21   -1    0    0  504  503  0.00000000000E+00  0.00000000000E+00  0.12499650623E+03  0.12499650623E+03  0.00000000000E+00 0. -1.
         21   -1    0    0  503  504 -0.00000000000E+00 -0.00000000000E+00 -0.14046243979E+03  0.14046243979E+03  0.00000000000E+00 0. -1.
         25    2    1    2    0    0  0.75433645913E+01  0.38734044484E+02 -0.27102927217E+02  0.13385576644E+03  0.12500227595E+03 0.  0.
         25    2    1    2    0    0 -0.75433645913E+01 -0.38734044484E+02  0.11636993659E+02  0.13160317959E+03  0.12500699463E+03 0.  0.
          5    1    3    3  501    0 -0.49330767158E+02  0.30098509379E+02 -0.45037366589E+02  0.73415933178E+02  0.47000000000E+01 0.  1.
         -5    1    3    3    0  501  0.56874131749E+02  0.86355351049E+01  0.17934439372E+02  0.60439833259E+02  0.47000000000E+01 0.  1.
          5    1    4    4  502    0  0.48611495986E+02 -0.53447541220E+02  0.10476024301E+01  0.72407904785E+02  0.47000000000E+01 0. -1.
         -5    1    4    4    0  502 -0.56154860577E+02  0.14713496737E+02  0.10589391229E+02  0.59195274805E+02  0.47000000000E+01 0. -1.
<mgrwt>
<rscale>  0 0.26500803E+03</rscale>
<asrwt>0</asrwt>
<pdfrwt beam="1">  1       21 0.19230232E-01 0.26500803E+03</pdfrwt>
<pdfrwt beam="2">  1       21 0.21609606E-01 0.26500803E+03</pdfrwt>
<totfact> 0.48897382E+05</totfact>
</mgrwt>
</event>
<event>
 8    1  0.9373234E-006  0.3453975E+03  0.7546771E-02  0.1064520E+00
         21   -1    0    0  504  503  0.00000000000E+00  0.00000000000E+00  0.11891393290E+04  0.11891393290E+04  0.00000000000E+00 0. -1.
         21   -1    0    0  503  504 -0.00000000000E+00 -0.00000000000E+00 -0.25081040899E+02  0.25081040899E+02  0.00000000000E+00 0. -1.
         25    2    1    2    0    0  0.53847893440E+01 -0.63547318450E+02  0.22815834976E+03  0.26785848969E+03  0.12499872119E+03 0.  0.
         25    2    1    2    0    0 -0.53847893440E+01  0.63547318450E+02  0.93589993838E+03  0.94636188024E+03  0.12499942430E+03 0.  0.
          5    1    3    3  501    0  0.25158453310E+02  0.18558745003E+02  0.14795499483E+03  0.15129489510E+03  0.47000000000E+01 0.  1.
         -5    1    3    3    0  501 -0.19773663966E+02 -0.82106063453E+02  0.80203354929E+02  0.11656359459E+03  0.47000000000E+01 0.  1.
          5    1    4    4  502    0  0.21159039008E+02 -0.33336767663E+02  0.26658610929E+03  0.26953531991E+03  0.47000000000E+01 0. -1.
         -5    1    4    4    0  502 -0.26543828352E+02  0.96884086113E+02  0.66931382909E+03  0.67682656033E+03  0.47000000000E+01 0. -1.
<mgrwt>
<rscale>  0 0.34539746E+03</rscale>
<asrwt>0</asrwt>
<pdfrwt beam="1">  1       21 0.18294447E+00 0.34539746E+03</pdfrwt>
<pdfrwt beam="2">  1       21 0.38586226E-02 0.34539746E+03</pdfrwt>
<totfact> 0.67520957E+04</totfact>
</mgrwt>
</event>
<event>
 8    1  0.9373234E-006  0.2856555E+03  0.7546771E-02  0.1092639E+00
         21   -1    0    0  504  503  0.00000000000E+00  0.00000000000E+00  0.11516958223E+03  0.11516958223E+03  0.00000000000E+00 0.  1.
         21   -1    0    0  503  504 -0.00000000000E+00 -0.00000000000E+00 -0.17712811015E+03  0.17712811015E+03  0.00000000000E+00 0.  1.
         25    2    1    2    0    0  0.30890413118E+02  0.23415292173E+02 -0.89427950722E+02  0.15851159980E+03  0.12500430141E+03 0.  0.
         25    2    1    2    0    0 -0.30890413118E+02 -0.23415292173E+02  0.27469422804E+02  0.13378609257E+03  0.12506660564E+03 0.  0.
          5    1    3    3  501    0 -0.28564048249E+02 -0.13396844208E+02  0.12962915545E+02  0.34431199028E+02  0.47000000000E+01 0.  1.
         -5    1    3    3    0  501  0.59454461367E+02  0.36812136381E+02 -0.10239086627E+03  0.12408040077E+03  0.47000000000E+01 0.  1.
          5    1    4    4  502    0  0.35143792609E+02 -0.13546435834E+02 -0.27747275786E+02  0.47016947969E+02  0.47000000000E+01 0. -1.
         -5    1    4    4    0  502 -0.66034205727E+02 -0.98688563389E+01  0.55216698590E+02  0.86769144600E+02  0.47000000000E+01 0. -1.
<mgrwt>
<rscale>  0 0.28565553E+03</rscale>
<asrwt>0</asrwt>
<pdfrwt beam="1">  1       21 0.17718397E-01 0.28565553E+03</pdfrwt>
<pdfrwt beam="2">  1       21 0.27250478E-01 0.28565553E+03</pdfrwt>
<totfact> 0.36373719E+05</totfact>
</mgrwt>
</event>
<event>
 8    1  0.9373234E-006  0.3396399E+03  0.7546771E-02  0.1066949E+00
         21   -1    0    0  504  503  0.00000000000E+00  0.00000000000E+00  0.23856485672E+02  0.23856485672E+02  0.00000000000E+00 0. -1.
         21   -1    0    0  503  504 -0.00000000000E+00 -0.00000000000E+00 -0.12088460134E+04  0.12088460134E+04  0.00000000000E+00 0. -1.
         25    2    1    2    0    0 -0.36761301015E+02 -0.16440986349E+02 -0.98308681905E+03  0.99181883408E+03  0.12499282600E+03 0.  0.
         25    2    1    2    0    0  0.36761301015E+02  0.16440986349E+02 -0.20190270863E+03  0.24088366495E+03  0.12505413629E+03 0.  0.
          5    1    3    3  501    0 -0.23483852452E+02  0.53717410676E+02 -0.38501321534E+03  0.38947954699E+03  0.47000000000E+01 0.  1.
         -5    1    3    3    0  501 -0.13277448562E+02 -0.70158397026E+02 -0.59807360371E+03  0.60233928709E+03  0.47000000000E+01 0.  1.
          5    1    4    4  502    0 -0.35802861534E+02 -0.45580681093E+01 -0.13515035296E+03  0.13996545568E+03  0.47000000000E+01 0.  1.
         -5    1    4    4    0  502  0.72564162549E+02  0.20999054459E+02 -0.66752355675E+02  0.10091820927E+03  0.47000000000E+01 0.  1.
<mgrwt>
<rscale>  0 0.33963991E+03</rscale>
<asrwt>0</asrwt>
<pdfrwt beam="1">  1       21 0.36702278E-02 0.33963991E+03</pdfrwt>
<pdfrwt beam="2">  1       21 0.18597635E+00 0.33963991E+03</pdfrwt>
<totfact> 0.70181411E+04</totfact>
</mgrwt>
</event>
<event>
 8    1  0.9373234E-006  0.4738416E+03  0.7546771E-02  0.1020842E+00
         21   -1    0    0  504  503  0.00000000000E+00  0.00000000000E+00  0.64390290108E+03  0.64390290108E+03  0.00000000000E+00 0.  1.
         21   -1    0    0  503  504 -0.00000000000E+00 -0.00000000000E+00 -0.87173796458E+02  0.87173796458E+02  0.00000000000E+00 0.  1.
         25    2    1    2    0    0  0.13371439993E+03 -0.15030150761E+03  0.26905971298E+03  0.35845180987E+03  0.12499794762E+03 0.  0.
         25    2    1    2    0    0 -0.13371439993E+03  0.15030150761E+03  0.28766939164E+03  0.37262488767E+03  0.12500217632E+03 0.  0.
          5    1    3    3  501    0 -0.17624091067E+02 -0.48589707966E+02  0.83042595625E+02  0.97927171890E+02  0.47000000000E+01 0.  1.
         -5    1    3    3    0  501  0.15133849100E+03 -0.10171179964E+03  0.18601711735E+03  0.26052463798E+03  0.47000000000E+01 0.  1.
          5    1    4    4  502    0  0.11284245494E+02  0.69589059845E+02  0.79410774068E+02  0.10629267371E+03  0.47000000000E+01 0. -1.
         -5    1    4    4    0  502 -0.14499864542E+03  0.80712447765E+02  0.20825861757E+03  0.26633221396E+03  0.47000000000E+01 0. -1.
<mgrwt>
<rscale>  0 0.47384158E+03</rscale>
<asrwt>0</asrwt>
<pdfrwt beam="1">  1       21 0.99061982E-01 0.47384158E+03</pdfrwt>
<pdfrwt beam="2">  1       21 0.13411354E-01 0.47384158E+03</pdfrwt>
<totfact> 0.36580463E+04</totfact>
</mgrwt>
</event>
<event>
 8    1  0.9373234E-006  0.2541694E+03  0.7546771E-02  0.1110698E+00
         21   -1    0    0  504  503  0.00000000000E+00  0.00000000000E+00  0.19715613638E+02  0.19715613638E+02  0.00000000000E+00 0.  1.
         21   -1    0    0  503  504 -0.00000000000E+00 -0.00000000000E+00 -0.81917416538E+03  0.81917416538E+03  0.00000000000E+00 0.  1.
         25    2    1    2    0    0  0.30212186574E+01  0.17564683327E+02 -0.44678584314E+03  0.46429567539E+03  0.12504094806E+03 0.  0.
         25    2    1    2    0    0 -0.30212186574E+01 -0.17564683327E+02 -0.35267270861E+03  0.37459410363E+03  0.12500022888E+03 0.  0.
          5    1    3    3  501    0  0.22586228259E+02 -0.50047419331E+02 -0.21964022241E+03  0.22644822629E+03  0.47000000000E+01 0.  1.
         -5    1    3    3    0  501 -0.19565009602E+02  0.67612102657E+02 -0.22714562073E+03  0.23784744910E+03  0.47000000000E+01 0.  1.
          5    1    4    4  502    0  0.24185637116E+02 -0.34468962690E+02 -0.33508184589E+03  0.33774988953E+03  0.47000000000E+01 0. -1.
         -5    1    4    4    0  502 -0.27206855773E+02  0.16904279364E+02 -0.17590862713E+02  0.36844214103E+02  0.47000000000E+01 0. -1.
<mgrwt>
<rscale>  0 0.25416940E+03</rscale>
<asrwt>0</asrwt>
<pdfrwt beam="1">  1       21 0.30331708E-02 0.25416940E+03</pdfrwt>
<pdfrwt beam="2">  1       21 0.12602682E+00 0.25416940E+03</pdfrwt>
<totfact> 0.28479032E+05</totfact>
</mgrwt>
</event>
<event>
 8    1  0.9373234E-006  0.2600456E+03  0.7546771E-02  0.1107116E+00
         21   -1    0    0  504  503  0.00000000000E+00  0.00000000000E+00  0.11332099271E+03  0.11332099271E+03  0.00000000000E+00 0.  1.
         21   -1    0    0  503  504 -0.00000000000E+00 -0.00000000000E+00 -0.14918620912E+03  0.14918620912E+03  0.00000000000E+00 0.  1.
         25    2    1    2    0    0  0.35626545577E+02  0.10927562583E+01 -0.21203550852E+02  0.13169948465E+03  0.12499887529E+03 0.  0.
         25    2    1    2    0    0 -0.35626545577E+02 -0.10927562583E+01 -0.14661665565E+02  0.13080771718E+03  0.12500099828E+03 0.  0.
          5    1    3    3  501    0  0.90536358137E+01 -0.58753221293E+02 -0.27658425720E+02  0.65734221278E+02  0.47000000000E+01 0.  1.
         -5    1    3    3    0  501  0.26572909763E+02  0.59845977551E+02  0.64548748685E+01  0.65965263374E+02  0.47000000000E+01 0.  1.
          5    1    4    4  502    0 -0.22991249417E+01 -0.61023558621E+02 -0.66618489071E+01  0.61608691863E+02  0.47000000000E+01 0.  1.
         -5    1    4    4    0  502 -0.33327420636E+02  0.59930802363E+02 -0.79998166583E+01  0.69199025315E+02  0.47000000000E+01 0.  1.
<mgrwt>
<rscale>  0 0.26004561E+03</rscale>
<asrwt>0</asrwt>
<pdfrwt beam="1">  1       21 0.17433999E-01 0.26004561E+03</pdfrwt>
<pdfrwt beam="2">  1       21 0.22951725E-01 0.26004561E+03</pdfrwt>
<totfact> 0.52402325E+05</totfact>
</mgrwt>
</event>
<event>
 8    1  0.9373234E-006  0.3317204E+03  0.7546771E-02  0.1070378E+00
         21   -1    0    0  504  503  0.00000000000E+00  0.00000000000E+00  0.38646633514E+02  0.38646633514E+02  0.00000000000E+00 0.  1.
         21   -1    0    0  503  504 -0.00000000000E+00 -0.00000000000E+00 -0.71182423402E+03  0.71182423402E+03  0.00000000000E+00 0.  1.
         25    2    1    2    0    0 -0.44371738851E+02 -0.92164444503E+02 -0.25133756058E+03  0.29876635560E+03  0.12501051893E+03 0.  0.
         25    2    1    2    0    0  0.44371738851E+02  0.92164444503E+02 -0.42184003992E+03  0.45170451193E+03  0.12499924309E+03 0.  0.
          5    1    3    3  501    0 -0.58898027441E+02 -0.11130187474E+03 -0.24146657610E+03  0.27236975297E+03  0.47000000000E+01 0. -1.
         -5    1    3    3    0  501  0.14526288590E+02  0.19137430235E+02 -0.98709844756E+01  0.26396602636E+02  0.47000000000E+01 0. -1.
          5    1    4    4  502    0  0.74786477444E+02  0.32059532222E+02 -0.31451370520E+03  0.32490274171E+03  0.47000000000E+01 0. -1.
         -5    1    4    4    0  502 -0.30414738593E+02  0.60104912281E+02 -0.10732633473E+03  0.12680177022E+03  0.47000000000E+01 0. -1.
<mgrwt>
<rscale>  0 0.33172043E+03</rscale>
<asrwt>0</asrwt>
<pdfrwt beam="1">  1       21 0.59456354E-02 0.33172043E+03</pdfrwt>
<pdfrwt beam="2">  1       21 0.10951143E+00 0.33172043E+03</pdfrwt>
<totfact> 0.12629107E+05</totfact>
</mgrwt>
</event>
<event>
 8    1  0.9373234E-006  0.2863591E+03  0.7546771E-02  0.1092266E+00
         21   -1    0    0  504  503  0.00000000000E+00  0.00000000000E+00  0.24768518281E+03  0.24768518281E+03  0.00000000000E+00 0.  1.
         21   -1    0    0  503  504 -0.00000000000E+00 -0.00000000000E+00 -0.82767884040E+02  0.82767884040E+02  0.00000000000E+00 0.  1.
         25    2    1    2    0    0 -0.67102790497E+02 -0.10897170733E+01  0.60180072814E+02  0.15411268731E+03  0.12500042900E+03 0.  0.
         25    2    1    2    0    0  0.67102790497E+02  0.10897170733E+01  0.10473722596E+03  0.17634037954E+03  0.12498828337E+03 0.  0.
          5    1    3    3  501    0 -0.56218501517E+02 -0.50281377137E+01 -0.29297617448E+02  0.63767095510E+02  0.47000000000E+01 0. -1.
         -5    1    3    3    0  501 -0.10884288980E+02  0.39384206404E+01  0.89477690261E+02  0.90345591803E+02  0.47000000000E+01 0. -1.
          5    1    4    4  502    0  0.55485143411E+02  0.56817567169E+02  0.83684874464E+02  0.11546464954E+03  0.47000000000E+01 0.  1.
         -5    1    4    4    0  502  0.11617647086E+02 -0.55727850096E+02  0.21052351498E+02  0.60875730005E+02  0.47000000000E+01 0.  1.
<mgrwt>
<rscale>  0 0.28635906E+03</rscale>
<asrwt>0</asrwt>
<pdfrwt beam="1">  1       21 0.38105412E-01 0.28635906E+03</pdfrwt>
<pdfrwt beam="2">  1       21 0.12733521E-01 0.28635906E+03</pdfrwt>
<totfact> 0.34314011E+05</totfact>
</mgrwt>
</event>
<event>
 8    1  0.9373234E-006  0.3046282E+03  0.7546771E-02  0.1082950E+00
         21   -1    0    0  504  503  0.00000000000E+00  0.00000000000E+00  0.61370579459E+02  0.61370579459E+02  0.00000000000E+00 0.  1.
         21   -1    0    0  503  504 -0.00000000000E+00 -0.00000000000E+00 -0.37802453532E+03  0.37802453532E+03  0.00000000000E+00 0.  1.
         25    2    1    2    0    0  0.57933986129E+02 -0.64817490991E+02 -0.15243130560E+03  0.21544860438E+03  0.12500057725E+03 0.  0.
         25    2    1    2    0    0 -0.57933986129E+02  0.64817490991E+02 -0.16422265026E+03  0.22394651040E+03  0.12500122710E+03 0.  0.
          5    1    3    3  501    0  0.13757094891E+02 -0.75198622624E+02 -0.25752190361E+02  0.80804429413E+02  0.47000000000E+01 0.  1.
         -5    1    3    3    0  501  0.44176891238E+02  0.10381131633E+02 -0.12667911524E+03  0.13464417497E+03  0.47000000000E+01 0.  1.
          5    1    4    4  502    0 -0.55592585633E+01  0.88409106473E+02 -0.67957690311E+02  0.11174709453E+03  0.47000000000E+01 0. -1.
         -5    1    4    4    0  502 -0.52374727565E+02 -0.23591615482E+02 -0.96264959945E+02  0.11219941587E+03  0.47000000000E+01 0. -1.
<mgrwt>
<rscale>  0 0.30462820E+03</rscale>
<asrwt>0</asrwt>
<pdfrwt beam="1">  1       21 0.94416276E-02 0.30462820E+03</pdfrwt>
<pdfrwt beam="2">  1       21 0.58157621E-01 0.30462820E+03</pdfrwt>
<totfact> 0.24171798E+05</totfact>
</mgrwt>
</event>
<event>
 8    1  0.9373234E-006  0.5917596E+03  0.7546771E-02  0.9922651E-01
         21   -1    0    0  504  503  0.00000000000E+00  0.00000000000E+00  0.91067655103E+03  0.91067655103E+03  0.00000000000E+00 0. -1.
         21   -1    0    0  503  504 -0.00000000000E+00 -0.00000000000E+00 -0.96131658049E+02  0.96131658049E+02  0.00000000000E+00 0. -1.
         25    2    1    2    0    0  0.19026312296E+03 -0.15482287056E+03  0.22286301513E+03  0.35421029184E+03  0.12500732027E+03 0.  0.
         25    2    1    2    0    0 -0.19026312296E+03  0.15482287056E+03  0.59168187785E+03  0.65259791724E+03  0.12500567911E+03 0.  0.
          5    1    3    3  501    0  0.11260260220E+03 -0.47416008603E+02  0.40665647432E+02  0.12885421520E+03  0.47000000000E+01 0. -1.
         -5    1    3    3    0  501  0.77660520764E+02 -0.10740686195E+03  0.18219736770E+03  0.22535607664E+03  0.47000000000E+01 0. -1.
          5    1    4    4  502    0 -0.77371080988E+02  0.30612551017E+01  0.10591898340E+03  0.13128814304E+03  0.47000000000E+01 0.  1.
         -5    1    4    4    0  502 -0.11289204197E+03  0.15176161546E+03  0.48576289444E+03  0.52130977421E+03  0.47000000000E+01 0.  1.
<mgrwt>
<rscale>  0 0.59175957E+03</rscale>
<asrwt>0</asrwt>
<pdfrwt beam="1">  1       21 0.14010408E+00 0.59175957E+03</pdfrwt>
<pdfrwt beam="2">  1       21 0.14789486E-01 0.59175957E+03</pdfrwt>
<totfact> 0.12298871E+04</totfact>
</mgrwt>
</event>
<event>
 8    1  0.9373234E-006  0.4235942E+03  0.7546771E-02  0.1035903E+00
         21   -1    0    0  504  503  0.00000000000E+00  0.00000000000E+00  0.14136432076E+03  0.14136432076E+03  0.00000000000E+00 0. -1.
         21   -1    0    0  503  504 -0.00000000000E+00 -0.00000000000E+00 -0.31732207302E+03  0.31732207302E+03  0.00000000000E+00 0. -1.
         25    2    1    2    0    0  0.21279511210E+02  0.92074913936E+02  0.66312637462E+02  0.17015271016E+03  0.12499588599E+03 0.  0.
         25    2    1    2    0    0 -0.21279511210E+02 -0.92074913936E+02 -0.24227038972E+03  0.28853368361E+03  0.12500454980E+03 0.  0.
          5    1    3    3  501    0  0.37183715735E+02  0.37617773919E+01 -0.22447333712E+02  0.43849201541E+02  0.47000000000E+01 0.  1.
         -5    1    3    3    0  501 -0.15904204524E+02  0.88313136544E+02  0.88759971174E+02  0.12630350862E+03  0.47000000000E+01 0.  1.
          5    1    4    4  502    0  0.40300664806E+02 -0.15077175329E+02 -0.25226051076E+02  0.50098986542E+02  0.47000000000E+01 0. -1.
         -5    1    4    4    0  502 -0.61580176016E+02 -0.76997738607E+02 -0.21704433864E+03  0.23843469707E+03  0.47000000000E+01 0. -1.
<mgrwt>
<rscale>  0 0.42359424E+03</rscale>
<asrwt>0</asrwt>
<pdfrwt beam="1">  1       21 0.21748357E-01 0.42359424E+03</pdfrwt>
<pdfrwt beam="2">  1       21 0.48818780E-01 0.42359424E+03</pdfrwt>
<totfact> 0.73673401E+04</totfact>
</mgrwt>
</event>
<event>
 8    1  0.9373234E-006  0.3042464E+03  0.7546771E-02  0.1083137E+00
         21   -1    0    0  504  503  0.00000000000E+00  0.00000000000E+00  0.66433818463E+02  0.66433818463E+02  0.00000000000E+00 0. -1.
         21   -1    0    0  503  504 -0.00000000000E+00 -0.00000000000E+00 -0.34833867867E+03  0.34833867867E+03  0.00000000000E+00 0. -1.
         25    2    1    2    0    0 -0.50570917542E+01  0.83120385445E+02 -0.10776431495E+03  0.18480582977E+03  0.12492187354E+03 0.  0.
         25    2    1    2    0    0  0.50570917542E+01 -0.83120385445E+02 -0.17414054526E+03  0.22996666736E+03  0.12500066376E+03 0.  0.
          5    1    3    3  501    0  0.48504447340E+02  0.82256535234E+02 -0.59955604967E+02  0.11285204281E+03  0.47000000000E+01 0.  1.
         -5    1    3    3    0  501 -0.53561539094E+02  0.86385021093E+00 -0.47808709980E+02  0.71953786956E+02  0.47000000000E+01 0.  1.
          5    1    4    4  502    0 -0.41722275100E+02 -0.89532592326E+02 -0.14045785584E+03  0.17177698505E+03  0.47000000000E+01 0.  1.
         -5    1    4    4    0  502  0.46779366854E+02  0.64122068810E+01 -0.33682689422E+02  0.58189682307E+02  0.47000000000E+01 0.  1.
<mgrwt>
<rscale>  0 0.30424640E+03</rscale>
<asrwt>0</asrwt>
<pdfrwt beam="1">  1       21 0.10220587E-01 0.30424640E+03</pdfrwt>
<pdfrwt beam="2">  1       21 0.53590567E-01 0.30424640E+03</pdfrwt>
<totfact> 0.25012599E+05</totfact>
</mgrwt>
</event>
<event>
 8    1  0.9373234E-006  0.5110944E+03  0.7546771E-02  0.1010923E+00
         21   -1    0    0  504  503  0.00000000000E+00  0.00000000000E+00  0.93200303444E+02  0.93200303444E+02  0.00000000000E+00 0. -1.
         21   -1    0    0  503  504 -0.00000000000E+00 -0.00000000000E+00 -0.70068831075E+03  0.70068831075E+03  0.00000000000E+00 0. -1.
         25    2    1    2    0    0  0.21335369445E+03 -0.36397913029E+02 -0.38644362805E+03  0.46022768658E+03  0.12500495520E+03 0.  0.
         25    2    1    2    0    0 -0.21335369445E+03  0.36397913029E+02 -0.22104437925E+03  0.33366092761E+03  0.12499756001E+03 0.  0.
          5    1    3    3  501    0  0.90215391077E+02  0.39738866659E+01 -0.27419406494E+03  0.28871973228E+03  0.47000000000E+01 0.  1.
         -5    1    3    3    0  501  0.12313830337E+03 -0.40371799695E+02 -0.11224956312E+03  0.17150795430E+03  0.47000000000E+01 0.  1.
          5    1    4    4  502    0 -0.48179685832E+02 -0.42731490807E+02 -0.39262231267E+02  0.75570333052E+02  0.47000000000E+01 0. -1.
         -5    1    4    4    0  502 -0.16517400862E+03  0.79129403836E+02 -0.18178214798E+03  0.25809059456E+03  0.47000000000E+01 0. -1.
<mgrwt>
<rscale>  0 0.51109437E+03</rscale>
<asrwt>0</asrwt>
<pdfrwt beam="1">  1       21 0.14338508E-01 0.51109437E+03</pdfrwt>
<pdfrwt beam="2">  1       21 0.10779821E+00 0.51109437E+03</pdfrwt>
<totfact> 0.26044753E+04</totfact>
</mgrwt>
</event>
<event>
 8    1  0.9373234E-006  0.2770315E+03  0.7546771E-02  0.1097321E+00
         21   -1    0    0  504  503  0.00000000000E+00  0.00000000000E+00  0.58122878757E+03  0.58122878757E+03  0.00000000000E+00 0. -1.
         21   -1    0    0  503  504 -0.00000000000E+00 -0.00000000000E+00 -0.33010421457E+02  0.33010421457E+02  0.00000000000E+00 0. -1.
         25    2    1    2    0    0 -0.25262093346E+02 -0.54068364636E+02  0.27487146055E+03  0.30780046704E+03  0.12500098508E+03 0.  0.
         25    2    1    2    0    0  0.25262093346E+02  0.54068364636E+02  0.27334690556E+03  0.30643874198E+03  0.12499844156E+03 0.  0.
          5    1    3    3  501    0 -0.84451471599E+01 -0.88431389007E+02  0.12746362640E+03  0.15543647297E+03  0.47000000000E+01 0.  1.
         -5    1    3    3    0  501 -0.16816946186E+02  0.34363024371E+02  0.14740783415E+03  0.15236399408E+03  0.47000000000E+01 0.  1.
          5    1    4    4  502    0  0.67436998849E+02  0.65947718214E+02  0.18497464926E+03  0.20768861601E+03  0.47000000000E+01 0. -1.
         -5    1    4    4    0  502 -0.42174905504E+02 -0.11879353578E+02  0.88372256298E+02  0.98750125969E+02  0.47000000000E+01 0. -1.
<mgrwt>
<rscale>  0 0.27703146E+03</rscale>
<asrwt>0</asrwt>
<pdfrwt beam="1">  1       21 0.89419806E-01 0.27703146E+03</pdfrwt>
<pdfrwt beam="2">  1       21 0.50785268E-02 0.27703146E+03</pdfrwt>
<totfact> 0.27297184E+05</totfact>
</mgrwt>
</event>
<event>
 8    1  0.9373234E-006  0.2508518E+03  0.7546771E-02  0.1112768E+00
         21   -1    0    0  504  503  0.00000000000E+00  0.00000000000E+00  0.24484074543E+02  0.24484074543E+02  0.00000000000E+00 0. -1.
         21   -1    0    0  503  504 -0.00000000000E+00 -0.00000000000E+00 -0.64252590970E+03  0.64252590970E+03  0.00000000000E+00 0. -1.
         25    2    1    2    0    0  0.64862282194E+00  0.10152094988E+02 -0.31565155978E+03  0.33964470495E+03  0.12497652845E+03 0.  0.
         25    2    1    2    0    0 -0.64862282194E+00 -0.10152094988E+02 -0.30239027537E+03  0.32736527929E+03  0.12499864680E+03 0.  0.
          5    1    3    3  501    0 -0.57853733903E+02  0.18079097010E+02 -0.20888684484E+03  0.21755392946E+03  0.47000000000E+01 0. -1.
         -5    1    3    3    0  501  0.58502356725E+02 -0.79270020217E+01 -0.10676471494E+03  0.12209077549E+03  0.47000000000E+01 0. -1.
          5    1    4    4  502    0 -0.56441080927E+02 -0.23641939586E+02 -0.20729964903E+03  0.21619382834E+03  0.47000000000E+01 0. -1.
         -5    1    4    4    0  502  0.55792458106E+02  0.13489844598E+02 -0.95090626342E+02  0.11117145095E+03  0.47000000000E+01 0. -1.
<mgrwt>
<rscale>  0 0.25085177E+03</rscale>
<asrwt>0</asrwt>
<pdfrwt beam="1">  1       21 0.37667801E-02 0.25085177E+03</pdfrwt>
<pdfrwt beam="2">  1       21 0.98850155E-01 0.25085177E+03</pdfrwt>
<totfact> 0.35993377E+05</totfact>
</mgrwt>
</event>
<event>
 8    1  0.9373234E-006  0.3453748E+03  0.7546771E-02  0.1064530E+00
         21   -1    0    0  504  503  0.00000000000E+00  0.00000000000E+00  0.12764589886E+03  0.12764589886E+03  0.00000000000E+00 0.  1.
         21   -1    0    0  503  504 -0.00000000000E+00 -0.00000000000E+00 -0.23362231491E+03  0.23362231491E+03  0.00000000000E+00 0.  1.
         25    2    1    2    0    0  0.77132180168E+01 -0.35173762946E+02 -0.17179350407E+03  0.21545657449E+03  0.12494734939E+03 0.  0.
         25    2    1    2    0    0 -0.77132180168E+01  0.35173762946E+02  0.65817088016E+02  0.14581163927E+03  0.12502982740E+03 0.  0.
          5    1    3    3  501    0  0.11199690887E+02 -0.80375977164E+02 -0.86196403049E+02  0.11848054979E+03  0.47000000000E+01 0.  1.
         -5    1    3    3    0  501 -0.34864728704E+01  0.45202214218E+02 -0.85597101016E+02  0.96976024695E+02  0.47000000000E+01 0.  1.
          5    1    4    4  502    0  0.58242231896E+02  0.23145896876E+02  0.33933339455E+02  0.71424447110E+02  0.47000000000E+01 0.  1.
         -5    1    4    4    0  502 -0.65955449913E+02  0.12027866070E+02  0.31883748561E+02  0.74387192162E+02  0.47000000000E+01 0.  1.
<mgrwt>
<rscale>  0 0.34537476E+03</rscale>
<asrwt>0</asrwt>
<pdfrwt beam="1">  1       21 0.19637831E-01 0.34537476E+03</pdfrwt>
<pdfrwt beam="2">  1       21 0.35941895E-01 0.34537476E+03</pdfrwt>
<totfact> 0.17124782E+05</totfact>
</mgrwt>
</event>
<event>
 8    1  0.9373234E-006  0.2855535E+03  0.7546771E-02  0.1092694E+00
         21   -1    0    0  504  503  0.00000000000E+00  0.00000000000E+00  0.11713389854E+03  0.11713389854E+03  0.00000000000E+00 0. -1.
         21   -1    0    0  503  504 -0.00000000000E+00 -0.00000000000E+00 -0.17403336978E+03  0.17403336978E+03  0.00000000000E+00 0. -1.
         25    2    1    2    0    0  0.32628019818E+01 -0.19518787683E+02  0.38950371375E+02  0.13240906852E+03  0.12499360403E+03 0.  0.
         25    2    1    2    0    0 -0.32628019818E+01  0.19518787683E+02 -0.95849842616E+02  0.15875819980E+03  0.12500137889E+03 0.  0.
          5    1    3    3  501    0 -0.16971099190E+02  0.46296207443E+02 -0.62268199346E+01  0.49922142560E+02  0.47000000000E+01 0.  1.
         -5    1    3    3    0  501  0.20233901172E+02 -0.65814995125E+02  0.45177191310E+02  0.82486925962E+02  0.47000000000E+01 0.  1.
          5    1    4    4  502    0 -0.26505386825E+02  0.53359151869E+02 -0.62520539029E+01  0.60090871161E+02  0.47000000000E+01 0.  1.
         -5    1    4    4    0  502  0.23242584843E+02 -0.33840364186E+02 -0.89597788713E+02  0.98667328639E+02  0.47000000000E+01 0.  1.
<mgrwt>
<rscale>  0 0.28555355E+03</rscale>
<asrwt>0</asrwt>
<pdfrwt beam="1">  1       21 0.18020600E-01 0.28555355E+03</pdfrwt>
<pdfrwt beam="2">  1       21 0.26774364E-01 0.28555355E+03</pdfrwt>
<totfact> 0.36473211E+05</totfact>
</mgrwt>
</event>
<event>
 8    1  0.9373234E-006  0.3268505E+03  0.7546771E-02  0.1072539E+00
         21   -1    0    0  504  503  0.00000000000E+00  0.00000000000E+00  0.18633292343E+03  0.18633292343E+03  0.00000000000E+00 0. -1.
         21   -1    0    0  503  504 -0.00000000000E+00 -0.00000000000E+00 -0.14333383527E+03  0.14333383527E+03  0.00000000000E+00 0. -1.
         25    2    1    2    0    0 -0.60524795039E+02 -0.68792394066E+02  0.73788257215E+02  0.17165347420E+03  0.12499825601E+03 0.  0.
         25    2    1    2    0    0  0.60524795039E+02  0.68792394066E+02 -0.30789169053E+02  0.15801328450E+03  0.12499832339E+03 0.  0.
          5    1    3    3  501    0 -0.77991785110E+02 -0.17949567972E+01  0.12657846647E+02  0.79172289952E+02  0.47000000000E+01 0. -1.
         -5    1    3    3    0  501  0.17466990071E+02 -0.66997437269E+02  0.61130410569E+02  0.92481184243E+02  0.47000000000E+01 0. -1.
          5    1    4    4  502    0  0.79401650898E+02 -0.11240446187E+01 -0.97232433113E+00  0.79554516253E+02  0.47000000000E+01 0. -1.
         -5    1    4    4    0  502 -0.18876855859E+02  0.69916438685E+02 -0.29816844722E+02  0.78458768246E+02  0.47000000000E+01 0. -1.
<mgrwt>
<rscale>  0 0.32685050E+03</rscale>
<asrwt>0</asrwt>
<pdfrwt beam="1">  1       21 0.28666604E-01 0.32685050E+03</pdfrwt>
<pdfrwt beam="2">  1       21 0.22051359E-01 0.32685050E+03</pdfrwt>
<totfact> 0.21634949E+05</totfact>
</mgrwt>
</event>
<event>
 8    1  0.9373234E-006  0.2900778E+03  0.7546771E-02  0.1090309E+00
         21   -1    0    0  504  503  0.00000000000E+00  0.00000000000E+00  0.50145454252E+02  0.50145454252E+02  0.00000000000E+00 0. -1.
         21   -1    0    0  503  504 -0.00000000000E+00 -0.00000000000E+00 -0.41950522279E+03  0.41950522279E+03  0.00000000000E+00 0. -1.
         25    2    1    2    0    0  0.41470211468E+02 -0.78059914736E+01 -0.28226501991E+03  0.31156230976E+03  0.12496727354E+03 0.  0.
         25    2    1    2    0    0 -0.41470211468E+02  0.78059914736E+01 -0.87094748631E+02  0.15808836728E+03  0.12500289872E+03 0.  0.
          5    1    3    3  501    0  0.18138555428E+02  0.56200075000E+02 -0.17144864398E+03  0.18139510232E+03  0.47000000000E+01 0.  1.
         -5    1    3    3    0  501  0.23331656039E+02 -0.64006066473E+02 -0.11081637593E+03  0.13016720744E+03  0.47000000000E+01 0.  1.
          5    1    4    4  502    0  0.19396835101E+02 -0.21690089315E+02 -0.85316494781E+02  0.90264563745E+02  0.47000000000E+01 0.  1.
         -5    1    4    4    0  502 -0.60867046568E+02  0.29496080788E+02 -0.17782538506E+01  0.67823803540E+02  0.47000000000E+01 0.  1.
<mgrwt>
<rscale>  0 0.29007778E+03</rscale>
<asrwt>0</asrwt>
<pdfrwt beam="1">  1       21 0.77146850E-02 0.29007778E+03</pdfrwt>
<pdfrwt beam="2">  1       21 0.64539267E-01 0.29007778E+03</pdfrwt>
<totfact> 0.27604599E+05</totfact>
</mgrwt>
</event>
<event>
 8    1  0.9373234E-006  0.2742699E+03  0.7546771E-02  0.1098860E+00
         21   -1    0    0  504  503  0.00000000000E+00  0.00000000000E+00  0.21318903951E+03  0.21318903951E+03  0.00000000000E+00 0. -1.
         21   -1    0    0  503  504 -0.00000000000E+00 -0.00000000000E+00 -0.88212789284E+02  0.88212789284E+02  0.00000000000E+00 0. -1.
         25    2    1    2    0    0  0.41031435648E+02  0.29339862576E+02  0.34766341271E+02  0.13920627171E+03  0.12500112540E+03 0.  0.
         25    2    1    2    0    0 -0.41031435648E+02 -0.29339862576E+02  0.90209908954E+02  0.16219555708E+03  0.12500065926E+03 0.  0.
          5    1    3    3  501    0  0.46079290555E+02  0.23372898275E+02  0.78740645100E+02  0.94296196013E+02  0.47000000000E+01 0.  1.
         -5    1    3    3    0  501 -0.50478549067E+01  0.59669643010E+01 -0.43974303828E+02  0.44910075699E+02  0.47000000000E+01 0.  1.
          5    1    4    4  502    0  0.19021356193E+01  0.86496834735E+01  0.10282126415E+03  0.10330894204E+03  0.47000000000E+01 0. -1.
         -5    1    4    4    0  502 -0.42933571268E+02 -0.37989546049E+02 -0.12611355197E+02  0.58886615039E+02  0.47000000000E+01 0. -1.
<mgrwt>
<rscale>  0 0.27426994E+03</rscale>
<asrwt>0</asrwt>
<pdfrwt beam="1">  1       21 0.32798314E-01 0.27426994E+03</pdfrwt>
<pdfrwt beam="2">  1       21 0.13571198E-01 0.27426994E+03</pdfrwt>
<totfact> 0.41379312E+05</totfact>
</mgrwt>
</event>
<event>
 8    1  0.9373234E-006  0.2820552E+03  0.7546771E-02  0.1094572E+00
         21   -1    0    0  504  503  0.00000000000E+00  0.00000000000E+00  0.11528786297E+02  0.11528786297E+02  0.00000000000E+00 0. -1.
         21   -1    0    0  503  504 -0.00000000000E+00 -0.00000000000E+00 -0.17251406755E+04  0.17251406755E+04  0.00000000000E+00 0. -1.
         25    2    1    2    0    0 -0.20565332976E+02 -0.54121649191E+02 -0.67094926901E+03  0.68494618412E+03  0.12500507081E+03 0.  0.
         25    2    1    2    0    0  0.20565332976E+02  0.54121649191E+02 -0.10426626202E+04  0.10517232777E+04  0.12499770966E+03 0.  0.
          5    1    3    3  501    0 -0.64913146219E+02  0.74071065995E+00 -0.26429044363E+03  0.27218705663E+03  0.47000000000E+01 0. -1.
         -5    1    3    3    0  501  0.44347813242E+02 -0.54862359851E+02 -0.40665882538E+03  0.41275912749E+03  0.47000000000E+01 0. -1.
          5    1    4    4  502    0  0.17876946710E+02  0.89443376504E+02 -0.90122987858E+03  0.90584606136E+03  0.47000000000E+01 0.  1.
         -5    1    4    4    0  502  0.26883862670E+01 -0.35321727313E+02 -0.14143274164E+03  0.14587721634E+03  0.47000000000E+01 0.  1.
<mgrwt>
<rscale>  0 0.28205516E+03</rscale>
<asrwt>0</asrwt>
<pdfrwt beam="1">  1       21 0.17736596E-02 0.28205516E+03</pdfrwt>
<pdfrwt beam="2">  1       21 0.26540623E+00 0.28205516E+03</pdfrwt>
<totfact> 0.76329362E+04</totfact>
</mgrwt>
</event>
<event>
 8    1  0.9373234E-006  0.2616394E+03  0.7546771E-02  0.1106162E+00
         21   -1    0    0  504  503  0.00000000000E+00  0.00000000000E+00  0.86683030515E+02  0.86683030515E+02  0.00000000000E+00 0. -1.
         21   -1    0    0  503  504 -0.00000000000E+00 -0.00000000000E+00 -0.19742957442E+03  0.19742957442E+03  0.00000000000E+00 0. -1.
         25    2    1    2    0    0  0.28949496515E+02 -0.36302100344E+00 -0.27681260061E+02  0.13126328779E+03  0.12500237369E+03 0.  0.
         25    2    1    2    0    0 -0.28949496515E+02  0.36302100344E+00 -0.83065283842E+02  0.15284931715E+03  0.12499946896E+03 0.  0.
          5    1    3    3  501    0 -0.32242240550E+01  0.59332290209E+02 -0.19917388769E+02  0.62845116418E+02  0.47000000000E+01 0.  1.
         -5    1    3    3    0  501  0.32173720570E+02 -0.59695311212E+02 -0.77638712925E+01  0.68418171369E+02  0.47000000000E+01 0.  1.
          5    1    4    4  502    0  0.29272249460E+02 -0.41774569557E+02 -0.56033308440E+02  0.75919700374E+02  0.47000000000E+01 0. -1.
         -5    1    4    4    0  502 -0.58221745975E+02  0.42137590560E+02 -0.27031975402E+02  0.76929616772E+02  0.47000000000E+01 0. -1.
<mgrwt>
<rscale>  0 0.26163940E+03</rscale>
<asrwt>0</asrwt>
<pdfrwt beam="1">  1       21 0.13335851E-01 0.26163940E+03</pdfrwt>
<pdfrwt beam="2">  1       21 0.30373780E-01 0.26163940E+03</pdfrwt>
<totfact> 0.49828591E+05</totfact>
</mgrwt>
</event>
<event>
 8    1  0.9373234E-006  0.3091331E+03  0.7546771E-02  0.1080762E+00
         21   -1    0    0  504  503  0.00000000000E+00  0.00000000000E+00  0.10981752956E+04  0.10981752956E+04  0.00000000000E+00 0. -1.
         21   -1    0    0  503  504 -0.00000000000E+00 -0.00000000000E+00 -0.21755011165E+02  0.21755011165E+02  0.00000000000E+00 0. -1.
         25    2    1    2    0    0  0.22098623423E+02  0.10487198846E+02  0.85542447903E+03  0.86485477333E+03  0.12499763648E+03 0.  0.
         25    2    1    2    0    0 -0.22098623423E+02 -0.10487198846E+02  0.22099580537E+03  0.25507553341E+03  0.12500420494E+03 0.  0.
          5    1    3    3  501    0 -0.13961940322E+02  0.80251454843E+01  0.78825267849E+03  0.78843117257E+03  0.47000000000E+01 0.  1.
         -5    1    3    3    0  501  0.36060563746E+02  0.24620533620E+01  0.67171800544E+02  0.76423600757E+02  0.47000000000E+01 0.  1.
          5    1    4    4  502    0  0.21144634541E+02 -0.41951932404E+02  0.28310454000E+02  0.55051176263E+02  0.47000000000E+01 0. -1.
         -5    1    4    4    0  502 -0.43243257964E+02  0.31464733558E+02  0.19268535137E+03  0.20002435714E+03  0.47000000000E+01 0. -1.
<mgrwt>
<rscale>  0 0.30913308E+03</rscale>
<asrwt>0</asrwt>
<pdfrwt beam="1">  1       21 0.16895000E+00 0.30913308E+03</pdfrwt>
<pdfrwt beam="2">  1       21 0.33469257E-02 0.30913308E+03</pdfrwt>
<totfact> 0.10907973E+05</totfact>
</mgrwt>
</event>
<event>
 8    1  0.9373234E-006  0.2696197E+03  0.7546771E-02  0.1101497E+00
         21   -1    0    0  504  503  0.00000000000E+00  0.00000000000E+00  0.12808891822E+03  0.12808891822E+03  0.00000000000E+00 0. -1.
         21   -1    0    0  503  504 -0.00000000000E+00 -0.00000000000E+00 -0.14188342338E+03  0.14188342338E+03  0.00000000000E+00 0. -1.
         25    2    1    2    0    0 -0.23736116435E+02  0.11753209435E+02  0.36141769658E+02  0.13278474816E+03  0.12499608264E+03 0.  0.
         25    2    1    2    0    0  0.23736116435E+02 -0.11753209435E+02 -0.49936274820E+02  0.13718759344E+03  0.12500105237E+03 0.  0.
          5    1    3    3  501    0  0.26735560682E+02 -0.41636802122E+02 -0.22503275819E+01  0.49755074818E+02  0.47000000000E+01 0.  1.
         -5    1    3    3    0  501 -0.50471677118E+02  0.53390011557E+02  0.38392097240E+02  0.83029673344E+02  0.47000000000E+01 0.  1.
          5    1    4    4  502    0  0.51248100762E+02  0.40445153218E+02 -0.41233748103E+02  0.77359487028E+02  0.47000000000E+01 0. -1.
         -5    1    4    4    0  502 -0.27511984327E+02 -0.52198362652E+02 -0.87025267168E+01  0.59828106408E+02  0.47000000000E+01 0. -1.
<mgrwt>
<rscale>  0 0.26961969E+03</rscale>
<asrwt>0</asrwt>
<pdfrwt beam="1">  1       21 0.19705988E-01 0.26961969E+03</pdfrwt>
<pdfrwt beam="2">  1       21 0.21828219E-01 0.26961969E+03</pdfrwt>
<totfact> 0.45784657E+05</totfact>
</mgrwt>
</event>
<event>
 8    1  0.9373234E-006  0.7895309E+03  0.7546771E-02  0.9575296E-01
         21   -1    0    0  504  503  0.00000000000E+00  0.00000000000E+00  0.39399500454E+03  0.39399500454E+03  0.00000000000E+00 0. -1.
         21   -1    0    0  503  504 -0.00000000000E+00 -0.00000000000E+00 -0.39553737911E+03  0.39553737911E+03  0.00000000000E+00 0. -1.
         25    2    1    2    0    0  0.35352548039E+03 -0.57409822687E+02 -0.11003543925E+03  0.39497928374E+03  0.12499873465E+03 0.  0.
         25    2    1    2    0    0 -0.35352548039E+03  0.57409822687E+02  0.10849306468E+03  0.39455309991E+03  0.12500100215E+03 0.  0.
          5    1    3    3  501    0  0.21932242277E+03  0.18003822795E+02 -0.32321773687E+02  0.22247078419E+03  0.47000000000E+01 0.  1.
         -5    1    3    3    0  501  0.13420305762E+03 -0.75413645483E+02 -0.77713665562E+02  0.17250849955E+03  0.47000000000E+01 0.  1.
          5    1    4    4  502    0 -0.86878762559E+02  0.28918694572E+02 -0.24899792556E+02  0.95006841590E+02  0.47000000000E+01 0.  1.
         -5    1    4    4    0  502 -0.26664671783E+03  0.28491128115E+02  0.13339285724E+03  0.29954625832E+03  0.47000000000E+01 0.  1.
<mgrwt>
<rscale>  0 0.78953088E+03</rscale>
<asrwt>0</asrwt>
<pdfrwt beam="1">  1       21 0.60614616E-01 0.78953088E+03</pdfrwt>
<pdfrwt beam="2">  1       21 0.60851904E-01 0.78953088E+03</pdfrwt>
<totfact> 0.51890918E+03</totfact>
</mgrwt>
</event>
<event>
 8    1  0.9373234E-006  0.3364128E+03  0.7546771E-02  0.1068334E+00
         21   -1    0    0  504  503  0.00000000000E+00  0.00000000000E+00  0.21019441306E+03  0.21019441306E+03  0.00000000000E+00 0. -1.
         21   -1    0    0  503  504 -0.00000000000E+00 -0.00000000000E+00 -0.13460581808E+03  0.13460581808E+03  0.00000000000E+00 0. -1.
         25    2    1    2    0    0  0.25547567044E+02  0.30384343911E+02  0.14573816416E+03  0.19606673348E+03  0.12500665962E+03 0.  0.
         25    2    1    2    0    0 -0.25547567044E+02 -0.30384343911E+02 -0.70149569173E+02  0.14873349766E+03  0.12499921894E+03 0.  0.
          5    1    3    3  501    0  0.30592120673E+02 -0.30560843235E+02  0.65795402036E+01  0.43991173385E+02  0.47000000000E+01 0. -1.
         -5    1    3    3    0  501 -0.50445536291E+01  0.60945187146E+02  0.13915862395E+03  0.15207556010E+03  0.47000000000E+01 0. -1.
          5    1    4    4  502    0 -0.44592801968E+02 -0.71143255636E+02 -0.57123222615E+02  0.10166136617E+03  0.47000000000E+01 0. -1.
         -5    1    4    4    0  502  0.19045234924E+02  0.40758911725E+02 -0.13026346559E+02  0.47072131490E+02  0.47000000000E+01 0. -1.
<mgrwt>
<rscale>  0 0.33641279E+03</rscale>
<asrwt>0</asrwt>
<pdfrwt beam="1">  1       21 0.32337602E-01 0.33641279E+03</pdfrwt>
<pdfrwt beam="2">  1       21 0.20708587E-01 0.33641279E+03</pdfrwt>
<totfact> 0.19176800E+05</totfact>
</mgrwt>
</event>
<event>
 8    1  0.9373234E-006  0.3348992E+03  0.7546771E-02  0.1068989E+00
         21   -1    0    0  504  503  0.00000000000E+00  0.00000000000E+00  0.71478024493E+02  0.71478024493E+02  0.00000000000E+00 0.  1.
         21   -1    0    0  503  504 -0.00000000000E+00 -0.00000000000E+00 -0.39227954796E+03  0.39227954796E+03  0.00000000000E+00 0.  1.
         25    2    1    2    0    0  0.10679258014E+03 -0.16790727551E+02 -0.12303827309E+03  0.20602471619E+03  0.12498473239E+03 0.  0.
         25    2    1    2    0    0 -0.10679258014E+03  0.16790727551E+02 -0.19776325038E+03  0.25773285627E+03  0.12501735198E+03 0.  0.
          5    1    3    3  501    0  0.13456571370E+03 -0.74333199639E+01 -0.10789199710E+03  0.17270193568E+03  0.47000000000E+01 0. -1.
         -5    1    3    3    0  501 -0.27773133560E+02 -0.93574075866E+01 -0.15146275990E+02  0.33322780509E+02  0.47000000000E+01 0. -1.
          5    1    4    4  502    0 -0.58531893674E+02  0.15321266358E+02 -0.20016493423E+03  0.20916217314E+03  0.47000000000E+01 0.  1.
         -5    1    4    4    0  502 -0.48260686463E+02  0.14694611928E+01  0.24016838469E+01  0.48570683126E+02  0.47000000000E+01 0.  1.
<mgrwt>
<rscale>  0 0.33489919E+03</rscale>
<asrwt>0</asrwt>
<pdfrwt beam="1">  1       21 0.10996619E-01 0.33489919E+03</pdfrwt>
<pdfrwt beam="2">  1       21 0.60350700E-01 0.33489919E+03</pdfrwt>
<totfact> 0.16871729E+05</totfact>
</mgrwt>
</event>
<event>
 8    1  0.9373234E-006  0.2619649E+03  0.7546771E-02  0.1105968E+00
         21   -1    0    0  504  503  0.00000000000E+00  0.00000000000E+00  0.11647552603E+03  0.11647552603E+03  0.00000000000E+00 0.  1.
         21   -1    0    0  503  504 -0.00000000000E+00 -0.00000000000E+00 -0.14729614968E+03  0.14729614968E+03  0.00000000000E+00 0.  1.
         25    2    1    2    0    0  0.23197517324E+02  0.89495581136E+01 -0.45838481475E+02  0.13544441814E+03  0.12500321845E+03 0.  0.
         25    2    1    2    0    0 -0.23197517324E+02 -0.89495581136E+01  0.15017857829E+02  0.12832725757E+03  0.12499651827E+03 0.  0.
          5    1    3    3  501    0 -0.16482850883E+02  0.14795697165E+02  0.36947738181E+02  0.43333848024E+02  0.47000000000E+01 0. -1.
         -5    1    3    3    0  501  0.39680368207E+02 -0.58461390517E+01 -0.82786219656E+02  0.92110570120E+02  0.47000000000E+01 0. -1.
          5    1    4    4  502    0  0.20330175133E+02  0.12858261564E+02 -0.44795013128E+02  0.51062061381E+02  0.47000000000E+01 0. -1.
         -5    1    4    4    0  502 -0.43527692457E+02 -0.21807819678E+02  0.59812870956E+02  0.77265196187E+02  0.47000000000E+01 0. -1.
<mgrwt>
<rscale>  0 0.26196486E+03</rscale>
<asrwt>0</asrwt>
<pdfrwt beam="1">  1       21 0.17919312E-01 0.26196486E+03</pdfrwt>
<pdfrwt beam="2">  1       21 0.22660946E-01 0.26196486E+03</pdfrwt>
<totfact> 0.51002519E+05</totfact>
</mgrwt>
</event>
<event>
 8    1  0.9373234E-006  0.2803456E+03  0.7546771E-02  0.1095500E+00
         21   -1    0    0  504  503  0.00000000000E+00  0.00000000000E+00  0.31095790921E+02  0.31095790921E+02  0.00000000000E+00 0. -1.
         21   -1    0    0  503  504 -0.00000000000E+00 -0.00000000000E+00 -0.63186742283E+03  0.63186742283E+03  0.00000000000E+00 0. -1.
         25    2    1    2    0    0 -0.33578834054E+02  0.31825246829E+02 -0.19774501526E+03  0.23846973755E+03  0.12499736091E+03 0.  0.
         25    2    1    2    0    0  0.33578834054E+02 -0.31825246829E+02 -0.40302661664E+03  0.42449347620E+03  0.12499549263E+03 0.  0.
          5    1    3    3  501    0 -0.68800168311E+02  0.46692692437E+02 -0.83609305805E+02  0.11800964666E+03  0.47000000000E+01 0.  1.
         -5    1    3    3    0  501  0.35221334257E+02 -0.14867445608E+02 -0.11413570946E+03  0.12046009090E+03  0.47000000000E+01 0.  1.
          5    1    4    4  502    0  0.35974970242E+02 -0.75035320300E+02 -0.19677868816E+03  0.21370175454E+03  0.47000000000E+01 0. -1.
         -5    1    4    4    0  502 -0.23961361880E+01  0.43210073471E+02 -0.20624792848E+03  0.21079172166E+03  0.47000000000E+01 0. -1.
<mgrwt>
<rscale>  0 0.28034562E+03</rscale>
<asrwt>0</asrwt>
<pdfrwt beam="1">  1       21 0.47839682E-02 0.28034562E+03</pdfrwt>
<pdfrwt beam="2">  1       21 0.97210365E-01 0.28034562E+03</pdfrwt>
<totfact> 0.24807763E+05</totfact>
</mgrwt>
</event>
<event>
 8    1  0.9373234E-006  0.4325148E+03  0.7546771E-02  0.1033069E+00
         21   -1    0    0  504  503  0.00000000000E+00  0.00000000000E+00  0.85842444796E+02  0.85842444796E+02  0.00000000000E+00 0. -1.
         21   -1    0    0  503  504 -0.00000000000E+00 -0.00000000000E+00 -0.54480341630E+03  0.54480341630E+03  0.00000000000E+00 0. -1.
         25    2    1    2    0    0 -0.11997340488E+03  0.75229766888E+01 -0.41786227551E+03  0.45242073562E+03  0.12500171066E+03 0.  0.
         25    2    1    2    0    0  0.11997340488E+03 -0.75229766888E+01 -0.41098695998E+02  0.17822512548E+03  0.12499951792E+03 0.  0.
          5    1    3    3  501    0 -0.92641936214E+02  0.55303759110E+02 -0.34150001179E+03  0.35816948805E+03  0.47000000000E+01 0. -1.
         -5    1    3    3    0  501 -0.27331468669E+02 -0.47780782421E+02 -0.76362263718E+02  0.94251247570E+02  0.47000000000E+01 0. -1.
          5    1    4    4  502    0  0.22475936026E+02 -0.12409471170E+02  0.42327155830E+02  0.49727666300E+02  0.47000000000E+01 0.  1.
         -5    1    4    4    0  502  0.97497468857E+02  0.48864944814E+01 -0.83425851827E+02  0.12849745918E+03  0.47000000000E+01 0.  1.
<mgrwt>
<rscale>  0 0.43251477E+03</rscale>
<asrwt>0</asrwt>
<pdfrwt beam="1">  1       21 0.13206530E-01 0.43251477E+03</pdfrwt>
<pdfrwt beam="2">  1       21 0.83815910E-01 0.43251477E+03</pdfrwt>
<totfact> 0.56502355E+04</totfact>
</mgrwt>
</event>
<event>
 8    1  0.9373234E-006  0.2780193E+03  0.7546771E-02  0.1096776E+00
         21   -1    0    0  504  503  0.00000000000E+00  0.00000000000E+00  0.37805475256E+02  0.37805475256E+02  0.00000000000E+00 0.  1.
         21   -1    0    0  503  504 -0.00000000000E+00 -0.00000000000E+00 -0.51113456020E+03  0.51113456020E+03  0.00000000000E+00 0.  1.
         25    2    1    2    0    0  0.24698504144E+02 -0.19225972860E+02 -0.33961790077E+03  0.36324195086E+03  0.12499896879E+03 0.  0.
         25    2    1    2    0    0 -0.24698504144E+02  0.19225972860E+02 -0.13371118417E+03  0.18569808459E+03  0.12500177483E+03 0.  0.
          5    1    3    3  501    0  0.70334204478E+02 -0.37002294435E+02 -0.21452667199E+03  0.22882275479E+03  0.47000000000E+01 0. -1.
         -5    1    3    3    0  501 -0.45635700334E+02  0.17776321574E+02 -0.12509122878E+03  0.13441919607E+03  0.47000000000E+01 0. -1.
          5    1    4    4  502    0  0.77663576451E+01 -0.33127278500E+02 -0.11665342611E+03  0.12160528243E+03  0.47000000000E+01 0.  1.
         -5    1    4    4    0  502 -0.32464861789E+02  0.52353251361E+02 -0.17057758053E+02  0.64092802161E+02  0.47000000000E+01 0.  1.
<mgrwt>
<rscale>  0 0.27801932E+03</rscale>
<asrwt>0</asrwt>
<pdfrwt beam="1">  1       21 0.58162270E-02 0.27801932E+03</pdfrwt>
<pdfrwt beam="2">  1       21 0.78636086E-01 0.27801932E+03</pdfrwt>
<totfact> 0.29077056E+05</totfact>
</mgrwt>
</event>
<event>
 8    1  0.9373234E-006  0.2793587E+03  0.7546771E-02  0.1096040E+00
         21   -1    0    0  504  503  0.00000000000E+00  0.00000000000E+00  0.16136263733E+03  0.16136263733E+03  0.00000000000E+00 0. -1.
         21   -1    0    0  503  504 -0.00000000000E+00 -0.00000000000E+00 -0.12090978419E+03  0.12090978419E+03  0.00000000000E+00 0. -1.
         25    2    1    2    0    0  0.25701696839E+02 -0.39651868180E+01  0.77445879742E+02  0.14933357844E+03  0.12500541362E+03 0.  0.
         25    2    1    2    0    0 -0.25701696839E+02  0.39651868180E+01 -0.36993026607E+02  0.13293884309E+03  0.12501180767E+03 0.  0.
          5    1    3    3  501    0  0.60419440500E+02 -0.36016407497E+02  0.17090662385E+02  0.72538756124E+02  0.47000000000E+01 0.  1.
         -5    1    3    3    0  501 -0.34717743661E+02  0.32051220679E+02  0.60355217358E+02  0.76794822314E+02  0.47000000000E+01 0.  1.
          5    1    4    4  502    0 -0.73590839770E+02  0.38009615733E+01 -0.41339726914E+02  0.84623413003E+02  0.47000000000E+01 0. -1.
         -5    1    4    4    0  502  0.47889142931E+02  0.16422524472E+00  0.43467003070E+01  0.48315430084E+02  0.47000000000E+01 0. -1.
<mgrwt>
<rscale>  0 0.27935871E+03</rscale>
<asrwt>0</asrwt>
<pdfrwt beam="1">  1       21 0.24825021E-01 0.27935871E+03</pdfrwt>
<pdfrwt beam="2">  1       21 0.18601505E-01 0.27935871E+03</pdfrwt>
<totfact> 0.39826724E+05</totfact>
</mgrwt>
</event>
<event>
 8    1  0.9373234E-006  0.2532265E+03  0.7546771E-02  0.1111283E+00
         21   -1    0    0  504  503  0.00000000000E+00  0.00000000000E+00  0.78137305444E+02  0.78137305444E+02  0.00000000000E+00 0.  1.
         21   -1    0    0  503  504 -0.00000000000E+00 -0.00000000000E+00 -0.20516341262E+03  0.20516341262E+03  0.00000000000E+00 0.  1.
         25    2    1    2    0    0  0.97037058377E+01 -0.48483542482E+01 -0.82495553049E+02  0.15016299496E+03  0.12500296131E+03 0.  0.
         25    2    1    2    0    0 -0.97037058377E+01  0.48483542482E+01 -0.44530554131E+02  0.13313772311E+03  0.12500005847E+03 0.  0.
          5    1    3    3  501    0 -0.23168201075E+02  0.52802555303E+02 -0.28570829770E+02  0.64523311302E+02  0.47000000000E+01 0.  1.
         -5    1    3    3    0  501  0.32871906913E+02 -0.57650909551E+02 -0.53924723280E+02  0.85639683658E+02  0.47000000000E+01 0.  1.
          5    1    4    4  502    0 -0.49006349795E+02 -0.37898937964E+02 -0.41801100147E+01  0.62269696794E+02  0.47000000000E+01 0. -1.
         -5    1    4    4    0  502  0.39302643958E+02  0.42747292212E+02 -0.40350444117E+02  0.70868026316E+02  0.47000000000E+01 0. -1.
<mgrwt>
<rscale>  0 0.25322651E+03</rscale>
<asrwt>0</asrwt>
<pdfrwt beam="1">  1       21 0.12021124E-01 0.25322651E+03</pdfrwt>
<pdfrwt beam="2">  1       21 0.31563602E-01 0.25322651E+03</pdfrwt>
<totfact> 0.55814547E+05</totfact>
</mgrwt>
</event>
<event>
 8    1  0.9373234E-006  0.3564958E+03  0.7546771E-02  0.1059980E+00
         21   -1    0    0  504  503  0.00000000000E+00  0.00000000000E+00  0.22736881403E+02  0.22736881403E+02  0.00000000000E+00 0.  1.
         21   -1    0    0  503  504 -0.00000000000E+00 -0.00000000000E+00 -0.13973907187E+04  0.13973907187E+04  0.00000000000E+00 0.  1.
         25    2    1    2    0    0  0.59280646722E+02  0.54382708267E+02 -0.10790901162E+04  0.10892894201E+04  0.12507712770E+03 0.  0.
         25    2    1    2    0    0 -0.59280646722E+02 -0.54382708267E+02 -0.29556372118E+03  0.33083818007E+03  0.12499725628E+03 0.  0.
          5    1    3    3  501    0  0.27816593596E+02 -0.78603731509E+01 -0.50881690496E+02  0.58707621082E+02  0.47000000000E+01 0. -1.
         -5    1    3    3    0  501  0.31464053126E+02  0.62243081417E+02 -0.10282084257E+04  0.10305817990E+04  0.47000000000E+01 0. -1.
          5    1    4    4  502    0 -0.73779792492E+02 -0.60966146155E+02 -0.29891620947E+03  0.31390017368E+03  0.47000000000E+01 0.  1.
         -5    1    4    4    0  502  0.14499145770E+02  0.65834378887E+01  0.33524882848E+01  0.16938006382E+02  0.47000000000E+01 0.  1.
<mgrwt>
<rscale>  0 0.35649576E+03</rscale>
<asrwt>0</asrwt>
<pdfrwt beam="1">  1       21 0.34979817E-02 0.35649576E+03</pdfrwt>
<pdfrwt beam="2">  1       21 0.21498319E+00 0.35649576E+03</pdfrwt>
<totfact> 0.48693118E+04</totfact>
</mgrwt>
</event>
<event>
 8    1  0.9373234E-006  0.3361935E+03  0.7546771E-02  0.1068429E+00
         21   -1    0    0  504  503  0.00000000000E+00  0.00000000000E+00  0.10269699939E+04  0.10269699939E+04  0.00000000000E+00 0. -1.
         21   -1    0    0  503  504 -0.00000000000E+00 -0.00000000000E+00 -0.27514447594E+02  0.27514447594E+02  0.00000000000E+00 0. -1.
         25    2    1    2    0    0 -0.25649659832E+02 -0.10945019740E+03  0.49970960893E+03  0.52723134875E+03  0.12500380426E+03 0.  0.
         25    2    1    2    0    0  0.25649659832E+02  0.10945019740E+03  0.49974593735E+03  0.52725309273E+03  0.12495027464E+03 0.  0.
          5    1    3    3  501    0  0.46257488051E+02 -0.73732039198E+02  0.23910975916E+03  0.25450291890E+03  0.47000000000E+01 0. -1.
         -5    1    3    3    0  501 -0.71907147882E+02 -0.35718158197E+02  0.26059984978E+03  0.27272842984E+03  0.47000000000E+01 0. -1.
          5    1    4    4  502    0  0.29574222615E+02  0.60919166333E+02  0.81101863838E+02  0.10576096533E+03  0.47000000000E+01 0. -1.
         -5    1    4    4    0  502 -0.39245627830E+01  0.48531031062E+02  0.41864407352E+03  0.42149212740E+03  0.47000000000E+01 0. -1.
<mgrwt>
<rscale>  0 0.33619347E+03</rscale>
<asrwt>0</asrwt>
<pdfrwt beam="1">  1       21 0.15799535E+00 0.33619347E+03</pdfrwt>
<pdfrwt beam="2">  1       21 0.42329927E-02 0.33619347E+03</pdfrwt>
<totfact> 0.87546379E+04</totfact>
</mgrwt>
</event>
<event>
 8    1  0.9373234E-006  0.2984591E+03  0.7546771E-02  0.1086013E+00
         21   -1    0    0  504  503  0.00000000000E+00  0.00000000000E+00  0.96462870129E+02  0.96462870129E+02  0.00000000000E+00 0. -1.
         21   -1    0    0  503  504 -0.00000000000E+00 -0.00000000000E+00 -0.23086034272E+03  0.23086034272E+03  0.00000000000E+00 0. -1.
         25    2    1    2    0    0  0.19042355743E+02 -0.67984861417E+01  0.19403840391E+02  0.12810074853E+03  0.12499784809E+03 0.  0.
         25    2    1    2    0    0 -0.19042355743E+02  0.67984861417E+01 -0.15380131298E+03  0.19922246431E+03  0.12500366269E+03 0.  0.
          5    1    3    3  501    0  0.38889984445E+02 -0.27561044456E+02  0.60860398327E+02  0.77447531569E+02  0.47000000000E+01 0. -1.
         -5    1    3    3    0  501 -0.19847628702E+02  0.20762558314E+02 -0.41456557935E+02  0.50653216963E+02  0.47000000000E+01 0. -1.
          5    1    4    4  502    0  0.12001814242E+02  0.12618886737E+02  0.17403576438E+02  0.25065001903E+02  0.47000000000E+01 0. -1.
         -5    1    4    4    0  502 -0.31044169985E+02 -0.58204005948E+01 -0.17120488942E+03  0.17415746241E+03  0.47000000000E+01 0. -1.
<mgrwt>
<rscale>  0 0.29845905E+03</rscale>
<asrwt>0</asrwt>
<pdfrwt beam="1">  1       21 0.14840442E-01 0.29845905E+03</pdfrwt>
<pdfrwt beam="2">  1       21 0.35516975E-01 0.29845905E+03</pdfrwt>
<totfact> 0.29831676E+05</totfact>
</mgrwt>
</event>
<event>
 8    1  0.9373234E-006  0.2896437E+03  0.7546771E-02  0.1090535E+00
         21   -1    0    0  504  503  0.00000000000E+00  0.00000000000E+00  0.23854909216E+03  0.23854909216E+03  0.00000000000E+00 0. -1.
         21   -1    0    0  503  504 -0.00000000000E+00 -0.00000000000E+00 -0.87920577644E+02  0.87920577644E+02  0.00000000000E+00 0. -1.
         25    2    1    2    0    0  0.65774918039E+02 -0.43340741457E+01  0.39598949667E+02  0.14676242817E+03  0.12500403780E+03 0.  0.
         25    2    1    2    0    0 -0.65774918039E+02  0.43340741457E+01  0.11102956485E+03  0.17970724163E+03  0.12498801696E+03 0.  0.
          5    1    3    3  501    0 -0.17428015324E+02  0.36679004741E+02  0.34919106503E+02  0.53763548115E+02  0.47000000000E+01 0.  1.
         -5    1    3    3    0  501  0.83202933363E+02 -0.41013078887E+02  0.46798431639E+01  0.92998880058E+02  0.47000000000E+01 0.  1.
          5    1    4    4  502    0 -0.22329647700E+02 -0.49098518543E+02  0.94212871565E+02  0.10866201203E+03  0.47000000000E+01 0.  1.
         -5    1    4    4    0  502 -0.43445270339E+02  0.53432592689E+02  0.16816693282E+02  0.71045229602E+02  0.47000000000E+01 0.  1.
<mgrwt>
<rscale>  0 0.28964374E+03</rscale>
<asrwt>0</asrwt>
<pdfrwt beam="1">  1       21 0.36699860E-01 0.28964374E+03</pdfrwt>
<pdfrwt beam="2">  1       21 0.13526243E-01 0.28964374E+03</pdfrwt>
<totfact> 0.33150274E+05</totfact>
</mgrwt>
</event>
<event>
 8    1  0.9373234E-006  0.2770739E+03  0.7546771E-02  0.1097298E+00
         21   -1    0    0  504  503  0.00000000000E+00  0.00000000000E+00  0.30621371246E+03  0.30621371246E+03  0.00000000000E+00 0.  1.
         21   -1    0    0  503  504 -0.00000000000E+00 -0.00000000000E+00 -0.62676767704E+02  0.62676767704E+02  0.00000000000E+00 0.  1.
         25    2    1    2    0    0  0.32191241665E+02 -0.11696244194E+02  0.18692586455E+03  0.22746250387E+03  0.12499933463E+03 0.  0.
         25    2    1    2    0    0 -0.32191241665E+02  0.11696244194E+02  0.56611080199E+02  0.14142797629E+03  0.12499591957E+03 0.  0.
          5    1    3    3  501    0 -0.12769611383E+02 -0.58198615898E+02  0.12115022972E+03  0.13509111750E+03  0.47000000000E+01 0. -1.
         -5    1    3    3    0  501  0.44960853048E+02  0.46502371704E+02  0.65775634833E+02  0.92371386363E+02  0.47000000000E+01 0. -1.
          5    1    4    4  502    0  0.16027240172E+02  0.57443744546E+02  0.11384999151E+02  0.60896341603E+02  0.47000000000E+01 0.  1.
         -5    1    4    4    0  502 -0.48218481836E+02 -0.45747500352E+02  0.45226081048E+02  0.80531634691E+02  0.47000000000E+01 0.  1.
<mgrwt>
<rscale>  0 0.27707389E+03</rscale>
<asrwt>0</asrwt>
<pdfrwt beam="1">  1       21 0.47109801E-01 0.27707389E+03</pdfrwt>
<pdfrwt beam="2">  1       21 0.96425799E-02 0.27707389E+03</pdfrwt>
<totfact> 0.36609431E+05</totfact>
</mgrwt>
</event>
<event>
 8    1  0.9373234E-006  0.2615254E+03  0.7546771E-02  0.1106230E+00
         21   -1    0    0  504  503  0.00000000000E+00  0.00000000000E+00  0.16485889968E+02  0.16485889968E+02  0.00000000000E+00 0. -1.
         21   -1    0    0  503  504 -0.00000000000E+00 -0.00000000000E+00 -0.10371829075E+04  0.10371829075E+04  0.00000000000E+00 0. -1.
         25    2    1    2    0    0 -0.16449453950E+02  0.32320800910E+02 -0.56145748711E+03  0.57634346946E+03  0.12498826444E+03 0.  0.
         25    2    1    2    0    0  0.16449453950E+02 -0.32320800910E+02 -0.45923953042E+03  0.47732532801E+03  0.12499321482E+03 0.  0.
          5    1    3    3  501    0 -0.53770899226E+02  0.38078612353E+02 -0.16018155705E+03  0.17326716810E+03  0.47000000000E+01 0.  1.
         -5    1    3    3    0  501  0.37321445276E+02 -0.57578114431E+01 -0.40127593007E+03  0.40307630136E+03  0.47000000000E+01 0.  1.
          5    1    4    4  502    0  0.29308986452E+02 -0.37912336305E+02 -0.46000317070E+03  0.46251634456E+03  0.47000000000E+01 0.  1.
         -5    1    4    4    0  502 -0.12859532502E+02  0.55915353950E+01  0.76364028194E+00  0.14808983447E+02  0.47000000000E+01 0.  1.
<mgrwt>
<rscale>  0 0.26152540E+03</rscale>
<asrwt>0</asrwt>
<pdfrwt beam="1">  1       21 0.25362895E-02 0.26152540E+03</pdfrwt>
<pdfrwt beam="2">  1       21 0.15956668E+00 0.26152540E+03</pdfrwt>
<totfact> 0.20607310E+05</totfact>
</mgrwt>
</event>
<event>
 8    1  0.9373234E-006  0.2848780E+03  0.7546771E-02  0.1093054E+00
         21   -1    0    0  504  503  0.00000000000E+00  0.00000000000E+00  0.10336943441E+03  0.10336943441E+03  0.00000000000E+00 0.  1.
         21   -1    0    0  503  504 -0.00000000000E+00 -0.00000000000E+00 -0.19627534992E+03  0.19627534992E+03  0.00000000000E+00 0.  1.
         25    2    1    2    0    0  0.59200637639E+02 -0.36838142929E+01 -0.10859905580E+02  0.13878483682E+03  0.12500002959E+03 0.  0.
         25    2    1    2    0    0 -0.59200637639E+02  0.36838142929E+01 -0.82046009935E+02  0.16085994750E+03  0.12500435584E+03 0.  0.
          5    1    3    3  501    0  0.35165878460E+02 -0.59801778193E+02  0.16897800770E+02  0.71557790308E+02  0.47000000000E+01 0.  1.
         -5    1    3    3    0  501  0.24034759180E+02  0.56117963901E+02 -0.27757706349E+02  0.67227046514E+02  0.47000000000E+01 0.  1.
          5    1    4    4  502    0 -0.42729163841E+02 -0.33643940316E+02  0.14040440378E+02  0.56364174159E+02  0.47000000000E+01 0.  1.
         -5    1    4    4    0  502 -0.16471473798E+02  0.37327754609E+02 -0.96086450313E+02  0.10449577334E+03  0.47000000000E+01 0.  1.
<mgrwt>
<rscale>  0 0.28487802E+03</rscale>
<asrwt>0</asrwt>
<pdfrwt beam="1">  1       21 0.15902990E-01 0.28487802E+03</pdfrwt>
<pdfrwt beam="2">  1       21 0.30196208E-01 0.28487802E+03</pdfrwt>
<totfact> 0.36363040E+05</totfact>
</mgrwt>
</event>
<event>
 8    1  0.9373234E-006  0.3522107E+03  0.7546771E-02  0.1061711E+00
         21   -1    0    0  504  503  0.00000000000E+00  0.00000000000E+00  0.49416542731E+03  0.49416542731E+03  0.00000000000E+00 0.  1.
         21   -1    0    0  503  504 -0.00000000000E+00 -0.00000000000E+00 -0.62758529401E+02  0.62758529401E+02  0.00000000000E+00 0.  1.
         25    2    1    2    0    0  0.46906070589E+01 -0.87247879797E+02  0.35494107203E+03  0.38631596808E+03  0.12499067268E+03 0.  0.
         25    2    1    2    0    0 -0.46906070589E+01  0.87247879797E+02  0.76465825880E+02  0.17060798863E+03  0.12500347569E+03 0.  0.
          5    1    3    3  501    0  0.24967305865E+02 -0.86337039521E+01  0.25968515435E+03  0.26106776246E+03  0.47000000000E+01 0.  1.
         -5    1    3    3    0  501 -0.20276698806E+02 -0.78614175845E+02  0.95255917683E+02  0.12524820562E+03  0.47000000000E+01 0.  1.
          5    1    4    4  502    0 -0.46918539181E+02 -0.57028682160E+01  0.95463043197E+01  0.48446815695E+02  0.47000000000E+01 0.  1.
         -5    1    4    4    0  502  0.42227932122E+02  0.92950748013E+02  0.66919521560E+02  0.12216117294E+03  0.47000000000E+01 0.  1.
<mgrwt>
<rscale>  0 0.35221071E+03</rscale>
<asrwt>0</asrwt>
<pdfrwt beam="1">  1       21 0.76025448E-01 0.35221071E+03</pdfrwt>
<pdfrwt beam="2">  1       21 0.96551587E-02 0.35221071E+03</pdfrwt>
<totfact> 0.12696042E+05</totfact>
</mgrwt>
</event>
<event>
 8    1  0.9373234E-006  0.2749892E+03  0.7546771E-02  0.1098458E+00
         21   -1    0    0  504  503  0.00000000000E+00  0.00000000000E+00  0.93673627810E+02  0.93673627810E+02  0.00000000000E+00 0.  1.
         21   -1    0    0  503  504 -0.00000000000E+00 -0.00000000000E+00 -0.20181520786E+03  0.20181520786E+03  0.00000000000E+00 0.  1.
         25    2    1    2    0    0  0.51804881041E+01  0.38652072952E+01 -0.11523052467E+03  0.17013467401E+03  0.12500382474E+03 0.  0.
         25    2    1    2    0    0 -0.51804881041E+01 -0.38652072952E+01  0.70889446286E+01  0.12535416166E+03  0.12498654097E+03 0.  0.
          5    1    3    3  501    0 -0.29583978285E+02  0.22992028260E+02 -0.12366169459E+03  0.12929868462E+03  0.47000000000E+01 0. -1.
         -5    1    3    3    0  501  0.34764466389E+02 -0.19126820965E+02  0.84311699171E+01  0.40835989393E+02  0.47000000000E+01 0. -1.
          5    1    4    4  502    0 -0.28677974894E+02 -0.42164061590E+02 -0.36257330941E+02  0.62744867365E+02  0.47000000000E+01 0. -1.
         -5    1    4    4    0  502  0.23497486790E+02  0.38298854295E+02  0.43346275569E+02  0.62609294290E+02  0.47000000000E+01 0. -1.
<mgrwt>
<rscale>  0 0.27498918E+03</rscale>
<asrwt>0</asrwt>
<pdfrwt beam="1">  1       21 0.14411327E-01 0.27498918E+03</pdfrwt>
<pdfrwt beam="2">  1       21 0.31048493E-01 0.27498918E+03</pdfrwt>
<totfact> 0.41327769E+05</totfact>
</mgrwt>
</event>
<event>
 8    1  0.9373234E-006  0.2744363E+03  0.7546771E-02  0.1098767E+00
         21   -1    0    0  504  503  0.00000000000E+00  0.00000000000E+00  0.21008585676E+03  0.21008585676E+03  0.00000000000E+00 0. -1.
         21   -1    0    0  503  504 -0.00000000000E+00 -0.00000000000E+00 -0.89624431936E+02  0.89624431936E+02  0.00000000000E+00 0. -1.
         25    2    1    2    0    0 -0.24412865307E+02  0.45007500807E+02  0.33864560620E+02  0.13925585862E+03  0.12499489019E+03 0.  0.
         25    2    1    2    0    0  0.24412865307E+02 -0.45007500807E+02  0.86596864208E+02  0.16045443008E+03  0.12499977648E+03 0.  0.
          5    1    3    3  501    0 -0.47832782108E+02  0.50594373276E+02  0.67856497433E+02  0.97336323617E+02  0.47000000000E+01 0.  1.
         -5    1    3    3    0  501  0.23419916801E+02 -0.55868724689E+01 -0.33991936813E+02  0.41919535007E+02  0.47000000000E+01 0.  1.
          5    1    4    4  502    0  0.26700247404E+02 -0.55353951938E+02  0.11461277514E+03  0.13013508917E+03  0.47000000000E+01 0.  1.
         -5    1    4    4    0  502 -0.22873820970E+01  0.10346451131E+02 -0.28015910933E+02  0.30319340911E+02  0.47000000000E+01 0.  1.
<mgrwt>
<rscale>  0 0.27443634E+03</rscale>
<asrwt>0</asrwt>
<pdfrwt beam="1">  1       21 0.32320901E-01 0.27443634E+03</pdfrwt>
<pdfrwt beam="2">  1       21 0.13788374E-01 0.27443634E+03</pdfrwt>
<totfact> 0.41384817E+05</totfact>
</mgrwt>
</event>
<event>
 8    1  0.9373234E-006  0.3072832E+03  0.7546771E-02  0.1081655E+00
         21   -1    0    0  504  503  0.00000000000E+00  0.00000000000E+00  0.17931343404E+04  0.17931343404E+04  0.00000000000E+00 0. -1.
         21   -1    0    0  503  504 -0.00000000000E+00 -0.00000000000E+00 -0.13164515938E+02  0.13164515938E+02  0.00000000000E+00 0. -1.
         25    2    1    2    0    0 -0.23741908677E+02  0.85383363960E+02  0.95569758280E+03  0.96790354992E+03  0.12500166042E+03 0.  0.
         25    2    1    2    0    0  0.23741908677E+02 -0.85383363960E+02  0.82427224167E+03  0.83839530643E+03  0.12501185697E+03 0.  0.
          5    1    3    3  501    0 -0.41688931304E+02  0.27384664795E+01  0.62903070704E+03  0.63043412550E+03  0.47000000000E+01 0.  1.
         -5    1    3    3    0  501  0.17947022628E+02  0.82644897480E+02  0.32666687575E+03  0.33746942441E+03  0.47000000000E+01 0.  1.
          5    1    4    4  502    0  0.58866943374E+02 -0.55105834498E+02  0.71566351266E+03  0.72020713921E+03  0.47000000000E+01 0. -1.
         -5    1    4    4    0  502 -0.35125034697E+02 -0.30277529462E+02  0.10860872901E+03  0.11818816722E+03  0.47000000000E+01 0. -1.
<mgrwt>
<rscale>  0 0.30728323E+03</rscale>
<asrwt>0</asrwt>
<pdfrwt beam="1">  1       21 0.27586663E+00 0.30728323E+03</pdfrwt>
<pdfrwt beam="2">  1       21 0.20253116E-02 0.30728323E+03</pdfrwt>
<totfact> 0.52550113E+04</totfact>
</mgrwt>
</event>
<event>
 8    1  0.9373234E-006  0.2525431E+03  0.7546771E-02  0.1111708E+00
         21   -1    0    0  504  503  0.00000000000E+00  0.00000000000E+00  0.15206358987E+04  0.15206358987E+04  0.00000000000E+00 0.  1.
         21   -1    0    0  503  504 -0.00000000000E+00 -0.00000000000E+00 -0.10485420214E+02  0.10485420214E+02  0.00000000000E+00 0.  1.
         25    2    1    2    0    0  0.33849204327E+01 -0.51979476714E+01  0.65352294929E+03  0.66539892799E+03  0.12500004709E+03 0.  0.
         25    2    1    2    0    0 -0.33849204327E+01  0.51979476714E+01  0.85662752918E+03  0.86572239090E+03  0.12500423203E+03 0.  0.
          5    1    3    3  501    0  0.25525323335E+02  0.54987207244E+02  0.30836597256E+03  0.31430367183E+03  0.47000000000E+01 0.  1.
         -5    1    3    3    0  501 -0.22140402903E+02 -0.60185154915E+02  0.34515697673E+03  0.35109525616E+03  0.47000000000E+01 0.  1.
          5    1    4    4  502    0  0.19909995373E+02  0.49688806671E+02  0.67753179148E+03  0.67965932929E+03  0.47000000000E+01 0. -1.
         -5    1    4    4    0  502 -0.23294915806E+02 -0.44490858999E+02  0.17909573770E+03  0.18606306162E+03  0.47000000000E+01 0. -1.
<mgrwt>
<rscale>  0 0.25254312E+03</rscale>
<asrwt>0</asrwt>
<pdfrwt beam="1">  1       21 0.23394381E+00 0.25254312E+03</pdfrwt>
<pdfrwt beam="2">  1       21 0.16131428E-02 0.25254312E+03</pdfrwt>
<totfact> 0.13965229E+05</totfact>
</mgrwt>
</event>
<event>
 8    1  0.9373234E-006  0.3475957E+03  0.7546771E-02  0.1063606E+00
         21   -1    0    0  504  503  0.00000000000E+00  0.00000000000E+00  0.24148055491E+02  0.24148055491E+02  0.00000000000E+00 0. -1.
         21   -1    0    0  503  504 -0.00000000000E+00 -0.00000000000E+00 -0.12508538601E+04  0.12508538601E+04  0.00000000000E+00 0. -1.
         25    2    1    2    0    0 -0.49784998289E+02 -0.10647608171E+03 -0.71428131554E+03  0.73460160467E+03  0.12500407122E+03 0.  0.
         25    2    1    2    0    0  0.49784998289E+02  0.10647608171E+03 -0.51242448907E+03  0.54040031092E+03  0.12505173735E+03 0.  0.
          5    1    3    3  501    0 -0.89968537494E+02 -0.69113033245E+02 -0.41280634459E+03  0.42813796519E+03  0.47000000000E+01 0. -1.
         -5    1    3    3    0  501  0.40183539206E+02 -0.37363048469E+02 -0.30147497095E+03  0.30646363948E+03  0.47000000000E+01 0. -1.
          5    1    4    4  502    0 -0.92554936799E+01  0.11124382373E+03 -0.35321393354E+03  0.37046325773E+03  0.47000000000E+01 0. -1.
         -5    1    4    4    0  502  0.59040491969E+02 -0.47677420109E+01 -0.15921055553E+03  0.16993705319E+03  0.47000000000E+01 0. -1.
<mgrwt>
<rscale>  0 0.34759568E+03</rscale>
<asrwt>0</asrwt>
<pdfrwt beam="1">  1       21 0.37150858E-02 0.34759568E+03</pdfrwt>
<pdfrwt beam="2">  1       21 0.19243904E+00 0.34759568E+03</pdfrwt>
<totfact> 0.61987794E+04</totfact>
</mgrwt>
</event>
<event>
 8    1  0.9373234E-006  0.3109690E+03  0.7546771E-02  0.1079882E+00
         21   -1    0    0  504  503  0.00000000000E+00  0.00000000000E+00  0.77798154426E+02  0.77798154426E+02  0.00000000000E+00 0. -1.
         21   -1    0    0  503  504 -0.00000000000E+00 -0.00000000000E+00 -0.31074545587E+03  0.31074545587E+03  0.00000000000E+00 0. -1.
         25    2    1    2    0    0  0.14979447901E+02 -0.60030160254E+02 -0.20233507397E+03  0.24574832566E+03  0.12499901361E+03 0.  0.
         25    2    1    2    0    0 -0.14979447901E+02  0.60030160254E+02 -0.30612227466E+02  0.14279528464E+03  0.12500152337E+03 0.  0.
          5    1    3    3  501    0  0.30539701851E+01 -0.36296459107E+02  0.46438757436E+01  0.37019120188E+02  0.47000000000E+01 0. -1.
         -5    1    3    3    0  501  0.11925477715E+02 -0.23733701147E+02 -0.20697894972E+03  0.20872920547E+03  0.47000000000E+01 0. -1.
          5    1    4    4  502    0 -0.11982355414E+02  0.94227033440E+02 -0.45082849296E+02  0.10524668153E+03  0.47000000000E+01 0.  1.
         -5    1    4    4    0  502 -0.29970924862E+01 -0.34196873186E+02  0.14470621830E+02  0.37548603107E+02  0.47000000000E+01 0.  1.
<mgrwt>
<rscale>  0 0.31096896E+03</rscale>
<asrwt>0</asrwt>
<pdfrwt beam="1">  1       21 0.11968947E-01 0.31096896E+03</pdfrwt>
<pdfrwt beam="2">  1       21 0.47806993E-01 0.31096896E+03</pdfrwt>
<totfact> 0.23937519E+05</totfact>
</mgrwt>
</event>
<event>
 8    1  0.9373234E-006  0.3602009E+03  0.7546771E-02  0.1058504E+00
         21   -1    0    0  504  503  0.00000000000E+00  0.00000000000E+00  0.61787665494E+03  0.61787665494E+03  0.00000000000E+00 0. -1.
         21   -1    0    0  503  504 -0.00000000000E+00 -0.00000000000E+00 -0.52496198233E+02  0.52496198233E+02  0.00000000000E+00 0. -1.
         25    2    1    2    0    0 -0.10398642792E+03  0.44039440472E+02  0.40125443172E+03  0.43518126015E+03  0.12499984279E+03 0.  0.
         25    2    1    2    0    0  0.10398642792E+03 -0.44039440472E+02  0.16412602499E+03  0.23519159303E+03  0.12500033538E+03 0.  0.
          5    1    3    3  501    0 -0.84114155359E+02 -0.30540403436E+02  0.18602720462E+03  0.20648515257E+03  0.47000000000E+01 0. -1.
         -5    1    3    3    0  501 -0.19872272557E+02  0.74579843908E+02  0.21522722710E+03  0.22869610758E+03  0.47000000000E+01 0. -1.
          5    1    4    4  502    0  0.12310514120E+03 -0.64551446616E+02  0.12629463062E+03  0.18786747663E+03  0.47000000000E+01 0. -1.
         -5    1    4    4    0  502 -0.19118713282E+02  0.20512006144E+02  0.37831394364E+02  0.47324116401E+02  0.47000000000E+01 0. -1.
<mgrwt>
<rscale>  0 0.36020092E+03</rscale>
<asrwt>0</asrwt>
<pdfrwt beam="1">  1       21 0.95057942E-01 0.36020092E+03</pdfrwt>
<pdfrwt beam="2">  1       21 0.80763386E-02 0.36020092E+03</pdfrwt>
<totfact> 0.10346115E+05</totfact>
</mgrwt>
</event>
<event>
 8    1  0.9373234E-006  0.3066924E+03  0.7546771E-02  0.1081942E+00
         21   -1    0    0  504  503  0.00000000000E+00  0.00000000000E+00  0.29712678818E+03  0.29712678818E+03  0.00000000000E+00 0. -1.
         21   -1    0    0  503  504 -0.00000000000E+00 -0.00000000000E+00 -0.79141506769E+02  0.79141506769E+02  0.00000000000E+00 0. -1.
         25    2    1    2    0    0 -0.23183558670E+02  0.49804321519E+02  0.19462162796E+03  0.23774216340E+03  0.12500324136E+03 0.  0.
         25    2    1    2    0    0  0.23183558670E+02 -0.49804321519E+02  0.23363653442E+02  0.13852613155E+03  0.12500272391E+03 0.  0.
          5    1    3    3  501    0 -0.31117715484E+02  0.87710982784E+02  0.10738702691E+03  0.14218154686E+03  0.47000000000E+01 0.  1.
         -5    1    3    3    0  501  0.79341568132E+01 -0.37906661265E+02  0.87234601052E+02  0.95560616539E+02  0.47000000000E+01 0.  1.
          5    1    4    4  502    0  0.12356532167E+02 -0.13066847104E+02 -0.51254616155E+02  0.54521115704E+02  0.47000000000E+01 0.  1.
         -5    1    4    4    0  502  0.10827026503E+02 -0.36737474414E+02  0.74618269597E+02  0.84005015844E+02  0.47000000000E+01 0.  1.
<mgrwt>
<rscale>  0 0.30669243E+03</rscale>
<asrwt>0</asrwt>
<pdfrwt beam="1">  1       21 0.45711813E-01 0.30669243E+03</pdfrwt>
<pdfrwt beam="2">  1       21 0.12175617E-01 0.30669243E+03</pdfrwt>
<totfact> 0.25506959E+05</totfact>
</mgrwt>
</event>
<event>
 8    1  0.9373234E-006  0.2660481E+03  0.7546771E-02  0.1103563E+00
         21   -1    0    0  504  503  0.00000000000E+00  0.00000000000E+00  0.11804964191E+02  0.11804964191E+02  0.00000000000E+00 0. -1.
         21   -1    0    0  503  504 -0.00000000000E+00 -0.00000000000E+00 -0.14989792973E+04  0.14989792973E+04  0.00000000000E+00 0. -1.
         25    2    1    2    0    0 -0.45062491259E+02  0.58343662931E+01 -0.75502600344E+03  0.76665361227E+03  0.12501530862E+03 0.  0.
         25    2    1    2    0    0  0.45062491259E+02 -0.58343662931E+01 -0.73214832971E+03  0.74413064926E+03  0.12499831408E+03 0.  0.
          5    1    3    3  501    0 -0.99239040696E+01  0.62293304070E+02 -0.45025714065E+03  0.45467848235E+03  0.47000000000E+01 0.  1.
         -5    1    3    3    0  501 -0.35138587189E+02 -0.56458937777E+02 -0.30476886278E+03  0.31197512992E+03  0.47000000000E+01 0.  1.
          5    1    4    4  502    0  0.75289055354E+02  0.18764915739E+02 -0.28981433138E+03  0.30005832865E+03  0.47000000000E+01 0. -1.
         -5    1    4    4    0  502 -0.30226564095E+02 -0.24599282032E+02 -0.44233399833E+03  0.44407232061E+03  0.47000000000E+01 0. -1.
<mgrwt>
<rscale>  0 0.26604809E+03</rscale>
<asrwt>0</asrwt>
<pdfrwt beam="1">  1       21 0.18161487E-02 0.26604809E+03</pdfrwt>
<pdfrwt beam="2">  1       21 0.23061216E+00 0.26604809E+03</pdfrwt>
<totfact> 0.11987521E+05</totfact>
</mgrwt>
</event>
<event>
 8    1  0.9373234E-006  0.4047138E+03  0.7546771E-02  0.1042160E+00
         21   -1    0    0  504  503  0.00000000000E+00  0.00000000000E+00  0.24546670883E+03  0.24546670883E+03  0.00000000000E+00 0. -1.
         21   -1    0    0  503  504 -0.00000000000E+00 -0.00000000000E+00 -0.16681819305E+03  0.16681819305E+03  0.00000000000E+00 0. -1.
         25    2    1    2    0    0  0.39548658703E+01 -0.14437929512E+03  0.10740011565E+03  0.21913715278E+03  0.12500114025E+03 0.  0.
         25    2    1    2    0    0 -0.39548658703E+01  0.14437929512E+03 -0.28751599872E+02  0.19314774910E+03  0.12497350385E+03 0.  0.
          5    1    3    3  501    0  0.61550241815E+02 -0.55284735524E+02  0.31697906221E+02  0.88722497194E+02  0.47000000000E+01 0. -1.
         -5    1    3    3    0  501 -0.57595375945E+02 -0.89094559592E+02  0.75702209433E+02  0.13041465559E+03  0.47000000000E+01 0. -1.
          5    1    4    4  502    0  0.35663340520E+02  0.91187382791E+02 -0.64805173309E+02  0.11751090641E+03  0.47000000000E+01 0. -1.
         -5    1    4    4    0  502 -0.39618206390E+02  0.53191912325E+02  0.36053573437E+02  0.75636842689E+02  0.47000000000E+01 0. -1.
<mgrwt>
<rscale>  0 0.40471379E+03</rscale>
<asrwt>0</asrwt>
<pdfrwt beam="1">  1       21 0.37764109E-01 0.40471379E+03</pdfrwt>
<pdfrwt beam="2">  1       21 0.25664337E-01 0.40471379E+03</pdfrwt>
<totfact> 0.91580197E+04</totfact>
</mgrwt>
</event>
<event>
 8    1  0.9373234E-006  0.3792064E+03  0.7546771E-02  0.1051227E+00
         21   -1    0    0  504  503  0.00000000000E+00  0.00000000000E+00  0.14799000859E+03  0.14799000859E+03  0.00000000000E+00 0. -1.
         21   -1    0    0  503  504 -0.00000000000E+00 -0.00000000000E+00 -0.24291753653E+03  0.24291753653E+03  0.00000000000E+00 0. -1.
         25    2    1    2    0    0  0.72187762262E+01 -0.11055068791E+03 -0.13995534417E+03  0.21791304858E+03  0.12500013220E+03 0.  0.
         25    2    1    2    0    0 -0.72187762262E+01  0.11055068791E+03  0.45027816225E+02  0.17299449655E+03  0.12500410502E+03 0.  0.
          5    1    3    3  501    0  0.54315158950E+02 -0.10317278287E+03 -0.11527080881E+03  0.16402502547E+03  0.47000000000E+01 0.  1.
         -5    1    3    3    0  501 -0.47096382724E+02 -0.73779050423E+01 -0.24684535360E+02  0.53888023108E+02  0.47000000000E+01 0.  1.
          5    1    4    4  502    0  0.30547907295E+02 -0.15769579067E+02  0.14334579833E+02  0.37542302048E+02  0.47000000000E+01 0.  1.
         -5    1    4    4    0  502 -0.37766683521E+02  0.12632026698E+03  0.30693236392E+02  0.13545219450E+03  0.47000000000E+01 0.  1.
<mgrwt>
<rscale>  0 0.37920637E+03</rscale>
<asrwt>0</asrwt>
<pdfrwt beam="1">  1       21 0.22767694E-01 0.37920637E+03</pdfrwt>
<pdfrwt beam="2">  1       21 0.37371929E-01 0.37920637E+03</pdfrwt>
<totfact> 0.11855194E+05</totfact>
</mgrwt>
</event>
<event>
 8    1  0.9373234E-006  0.3493734E+03  0.7546771E-02  0.1062873E+00
         21   -1    0    0  504  503  0.00000000000E+00  0.00000000000E+00  0.50226953553E+03  0.50226953553E+03  0.00000000000E+00 0. -1.
         21   -1    0    0  503  504 -0.00000000000E+00 -0.00000000000E+00 -0.60755118597E+02  0.60755118597E+02  0.00000000000E+00 0. -1.
         25    2    1    2    0    0 -0.59146681969E+01  0.16132778936E+02  0.41544546808E+03  0.43418627842E+03  0.12501014983E+03 0.  0.
         25    2    1    2    0    0  0.59146681969E+01 -0.16132778936E+02  0.26068948852E+02  0.12883837571E+03  0.12499794840E+03 0.  0.
          5    1    3    3  501    0 -0.22218813889E+02 -0.51391628766E+02  0.20231549696E+03  0.20997243988E+03  0.47000000000E+01 0. -1.
         -5    1    3    3    0  501  0.16304145692E+02  0.67524407703E+02  0.21312997112E+03  0.22421383854E+03  0.47000000000E+01 0. -1.
          5    1    4    4  502    0  0.35213795951E+02 -0.27185209025E+02  0.64843437040E+02  0.78776953115E+02  0.47000000000E+01 0. -1.
         -5    1    4    4    0  502 -0.29299127755E+02  0.11052430089E+02 -0.38774488188E+02  0.50061422595E+02  0.47000000000E+01 0. -1.
<mgrwt>
<rscale>  0 0.34937341E+03</rscale>
<asrwt>0</asrwt>
<pdfrwt beam="1">  1       21 0.77272234E-01 0.34937341E+03</pdfrwt>
<pdfrwt beam="2">  1       21 0.93469416E-02 0.34937341E+03</pdfrwt>
<totfact> 0.12971774E+05</totfact>
</mgrwt>
</event>
<event>
 8    1  0.9373234E-006  0.3896694E+03  0.7546771E-02  0.1047417E+00
         21   -1    0    0  504  503  0.00000000000E+00  0.00000000000E+00  0.65775194408E+02  0.65775194408E+02  0.00000000000E+00 0. -1.
         21   -1    0    0  503  504 -0.00000000000E+00 -0.00000000000E+00 -0.57712575991E+03  0.57712575991E+03  0.00000000000E+00 0. -1.
         25    2    1    2    0    0 -0.11810833427E+03  0.91391973597E+02 -0.26564366280E+03  0.32938297119E+03  0.12499805864E+03 0.  0.
         25    2    1    2    0    0  0.11810833427E+03 -0.91391973597E+02 -0.24570690270E+03  0.31351798313E+03  0.12497828710E+03 0.  0.
          5    1    3    3  501    0 -0.18213655081E+02  0.32492537829E+02 -0.18323170122E+03  0.18703862858E+03  0.47000000000E+01 0. -1.
         -5    1    3    3    0  501 -0.99894679188E+02  0.58899435769E+02 -0.82411961581E+02  0.14234434262E+03  0.47000000000E+01 0. -1.
          5    1    4    4  502    0  0.20311784758E+01  0.10984396148E+02 -0.10053847354E+03  0.10126626934E+03  0.47000000000E+01 0. -1.
         -5    1    4    4    0  502  0.11607715579E+03 -0.10237636974E+03 -0.14516842916E+03  0.21225171378E+03  0.47000000000E+01 0. -1.
<mgrwt>
<rscale>  0 0.38966939E+03</rscale>
<asrwt>0</asrwt>
<pdfrwt beam="1">  1       21 0.10119261E-01 0.38966939E+03</pdfrwt>
<pdfrwt beam="2">  1       21 0.88788577E-01 0.38966939E+03</pdfrwt>
<totfact> 0.80824050E+04</totfact>
</mgrwt>
</event>
<event>
 8    1  0.9373234E-006  0.3114619E+03  0.7546771E-02  0.1079647E+00
         21   -1    0    0  504  503  0.00000000000E+00  0.00000000000E+00  0.22763072333E+02  0.22763072333E+02  0.00000000000E+00 0. -1.
         21   -1    0    0  503  504 -0.00000000000E+00 -0.00000000000E+00 -0.10654151596E+04  0.10654151596E+04  0.00000000000E+00 0. -1.
         25    2    1    2    0    0 -0.14695271227E+01  0.92131995883E+02 -0.56209976734E+03  0.58315760968E+03  0.12500474033E+03 0.  0.
         25    2    1    2    0    0  0.14695271227E+01 -0.92131995883E+02 -0.48055231997E+03  0.50502062230E+03  0.12499933017E+03 0.  0.
          5    1    3    3  501    0 -0.27929721825E+02  0.26732012612E+02 -0.38354021158E+02  0.54660687870E+02  0.47000000000E+01 0.  1.
         -5    1    3    3    0  501  0.26460194702E+02  0.65399983270E+02 -0.52374574619E+03  0.52849692181E+03  0.47000000000E+01 0.  1.
          5    1    4    4  502    0  0.18913352752E+02 -0.84293382012E+02 -0.47727916284E+03  0.48505729398E+03  0.47000000000E+01 0. -1.
         -5    1    4    4    0  502 -0.17443825629E+02 -0.78386138703E+01 -0.32731571335E+01  0.19963328320E+02  0.47000000000E+01 0. -1.
<mgrwt>
<rscale>  0 0.31146186E+03</rscale>
<asrwt>0</asrwt>
<pdfrwt beam="1">  1       21 0.35020109E-02 0.31146186E+03</pdfrwt>
<pdfrwt beam="2">  1       21 0.16391003E+00 0.31146186E+03</pdfrwt>
<totfact> 0.10989266E+05</totfact>
</mgrwt>
</event>
<event>
 8    1  0.9373234E-006  0.3355232E+03  0.7546771E-02  0.1068719E+00
         21   -1    0    0  504  503  0.00000000000E+00  0.00000000000E+00  0.95188791572E+02  0.95188791572E+02  0.00000000000E+00 0.  1.
         21   -1    0    0  503  504 -0.00000000000E+00 -0.00000000000E+00 -0.29566464973E+03  0.29566464973E+03  0.00000000000E+00 0.  1.
         25    2    1    2    0    0 -0.19074517078E+02 -0.86612421839E+02 -0.20789235818E+02  0.15468040679E+03  0.12501314771E+03 0.  0.
         25    2    1    2    0    0  0.19074517078E+02  0.86612421839E+02 -0.17968662234E+03  0.23617303451E+03  0.12499948465E+03 0.  0.
          5    1    3    3  501    0  0.13213371618E+02  0.32586066465E+01 -0.52116132110E+02  0.54068409750E+02  0.47000000000E+01 0. -1.
         -5    1    3    3    0  501 -0.32287888695E+02 -0.89871028485E+02  0.31326896293E+02  0.10061199704E+03  0.47000000000E+01 0. -1.
          5    1    4    4  502    0  0.38378278378E+02  0.11003582877E+03 -0.11134616064E+03  0.16124773906E+03  0.47000000000E+01 0. -1.
         -5    1    4    4    0  502 -0.19303761300E+02 -0.23423406926E+02 -0.68340461700E+02  0.74925295447E+02  0.47000000000E+01 0. -1.
<mgrwt>
<rscale>  0 0.33552324E+03</rscale>
<asrwt>0</asrwt>
<pdfrwt beam="1">  1       21 0.14644430E-01 0.33552324E+03</pdfrwt>
<pdfrwt beam="2">  1       21 0.45486869E-01 0.33552324E+03</pdfrwt>
<totfact> 0.18290211E+05</totfact>
</mgrwt>
</event>
<event>
 8    1  0.9373234E-006  0.2608554E+03  0.7546771E-02  0.1106630E+00
         21   -1    0    0  504  503  0.00000000000E+00  0.00000000000E+00  0.86375685161E+01  0.86375685161E+01  0.00000000000E+00 0.  1.
         21   -1    0    0  503  504 -0.00000000000E+00 -0.00000000000E+00 -0.19694650418E+04  0.19694650418E+04  0.00000000000E+00 0.  1.
         25    2    1    2    0    0 -0.22413836620E+02  0.46732841038E+01 -0.75783664329E+03  0.76841806570E+03  0.12500290450E+03 0.  0.
         25    2    1    2    0    0  0.22413836620E+02 -0.46732841038E+01 -0.12029908300E+04  0.12096845446E+04  0.12500216303E+03 0.  0.
          5    1    3    3  501    0 -0.27098306740E+01 -0.54412273615E+02 -0.20886407439E+03  0.21590352075E+03  0.47000000000E+01 0.  1.
         -5    1    3    3    0  501 -0.19704005946E+02  0.59085557719E+02 -0.54897256889E+03  0.55251454495E+03  0.47000000000E+01 0.  1.
          5    1    4    4  502    0  0.24940088820E+02  0.58045712860E+02 -0.67051623600E+03  0.67350235750E+03  0.47000000000E+01 0.  1.
         -5    1    4    4    0  502 -0.25262521999E+01 -0.62718996964E+02 -0.53247459397E+03  0.53618218709E+03  0.47000000000E+01 0.  1.
<mgrwt>
<rscale>  0 0.26085543E+03</rscale>
<asrwt>0</asrwt>
<pdfrwt beam="1">  1       21 0.13288574E-02 0.26085543E+03</pdfrwt>
<pdfrwt beam="2">  1       21 0.30299447E+00 0.26085543E+03</pdfrwt>
<totfact> 0.74270474E+04</totfact>
</mgrwt>
</event>
<event>
 8    1  0.9373234E-006  0.2822457E+03  0.7546771E-02  0.1094469E+00
         21   -1    0    0  504  503  0.00000000000E+00  0.00000000000E+00  0.13134913107E+03  0.13134913107E+03  0.00000000000E+00 0. -1.
         21   -1    0    0  503  504 -0.00000000000E+00 -0.00000000000E+00 -0.15162381517E+03  0.15162381517E+03  0.00000000000E+00 0. -1.
         25    2    1    2    0    0  0.14307949302E+02  0.62315013969E+02 -0.24410380604E+02  0.14250680888E+03  0.12499778205E+03 0.  0.
         25    2    1    2    0    0 -0.14307949302E+02 -0.62315013969E+02  0.41356965040E+01  0.14046613736E+03  0.12500301348E+03 0.  0.
          5    1    3    3  501    0  0.28027903875E+02  0.83615093321E+02 -0.53808137598E+02  0.10341398792E+03  0.47000000000E+01 0.  1.
         -5    1    3    3    0  501 -0.13719954573E+02 -0.21300079352E+02  0.29397756995E+02  0.39092820955E+02  0.47000000000E+01 0.  1.
          5    1    4    4  502    0  0.52951880649E+01  0.81456434570E+01 -0.48851738802E+02  0.50029720247E+02  0.47000000000E+01 0. -1.
         -5    1    4    4    0  502 -0.19603137367E+02 -0.70460657426E+02  0.52987435306E+02  0.90436417111E+02  0.47000000000E+01 0. -1.
<mgrwt>
<rscale>  0 0.28224568E+03</rscale>
<asrwt>0</asrwt>
<pdfrwt beam="1">  1       21 0.20207559E-01 0.28224568E+03</pdfrwt>
<pdfrwt beam="2">  1       21 0.23326741E-01 0.28224568E+03</pdfrwt>
<totfact> 0.38392169E+05</totfact>
</mgrwt>
</event>
<event>
 8    1  0.9373234E-006  0.3560847E+03  0.7546771E-02  0.1060145E+00
         21   -1    0    0  504  503  0.00000000000E+00  0.00000000000E+00  0.38705496006E+02  0.38705496006E+02  0.00000000000E+00 0. -1.
         21   -1    0    0  503  504 -0.00000000000E+00 -0.00000000000E+00 -0.81898154329E+03  0.81898154329E+03  0.00000000000E+00 0. -1.
         25    2    1    2    0    0 -0.53928540042E+02  0.22810640027E+02 -0.66100290184E+03  0.67525973252E+03  0.12498902909E+03 0.  0.
         25    2    1    2    0    0  0.53928540042E+02 -0.22810640027E+02 -0.11927314545E+03  0.18242730678E+03  0.12500010522E+03 0.  0.
          5    1    3    3  501    0 -0.40863349333E+01  0.69369365045E+02 -0.33752686574E+03  0.34463789989E+03  0.47000000000E+01 0.  1.
         -5    1    3    3    0  501 -0.49842205108E+02 -0.46558725018E+02 -0.32347603610E+03  0.33062183263E+03  0.47000000000E+01 0.  1.
          5    1    4    4  502    0  0.58671522723E+02 -0.46149798177E+02 -0.16193276277E+02  0.76527535220E+02  0.47000000000E+01 0. -1.
         -5    1    4    4    0  502 -0.47429826811E+01  0.23339158150E+02 -0.10307986917E+03  0.10589977156E+03  0.47000000000E+01 0. -1.
<mgrwt>
<rscale>  0 0.35608475E+03</rscale>
<asrwt>0</asrwt>
<pdfrwt beam="1">  1       21 0.59546923E-02 0.35608475E+03</pdfrwt>
<pdfrwt beam="2">  1       21 0.12599715E+00 0.35608475E+03</pdfrwt>
<totfact> 0.88089227E+04</totfact>
</mgrwt>
</event>
<event>
 8    1  0.9373234E-006  0.3075608E+03  0.7546771E-02  0.1081521E+00
         21   -1    0    0  504  503  0.00000000000E+00  0.00000000000E+00  0.58915158848E+02  0.58915158848E+02  0.00000000000E+00 0. -1.
         21   -1    0    0  503  504 -0.00000000000E+00 -0.00000000000E+00 -0.40139778842E+03  0.40139778842E+03  0.00000000000E+00 0. -1.
         25    2    1    2    0    0  0.46947282602E+02 -0.49422550375E+02 -0.84267570938E+02  0.16544542242E+03  0.12499811382E+03 0.  0.
         25    2    1    2    0    0 -0.46947282602E+02  0.49422550375E+02 -0.25821505863E+03  0.29486752485E+03  0.12500081951E+03 0.  0.
          5    1    3    3  501    0  0.51671712918E+02  0.21469308414E+02 -0.13734689986E+01  0.56168260938E+02  0.47000000000E+01 0. -1.
         -5    1    3    3    0  501 -0.47244303159E+01 -0.70891858790E+02 -0.82894101939E+02  0.10927716148E+03  0.47000000000E+01 0. -1.
          5    1    4    4  502    0 -0.73669007518E+02 -0.12390081630E+02 -0.13839839258E+03  0.15734307058E+03  0.47000000000E+01 0. -1.
         -5    1    4    4    0  502  0.26721724916E+02  0.61812632005E+02 -0.11981666605E+03  0.13752445427E+03  0.47000000000E+01 0. -1.
<mgrwt>
<rscale>  0 0.30756082E+03</rscale>
<asrwt>0</asrwt>
<pdfrwt beam="1">  1       21 0.90638706E-02 0.30756082E+03</pdfrwt>
<pdfrwt beam="2">  1       21 0.61753506E-01 0.30756082E+03</pdfrwt>
<totfact> 0.22800196E+05</totfact>
</mgrwt>
</event>
<event>
 8    1  0.9373234E-006  0.2704618E+03  0.7546771E-02  0.1101016E+00
         21   -1    0    0  504  503  0.00000000000E+00  0.00000000000E+00  0.15354505515E+02  0.15354505515E+02  0.00000000000E+00 0.  1.
         21   -1    0    0  503  504 -0.00000000000E+00 -0.00000000000E+00 -0.11910114954E+04  0.11910114954E+04  0.00000000000E+00 0.  1.
         25    2    1    2    0    0 -0.25654595373E+02  0.44679246025E+02 -0.60056265492E+03  0.61559280702E+03  0.12499843312E+03 0.  0.
         25    2    1    2    0    0  0.25654595373E+02 -0.44679246025E+02 -0.57509433500E+03  0.59077319393E+03  0.12500031691E+03 0.  0.
          5    1    3    3  501    0  0.47908921404E+01 -0.42337723172E+02 -0.18504700077E+03  0.18994714514E+03  0.47000000000E+01 0. -1.
         -5    1    3    3    0  501 -0.30445487513E+02  0.87016969198E+02 -0.41551565415E+03  0.42564566188E+03  0.47000000000E+01 0. -1.
          5    1    4    4  502    0 -0.23023974493E+02  0.23959393572E+02 -0.59290272735E+02  0.68129159563E+02  0.47000000000E+01 0. -1.
         -5    1    4    4    0  502  0.48678569866E+02 -0.68638639597E+02 -0.51580406227E+03  0.52264403437E+03  0.47000000000E+01 0. -1.
<mgrwt>
<rscale>  0 0.27046177E+03</rscale>
<asrwt>0</asrwt>
<pdfrwt beam="1">  1       21 0.23622322E-02 0.27046177E+03</pdfrwt>
<pdfrwt beam="2">  1       21 0.18323250E+00 0.27046177E+03</pdfrwt>
<totfact> 0.15682018E+05</totfact>
</mgrwt>
</event>
<event>
 8    1  0.9373234E-006  0.3745963E+03  0.7546771E-02  0.1052949E+00
         21   -1    0    0  504  503  0.00000000000E+00  0.00000000000E+00  0.16573207841E+03  0.16573207841E+03  0.00000000000E+00 0.  1.
         21   -1    0    0  503  504 -0.00000000000E+00 -0.00000000000E+00 -0.21167048968E+03  0.21167048968E+03  0.00000000000E+00 0.  1.
         25    2    1    2    0    0  0.93036766118E+02  0.85905591968E+02  0.35950230218E+02  0.18153454908E+03  0.12500705130E+03 0.  0.
         25    2    1    2    0    0 -0.93036766118E+02 -0.85905591968E+02 -0.81888641492E+02  0.19586801902E+03  0.12499168247E+03 0.  0.
          5    1    3    3  501    0  0.12352166730E+01 -0.19429430335E+02 -0.22395220627E+02  0.30044374354E+02  0.47000000000E+01 0. -1.
         -5    1    3    3    0  501  0.91801549445E+02  0.10533502230E+03  0.58345450845E+02  0.15149017472E+03  0.47000000000E+01 0. -1.
          5    1    4    4  502    0 -0.11860558977E+03 -0.45287450862E+02 -0.43690048354E+02  0.13434712299E+03  0.47000000000E+01 0.  1.
         -5    1    4    4    0  502  0.25568823654E+02 -0.40618141106E+02 -0.38198593138E+02  0.61520896025E+02  0.47000000000E+01 0.  1.
<mgrwt>
<rscale>  0 0.37459626E+03</rscale>
<asrwt>0</asrwt>
<pdfrwt beam="1">  1       21 0.25497243E-01 0.37459626E+03</pdfrwt>
<pdfrwt beam="2">  1       21 0.32564691E-01 0.37459626E+03</pdfrwt>
<totfact> 0.12585483E+05</totfact>
</mgrwt>
</event>
<event>
 8    1  0.9373234E-006  0.3927543E+03  0.7546771E-02  0.1046318E+00
         21   -1    0    0  504  503  0.00000000000E+00  0.00000000000E+00  0.10121405848E+04  0.10121405848E+04  0.00000000000E+00 0.  1.
         21   -1    0    0  503  504 -0.00000000000E+00 -0.00000000000E+00 -0.38101418510E+02  0.38101418510E+02  0.00000000000E+00 0.  1.
         25    2    1    2    0    0 -0.70621356626E+02  0.11747370856E+03  0.31471122828E+03  0.36531459341E+03  0.12499658693E+03 0.  0.
         25    2    1    2    0    0  0.70621356626E+02 -0.11747370856E+03  0.65932793805E+03  0.68492740993E+03  0.12499911508E+03 0.  0.
          5    1    3    3  501    0 -0.89778894526E+02  0.12542506416E+03  0.22311932629E+03  0.27128586470E+03  0.47000000000E+01 0.  1.
         -5    1    3    3    0  501  0.19157537900E+02 -0.79513555999E+01  0.91591901988E+02  0.94028728717E+02  0.47000000000E+01 0.  1.
          5    1    4    4  502    0  0.14215248018E+02  0.26623557362E+02  0.98928936060E+02  0.10353700533E+03  0.47000000000E+01 0.  1.
         -5    1    4    4    0  502  0.56406108607E+02 -0.14409726592E+03  0.56039900199E+03  0.58139040460E+03  0.47000000000E+01 0.  1.
<mgrwt>
<rscale>  0 0.39275434E+03</rscale>
<asrwt>0</asrwt>
<pdfrwt beam="1">  1       21 0.15571392E+00 0.39275434E+03</pdfrwt>
<pdfrwt beam="2">  1       21 0.58617575E-02 0.39275434E+03</pdfrwt>
<totfact> 0.51201698E+04</totfact>
</mgrwt>
</event>
<event>
 8    1  0.9373234E-006  0.2950751E+03  0.7546771E-02  0.1087729E+00
         21   -1    0    0  504  503  0.00000000000E+00  0.00000000000E+00  0.59459895688E+02  0.59459895688E+02  0.00000000000E+00 0. -1.
         21   -1    0    0  503  504 -0.00000000000E+00 -0.00000000000E+00 -0.36608418191E+03  0.36608418191E+03  0.00000000000E+00 0. -1.
         25    2    1    2    0    0 -0.52321985447E+02  0.38857681953E+02 -0.90527505702E+02  0.16753169999E+03  0.12499652637E+03 0.  0.
         25    2    1    2    0    0  0.52321985447E+02 -0.38857681953E+02 -0.21609678052E+03  0.25801237761E+03  0.12500023537E+03 0.  0.
          5    1    3    3  501    0  0.70118218059E+01  0.69801097906E+02 -0.65012573790E+02  0.95760553803E+02  0.47000000000E+01 0.  1.
         -5    1    3    3    0  501 -0.59333807253E+02 -0.30943415953E+02 -0.25514931912E+02  0.71771146183E+02  0.47000000000E+01 0.  1.
          5    1    4    4  502    0  0.88311921607E+02 -0.80860357031E+01 -0.10742551378E+03  0.13937973483E+03  0.47000000000E+01 0. -1.
         -5    1    4    4    0  502 -0.35989936160E+02 -0.30771646250E+02 -0.10867126674E+03  0.11863264278E+03  0.47000000000E+01 0. -1.
<mgrwt>
<rscale>  0 0.29507509E+03</rscale>
<asrwt>0</asrwt>
<pdfrwt beam="1">  1       21 0.91476763E-02 0.29507509E+03</pdfrwt>
<pdfrwt beam="2">  1       21 0.56320643E-01 0.29507509E+03</pdfrwt>
<totfact> 0.27452662E+05</totfact>
</mgrwt>
</event>
<event>
 8    1  0.9373234E-006  0.2616245E+03  0.7546771E-02  0.1106171E+00
         21   -1    0    0  504  503  0.00000000000E+00  0.00000000000E+00  0.22307533602E+03  0.22307533602E+03  0.00000000000E+00 0.  1.
         21   -1    0    0  503  504 -0.00000000000E+00 -0.00000000000E+00 -0.76708834698E+02  0.76708834698E+02  0.00000000000E+00 0.  1.
         25    2    1    2    0    0  0.19794881602E+01 -0.11205816830E+02  0.11540168063E+03  0.17050395835E+03  0.12499825285E+03 0.  0.
         25    2    1    2    0    0 -0.19794881602E+01  0.11205816830E+02  0.30964820692E+02  0.12928021237E+03  0.12500025794E+03 0.  0.
          5    1    3    3  501    0 -0.43868468387E+01 -0.29903018286E+02 -0.18051029074E+02  0.35515694818E+02  0.47000000000E+01 0. -1.
         -5    1    3    3    0  501  0.63663349989E+01  0.18697201456E+02  0.13345270971E+03  0.13498826353E+03  0.47000000000E+01 0. -1.
          5    1    4    4  502    0 -0.10599915911E+02 -0.20988266583E+02 -0.42317112639E+02  0.48638396083E+02  0.47000000000E+01 0.  1.
         -5    1    4    4    0  502  0.86204277505E+01  0.32194083413E+02  0.73281933330E+02  0.80641816287E+02  0.47000000000E+01 0.  1.
<mgrwt>
<rscale>  0 0.26162453E+03</rscale>
<asrwt>0</asrwt>
<pdfrwt beam="1">  1       21 0.34319282E-01 0.26162453E+03</pdfrwt>
<pdfrwt beam="2">  1       21 0.11801359E-01 0.26162453E+03</pdfrwt>
<totfact> 0.48800293E+05</totfact>
</mgrwt>
</event>
<event>
 8    1  0.9373234E-006  0.2672053E+03  0.7546771E-02  0.1102890E+00
         21   -1    0    0  504  503  0.00000000000E+00  0.00000000000E+00  0.10287138540E+03  0.10287138540E+03  0.00000000000E+00 0. -1.
         21   -1    0    0  503  504 -0.00000000000E+00 -0.00000000000E+00 -0.17351439332E+03  0.17351439332E+03  0.00000000000E+00 0. -1.
         25    2    1    2    0    0 -0.27673804894E+01 -0.44147292815E+02 -0.18403908305E+02  0.13386853061E+03  0.12500175115E+03 0.  0.
         25    2    1    2    0    0  0.27673804894E+01  0.44147292815E+02 -0.52239099615E+02  0.14251724811E+03  0.12500240247E+03 0.  0.
          5    1    3    3  501    0 -0.50425991267E+02 -0.20299437868E+02  0.29527127807E+02  0.62038609345E+02  0.47000000000E+01 0. -1.
         -5    1    3    3    0  501  0.47658610777E+02 -0.23847854947E+02 -0.47931036112E+02  0.71829921269E+02  0.47000000000E+01 0. -1.
          5    1    4    4  502    0  0.11780155312E+02 -0.42898081868E+02 -0.21630495377E+02  0.49688890281E+02  0.47000000000E+01 0.  1.
         -5    1    4    4    0  502 -0.90127748222E+01  0.87045374682E+02 -0.30608604237E+02  0.92828357827E+02  0.47000000000E+01 0.  1.
<mgrwt>
<rscale>  0 0.26720528E+03</rscale>
<asrwt>0</asrwt>
<pdfrwt beam="1">  1       21 0.15826367E-01 0.26720528E+03</pdfrwt>
<pdfrwt beam="2">  1       21 0.26694522E-01 0.26720528E+03</pdfrwt>
<totfact> 0.46824346E+05</totfact>
</mgrwt>
</event>
<event>
 8    1  0.9373234E-006  0.3974891E+03  0.7546771E-02  0.1044653E+00
         21   -1    0    0  504  503  0.00000000000E+00  0.00000000000E+00  0.16871615481E+02  0.16871615481E+02  0.00000000000E+00 0. -1.
         21   -1    0    0  503  504 -0.00000000000E+00 -0.00000000000E+00 -0.23411747429E+04  0.23411747429E+04  0.00000000000E+00 0. -1.
         25    2    1    2    0    0 -0.13694029224E+03  0.69609467182E+02 -0.10629317263E+04  0.10812220982E+04  0.12497699498E+03 0.  0.
         25    2    1    2    0    0  0.13694029224E+03 -0.69609467182E+02 -0.12613714011E+04  0.12768242602E+04  0.12499703316E+03 0.  0.
          5    1    3    3  501    0 -0.87908413562E+02  0.10320846857E+03 -0.64968931577E+03  0.66370036476E+03  0.47000000000E+01 0. -1.
         -5    1    3    3    0  501 -0.49031878675E+02 -0.33599001392E+02 -0.41324241054E+03  0.41752173343E+03  0.47000000000E+01 0. -1.
          5    1    4    4  502    0 -0.15767063698E+02  0.15006590731E+02 -0.19172357946E+03  0.19301248401E+03  0.47000000000E+01 0.  1.
         -5    1    4    4    0  502  0.15270735593E+03 -0.84616057913E+02 -0.10696478216E+04  0.10838117762E+04  0.47000000000E+01 0.  1.
<mgrwt>
<rscale>  0 0.39748912E+03</rscale>
<asrwt>0</asrwt>
<pdfrwt beam="1">  1       21 0.25956324E-02 0.39748912E+03</pdfrwt>
<pdfrwt beam="2">  1       21 0.36018083E+00 0.39748912E+03</pdfrwt>
<totfact> 0.10366509E+04</totfact>
</mgrwt>
</event>
<event>
 8    1  0.9373234E-006  0.3780707E+03  0.7546771E-02  0.1051649E+00
         21   -1    0    0  504  503  0.00000000000E+00  0.00000000000E+00  0.13325445251E+03  0.13325445251E+03  0.00000000000E+00 0. -1.
         21   -1    0    0  503  504 -0.00000000000E+00 -0.00000000000E+00 -0.26816640559E+03  0.26816640559E+03  0.00000000000E+00 0. -1.
         25    2    1    2    0    0 -0.42968250818E+02  0.13149235190E+03 -0.34344579520E+02  0.18959024600E+03  0.12501360745E+03 0.  0.
         25    2    1    2    0    0  0.42968250818E+02 -0.13149235190E+03 -0.10056737356E+03  0.21183061210E+03  0.12498760904E+03 0.  0.
          5    1    3    3  501    0  0.11454618684E+02 -0.19996064235E+02  0.44754905592E+01  0.23940987654E+02  0.47000000000E+01 0.  1.
         -5    1    3    3    0  501 -0.54422869502E+02  0.15148841614E+03 -0.38820070079E+02  0.16564925834E+03  0.47000000000E+01 0.  1.
          5    1    4    4  502    0  0.77630951794E+02 -0.50416657902E+02 -0.26013796701E+02  0.96266358035E+02  0.47000000000E+01 0. -1.
         -5    1    4    4    0  502 -0.34662700976E+02 -0.81075693999E+02 -0.74553576858E+02  0.11556425407E+03  0.47000000000E+01 0. -1.
<mgrwt>
<rscale>  0 0.37807072E+03</rscale>
<asrwt>0</asrwt>
<pdfrwt beam="1">  1       21 0.20500685E-01 0.37807072E+03</pdfrwt>
<pdfrwt beam="2">  1       21 0.41256370E-01 0.37807072E+03</pdfrwt>
<totfact> 0.11834096E+05</totfact>
</mgrwt>
</event>
<event>
 8    1  0.9373234E-006  0.3185143E+03  0.7546771E-02  0.1076335E+00
         21   -1    0    0  504  503  0.00000000000E+00  0.00000000000E+00  0.61259068690E+02  0.61259068690E+02  0.00000000000E+00 0.  1.
         21   -1    0    0  503  504 -0.00000000000E+00 -0.00000000000E+00 -0.41402580069E+03  0.41402580069E+03  0.00000000000E+00 0.  1.
         25    2    1    2    0    0 -0.18073771726E+02  0.92019928269E+02 -0.13055273962E+03  0.20362561644E+03  0.12500018170E+03 0.  0.
         25    2    1    2    0    0  0.18073771726E+02 -0.92019928269E+02 -0.22221399239E+03  0.27165925294E+03  0.12500145149E+03 0.  0.
          5    1    3    3  501    0 -0.19006383884E+02  0.11946184620E+03 -0.12715111460E+03  0.17556158826E+03  0.47000000000E+01 0. -1.
         -5    1    3    3    0  501  0.93261215817E+00 -0.27441917930E+02 -0.34016250126E+01  0.28064028183E+02  0.47000000000E+01 0. -1.
          5    1    4    4  502    0  0.63856408792E+02 -0.76465595748E+02 -0.18605155832E+03  0.21109689868E+03  0.47000000000E+01 0. -1.
         -5    1    4    4    0  502 -0.45782637066E+02 -0.15554332521E+02 -0.36162434063E+02  0.60562354266E+02  0.47000000000E+01 0. -1.
<mgrwt>
<rscale>  0 0.31851427E+03</rscale>
<asrwt>0</asrwt>
<pdfrwt beam="1">  1       21 0.94244720E-02 0.31851427E+03</pdfrwt>
<pdfrwt beam="2">  1       21 0.63696277E-01 0.31851427E+03</pdfrwt>
<totfact> 0.19831320E+05</totfact>
</mgrwt>
</event>
<event>
 8    1  0.9373234E-006  0.3724174E+03  0.7546771E-02  0.1053772E+00
         21   -1    0    0  504  503  0.00000000000E+00  0.00000000000E+00  0.18241066378E+03  0.18241066378E+03  0.00000000000E+00 0.  1.
         21   -1    0    0  503  504 -0.00000000000E+00 -0.00000000000E+00 -0.19008580916E+03  0.19008580916E+03  0.00000000000E+00 0.  1.
         25    2    1    2    0    0 -0.10743875342E+03  0.60960681859E+02  0.57772695741E+02  0.18498677834E+03  0.12499253305E+03 0.  0.
         25    2    1    2    0    0  0.10743875342E+03 -0.60960681859E+02 -0.65447841122E+02  0.18750969461E+03  0.12496869687E+03 0.  0.
          5    1    3    3  501    0  0.21349437583E+02 -0.12230063221E+02 -0.21123659920E+01  0.25138118895E+02  0.47000000000E+01 0. -1.
         -5    1    3    3    0  501 -0.12878819100E+03  0.73190745080E+02  0.59885061733E+02  0.15984865944E+03  0.47000000000E+01 0. -1.
          5    1    4    4  502    0  0.10578315900E+03  0.67913658226E+01 -0.27151571345E+02  0.10952395722E+03  0.47000000000E+01 0.  1.
         -5    1    4    4    0  502  0.16555944162E+01 -0.67752047681E+02 -0.38296269777E+02  0.77985737393E+02  0.47000000000E+01 0.  1.
<mgrwt>
<rscale>  0 0.37241739E+03</rscale>
<asrwt>0</asrwt>
<pdfrwt beam="1">  1       21 0.28063179E-01 0.37241739E+03</pdfrwt>
<pdfrwt beam="2">  1       21 0.29243971E-01 0.37241739E+03</pdfrwt>
<totfact> 0.12926912E+05</totfact>
</mgrwt>
</event>
<event>
 8    1  0.9373234E-006  0.2955892E+03  0.7546771E-02  0.1087467E+00
         21   -1    0    0  504  503  0.00000000000E+00  0.00000000000E+00  0.18873367175E+02  0.18873367175E+02  0.00000000000E+00 0. -1.
         21   -1    0    0  503  504 -0.00000000000E+00 -0.00000000000E+00 -0.11573577742E+04  0.11573577742E+04  0.00000000000E+00 0. -1.
         25    2    1    2    0    0 -0.23014467157E+02  0.17299184182E+02 -0.27712335720E+03  0.30537032511E+03  0.12499901152E+03 0.  0.
         25    2    1    2    0    0  0.23014467157E+02 -0.17299184182E+02 -0.86136104981E+03  0.87086081625E+03  0.12500710249E+03 0.  0.
          5    1    3    3  501    0 -0.58955772708E+02  0.48109592069E+02 -0.12954754930E+03  0.15031624501E+03  0.47000000000E+01 0. -1.
         -5    1    3    3    0  501  0.35941305551E+02 -0.30810407887E+02 -0.14757580790E+03  0.15505408011E+03  0.47000000000E+01 0. -1.
          5    1    4    4  502    0  0.64378519866E+02  0.18627369080E+02 -0.33752429380E+03  0.34414577087E+03  0.47000000000E+01 0. -1.
         -5    1    4    4    0  502 -0.41364052709E+02 -0.35926553262E+02 -0.52383675601E+03  0.52671504538E+03  0.47000000000E+01 0. -1.
<mgrwt>
<rscale>  0 0.29558916E+03</rscale>
<asrwt>0</asrwt>
<pdfrwt beam="1">  1       21 0.29035936E-02 0.29558916E+03</pdfrwt>
<pdfrwt beam="2">  1       21 0.17805512E+00 0.29558916E+03</pdfrwt>
<totfact> 0.11982330E+05</totfact>
</mgrwt>
</event>
<event>
 8    1  0.9373234E-006  0.4992848E+03  0.7546771E-02  0.1013966E+00
         21   -1    0    0  504  503  0.00000000000E+00  0.00000000000E+00  0.16991111099E+04  0.16991111099E+04  0.00000000000E+00 0. -1.
         21   -1    0    0  503  504 -0.00000000000E+00 -0.00000000000E+00 -0.36678787172E+02  0.36678787172E+02  0.00000000000E+00 0. -1.
         25    2    1    2    0    0  0.19603134065E+03 -0.83852959146E+02  0.70889151902E+03  0.75074026853E+03  0.12499663904E+03 0.  0.
         25    2    1    2    0    0 -0.19603134065E+03  0.83852959146E+02  0.95354080370E+03  0.98504962854E+03  0.12499240412E+03 0.  0.
          5    1    3    3  501    0  0.18348089293E+03 -0.97152036227E+02  0.50578368440E+03  0.54675678470E+03  0.47000000000E+01 0.  1.
         -5    1    3    3    0  501  0.12550447729E+02  0.13299077081E+02  0.20310783462E+03  0.20398348382E+03  0.47000000000E+01 0.  1.
          5    1    4    4  502    0 -0.30417646942E+02 -0.30650283557E+02  0.12318370651E+03  0.13061771961E+03  0.47000000000E+01 0.  1.
         -5    1    4    4    0  502 -0.16561369371E+03  0.11450324270E+03  0.83035709719E+03  0.85443190893E+03  0.47000000000E+01 0.  1.
<mgrwt>
<rscale>  0 0.49928483E+03</rscale>
<asrwt>0</asrwt>
<pdfrwt beam="1">  1       21 0.26140165E+00 0.49928483E+03</pdfrwt>
<pdfrwt beam="2">  1       21 0.56428917E-02 0.49928483E+03</pdfrwt>
<totfact> 0.10465466E+04</totfact>
</mgrwt>
</event>
<event>
 8    1  0.9373234E-006  0.2700749E+03  0.7546771E-02  0.1101237E+00
         21   -1    0    0  504  503  0.00000000000E+00  0.00000000000E+00  0.43093059027E+03  0.43093059027E+03  0.00000000000E+00 0. -1.
         21   -1    0    0  503  504 -0.00000000000E+00 -0.00000000000E+00 -0.42315666500E+02  0.42315666500E+02  0.00000000000E+00 0. -1.
         25    2    1    2    0    0 -0.58749808997E+01 -0.42087166499E+02  0.24398747894E+03  0.27741830784E+03  0.12500073063E+03 0.  0.
         25    2    1    2    0    0  0.58749808997E+01  0.42087166499E+02  0.14462744482E+03  0.19582794893E+03  0.12500257118E+03 0.  0.
          5    1    3    3  501    0  0.38442601694E+01 -0.69399589047E+00  0.23322799294E+03  0.23330805099E+03  0.47000000000E+01 0. -1.
         -5    1    3    3    0  501 -0.97192410690E+01 -0.41393170609E+02  0.10759486000E+02  0.44110256846E+02  0.47000000000E+01 0. -1.
          5    1    4    4  502    0  0.55257891515E+02  0.26212657731E+02  0.12666026187E+03  0.14073183697E+03  0.47000000000E+01 0.  1.
         -5    1    4    4    0  502 -0.49382910616E+02  0.15874508768E+02  0.17967182954E+02  0.55096111957E+02  0.47000000000E+01 0.  1.
<mgrwt>
<rscale>  0 0.27007492E+03</rscale>
<asrwt>0</asrwt>
<pdfrwt beam="1">  1       21 0.66297011E-01 0.27007492E+03</pdfrwt>
<pdfrwt beam="2">  1       21 0.65101028E-02 0.27007492E+03</pdfrwt>
<totfact> 0.35127263E+05</totfact>
</mgrwt>
</event>
<event>
 8    1  0.9373234E-006  0.3390617E+03  0.7546771E-02  0.1067196E+00
         21   -1    0    0  504  503  0.00000000000E+00  0.00000000000E+00  0.47355470462E+03  0.47355470462E+03  0.00000000000E+00 0. -1.
         21   -1    0    0  503  504 -0.00000000000E+00 -0.00000000000E+00 -0.60691406140E+02  0.60691406140E+02  0.00000000000E+00 0. -1.
         25    2    1    2    0    0 -0.66620134131E+01  0.82245142217E+02  0.33156188258E+03  0.36381907166E+03  0.12498955589E+03 0.  0.
         25    2    1    2    0    0  0.66620134131E+01 -0.82245142217E+02  0.81301415898E+02  0.17042703910E+03  0.12500723814E+03 0.  0.
          5    1    3    3  501    0 -0.24059525644E+02  0.10358864921E+03  0.31215193914E+03  0.32980356598E+03  0.47000000000E+01 0.  1.
         -5    1    3    3    0  501  0.17397512231E+02 -0.21343506996E+02  0.19409943438E+02  0.34015505685E+02  0.47000000000E+01 0.  1.
          5    1    4    4  502    0  0.59422927829E+01  0.16935402254E+02  0.67711107591E+02  0.70206857102E+02  0.47000000000E+01 0. -1.
         -5    1    4    4    0  502  0.71972063021E+00 -0.99180544471E+02  0.13590308307E+02  0.10022018200E+03  0.47000000000E+01 0. -1.
<mgrwt>
<rscale>  0 0.33906165E+03</rscale>
<asrwt>0</asrwt>
<pdfrwt beam="1">  1       21 0.72854568E-01 0.33906165E+03</pdfrwt>
<pdfrwt beam="2">  1       21 0.93371397E-02 0.33906165E+03</pdfrwt>
<totfact> 0.14886099E+05</totfact>
</mgrwt>
</event>
<event>
 8    1  0.9373234E-006  0.4776408E+03  0.7546771E-02  0.1019786E+00
         21   -1    0    0  504  503  0.00000000000E+00  0.00000000000E+00  0.52226256693E+03  0.52226256693E+03  0.00000000000E+00 0. -1.
         21   -1    0    0  503  504 -0.00000000000E+00 -0.00000000000E+00 -0.10920784954E+03  0.10920784954E+03  0.00000000000E+00 0. -1.
         25    2    1    2    0    0  0.70889194181E+02  0.15269251973E+03  0.35767007672E+03  0.41460237115E+03  0.12500783558E+03 0.  0.
         25    2    1    2    0    0 -0.70889194181E+02 -0.15269251973E+03  0.55384640676E+02  0.21686804532E+03  0.12499602884E+03 0.  0.
          5    1    3    3  501    0  0.21527651966E+02  0.13702468158E+03  0.16788779571E+03  0.21782471189E+03  0.47000000000E+01 0.  1.
         -5    1    3    3    0  501  0.49361542215E+02  0.15667838150E+02  0.18978228101E+03  0.19677765926E+03  0.47000000000E+01 0.  1.
          5    1    4    4  502    0 -0.90813784944E+01 -0.23046374501E+02 -0.37916045837E+02  0.45533760496E+02  0.47000000000E+01 0. -1.
         -5    1    4    4    0  502 -0.61807815686E+02 -0.12964614523E+03  0.93300686513E+02  0.17133428482E+03  0.47000000000E+01 0. -1.
<mgrwt>
<rscale>  0 0.47764075E+03</rscale>
<asrwt>0</asrwt>
<pdfrwt beam="1">  1       21 0.80348086E-01 0.47764075E+03</pdfrwt>
<pdfrwt beam="2">  1       21 0.16801208E-01 0.47764075E+03</pdfrwt>
<totfact> 0.39483994E+04</totfact>
</mgrwt>
</event>
<event>
 8    1  0.9373234E-006  0.3161828E+03  0.7546771E-02  0.1077420E+00
         21   -1    0    0  504  503  0.00000000000E+00  0.00000000000E+00  0.78997447255E+03  0.78997447255E+03  0.00000000000E+00 0. -1.
         21   -1    0    0  503  504 -0.00000000000E+00 -0.00000000000E+00 -0.31637597837E+02  0.31637597837E+02  0.00000000000E+00 0. -1.
         25    2    1    2    0    0 -0.17237465341E+02  0.13013474773E+02  0.13400796787E+03  0.18452586001E+03  0.12500070729E+03 0.  0.
         25    2    1    2    0    0  0.17237465341E+02 -0.13013474773E+02  0.62432890684E+03  0.63708621038E+03  0.12500309916E+03 0.  0.
          5    1    3    3  501    0  0.40719097712E+02  0.41754031241E+02  0.85177018073E+02  0.10333759457E+03  0.47000000000E+01 0.  1.
         -5    1    3    3    0  501 -0.57956563054E+02 -0.28740556468E+02  0.48830949800E+02  0.81188265442E+02  0.47000000000E+01 0.  1.
          5    1    4    4  502    0  0.65368908821E+02 -0.28729937272E+02  0.44381688857E+03  0.44954868937E+03  0.47000000000E+01 0. -1.
         -5    1    4    4    0  502 -0.48131443480E+02  0.15716462500E+02  0.18051201827E+03  0.18753752101E+03  0.47000000000E+01 0. -1.
<mgrwt>
<rscale>  0 0.31618282E+03</rscale>
<asrwt>0</asrwt>
<pdfrwt beam="1">  1       21 0.12153452E+00 0.31618282E+03</pdfrwt>
<pdfrwt beam="2">  1       21 0.48673233E-02 0.31618282E+03</pdfrwt>
<totfact> 0.13812573E+05</totfact>
</mgrwt>
</event>
<event>
 8    1  0.9373234E-006  0.3372399E+03  0.7546771E-02  0.1067978E+00
         21   -1    0    0  504  503  0.00000000000E+00  0.00000000000E+00  0.55113724482E+03  0.55113724482E+03  0.00000000000E+00 0.  1.
         21   -1    0    0  503  504 -0.00000000000E+00 -0.00000000000E+00 -0.51589132337E+02  0.51589132337E+02  0.00000000000E+00 0.  1.
         25    2    1    2    0    0 -0.78331443300E+02 -0.49634913577E+02  0.13382466571E+03  0.20526603725E+03  0.12500266094E+03 0.  0.
         25    2    1    2    0    0  0.78331443300E+02  0.49634913577E+02  0.36572344678E+03  0.39746033991E+03  0.12498656977E+03 0.  0.
          5    1    3    3  501    0 -0.56991043950E+02 -0.34086224444E+02  0.15654763561E+03  0.17011496701E+03  0.47000000000E+01 0.  1.
         -5    1    3    3    0  501 -0.21340399350E+02 -0.15548689133E+02 -0.22722969897E+02  0.35151070242E+02  0.47000000000E+01 0.  1.
          5    1    4    4  502    0  0.11337726515E+02  0.46372053128E+02  0.29868631740E+03  0.30251366508E+03  0.47000000000E+01 0. -1.
         -5    1    4    4    0  502  0.66993716785E+02  0.32628604490E+01  0.67037129375E+02  0.94946674833E+02  0.47000000000E+01 0. -1.
<mgrwt>
<rscale>  0 0.33723993E+03</rscale>
<asrwt>0</asrwt>
<pdfrwt beam="1">  1       21 0.84790341E-01 0.33723993E+03</pdfrwt>
<pdfrwt beam="2">  1       21 0.79367900E-02 0.33723993E+03</pdfrwt>
<totfact> 0.14036373E+05</totfact>
</mgrwt>
</event>
<event>
 8    1  0.9373234E-006  0.3236283E+03  0.7546771E-02  0.1073991E+00
         21   -1    0    0  504  503  0.00000000000E+00  0.00000000000E+00  0.50709138167E+02  0.50709138167E+02  0.00000000000E+00 0. -1.
         21   -1    0    0  503  504 -0.00000000000E+00 -0.00000000000E+00 -0.51635305707E+03  0.51635305707E+03  0.00000000000E+00 0. -1.
         25    2    1    2    0    0  0.71773463258E+02  0.64101401734E+02 -0.16979567089E+03  0.23178103428E+03  0.12502583040E+03 0.  0.
         25    2    1    2    0    0 -0.71773463258E+02 -0.64101401734E+02 -0.29584824801E+03  0.33528116095E+03  0.12500740500E+03 0.  0.
          5    1    3    3  501    0  0.19987000940E+01  0.73120809694E+02 -0.38610089639E+02  0.82846102107E+02  0.47000000000E+01 0. -1.
         -5    1    3    3    0  501  0.69774763164E+02 -0.90194079598E+01 -0.13118558125E+03  0.14893493218E+03  0.47000000000E+01 0. -1.
          5    1    4    4  502    0  0.34725164048E+02 -0.25344504486E+02 -0.10011595891E+03  0.10905721505E+03  0.47000000000E+01 0. -1.
         -5    1    4    4    0  502 -0.10649862731E+03 -0.38756897247E+02 -0.19573228910E+03  0.22622394590E+03  0.47000000000E+01 0. -1.
<mgrwt>
<rscale>  0 0.32362830E+03</rscale>
<asrwt>0</asrwt>
<pdfrwt beam="1">  1       21 0.78014061E-02 0.32362830E+03</pdfrwt>
<pdfrwt beam="2">  1       21 0.79438930E-01 0.32362830E+03</pdfrwt>
<totfact> 0.16867032E+05</totfact>
</mgrwt>
</event>
<event>
 8    1  0.9373234E-006  0.2515029E+03  0.7546771E-02  0.1112359E+00
         21   -1    0    0  504  503  0.00000000000E+00  0.00000000000E+00  0.83343091119E+02  0.83343091119E+02  0.00000000000E+00 0. -1.
         21   -1    0    0  503  504 -0.00000000000E+00 -0.00000000000E+00 -0.18973887637E+03  0.18973887637E+03  0.00000000000E+00 0. -1.
         25    2    1    2    0    0 -0.10998389725E+01 -0.16804067746E+01 -0.38444361400E+02  0.13079245812E+03  0.12499865906E+03 0.  0.
         25    2    1    2    0    0  0.10998389725E+01  0.16804067746E+01 -0.67951423848E+02  0.14228950936E+03  0.12499950023E+03 0.  0.
          5    1    3    3  501    0  0.42677837222E+02  0.39696322903E+02 -0.39145709054E+02  0.70368120476E+02  0.47000000000E+01 0. -1.
         -5    1    3    3    0  501 -0.43777676194E+02 -0.41376729677E+02  0.70134765463E+00  0.60424337649E+02  0.47000000000E+01 0. -1.
          5    1    4    4  502    0 -0.20569443092E+02 -0.23229182200E+02  0.27159115500E+02  0.41501860797E+02  0.47000000000E+01 0. -1.
         -5    1    4    4    0  502  0.21669282065E+02  0.24909588975E+02 -0.95110539349E+02  0.10078764857E+03  0.47000000000E+01 0. -1.
<mgrwt>
<rscale>  0 0.25150288E+03</rscale>
<asrwt>0</asrwt>
<pdfrwt beam="1">  1       21 0.12822014E-01 0.25150288E+03</pdfrwt>
<pdfrwt beam="2">  1       21 0.29190596E-01 0.25150288E+03</pdfrwt>
<totfact> 0.57942773E+05</totfact>
</mgrwt>
</event>
<event>
 8    1  0.9373234E-006  0.2891396E+03  0.7546771E-02  0.1090799E+00
         21   -1    0    0  504  503  0.00000000000E+00  0.00000000000E+00  0.58578892016E+02  0.58578892016E+02  0.00000000000E+00 0. -1.
         21   -1    0    0  503  504 -0.00000000000E+00 -0.00000000000E+00 -0.35679120964E+03  0.35679120964E+03  0.00000000000E+00 0. -1.
         25    2    1    2    0    0  0.48309573388E+02 -0.54188938869E+02 -0.15250150642E+03  0.21012499508E+03  0.12500219247E+03 0.  0.
         25    2    1    2    0    0 -0.48309573388E+02  0.54188938869E+02 -0.14571081120E+03  0.20524510657E+03  0.12499462906E+03 0.  0.
          5    1    3    3  501    0  0.61410363560E+02 -0.35261483181E+01 -0.14431952474E+03  0.15695184515E+03  0.47000000000E+01 0. -1.
         -5    1    3    3    0  501 -0.13100790172E+02 -0.50662790551E+02 -0.81819816772E+01  0.53173149932E+02  0.47000000000E+01 0. -1.
          5    1    4    4  502    0 -0.20885897528E+02  0.49723937963E+02 -0.16329117084E+03  0.17203135527E+03  0.47000000000E+01 0.  1.
         -5    1    4    4    0  502 -0.27423675860E+02  0.44650009065E+01  0.17580359633E+02  0.33213751303E+02  0.47000000000E+01 0.  1.
<mgrwt>
<rscale>  0 0.28913965E+03</rscale>
<asrwt>0</asrwt>
<pdfrwt beam="1">  1       21 0.90121371E-02 0.28913965E+03</pdfrwt>
<pdfrwt beam="2">  1       21 0.54890956E-01 0.28913965E+03</pdfrwt>
<totfact> 0.29820470E+05</totfact>
</mgrwt>
</event>
<event>
 8    1  0.9373234E-006  0.4938629E+03  0.7546771E-02  0.1015393E+00
         21   -1    0    0  504  503  0.00000000000E+00  0.00000000000E+00  0.19753619671E+03  0.19753619671E+03  0.00000000000E+00 0. -1.
         21   -1    0    0  503  504 -0.00000000000E+00 -0.00000000000E+00 -0.30867827988E+03  0.30867827988E+03  0.00000000000E+00 0. -1.
         25    2    1    2    0    0 -0.17481758099E+03  0.80623115285E+02  0.37740496449E+02  0.23261726571E+03  0.12500069556E+03 0.  0.
         25    2    1    2    0    0  0.17481758099E+03 -0.80623115285E+02 -0.14888257962E+03  0.27359721088E+03  0.12501255114E+03 0.  0.
          5    1    3    3  501    0 -0.13642801089E+03  0.24314937486E+02 -0.23785710528E+02  0.14068286450E+03  0.47000000000E+01 0. -1.
         -5    1    3    3    0  501 -0.38389570106E+02  0.56308177800E+02  0.61526206977E+02  0.91934401205E+02  0.47000000000E+01 0. -1.
          5    1    4    4  502    0  0.12343631106E+03 -0.11034815157E+03 -0.84662034954E+02  0.18601878294E+03  0.47000000000E+01 0. -1.
         -5    1    4    4    0  502  0.51381269930E+02  0.29725036287E+02 -0.64220544670E+02  0.87578427935E+02  0.47000000000E+01 0. -1.
<mgrwt>
<rscale>  0 0.49386287E+03</rscale>
<asrwt>0</asrwt>
<pdfrwt beam="1">  1       21 0.30390184E-01 0.49386287E+03</pdfrwt>
<pdfrwt beam="2">  1       21 0.47488966E-01 0.49386287E+03</pdfrwt>
<totfact> 0.40036477E+04</totfact>
</mgrwt>
</event>
<event>
 8    1  0.9373234E-006  0.2688043E+03  0.7546771E-02  0.1101966E+00
         21   -1    0    0  504  503  0.00000000000E+00  0.00000000000E+00  0.83612744669E+03  0.83612744669E+03  0.00000000000E+00 0. -1.
         21   -1    0    0  503  504 -0.00000000000E+00 -0.00000000000E+00 -0.21604294196E+02  0.21604294196E+02  0.00000000000E+00 0. -1.
         25    2    1    2    0    0 -0.22526694111E+02 -0.42578045254E+02  0.37252313660E+03  0.39587700587E+03  0.12499909835E+03 0.  0.
         25    2    1    2    0    0  0.22526694111E+02  0.42578045254E+02  0.44200001589E+03  0.46185473501E+03  0.12500176128E+03 0.  0.
          5    1    3    3  501    0  0.26633541770E+01  0.42457870585E+02  0.88764389077E+02  0.98544259083E+02  0.47000000000E+01 0.  1.
         -5    1    3    3    0  501 -0.25190048288E+02 -0.85035915839E+02  0.28375874752E+03  0.29733274679E+03  0.47000000000E+01 0.  1.
          5    1    4    4  502    0  0.36073702359E+02 -0.31626722116E+01  0.38773023256E+03  0.38944593686E+03  0.47000000000E+01 0.  1.
         -5    1    4    4    0  502 -0.13547008249E+02  0.45740717466E+02  0.54269783325E+02  0.72408798146E+02  0.47000000000E+01 0.  1.
<mgrwt>
<rscale>  0 0.26880434E+03</rscale>
<asrwt>0</asrwt>
<pdfrwt beam="1">  1       21 0.12863497E+00 0.26880434E+03</pdfrwt>
<pdfrwt beam="2">  1       21 0.33237382E-02 0.26880434E+03</pdfrwt>
<totfact> 0.23109112E+05</totfact>
</mgrwt>
</event>
<event>
 8    1  0.9373234E-006  0.2913990E+03  0.7546771E-02  0.1089621E+00
         21   -1    0    0  504  503  0.00000000000E+00  0.00000000000E+00  0.13137442104E+03  0.13137442104E+03  0.00000000000E+00 0.  1.
         21   -1    0    0  503  504 -0.00000000000E+00 -0.00000000000E+00 -0.16158659075E+03  0.16158659075E+03  0.00000000000E+00 0.  1.
         25    2    1    2    0    0 -0.23330499955E+02 -0.13617231344E+02  0.55082545448E+02  0.13923824073E+03  0.12499383845E+03 0.  0.
         25    2    1    2    0    0  0.23330499955E+02  0.13617231344E+02 -0.85294715159E+02  0.15372277106E+03  0.12500304272E+03 0.  0.
          5    1    3    3  501    0 -0.52483843916E+02  0.20711267868E+01 -0.20508037508E+02  0.56581914432E+02  0.47000000000E+01 0.  1.
         -5    1    3    3    0  501  0.29153343961E+02 -0.15688358131E+02  0.75590582956E+02  0.82656326295E+02  0.47000000000E+01 0.  1.
          5    1    4    4  502    0  0.17012630815E+02  0.42893419732E+02 -0.10687755038E+03  0.11650826511E+03  0.47000000000E+01 0. -1.
         -5    1    4    4    0  502  0.63178691398E+01 -0.29276188388E+02  0.21582835219E+02  0.37214505949E+02  0.47000000000E+01 0. -1.
<mgrwt>
<rscale>  0 0.29139900E+03</rscale>
<asrwt>0</asrwt>
<pdfrwt beam="1">  1       21 0.20211449E-01 0.29139900E+03</pdfrwt>
<pdfrwt beam="2">  1       21 0.24859476E-01 0.29139900E+03</pdfrwt>
<totfact> 0.33906835E+05</totfact>
</mgrwt>
</event>
<event>
 8    1  0.9373234E-006  0.3160681E+03  0.7546771E-02  0.1077473E+00
         21   -1    0    0  504  503  0.00000000000E+00  0.00000000000E+00  0.19137962578E+03  0.19137962578E+03  0.00000000000E+00 0. -1.
         21   -1    0    0  503  504 -0.00000000000E+00 -0.00000000000E+00 -0.13049850135E+03  0.13049850135E+03  0.00000000000E+00 0. -1.
         25    2    1    2    0    0 -0.29666283260E+02 -0.82548032951E+02 -0.10980372472E+02  0.15310634733E+03  0.12500687544E+03 0.  0.
         25    2    1    2    0    0  0.29666283260E+02  0.82548032951E+02  0.71861496902E+02  0.16877177979E+03  0.12500229122E+03 0.  0.
          5    1    3    3  501    0 -0.67092736265E+01  0.33305763084E+02 -0.58617787235E+01  0.34795670090E+02  0.47000000000E+01 0. -1.
         -5    1    3    3    0  501 -0.22957009633E+02 -0.11585379604E+03 -0.51185937481E+01  0.11831067724E+03  0.47000000000E+01 0. -1.
          5    1    4    4  502    0  0.40033668377E+02  0.10042993678E+03  0.16470638028E+02  0.10946341271E+03  0.47000000000E+01 0. -1.
         -5    1    4    4    0  502 -0.10367385118E+02 -0.17881903830E+02  0.55390858874E+02  0.59308367079E+02  0.47000000000E+01 0. -1.
<mgrwt>
<rscale>  0 0.31606806E+03</rscale>
<asrwt>0</asrwt>
<pdfrwt beam="1">  1       21 0.29443019E-01 0.31606806E+03</pdfrwt>
<pdfrwt beam="2">  1       21 0.20076693E-01 0.31606806E+03</pdfrwt>
<totfact> 0.24583876E+05</totfact>
</mgrwt>
</event>
<event>
 8    1  0.9373234E-006  0.2719670E+03  0.7546771E-02  0.1100159E+00
         21   -1    0    0  504  503  0.00000000000E+00  0.00000000000E+00  0.18013887317E+02  0.18013887317E+02  0.00000000000E+00 0. -1.
         21   -1    0    0  503  504 -0.00000000000E+00 -0.00000000000E+00 -0.10265146231E+04  0.10265146231E+04  0.00000000000E+00 0. -1.
         25    2    1    2    0    0  0.12089498366E+02  0.32279440479E+02 -0.66159536229E+03  0.67418199541E+03  0.12499928509E+03 0.  0.
         25    2    1    2    0    0 -0.12089498366E+02 -0.32279440479E+02 -0.34690537353E+03  0.37034651506E+03  0.12500033911E+03 0.  0.
          5    1    3    3  501    0  0.12530698510E+02  0.80130805454E+02 -0.43876140566E+03  0.44621925718E+03  0.47000000000E+01 0. -1.
         -5    1    3    3    0  501 -0.44120014407E+00 -0.47851364975E+02 -0.22283395664E+03  0.22796273822E+03  0.47000000000E+01 0. -1.
          5    1    4    4  502    0 -0.11736840635E+02 -0.20546941335E+02 -0.35468269976E+03  0.35550223310E+03  0.47000000000E+01 0. -1.
         -5    1    4    4    0  502 -0.35265773038E+00 -0.11732499144E+02  0.77773262265E+01  0.14844281959E+02  0.47000000000E+01 0. -1.
<mgrwt>
<rscale>  0 0.27196705E+03</rscale>
<asrwt>0</asrwt>
<pdfrwt beam="1">  1       21 0.27713674E-02 0.27196705E+03</pdfrwt>
<pdfrwt beam="2">  1       21 0.15792532E+00 0.27196705E+03</pdfrwt>
<totfact> 0.18236167E+05</totfact>
</mgrwt>
</event>
<event>
 8    1  0.9373234E-006  0.3188772E+03  0.7546771E-02  0.1076167E+00
         21   -1    0    0  504  503  0.00000000000E+00  0.00000000000E+00  0.23896176653E+03  0.23896176653E+03  0.00000000000E+00 0. -1.
         21   -1    0    0  503  504 -0.00000000000E+00 -0.00000000000E+00 -0.10637966657E+03  0.10637966657E+03  0.00000000000E+00 0. -1.
         25    2    1    2    0    0  0.22995594885E+02  0.54059779385E+02 -0.19990059059E+02  0.13954149044E+03  0.12498387081E+03 0.  0.
         25    2    1    2    0    0 -0.22995594885E+02 -0.54059779385E+02  0.15257215902E+03  0.20579994266E+03  0.12499638218E+03 0.  0.
          5    1    3    3  501    0 -0.68440201086E+00 -0.22124183618E+02 -0.49438393054E+02  0.54370880209E+02  0.47000000000E+01 0.  1.
         -5    1    3    3    0  501  0.23679996896E+02  0.76183963003E+02  0.29448333996E+02  0.85170610230E+02  0.47000000000E+01 0.  1.
          5    1    4    4  502    0  0.40991960131E+02 -0.10585546606E+02  0.10868611274E+03  0.11673540891E+03  0.47000000000E+01 0. -1.
         -5    1    4    4    0  502 -0.63987555016E+02 -0.43474232779E+02  0.43886046283E+02  0.89064533744E+02  0.47000000000E+01 0. -1.
<mgrwt>
<rscale>  0 0.31887724E+03</rscale>
<asrwt>0</asrwt>
<pdfrwt beam="1">  1       21 0.36763349E-01 0.31887724E+03</pdfrwt>
<pdfrwt beam="2">  1       21 0.16366103E-01 0.31887724E+03</pdfrwt>
<totfact> 0.23135430E+05</totfact>
</mgrwt>
</event>
<event>
 8    1  0.9373234E-006  0.2868863E+03  0.7546771E-02  0.1091986E+00
         21   -1    0    0  504  503  0.00000000000E+00  0.00000000000E+00  0.77062447448E+03  0.77062447448E+03  0.00000000000E+00 0.  1.
         21   -1    0    0  503  504 -0.00000000000E+00 -0.00000000000E+00 -0.26700337460E+02  0.26700337460E+02  0.00000000000E+00 0.  1.
         25    2    1    2    0    0 -0.43934956955E+02 -0.48448885103E+02  0.44409765684E+03  0.46596646171E+03  0.12499775885E+03 0.  0.
         25    2    1    2    0    0  0.43934956955E+02  0.48448885103E+02  0.29982648019E+03  0.33135835024E+03  0.12499945256E+03 0.  0.
          5    1    3    3  501    0 -0.22551285236E+02 -0.88957577692E+02  0.24640466040E+03  0.26298166811E+03  0.47000000000E+01 0.  1.
         -5    1    3    3    0  501 -0.21383671719E+02  0.40508692590E+02  0.19769299643E+03  0.20298479359E+03  0.47000000000E+01 0.  1.
          5    1    4    4  502    0  0.16415754681E+02  0.72530068011E+01 -0.75134101128E+01  0.20015604935E+02  0.47000000000E+01 0.  1.
         -5    1    4    4    0  502  0.27519202274E+02  0.41195878302E+02  0.30733989030E+03  0.31134274530E+03  0.47000000000E+01 0.  1.
<mgrwt>
<rscale>  0 0.28688627E+03</rscale>
<asrwt>0</asrwt>
<pdfrwt beam="1">  1       21 0.11855759E+00 0.28688627E+03</pdfrwt>
<pdfrwt beam="2">  1       21 0.41077448E-02 0.28688627E+03</pdfrwt>
<totfact> 0.19781654E+05</totfact>
</mgrwt>
</event>
<event>
 8    1  0.9373234E-006  0.2536531E+03  0.7546771E-02  0.1111018E+00
         21   -1    0    0  504  503  0.00000000000E+00  0.00000000000E+00  0.56647321017E+03  0.56647321017E+03  0.00000000000E+00 0. -1.
         21   -1    0    0  503  504 -0.00000000000E+00 -0.00000000000E+00 -0.28394939575E+02  0.28394939575E+02  0.00000000000E+00 0. -1.
         25    2    1    2    0    0 -0.45086859906E+01 -0.21011604257E+02  0.26958504156E+03  0.29792965496E+03  0.12499667560E+03 0.  0.
         25    2    1    2    0    0  0.45086859906E+01  0.21011604257E+02  0.26849322903E+03  0.29693849478E+03  0.12498815897E+03 0.  0.
          5    1    3    3  501    0  0.87283399730E+01  0.47085184095E+02  0.16853397361E+03  0.17526833354E+03  0.47000000000E+01 0.  1.
         -5    1    3    3    0  501 -0.13237025964E+02 -0.68096788352E+02  0.10105106795E+03  0.12266132142E+03  0.47000000000E+01 0.  1.
          5    1    4    4  502    0  0.70226252068E+01  0.61820222984E+02  0.23711150612E+03  0.24518363234E+03  0.47000000000E+01 0. -1.
         -5    1    4    4    0  502 -0.25139392162E+01 -0.40808618727E+02  0.31381722915E+02  0.51754862437E+02  0.47000000000E+01 0. -1.
<mgrwt>
<rscale>  0 0.25365309E+03</rscale>
<asrwt>0</asrwt>
<pdfrwt beam="1">  1       21 0.87149716E-01 0.25365309E+03</pdfrwt>
<pdfrwt beam="2">  1       21 0.43684527E-02 0.25365309E+03</pdfrwt>
<totfact> 0.37652445E+05</totfact>
</mgrwt>
</event>
<event>
 8    1  0.9373234E-006  0.3180340E+03  0.7546771E-02  0.1076558E+00
         21   -1    0    0  504  503  0.00000000000E+00  0.00000000000E+00  0.16270864606E+03  0.16270864606E+03  0.00000000000E+00 0.  1.
         21   -1    0    0  503  504 -0.00000000000E+00 -0.00000000000E+00 -0.15540912642E+03  0.15540912642E+03  0.00000000000E+00 0.  1.
         25    2    1    2    0    0 -0.16826264463E+02  0.55757493774E+02  0.82830547649E+02  0.16085953222E+03  0.12499147249E+03 0.  0.
         25    2    1    2    0    0  0.16826264463E+02 -0.55757493774E+02 -0.75531028006E+02  0.15725824026E+03  0.12503278230E+03 0.  0.
          5    1    3    3  501    0 -0.54004868886E+02 -0.13299902327E+02  0.52533816942E+02  0.76650539384E+02  0.47000000000E+01 0. -1.
         -5    1    3    3    0  501  0.37178604423E+02  0.69057396101E+02  0.30296730707E+02  0.84208992837E+02  0.47000000000E+01 0. -1.
          5    1    4    4  502    0 -0.54040291426E+02 -0.32114201463E+02 -0.36413892772E+02  0.72799289968E+02  0.47000000000E+01 0. -1.
         -5    1    4    4    0  502  0.70866555889E+02 -0.23643292312E+02 -0.39117135234E+02  0.84458950289E+02  0.47000000000E+01 0. -1.
<mgrwt>
<rscale>  0 0.31803401E+03</rscale>
<asrwt>0</asrwt>
<pdfrwt beam="1">  1       21 0.25032099E-01 0.31803401E+03</pdfrwt>
<pdfrwt beam="2">  1       21 0.23909096E-01 0.31803401E+03</pdfrwt>
<totfact> 0.24169144E+05</totfact>
</mgrwt>
</event>
<event>
 8    1  0.9373234E-006  0.3089689E+03  0.7546771E-02  0.1080841E+00
         21   -1    0    0  504  503  0.00000000000E+00  0.00000000000E+00  0.32181018494E+03  0.32181018494E+03  0.00000000000E+00 0.  1.
         21   -1    0    0  503  504 -0.00000000000E+00 -0.00000000000E+00 -0.74160015906E+02  0.74160015906E+02  0.00000000000E+00 0.  1.
         25    2    1    2    0    0  0.56292143200E+02 -0.39030799952E+02  0.47468518195E+02  0.15022786071E+03  0.12499176447E+03 0.  0.
         25    2    1    2    0    0 -0.56292143200E+02  0.39030799952E+02  0.20018165084E+03  0.24574234013E+03  0.12499758265E+03 0.  0.
          5    1    3    3  501    0  0.61553910125E+01 -0.41233854848E+02 -0.34286980790E+02  0.54183084776E+02  0.47000000000E+01 0.  1.
         -5    1    3    3    0  501  0.50136752188E+02  0.22030548967E+01  0.81755498985E+02  0.96044775939E+02  0.47000000000E+01 0.  1.
          5    1    4    4  502    0 -0.17766021498E+02 -0.97737813934E+01 -0.12383572087E+02  0.24219850954E+02  0.47000000000E+01 0.  1.
         -5    1    4    4    0  502 -0.38526121702E+02  0.48804581345E+02  0.21256522292E+03  0.22152248917E+03  0.47000000000E+01 0.  1.
<mgrwt>
<rscale>  0 0.30896892E+03</rscale>
<asrwt>0</asrwt>
<pdfrwt beam="1">  1       21 0.49509259E-01 0.30896892E+03</pdfrwt>
<pdfrwt beam="2">  1       21 0.11409233E-01 0.30896892E+03</pdfrwt>
<totfact> 0.24259014E+05</totfact>
</mgrwt>
</event>
<event>
 8    1  0.9373234E-006  0.2541945E+03  0.7546771E-02  0.1110682E+00
         21   -1    0    0  504  503  0.00000000000E+00  0.00000000000E+00  0.11482868164E+02  0.11482868164E+02  0.00000000000E+00 0.  1.
         21   -1    0    0  503  504 -0.00000000000E+00 -0.00000000000E+00 -0.14067667176E+04  0.14067667176E+04  0.00000000000E+00 0.  1.
         25    2    1    2    0    0  0.42642240279E+01 -0.55595028473E+01 -0.81965092676E+03  0.82915796957E+03  0.12500482024E+03 0.  0.
         25    2    1    2    0    0 -0.42642240279E+01  0.55595028473E+01 -0.57563292263E+03  0.58909161615E+03  0.12500631553E+03 0.  0.
          5    1    3    3  501    0 -0.28266864614E+02  0.51543737908E+02 -0.35675693327E+03  0.36159835728E+03  0.47000000000E+01 0.  1.
         -5    1    3    3    0  501  0.32531088642E+02 -0.57103240755E+02 -0.46289399348E+03  0.46755961228E+03  0.47000000000E+01 0.  1.
          5    1    4    4  502    0  0.54415671566E+02  0.27797946470E+02 -0.32101475034E+03  0.32681240961E+03  0.47000000000E+01 0.  1.
         -5    1    4    4    0  502 -0.58679895594E+02 -0.22238443622E+02 -0.25461817229E+03  0.26227920654E+03  0.47000000000E+01 0.  1.
<mgrwt>
<rscale>  0 0.25419455E+03</rscale>
<asrwt>0</asrwt>
<pdfrwt beam="1">  1       21 0.17665970E-02 0.25419455E+03</pdfrwt>
<pdfrwt beam="2">  1       21 0.21642542E+00 0.25419455E+03</pdfrwt>
<totfact> 0.15438282E+05</totfact>
</mgrwt>
</event>
<event>
 8    1  0.9373234E-006  0.3170024E+03  0.7546771E-02  0.1077037E+00
         21   -1    0    0  504  503  0.00000000000E+00  0.00000000000E+00  0.22174553393E+03  0.22174553393E+03  0.00000000000E+00 0. -1.
         21   -1    0    0  503  504 -0.00000000000E+00 -0.00000000000E+00 -0.11329488247E+03  0.11329488247E+03  0.00000000000E+00 0. -1.
         25    2    1    2    0    0  0.23029522062E+02  0.93505093548E+02  0.38396966817E+02  0.16239446324E+03  0.12499629284E+03 0.  0.
         25    2    1    2    0    0 -0.23029522062E+02 -0.93505093548E+02  0.70053684641E+02  0.17264595316E+03  0.12500218001E+03 0.  0.
          5    1    3    3  501    0  0.30005874516E+02  0.94768407185E+02  0.75128570968E+02  0.12469080031E+03  0.47000000000E+01 0.  1.
         -5    1    3    3    0  501 -0.69763524534E+01 -0.12633136369E+01 -0.36731604151E+02  0.37703662931E+02  0.47000000000E+01 0.  1.
          5    1    4    4  502    0 -0.93569271777E+01 -0.10361150777E+03  0.39339030848E+01  0.10421354145E+03  0.47000000000E+01 0. -1.
         -5    1    4    4    0  502 -0.13672594885E+02  0.10106414224E+02  0.66119781556E+02  0.68432411709E+02  0.47000000000E+01 0. -1.
<mgrwt>
<rscale>  0 0.31700242E+03</rscale>
<asrwt>0</asrwt>
<pdfrwt beam="1">  1       21 0.34114697E-01 0.31700242E+03</pdfrwt>
<pdfrwt beam="2">  1       21 0.17429982E-01 0.31700242E+03</pdfrwt>
<totfact> 0.23926977E+05</totfact>
</mgrwt>
</event>
<event>
 8    1  0.9373234E-006  0.3322129E+03  0.7546771E-02  0.1070162E+00
         21   -1    0    0  504  503  0.00000000000E+00  0.00000000000E+00  0.23304855647E+03  0.23304855647E+03  0.00000000000E+00 0.  1.
         21   -1    0    0  503  504 -0.00000000000E+00 -0.00000000000E+00 -0.11839312192E+03  0.11839312192E+03  0.00000000000E+00 0.  1.
         25    2    1    2    0    0  0.24591743003E+02 -0.14221236692E+02 -0.54412470733E+02  0.13925885596E+03  0.12500125838E+03 0.  0.
         25    2    1    2    0    0 -0.24591743003E+02  0.14221236692E+02  0.16906790528E+03  0.21218282243E+03  0.12502238256E+03 0.  0.
          5    1    3    3  501    0  0.22137111157E+02 -0.69034926308E+02 -0.25026420469E+02  0.76839341891E+02  0.47000000000E+01 0. -1.
         -5    1    3    3    0  501  0.24546318457E+01  0.54813689616E+02 -0.29386050263E+02  0.62419514071E+02  0.47000000000E+01 0. -1.
          5    1    4    4  502    0  0.15896495590E+02  0.13469704662E+02  0.17006747365E+03  0.17140352129E+03  0.47000000000E+01 0.  1.
         -5    1    4    4    0  502 -0.40488238594E+02  0.75153203025E+00 -0.99956836867E+00  0.40779301143E+02  0.47000000000E+01 0.  1.
<mgrwt>
<rscale>  0 0.33221286E+03</rscale>
<asrwt>0</asrwt>
<pdfrwt beam="1">  1       21 0.35853624E-01 0.33221286E+03</pdfrwt>
<pdfrwt beam="2">  1       21 0.18214326E-01 0.33221286E+03</pdfrwt>
<totfact> 0.19881403E+05</totfact>
</mgrwt>
</event>
<event>
 8    1  0.9373234E-006  0.4113010E+03  0.7546771E-02  0.1039935E+00
         21   -1    0    0  504  503  0.00000000000E+00  0.00000000000E+00  0.74584138529E+03  0.74584138529E+03  0.00000000000E+00 0. -1.
         21   -1    0    0  503  504 -0.00000000000E+00 -0.00000000000E+00 -0.56703923834E+02  0.56703923834E+02  0.00000000000E+00 0. -1.
         25    2    1    2    0    0  0.53751460165E+02  0.16624589523E+02  0.45441768208E+02  0.14441445693E+03  0.12499993850E+03 0.  0.
         25    2    1    2    0    0 -0.53751460165E+02 -0.16624589523E+02  0.64369569325E+03  0.65813085220E+03  0.12500590649E+03 0.  0.
          5    1    3    3  501    0  0.87957500015E+02  0.10374419162E+01  0.56862437633E+02  0.10484762710E+03  0.47000000000E+01 0. -1.
         -5    1    3    3    0  501 -0.34206039850E+02  0.15587147607E+02 -0.11420669426E+02  0.39566829831E+02  0.47000000000E+01 0. -1.
          5    1    4    4  502    0  0.30995814264E+02 -0.38232230349E+02  0.22320026772E+03  0.22861079032E+03  0.47000000000E+01 0. -1.
         -5    1    4    4    0  502 -0.84747274429E+02  0.21607640826E+02  0.42049542553E+03  0.42952006188E+03  0.47000000000E+01 0. -1.
<mgrwt>
<rscale>  0 0.41130102E+03</rscale>
<asrwt>0</asrwt>
<pdfrwt beam="1">  1       21 0.11474482E+00 0.41130102E+03</pdfrwt>
<pdfrwt beam="2">  1       21 0.87236811E-02 0.41130102E+03</pdfrwt>
<totfact> 0.56261385E+04</totfact>
</mgrwt>
</event>
<event>
 8    1  0.9373234E-006  0.2590528E+03  0.7546771E-02  0.1107714E+00
         21   -1    0    0  504  503  0.00000000000E+00  0.00000000000E+00  0.74421431812E+02  0.74421431812E+02  0.00000000000E+00 0. -1.
         21   -1    0    0  503  504 -0.00000000000E+00 -0.00000000000E+00 -0.22543353496E+03  0.22543353496E+03  0.00000000000E+00 0. -1.
         25    2    1    2    0    0  0.30445879825E+02 -0.61095027532E+01 -0.91184453698E+02  0.15782181297E+03  0.12501536877E+03 0.  0.
         25    2    1    2    0    0 -0.30445879825E+02  0.61095027532E+01 -0.59827649448E+02  0.14203315380E+03  0.12501916460E+03 0.  0.
          5    1    3    3  501    0  0.66833254661E+02  0.76679250999E+01 -0.97065618737E+02  0.11819181590E+03  0.47000000000E+01 0.  1.
         -5    1    3    3    0  501 -0.36387374836E+02 -0.13777427853E+02  0.58811650386E+01  0.39629997072E+02  0.47000000000E+01 0.  1.
          5    1    4    4  502    0  0.46989590660E+02  0.13769769598E+02 -0.12203681185E+02  0.50681831258E+02  0.47000000000E+01 0. -1.
         -5    1    4    4    0  502 -0.77435470485E+02 -0.76602668449E+01 -0.47623968263E+02  0.91351322544E+02  0.47000000000E+01 0. -1.
<mgrwt>
<rscale>  0 0.25905279E+03</rscale>
<asrwt>0</asrwt>
<pdfrwt beam="1">  1       21 0.11449451E-01 0.25905279E+03</pdfrwt>
<pdfrwt beam="2">  1       21 0.34682083E-01 0.25905279E+03</pdfrwt>
<totfact> 0.50481539E+05</totfact>
</mgrwt>
</event>
<event>
 8    1  0.9373234E-006  0.4180758E+03  0.7546771E-02  0.1037694E+00
         21   -1    0    0  504  503  0.00000000000E+00  0.00000000000E+00  0.11996308192E+03  0.11996308192E+03  0.00000000000E+00 0.  1.
         21   -1    0    0  503  504 -0.00000000000E+00 -0.00000000000E+00 -0.36425240452E+03  0.36425240452E+03  0.00000000000E+00 0.  1.
         25    2    1    2    0    0 -0.35444144156E+02  0.45940452678E+02  0.59901460002E+02  0.15026457283E+03  0.12499777754E+03 0.  0.
         25    2    1    2    0    0  0.35444144156E+02 -0.45940452678E+02 -0.30419078260E+03  0.33395091361E+03  0.12499747171E+03 0.  0.
          5    1    3    3  501    0 -0.42268802409E+01  0.49255303188E+02  0.92360551819E+02  0.10486425960E+03  0.47000000000E+01 0. -1.
         -5    1    3    3    0  501 -0.31217263915E+02 -0.33148505102E+01 -0.32459091817E+02  0.45400313235E+02  0.47000000000E+01 0. -1.
          5    1    4    4  502    0 -0.42801443701E+02 -0.25012912969E+02 -0.16997180428E+03  0.17711610218E+03  0.47000000000E+01 0.  1.
         -5    1    4    4    0  502  0.78245587857E+02 -0.20927539709E+02 -0.13421897831E+03  0.15683481143E+03  0.47000000000E+01 0.  1.
<mgrwt>
<rscale>  0 0.41807579E+03</rscale>
<asrwt>0</asrwt>
<pdfrwt beam="1">  1       21 0.18455859E-01 0.41807579E+03</pdfrwt>
<pdfrwt beam="2">  1       21 0.56038830E-01 0.41807579E+03</pdfrwt>
<totfact> 0.75030517E+04</totfact>
</mgrwt>
</event>
<event>
 8    1  0.9373234E-006  0.2911991E+03  0.7546771E-02  0.1089725E+00
         21   -1    0    0  504  503  0.00000000000E+00  0.00000000000E+00  0.85351115322E+03  0.85351115322E+03  0.00000000000E+00 0. -1.
         21   -1    0    0  503  504 -0.00000000000E+00 -0.00000000000E+00 -0.24837678180E+02  0.24837678180E+02  0.00000000000E+00 0. -1.
         25    2    1    2    0    0  0.23632500959E+02  0.70619428393E+02  0.43051720525E+03  0.45443951222E+03  0.12499842991E+03 0.  0.
         25    2    1    2    0    0 -0.23632500959E+02 -0.70619428393E+02  0.39815626979E+03  0.42390931918E+03  0.12500038779E+03 0.  0.
          5    1    3    3  501    0  0.29389773522E+02  0.98787246897E+02  0.39625571286E+03  0.40946716463E+03  0.47000000000E+01 0.  1.
         -5    1    3    3    0  501 -0.57572725637E+01 -0.28167818504E+02  0.34261492393E+02  0.44972347589E+02  0.47000000000E+01 0.  1.
          5    1    4    4  502    0 -0.39149222893E+01 -0.28628204060E+02  0.71529549432E+01  0.30135617609E+02  0.47000000000E+01 0. -1.
         -5    1    4    4    0  502 -0.19717578669E+02 -0.41991224332E+02  0.39100331485E+03  0.39377370157E+03  0.47000000000E+01 0. -1.
<mgrwt>
<rscale>  0 0.29119914E+03</rscale>
<asrwt>0</asrwt>
<pdfrwt beam="1">  1       21 0.13130939E+00 0.29119914E+03</pdfrwt>
<pdfrwt beam="2">  1       21 0.38211819E-02 0.29119914E+03</pdfrwt>
<totfact> 0.17231980E+05</totfact>
</mgrwt>
</event>
<event>
 8    1  0.9373234E-006  0.2597473E+03  0.7546771E-02  0.1107295E+00
         21   -1    0    0  504  503  0.00000000000E+00  0.00000000000E+00  0.15817733475E+03  0.15817733475E+03  0.00000000000E+00 0. -1.
         21   -1    0    0  503  504 -0.00000000000E+00 -0.00000000000E+00 -0.10663452589E+03  0.10663452589E+03  0.00000000000E+00 0. -1.
         25    2    1    2    0    0 -0.34058242593E+02  0.88821190483E+01  0.24476634846E+02  0.13214888650E+03  0.12500146649E+03 0.  0.
         25    2    1    2    0    0  0.34058242593E+02 -0.88821190483E+01  0.27066174015E+02  0.13266297414E+03  0.12501212343E+03 0.  0.
          5    1    3    3  501    0 -0.17014821599E+02  0.91019134869E+01 -0.50946655124E+02  0.54680898415E+02  0.47000000000E+01 0.  1.
         -5    1    3    3    0  501 -0.17043420994E+02 -0.21979443866E+00  0.75423289970E+02  0.77467988089E+02  0.47000000000E+01 0.  1.
          5    1    4    4  502    0 -0.92039358986E+01  0.18036215530E+02 -0.41908376297E+02  0.46780546283E+02  0.47000000000E+01 0. -1.
         -5    1    4    4    0  502  0.43262178492E+02 -0.26918334578E+02  0.68974550312E+02  0.85882427860E+02  0.47000000000E+01 0. -1.
<mgrwt>
<rscale>  0 0.25974730E+03</rscale>
<asrwt>0</asrwt>
<pdfrwt beam="1">  1       21 0.24334975E-01 0.25974730E+03</pdfrwt>
<pdfrwt beam="2">  1       21 0.16405312E-01 0.25974730E+03</pdfrwt>
<totfact> 0.52444043E+05</totfact>
</mgrwt>
</event>
<event>
 8    1  0.9373234E-006  0.2899974E+03  0.7546771E-02  0.1090350E+00
         21   -1    0    0  504  503  0.00000000000E+00  0.00000000000E+00  0.21318047974E+02  0.21318047974E+02  0.00000000000E+00 0.  1.
         21   -1    0    0  503  504 -0.00000000000E+00 -0.00000000000E+00 -0.98623588391E+03  0.98623588391E+03  0.00000000000E+00 0.  1.
         25    2    1    2    0    0  0.13341348377E+02 -0.71629074026E+02 -0.44944786794E+03  0.47216134917E+03  0.12499695129E+03 0.  0.
         25    2    1    2    0    0 -0.13341348377E+02  0.71629074026E+02 -0.51546996800E+03  0.53539258271E+03  0.12500885528E+03 0.  0.
          5    1    3    3  501    0  0.52737941846E+02  0.92441377943E+01 -0.14384550189E+03  0.15355898869E+03  0.47000000000E+01 0. -1.
         -5    1    3    3    0  501 -0.39396593468E+02 -0.80873211820E+02 -0.30560236605E+03  0.31860236048E+03  0.47000000000E+01 0. -1.
          5    1    4    4  502    0  0.49625242584E+01 -0.40739239759E+01 -0.37194040719E+03  0.37202550989E+03  0.47000000000E+01 0.  1.
         -5    1    4    4    0  502 -0.18303872636E+02  0.75702998002E+02 -0.14352956080E+03  0.16336707283E+03  0.47000000000E+01 0.  1.
<mgrwt>
<rscale>  0 0.28999741E+03</rscale>
<asrwt>0</asrwt>
<pdfrwt beam="1">  1       21 0.32796992E-02 0.28999741E+03</pdfrwt>
<pdfrwt beam="2">  1       21 0.15172862E+00 0.28999741E+03</pdfrwt>
<totfact> 0.15251816E+05</totfact>
</mgrwt>
</event>
<event>
 8    1  0.9373234E-006  0.4510369E+03  0.7546771E-02  0.1027413E+00
         21   -1    0    0  504  503  0.00000000000E+00  0.00000000000E+00  0.69056532196E+02  0.69056532196E+02  0.00000000000E+00 0.  1.
         21   -1    0    0  503  504 -0.00000000000E+00 -0.00000000000E+00 -0.73647733362E+03  0.73647733362E+03  0.00000000000E+00 0.  1.
         25    2    1    2    0    0 -0.11297058597E+03 -0.50999065206E+02 -0.58543817572E+03  0.61133149627E+03  0.12500033116E+03 0.  0.
         25    2    1    2    0    0  0.11297058597E+03  0.50999065206E+02 -0.81982625698E+02  0.19420236955E+03  0.12502060420E+03 0.  0.
          5    1    3    3  501    0 -0.22018218240E+02  0.23401551286E+01 -0.75158924529E+01  0.23850721160E+02  0.47000000000E+01 0.  1.
         -5    1    3    3    0  501 -0.90952367728E+02 -0.53339220335E+02 -0.57792228327E+03  0.58748077511E+03  0.47000000000E+01 0.  1.
          5    1    4    4  502    0  0.17193489324E+02  0.25307194497E+02  0.30995241462E+02  0.43804853175E+02  0.47000000000E+01 0. -1.
         -5    1    4    4    0  502  0.95777096645E+02  0.25691870709E+02 -0.11297786716E+03  0.15039751637E+03  0.47000000000E+01 0. -1.
<mgrwt>
<rscale>  0 0.45103690E+03</rscale>
<asrwt>0</asrwt>
<pdfrwt beam="1">  1       21 0.10624081E-01 0.45103690E+03</pdfrwt>
<pdfrwt beam="2">  1       21 0.11330421E+00 0.45103690E+03</pdfrwt>
<totfact> 0.40383308E+04</totfact>
</mgrwt>
</event>
<event>
 8    1  0.9373234E-006  0.3137264E+03  0.7546771E-02  0.1078573E+00
         21   -1    0    0  504  503  0.00000000000E+00  0.00000000000E+00  0.37267370682E+03  0.37267370682E+03  0.00000000000E+00 0.  1.
         21   -1    0    0  503  504 -0.00000000000E+00 -0.00000000000E+00 -0.66025777574E+02  0.66025777574E+02  0.00000000000E+00 0.  1.
         25    2    1    2    0    0 -0.20409382860E+02 -0.41917933320E+02  0.37948288245E+02  0.13870258852E+03  0.12499871775E+03 0.  0.
         25    2    1    2    0    0  0.20409382860E+02  0.41917933320E+02  0.26869964100E+03  0.29999689588E+03  0.12499993768E+03 0.  0.
          5    1    3    3  501    0 -0.22280578383E+02 -0.16780252443E+02 -0.44294269582E+02  0.52555431336E+02  0.47000000000E+01 0.  1.
         -5    1    3    3    0  501  0.18711955234E+01 -0.25137680877E+02  0.82242557827E+02  0.86147157182E+02  0.47000000000E+01 0.  1.
          5    1    4    4  502    0 -0.35340494602E+02  0.49514259778E+02  0.67335022469E+02  0.90866427964E+02  0.47000000000E+01 0. -1.
         -5    1    4    4    0  502  0.55749877462E+02 -0.75963264582E+01  0.20136461853E+03  0.20913046791E+03  0.47000000000E+01 0. -1.
<mgrwt>
<rscale>  0 0.31372645E+03</rscale>
<asrwt>0</asrwt>
<pdfrwt beam="1">  1       21 0.57334415E-01 0.31372645E+03</pdfrwt>
<pdfrwt beam="2">  1       21 0.10157812E-01 0.31372645E+03</pdfrwt>
<totfact> 0.21838742E+05</totfact>
</mgrwt>
</event>
<event>
 8    1  0.9373234E-006  0.4011803E+03  0.7546771E-02  0.1043372E+00
         21   -1    0    0  504  503  0.00000000000E+00  0.00000000000E+00  0.34014288486E+03  0.34014288486E+03  0.00000000000E+00 0. -1.
         21   -1    0    0  503  504 -0.00000000000E+00 -0.00000000000E+00 -0.11829264217E+03  0.11829264217E+03  0.00000000000E+00 0. -1.
         25    2    1    2    0    0 -0.36141862261E+02  0.15219592199E+03  0.97304071036E+02  0.22262474960E+03  0.12499545599E+03 0.  0.
         25    2    1    2    0    0  0.36141862261E+02 -0.15219592199E+03  0.12454617165E+03  0.23581077742E+03  0.12500056399E+03 0.  0.
          5    1    3    3  501    0 -0.57346246917E+02  0.74103471616E+02  0.10546856738E+03  0.14115815685E+03  0.47000000000E+01 0. -1.
         -5    1    3    3    0  501  0.21204384656E+02  0.78092450372E+02 -0.81644963433E+01  0.81466592750E+02  0.47000000000E+01 0. -1.
          5    1    4    4  502    0 -0.18176335815E+02 -0.26185870513E+02  0.88025808736E+02  0.93737463171E+02  0.47000000000E+01 0.  1.
         -5    1    4    4    0  502  0.54318198075E+02 -0.12601005148E+03  0.36520362919E+02  0.14207331425E+03  0.47000000000E+01 0.  1.
<mgrwt>
<rscale>  0 0.40118026E+03</rscale>
<asrwt>0</asrwt>
<pdfrwt beam="1">  1       21 0.52329674E-01 0.40118026E+03</pdfrwt>
<pdfrwt beam="2">  1       21 0.18198868E-01 0.40118026E+03</pdfrwt>
<totfact> 0.89575346E+04</totfact>
</mgrwt>
</event>
<event>
 8    1  0.9373234E-006  0.5678047E+03  0.7546771E-02  0.9974548E-01
         21   -1    0    0  504  503  0.00000000000E+00  0.00000000000E+00  0.40082462563E+02  0.40082462563E+02  0.00000000000E+00 0.  1.
         21   -1    0    0  503  504 -0.00000000000E+00 -0.00000000000E+00 -0.20108680071E+04  0.20108680071E+04  0.00000000000E+00 0.  1.
         25    2    1    2    0    0  0.23000950924E+03 -0.50518345643E+02 -0.63297320536E+03  0.68683060816E+03  0.12499891204E+03 0.  0.
         25    2    1    2    0    0 -0.23000950924E+03  0.50518345643E+02 -0.13378123391E+04  0.13641198615E+04  0.12499865642E+03 0.  0.
          5    1    3    3  501    0  0.73680648494E+02 -0.75488856748E+02 -0.30168777976E+03  0.31963262022E+03  0.47000000000E+01 0. -1.
         -5    1    3    3    0  501  0.15632886075E+03  0.24970511105E+02 -0.33128542560E+03  0.36719798793E+03  0.47000000000E+01 0. -1.
          5    1    4    4  502    0 -0.16128142826E+02 -0.32869682481E+02 -0.19760336127E+03  0.20102166899E+03  0.47000000000E+01 0. -1.
         -5    1    4    4    0  502 -0.21388136642E+03  0.83388028123E+02 -0.11402089779E+04  0.11630981925E+04  0.47000000000E+01 0. -1.
<mgrwt>
<rscale>  0 0.56780469E+03</rscale>
<asrwt>0</asrwt>
<pdfrwt beam="1">  1       21 0.61665318E-02 0.56780469E+03</pdfrwt>
<pdfrwt beam="2">  1       21 0.30936435E+00 0.56780469E+03</pdfrwt>
<totfact> 0.44683864E+03</totfact>
</mgrwt>
</event>
<event>
 8    1  0.9373234E-006  0.4064855E+03  0.7546771E-02  0.1041557E+00
         21   -1    0    0  504  503  0.00000000000E+00  0.00000000000E+00  0.14594965219E+03  0.14594965219E+03  0.00000000000E+00 0. -1.
         21   -1    0    0  503  504 -0.00000000000E+00 -0.00000000000E+00 -0.28302650386E+03  0.28302650386E+03  0.00000000000E+00 0. -1.
         25    2    1    2    0    0  0.97174783060E+01  0.13771366718E+03  0.17354379255E+02  0.18704633844E+03  0.12500269889E+03 0.  0.
         25    2    1    2    0    0 -0.97174783060E+01 -0.13771366718E+03 -0.15443123092E+03  0.24192981761E+03  0.12498619145E+03 0.  0.
          5    1    3    3  501    0 -0.46150078008E+02  0.16941861818E+02 -0.11722280976E+02  0.50757839328E+02  0.47000000000E+01 0. -1.
         -5    1    3    3    0  501  0.55867556314E+02  0.12077180536E+03  0.29076660231E+02  0.13628849911E+03  0.47000000000E+01 0. -1.
          5    1    4    4  502    0 -0.78206458397E+01 -0.17428807295E+01 -0.91579801495E+02  0.92049715787E+02  0.47000000000E+01 0.  1.
         -5    1    4    4    0  502 -0.18968324663E+01 -0.13597078645E+03 -0.62851429427E+02  0.14988010182E+03  0.47000000000E+01 0.  1.
<mgrwt>
<rscale>  0 0.40648552E+03</rscale>
<asrwt>0</asrwt>
<pdfrwt beam="1">  1       21 0.22453793E-01 0.40648552E+03</pdfrwt>
<pdfrwt beam="2">  1       21 0.43542538E-01 0.40648552E+03</pdfrwt>
<totfact> 0.88412587E+04</totfact>
</mgrwt>
</event>
<event>
 8    1  0.9373234E-006  0.4503816E+03  0.7546771E-02  0.1027608E+00
         21   -1    0    0  504  503  0.00000000000E+00  0.00000000000E+00  0.19201266928E+04  0.19201266928E+04  0.00000000000E+00 0.  1.
         21   -1    0    0  503  504 -0.00000000000E+00 -0.00000000000E+00 -0.26410179426E+02  0.26410179426E+02  0.00000000000E+00 0.  1.
         25    2    1    2    0    0  0.38977783431E+02  0.51776447884E+02  0.17064228492E+04  0.17122221152E+04  0.12500225373E+03 0.  0.
         25    2    1    2    0    0 -0.38977783431E+02 -0.51776447884E+02  0.18729366423E+03  0.23431475706E+03  0.12499768221E+03 0.  0.
          5    1    3    3  501    0  0.77475022947E+02  0.24151439616E+02  0.13744649384E+04  0.13768665978E+04  0.47000000000E+01 0.  1.
         -5    1    3    3    0  501 -0.38497239516E+02  0.27625008268E+02  0.33195791076E+03  0.33535551740E+03  0.47000000000E+01 0.  1.
          5    1    4    4  502    0  0.23992159816E+02 -0.25655973267E+02  0.15451197800E+03  0.15852411186E+03  0.47000000000E+01 0. -1.
         -5    1    4    4    0  502 -0.62969943247E+02 -0.26120474617E+02  0.32781686232E+02  0.75790645194E+02  0.47000000000E+01 0. -1.
<mgrwt>
<rscale>  0 0.45038157E+03</rscale>
<asrwt>0</asrwt>
<pdfrwt beam="1">  1       21 0.29540400E+00 0.45038157E+03</pdfrwt>
<pdfrwt beam="2">  1       21 0.40631060E-02 0.45038157E+03</pdfrwt>
<totfact> 0.11701141E+04</totfact>
</mgrwt>
</event>
<event>
 8    1  0.9373234E-006  0.3484216E+03  0.7546771E-02  0.1063265E+00
         21   -1    0    0  504  503  0.00000000000E+00  0.00000000000E+00  0.67094520363E+02  0.67094520363E+02  0.00000000000E+00 0.  1.
         21   -1    0    0  503  504 -0.00000000000E+00 -0.00000000000E+00 -0.45233805434E+03  0.45233805434E+03  0.00000000000E+00 0.  1.
         25    2    1    2    0    0 -0.44587021808E+02  0.87348569388E+02 -0.86090111727E+02  0.18070392637E+03  0.12499850631E+03 0.  0.
         25    2    1    2    0    0  0.44587021808E+02 -0.87348569388E+02 -0.29915342225E+03  0.33872864834E+03  0.12500620813E+03 0.  0.
          5    1    3    3  501    0 -0.22501235959E+02  0.11779567795E+03 -0.56691556838E+02  0.13273337930E+03  0.47000000000E+01 0. -1.
         -5    1    3    3    0  501 -0.22085785849E+02 -0.30447108563E+02 -0.29398554889E+02  0.47970547068E+02  0.47000000000E+01 0. -1.
          5    1    4    4  502    0 -0.39173256114E+02 -0.57453914771E+02 -0.13813327301E+03  0.15472035234E+03  0.47000000000E+01 0. -1.
         -5    1    4    4    0  502  0.83760277922E+02 -0.29894654617E+02 -0.16102014924E+03  0.18400829600E+03  0.47000000000E+01 0. -1.
<mgrwt>
<rscale>  0 0.34842161E+03</rscale>
<asrwt>0</asrwt>
<pdfrwt beam="1">  1       21 0.10322234E-01 0.34842161E+03</pdfrwt>
<pdfrwt beam="2">  1       21 0.69590469E-01 0.34842161E+03</pdfrwt>
<totfact> 0.13762774E+05</totfact>
</mgrwt>
</event>
<event>
 8    1  0.9373234E-006  0.5168767E+03  0.7546771E-02  0.1009465E+00
         21   -1    0    0  504  503  0.00000000000E+00  0.00000000000E+00  0.20562544901E+03  0.20562544901E+03  0.00000000000E+00 0.  1.
         21   -1    0    0  503  504 -0.00000000000E+00 -0.00000000000E+00 -0.32481579234E+03  0.32481579234E+03  0.00000000000E+00 0.  1.
         25    2    1    2    0    0 -0.51634961676E+02 -0.15144157497E+03 -0.22368083277E+03  0.30209307043E+03  0.12500555331E+03 0.  0.
         25    2    1    2    0    0  0.51634961676E+02  0.15144157497E+03  0.10449048944E+03  0.22834817091E+03  0.12499561944E+03 0.  0.
          5    1    3    3  501    0  0.33702053369E+02 -0.54423909790E+02 -0.34274065142E+02  0.72763946426E+02  0.47000000000E+01 0. -1.
         -5    1    3    3    0  501 -0.85337015044E+02 -0.97017665177E+02 -0.18940676763E+03  0.22932912401E+03  0.47000000000E+01 0. -1.
          5    1    4    4  502    0 -0.96686119119E+01  0.28810590950E+02  0.84244454379E+02  0.89681382130E+02  0.47000000000E+01 0.  1.
         -5    1    4    4    0  502  0.61303573587E+02  0.12263098402E+03  0.20246035063E+02  0.13866678878E+03  0.47000000000E+01 0.  1.
<mgrwt>
<rscale>  0 0.51687675E+03</rscale>
<asrwt>0</asrwt>
<pdfrwt beam="1">  1       21 0.31634685E-01 0.51687675E+03</pdfrwt>
<pdfrwt beam="2">  1       21 0.49971660E-01 0.51687675E+03</pdfrwt>
<totfact> 0.33002657E+04</totfact>
</mgrwt>
</event>
<event>
 8    1  0.9373234E-006  0.2625427E+03  0.7546771E-02  0.1105625E+00
         21   -1    0    0  504  503  0.00000000000E+00  0.00000000000E+00  0.16916017046E+03  0.16916017046E+03  0.00000000000E+00 0. -1.
         21   -1    0    0  503  504 -0.00000000000E+00 -0.00000000000E+00 -0.10186895664E+03  0.10186895664E+03  0.00000000000E+00 0. -1.
         25    2    1    2    0    0  0.30382472949E+01  0.39382894750E+02  0.40600966662E+02  0.13723410135E+03  0.12499806693E+03 0.  0.
         25    2    1    2    0    0 -0.30382472949E+01 -0.39382894750E+02  0.26690247150E+02  0.13379502575E+03  0.12501398432E+03 0.  0.
          5    1    3    3  501    0  0.29013181954E+02  0.68577287715E+02  0.57703087179E+02  0.94320439924E+02  0.47000000000E+01 0.  1.
         -5    1    3    3    0  501 -0.25974934659E+02 -0.29194392965E+02 -0.17102120517E+02  0.42913661430E+02  0.47000000000E+01 0.  1.
          5    1    4    4  502    0 -0.58342792591E+02 -0.32507456917E+02  0.37635684627E+02  0.76805930499E+02  0.47000000000E+01 0. -1.
         -5    1    4    4    0  502  0.55304545296E+02 -0.68754378336E+01 -0.10945437477E+02  0.56989095249E+02  0.47000000000E+01 0. -1.
<mgrwt>
<rscale>  0 0.26254272E+03</rscale>
<asrwt>0</asrwt>
<pdfrwt beam="1">  1       21 0.26024642E-01 0.26254272E+03</pdfrwt>
<pdfrwt beam="2">  1       21 0.15672147E-01 0.26254272E+03</pdfrwt>
<totfact> 0.50118850E+05</totfact>
</mgrwt>
</event>
<event>
 8    1  0.9373234E-006  0.2841208E+03  0.7546771E-02  0.1093459E+00
         21   -1    0    0  504  503  0.00000000000E+00  0.00000000000E+00  0.39587707935E+02  0.39587707935E+02  0.00000000000E+00 0.  1.
         21   -1    0    0  503  504 -0.00000000000E+00 -0.00000000000E+00 -0.50978335964E+03  0.50978335964E+03  0.00000000000E+00 0.  1.
         25    2    1    2    0    0 -0.25140979701E+02  0.34701534412E+02 -0.33594359844E+03  0.36100058887E+03  0.12500823365E+03 0.  0.
         25    2    1    2    0    0  0.25140979701E+02 -0.34701534412E+02 -0.13425205326E+03  0.18837047870E+03  0.12499423223E+03 0.  0.
          5    1    3    3  501    0  0.15757681916E+02  0.61947329911E+02 -0.92078256040E+02  0.11218855315E+03  0.47000000000E+01 0.  1.
         -5    1    3    3    0  501 -0.40898661617E+02 -0.27245795498E+02 -0.24386534240E+03  0.24881203572E+03  0.47000000000E+01 0.  1.
          5    1    4    4  502    0 -0.11249447032E+02 -0.59368018213E+02 -0.16829803365E+02  0.62900269684E+02  0.47000000000E+01 0. -1.
         -5    1    4    4    0  502  0.36390426733E+02  0.24666483800E+02 -0.11742224989E+03  0.12547020902E+03  0.47000000000E+01 0. -1.
<mgrwt>
<rscale>  0 0.28412078E+03</rscale>
<asrwt>0</asrwt>
<pdfrwt beam="1">  1       21 0.60904174E-02 0.28412078E+03</pdfrwt>
<pdfrwt beam="2">  1       21 0.78428199E-01 0.28412078E+03</pdfrwt>
<totfact> 0.26981127E+05</totfact>
</mgrwt>
</event>
<event>
 8    1  0.9373234E-006  0.4355855E+03  0.7546771E-02  0.1032110E+00
         21   -1    0    0  504  503  0.00000000000E+00  0.00000000000E+00  0.37817887489E+03  0.37817887489E+03  0.00000000000E+00 0. -1.
         21   -1    0    0  503  504 -0.00000000000E+00 -0.00000000000E+00 -0.12542656950E+03  0.12542656950E+03  0.00000000000E+00 0. -1.
         25    2    1    2    0    0  0.11864511710E+03  0.99549848636E+02  0.22862378345E+03  0.30311884892E+03  0.12500146415E+03 0.  0.
         25    2    1    2    0    0 -0.11864511710E+03 -0.99549848636E+02  0.24128521945E+02  0.20048659547E+03  0.12500341283E+03 0.  0.
          5    1    3    3  501    0  0.11574524176E+02  0.76598961040E+02  0.14779736796E+03  0.16693568348E+03  0.47000000000E+01 0.  1.
         -5    1    3    3    0  501  0.10707059292E+03  0.22950887596E+02  0.80826415490E+02  0.13618316544E+03  0.47000000000E+01 0.  1.
          5    1    4    4  502    0 -0.13581988719E+03 -0.61665216139E+02 -0.52763660204E+01  0.14933040774E+03  0.47000000000E+01 0.  1.
         -5    1    4    4    0  502  0.17174770091E+02 -0.37884632497E+02  0.29404887965E+02  0.51156187733E+02  0.47000000000E+01 0.  1.
<mgrwt>
<rscale>  0 0.43558549E+03</rscale>
<asrwt>0</asrwt>
<pdfrwt beam="1">  1       21 0.58181365E-01 0.43558549E+03</pdfrwt>
<pdfrwt beam="2">  1       21 0.19296395E-01 0.43558549E+03</pdfrwt>
<totfact> 0.63340480E+04</totfact>
</mgrwt>
</event>
<event>
 8    1  0.9373234E-006  0.3270960E+03  0.7546771E-02  0.1072429E+00
         21   -1    0    0  504  503  0.00000000000E+00  0.00000000000E+00  0.46575426832E+02  0.46575426832E+02  0.00000000000E+00 0. -1.
         21   -1    0    0  503  504 -0.00000000000E+00 -0.00000000000E+00 -0.57429297097E+03  0.57429297097E+03  0.00000000000E+00 0. -1.
         25    2    1    2    0    0 -0.38141638244E+02  0.41767170473E+02 -0.94917140143E+02  0.16683959355E+03  0.12500762131E+03 0.  0.
         25    2    1    2    0    0  0.38141638244E+02 -0.41767170473E+02 -0.43280040400E+03  0.45402880425E+03  0.12500673699E+03 0.  0.
          5    1    3    3  501    0  0.75939183159E+01  0.75640044050E+02 -0.73507023056E+02  0.10585110438E+03  0.47000000000E+01 0. -1.
         -5    1    3    3    0  501 -0.45735556560E+02 -0.33872873577E+02 -0.21410117087E+02  0.60988489175E+02  0.47000000000E+01 0. -1.
          5    1    4    4  502    0 -0.44723167721E+02 -0.22774949695E+02 -0.12825285489E+03  0.13780328317E+03  0.47000000000E+01 0. -1.
         -5    1    4    4    0  502  0.82864805965E+02 -0.18992220778E+02 -0.30454754911E+03  0.31622552108E+03  0.47000000000E+01 0. -1.
<mgrwt>
<rscale>  0 0.32709595E+03</rscale>
<asrwt>0</asrwt>
<pdfrwt beam="1">  1       21 0.71654503E-02 0.32709595E+03</pdfrwt>
<pdfrwt beam="2">  1       21 0.88352764E-01 0.32709595E+03</pdfrwt>
<totfact> 0.15296261E+05</totfact>
</mgrwt>
</event>
<event>
 8    1  0.9373234E-006  0.3058053E+03  0.7546771E-02  0.1082374E+00
         21   -1    0    0  504  503  0.00000000000E+00  0.00000000000E+00  0.24312595243E+03  0.24312595243E+03  0.00000000000E+00 0.  1.
         21   -1    0    0  503  504 -0.00000000000E+00 -0.00000000000E+00 -0.96160918610E+02  0.96160918610E+02  0.00000000000E+00 0.  1.
         25    2    1    2    0    0  0.81750861523E+01 -0.53709564672E+02  0.15037099477E+03  0.20294822865E+03  0.12499999230E+03 0.  0.
         25    2    1    2    0    0 -0.81750861523E+01  0.53709564672E+02 -0.34059609487E+01  0.13633864239E+03  0.12500030187E+03 0.  0.
          5    1    3    3  501    0  0.22963564913E+02 -0.41779472320E+01 -0.15988509654E+02  0.28679313059E+02  0.47000000000E+01 0.  1.
         -5    1    3    3    0  501 -0.14788478761E+02 -0.49531617440E+02  0.16635950442E+03  0.17426891559E+03  0.47000000000E+01 0.  1.
          5    1    4    4  502    0 -0.73928927591E+01 -0.68359555370E+01 -0.55330230431E+02  0.56435002889E+02  0.47000000000E+01 0. -1.
         -5    1    4    4    0  502 -0.78219339315E+00  0.60545520209E+02  0.51924269482E+02  0.79903639499E+02  0.47000000000E+01 0. -1.
<mgrwt>
<rscale>  0 0.30580526E+03</rscale>
<asrwt>0</asrwt>
<pdfrwt beam="1">  1       21 0.37403992E-01 0.30580526E+03</pdfrwt>
<pdfrwt beam="2">  1       21 0.14793988E-01 0.30580526E+03</pdfrwt>
<totfact> 0.26991218E+05</totfact>
</mgrwt>
</event>
<event>
 8    1  0.9373234E-006  0.2529374E+03  0.7546771E-02  0.1111462E+00
         21   -1    0    0  504  503  0.00000000000E+00  0.00000000000E+00  0.43213889878E+02  0.43213889878E+02  0.00000000000E+00 0. -1.
         21   -1    0    0  503  504 -0.00000000000E+00 -0.00000000000E+00 -0.37012022374E+03  0.37012022374E+03  0.00000000000E+00 0. -1.
         25    2    1    2    0    0 -0.10955697285E+02  0.79147509881E+01 -0.18570562507E+03  0.22426977524E+03  0.12501072881E+03 0.  0.
         25    2    1    2    0    0  0.10955697285E+02 -0.79147509881E+01 -0.14120070880E+03  0.18906433838E+03  0.12500005319E+03 0.  0.
          5    1    3    3  501    0 -0.11640503159E+01 -0.57360603673E+02 -0.10648008552E+03  0.12104417574E+03  0.47000000000E+01 0.  1.
         -5    1    3    3    0  501 -0.97916469695E+01  0.65275354661E+02 -0.79225539546E+02  0.10322559950E+03  0.47000000000E+01 0.  1.
          5    1    4    4  502    0  0.34256407877E+02  0.45275602272E+02 -0.10775227025E+03  0.12188528782E+03  0.47000000000E+01 0.  1.
         -5    1    4    4    0  502 -0.23300710591E+02 -0.53190353260E+02 -0.33448438549E+02  0.67179050569E+02  0.47000000000E+01 0.  1.
<mgrwt>
<rscale>  0 0.25293742E+03</rscale>
<asrwt>0</asrwt>
<pdfrwt beam="1">  1       21 0.66482905E-02 0.25293742E+03</pdfrwt>
<pdfrwt beam="2">  1       21 0.56941575E-01 0.25293742E+03</pdfrwt>
<totfact> 0.47301490E+05</totfact>
</mgrwt>
</event>
<event>
 8    1  0.9373234E-006  0.2810190E+03  0.7546771E-02  0.1095134E+00
         21   -1    0    0  504  503  0.00000000000E+00  0.00000000000E+00  0.30050996237E+02  0.30050996237E+02  0.00000000000E+00 0. -1.
         21   -1    0    0  503  504 -0.00000000000E+00 -0.00000000000E+00 -0.65698038831E+03  0.65698038831E+03  0.00000000000E+00 0. -1.
         25    2    1    2    0    0  0.28455434522E+02  0.51333751799E+02 -0.37629109232E+03  0.40082769417E+03  0.12499195343E+03 0.  0.
         25    2    1    2    0    0 -0.28455434522E+02 -0.51333751799E+02 -0.25063829975E+03  0.28620369038E+03  0.12509248282E+03 0.  0.
          5    1    3    3  501    0  0.61396022066E+02  0.27047064468E+02 -0.33786340534E+03  0.34449206942E+03  0.47000000000E+01 0.  1.
         -5    1    3    3    0  501 -0.32940587544E+02  0.24286687331E+02 -0.38427686977E+02  0.56335624747E+02  0.47000000000E+01 0.  1.
          5    1    4    4  502    0  0.36444411223E+02 -0.60248991992E+02 -0.10588200648E+03  0.12724474623E+03  0.47000000000E+01 0. -1.
         -5    1    4    4    0  502 -0.64899845745E+02  0.89152401923E+01 -0.14475629327E+03  0.15895894416E+03  0.47000000000E+01 0. -1.
<mgrwt>
<rscale>  0 0.28101897E+03</rscale>
<asrwt>0</asrwt>
<pdfrwt beam="1">  1       21 0.46232306E-02 0.28101897E+03</pdfrwt>
<pdfrwt beam="2">  1       21 0.10107390E+00 0.28101897E+03</pdfrwt>
<totfact> 0.23950470E+05</totfact>
</mgrwt>
</event>
<event>
 8    1  0.9373234E-006  0.2696786E+03  0.7546771E-02  0.1101464E+00
         21   -1    0    0  504  503  0.00000000000E+00  0.00000000000E+00  0.20221597732E+03  0.20221597732E+03  0.00000000000E+00 0.  1.
         21   -1    0    0  503  504 -0.00000000000E+00 -0.00000000000E+00 -0.89911980579E+02  0.89911980579E+02  0.00000000000E+00 0.  1.
         25    2    1    2    0    0  0.25316720745E+02  0.14288237703E+02  0.10096761336E+03  0.16329241430E+03  0.12499945414E+03 0.  0.
         25    2    1    2    0    0 -0.25316720745E+02 -0.14288237703E+02  0.11336383377E+02  0.12883554359E+03  0.12499997447E+03 0.  0.
          5    1    3    3  501    0 -0.49644877678E+01  0.66970627117E+02  0.50292932254E+02  0.84030828092E+02  0.47000000000E+01 0. -1.
         -5    1    3    3    0  501  0.30281208513E+02 -0.52682389414E+02  0.50674681106E+02  0.79261586210E+02  0.47000000000E+01 0. -1.
          5    1    4    4  502    0 -0.65773175232E+02 -0.19272919274E+02  0.39332245010E+02  0.79162311076E+02  0.47000000000E+01 0. -1.
         -5    1    4    4    0  502  0.40456454486E+02  0.49846815711E+01 -0.27995861634E+02  0.49673232516E+02  0.47000000000E+01 0. -1.
<mgrwt>
<rscale>  0 0.26967862E+03</rscale>
<asrwt>0</asrwt>
<pdfrwt beam="1">  1       21 0.31110150E-01 0.26967862E+03</pdfrwt>
<pdfrwt beam="2">  1       21 0.13832612E-01 0.26967862E+03</pdfrwt>
<totfact> 0.44408705E+05</totfact>
</mgrwt>
</event>
<event>
 8    1  0.9373234E-006  0.2623914E+03  0.7546771E-02  0.1105715E+00
         21   -1    0    0  504  503  0.00000000000E+00  0.00000000000E+00  0.19177604495E+03  0.19177604495E+03  0.00000000000E+00 0.  1.
         21   -1    0    0  503  504 -0.00000000000E+00 -0.00000000000E+00 -0.89752114083E+02  0.89752114083E+02  0.00000000000E+00 0.  1.
         25    2    1    2    0    0 -0.25802027100E+02 -0.30336851951E+02  0.50731397569E+02  0.14066527165E+03  0.12500789879E+03 0.  0.
         25    2    1    2    0    0  0.25802027100E+02  0.30336851951E+02  0.51292533294E+02  0.14086288738E+03  0.12500143951E+03 0.  0.
          5    1    3    3  501    0 -0.52288977369E+02  0.26388827913E+02 -0.18286474153E+01  0.58787254948E+02  0.47000000000E+01 0.  1.
         -5    1    3    3    0  501  0.26486950269E+02 -0.56725679863E+02  0.52560044985E+02  0.81878016703E+02  0.47000000000E+01 0.  1.
          5    1    4    4  502    0 -0.32227295513E+02  0.23985640549E+02  0.68737710939E+02  0.79755077793E+02  0.47000000000E+01 0.  1.
         -5    1    4    4    0  502  0.58029322613E+02  0.63512114015E+01 -0.17445177645E+02  0.61107809585E+02  0.47000000000E+01 0.  1.
<mgrwt>
<rscale>  0 0.26239135E+03</rscale>
<asrwt>0</asrwt>
<pdfrwt beam="1">  1       21 0.29504007E-01 0.26239135E+03</pdfrwt>
<pdfrwt beam="2">  1       21 0.13808018E-01 0.26239135E+03</pdfrwt>
<totfact> 0.49510462E+05</totfact>
</mgrwt>
</event>
<event>
 8    1  0.9373234E-006  0.3548361E+03  0.7546771E-02  0.1060647E+00
         21   -1    0    0  504  503  0.00000000000E+00  0.00000000000E+00  0.85494477093E+02  0.85494477093E+02  0.00000000000E+00 0. -1.
         21   -1    0    0  503  504 -0.00000000000E+00 -0.00000000000E+00 -0.36817775157E+03  0.36817775157E+03  0.00000000000E+00 0. -1.
         25    2    1    2    0    0 -0.30307632639E+02 -0.55318787068E+02 -0.28066081103E+03  0.31364684721E+03  0.12500053248E+03 0.  0.
         25    2    1    2    0    0  0.30307632639E+02  0.55318787068E+02 -0.20224634483E+01  0.14002538145E+03  0.12499718514E+03 0.  0.
          5    1    3    3  501    0 -0.48205918486E+02 -0.64177167068E+02 -0.28185238865E+03  0.29309619297E+03  0.47000000000E+01 0. -1.
         -5    1    3    3    0  501  0.17898285847E+02  0.88583800003E+01  0.11915776177E+01  0.20550654240E+02  0.47000000000E+01 0. -1.
          5    1    4    4  502    0  0.75254277012E+02  0.19275835654E+02  0.16045639083E+02  0.79462674145E+02  0.47000000000E+01 0.  1.
         -5    1    4    4    0  502 -0.44946644373E+02  0.36042951415E+02 -0.18068102531E+02  0.60562707305E+02  0.47000000000E+01 0.  1.
<mgrwt>
<rscale>  0 0.35483610E+03</rscale>
<asrwt>0</asrwt>
<pdfrwt beam="1">  1       21 0.13152997E-01 0.35483610E+03</pdfrwt>
<pdfrwt beam="2">  1       21 0.56642730E-01 0.35483610E+03</pdfrwt>
<totfact> 0.13932767E+05</totfact>
</mgrwt>
</event>
<event>
 8    1  0.9373234E-006  0.2664425E+03  0.7546771E-02  0.1103333E+00
         21   -1    0    0  504  503  0.00000000000E+00  0.00000000000E+00  0.67662643790E+03  0.67662643790E+03  0.00000000000E+00 0.  1.
         21   -1    0    0  503  504 -0.00000000000E+00 -0.00000000000E+00 -0.26229982534E+02  0.26229982534E+02  0.00000000000E+00 0.  1.
         25    2    1    2    0    0  0.35904190627E+02 -0.14072708246E+02  0.39155987285E+03  0.41283881795E+03  0.12501841286E+03 0.  0.
         25    2    1    2    0    0 -0.35904190627E+02  0.14072708246E+02  0.25883658252E+03  0.29001760249E+03  0.12500672495E+03 0.  0.
          5    1    3    3  501    0 -0.11753624589E+01  0.36510119326E+02  0.35113574914E+02  0.50886377679E+02  0.47000000000E+01 0.  1.
         -5    1    3    3    0  501  0.37079553086E+02 -0.50582827572E+02  0.35644629794E+03  0.36195244027E+03  0.47000000000E+01 0.  1.
          5    1    4    4  502    0 -0.73040742740E+02  0.39628338724E+02  0.19197950263E+03  0.20924525027E+03  0.47000000000E+01 0. -1.
         -5    1    4    4    0  502  0.37136552113E+02 -0.25555630478E+02  0.66857079883E+02  0.80772352216E+02  0.47000000000E+01 0. -1.
<mgrwt>
<rscale>  0 0.26644249E+03</rscale>
<asrwt>0</asrwt>
<pdfrwt beam="1">  1       21 0.10409636E+00 0.26644249E+03</pdfrwt>
<pdfrwt beam="2">  1       21 0.40353824E-02 0.26644249E+03</pdfrwt>
<totfact> 0.28193713E+05</totfact>
</mgrwt>
</event>
<event>
 8    1  0.9373234E-006  0.3024748E+03  0.7546771E-02  0.1084010E+00
         21   -1    0    0  504  503  0.00000000000E+00  0.00000000000E+00  0.38618798028E+02  0.38618798028E+02  0.00000000000E+00 0.  1.
         21   -1    0    0  503  504 -0.00000000000E+00 -0.00000000000E+00 -0.59226989873E+03  0.59226989873E+03  0.00000000000E+00 0.  1.
         25    2    1    2    0    0 -0.22924472451E+02 -0.81694252821E+02 -0.26231103031E+03  0.30270686461E+03  0.12499954751E+03 0.  0.
         25    2    1    2    0    0  0.22924472451E+02  0.81694252821E+02 -0.29134007039E+03  0.32818183215E+03  0.12499918382E+03 0.  0.
          5    1    3    3  501    0 -0.31529838014E+02  0.22590466823E+02 -0.11863283933E+03  0.12490116270E+03  0.47000000000E+01 0. -1.
         -5    1    3    3    0  501  0.86053655624E+01 -0.10428471964E+03 -0.14367819098E+03  0.17780570191E+03  0.47000000000E+01 0. -1.
          5    1    4    4  502    0  0.13859403969E+02  0.52418610874E+02 -0.24735960087E+02  0.59780862872E+02  0.47000000000E+01 0.  1.
         -5    1    4    4    0  502  0.90650684820E+01  0.29275641947E+02 -0.26660411030E+03  0.26840096928E+03  0.47000000000E+01 0.  1.
<mgrwt>
<rscale>  0 0.30247480E+03</rscale>
<asrwt>0</asrwt>
<pdfrwt beam="1">  1       21 0.59413541E-02 0.30247480E+03</pdfrwt>
<pdfrwt beam="2">  1       21 0.91118438E-01 0.30247480E+03</pdfrwt>
<totfact> 0.19824998E+05</totfact>
</mgrwt>
</event>
<event>
 8    1  0.9373234E-006  0.2805165E+03  0.7546771E-02  0.1095407E+00
         21   -1    0    0  504  503  0.00000000000E+00  0.00000000000E+00  0.64252579379E+03  0.64252579379E+03  0.00000000000E+00 0. -1.
         21   -1    0    0  503  504 -0.00000000000E+00 -0.00000000000E+00 -0.30617262048E+02  0.30617262048E+02  0.00000000000E+00 0. -1.
         25    2    1    2    0    0 -0.19312412327E+02  0.51199583385E+02  0.38376685559E+03  0.40730776391E+03  0.12501299329E+03 0.  0.
         25    2    1    2    0    0  0.19312412327E+02 -0.51199583385E+02  0.22814167616E+03  0.26583529193E+03  0.12500164569E+03 0.  0.
          5    1    3    3  501    0 -0.26056450292E+01 -0.10476448645E+02 -0.53631502167E+01  0.12938266595E+02  0.47000000000E+01 0.  1.
         -5    1    3    3    0  501 -0.16706767298E+02  0.61676032030E+02  0.38913000580E+03  0.39436949732E+03  0.47000000000E+01 0.  1.
          5    1    4    4  502    0  0.45060831835E+01 -0.63171511257E+02  0.23623237365E+03  0.24461964144E+03  0.47000000000E+01 0. -1.
         -5    1    4    4    0  502  0.14806329143E+02  0.11971927872E+02 -0.80906974878E+01  0.21215650485E+02  0.47000000000E+01 0. -1.
<mgrwt>
<rscale>  0 0.28051653E+03</rscale>
<asrwt>0</asrwt>
<pdfrwt beam="1">  1       21 0.98850112E-01 0.28051653E+03</pdfrwt>
<pdfrwt beam="2">  1       21 0.47103485E-02 0.28051653E+03</pdfrwt>
<totfact> 0.24475871E+05</totfact>
</mgrwt>
</event>
<event>
 8    1  0.9373234E-006  0.3898965E+03  0.7546771E-02  0.1047335E+00
         21   -1    0    0  504  503  0.00000000000E+00  0.00000000000E+00  0.13836863080E+03  0.13836863080E+03  0.00000000000E+00 0.  1.
         21   -1    0    0  503  504 -0.00000000000E+00 -0.00000000000E+00 -0.27466353339E+03  0.27466353339E+03  0.00000000000E+00 0.  1.
         25    2    1    2    0    0  0.43900808055E+02 -0.63889387989E+02  0.67392079254E+02  0.16179162689E+03  0.12500281333E+03 0.  0.
         25    2    1    2    0    0 -0.43900808055E+02  0.63889387989E+02 -0.20368698184E+03  0.25124053731E+03  0.12499714464E+03 0.  0.
          5    1    3    3  501    0  0.16040961741E+02 -0.77927682939E+02  0.92043070490E+02  0.12175406789E+03  0.47000000000E+01 0. -1.
         -5    1    3    3    0  501  0.27859846315E+02  0.14038294950E+02 -0.24650991236E+02  0.40037559000E+02  0.47000000000E+01 0. -1.
          5    1    4    4  502    0 -0.11982484231E+02  0.12469933221E+02 -0.18758408066E+03  0.18843820335E+03  0.47000000000E+01 0.  1.
         -5    1    4    4    0  502 -0.31918323824E+02  0.51419454768E+02 -0.16102901184E+02  0.62802333961E+02  0.47000000000E+01 0.  1.
<mgrwt>
<rscale>  0 0.38989648E+03</rscale>
<asrwt>0</asrwt>
<pdfrwt beam="1">  1       21 0.21287482E-01 0.38989648E+03</pdfrwt>
<pdfrwt beam="2">  1       21 0.42255928E-01 0.38989648E+03</pdfrwt>
<totfact> 0.10457349E+05</totfact>
</mgrwt>
</event>
<event>
 8    1  0.9373234E-006  0.3258308E+03  0.7546771E-02  0.1072997E+00
         21   -1    0    0  504  503  0.00000000000E+00  0.00000000000E+00  0.61951118642E+02  0.61951118642E+02  0.00000000000E+00 0.  1.
         21   -1    0    0  503  504 -0.00000000000E+00 -0.00000000000E+00 -0.42842528595E+03  0.42842528595E+03  0.00000000000E+00 0.  1.
         25    2    1    2    0    0  0.27307912901E+02  0.67609118886E+02 -0.29586558577E+03  0.32936203017E+03  0.12500474793E+03 0.  0.
         25    2    1    2    0    0 -0.27307912901E+02 -0.67609118886E+02 -0.70608581535E+02  0.16101437443E+03  0.12499336751E+03 0.  0.
          5    1    3    3  501    0  0.49379573203E+01  0.75310154623E+02 -0.29572604946E+03  0.30524087069E+03  0.47000000000E+01 0. -1.
         -5    1    3    3    0  501  0.22369955581E+02 -0.77010357377E+01 -0.13953631787E+00  0.24121159477E+02  0.47000000000E+01 0. -1.
          5    1    4    4  502    0 -0.38081547178E+02 -0.90191939953E+02 -0.14084476716E+02  0.99021476218E+02  0.47000000000E+01 0.  1.
         -5    1    4    4    0  502  0.10773634277E+02  0.22582821067E+02 -0.56524104819E+02  0.61992898210E+02  0.47000000000E+01 0.  1.
<mgrwt>
<rscale>  0 0.32583079E+03</rscale>
<asrwt>0</asrwt>
<pdfrwt beam="1">  1       21 0.95309418E-02 0.32583079E+03</pdfrwt>
<pdfrwt beam="2">  1       21 0.65911579E-01 0.32583079E+03</pdfrwt>
<totfact> 0.17999037E+05</totfact>
</mgrwt>
</event>
<event>
 8    1  0.9373234E-006  0.2896089E+03  0.7546771E-02  0.1090554E+00
         21   -1    0    0  504  503  0.00000000000E+00  0.00000000000E+00  0.80389400682E+03  0.80389400682E+03  0.00000000000E+00 0. -1.
         21   -1    0    0  503  504 -0.00000000000E+00 -0.00000000000E+00 -0.26083452420E+02  0.26083452420E+02  0.00000000000E+00 0. -1.
         25    2    1    2    0    0 -0.14269800899E+02  0.70955637549E+02  0.35958645027E+03  0.38751302304E+03  0.12500239233E+03 0.  0.
         25    2    1    2    0    0  0.14269800899E+02 -0.70955637549E+02  0.41822410413E+03  0.44246443620E+03  0.12500018524E+03 0.  0.
          5    1    3    3  501    0 -0.52290449831E+01  0.35891848976E+02  0.34695237226E+03  0.34887477173E+03  0.47000000000E+01 0. -1.
         -5    1    3    3    0  501 -0.90407559159E+01  0.35063788573E+02  0.12634078008E+02  0.38638251302E+02  0.47000000000E+01 0. -1.
          5    1    4    4  502    0  0.16382959842E+02 -0.10501521460E+03  0.35325777087E+03  0.36893053459E+03  0.47000000000E+01 0. -1.
         -5    1    4    4    0  502 -0.21131589432E+01  0.34059577050E+02  0.64966333253E+02  0.73533901609E+02  0.47000000000E+01 0. -1.
<mgrwt>
<rscale>  0 0.28960892E+03</rscale>
<asrwt>0</asrwt>
<pdfrwt beam="1">  1       21 0.12367598E+00 0.28960892E+03</pdfrwt>
<pdfrwt beam="2">  1       21 0.40128394E-02 0.28960892E+03</pdfrwt>
<totfact> 0.18487939E+05</totfact>
</mgrwt>
</event>
<event>
 8    1  0.9373234E-006  0.2700254E+03  0.7546771E-02  0.1101265E+00
         21   -1    0    0  504  503  0.00000000000E+00  0.00000000000E+00  0.34440015810E+03  0.34440015810E+03  0.00000000000E+00 0.  1.
         21   -1    0    0  503  504 -0.00000000000E+00 -0.00000000000E+00 -0.52928054267E+02  0.52928054267E+02  0.00000000000E+00 0.  1.
         25    2    1    2    0    0 -0.35418896720E+02  0.35342401418E+02  0.13044842919E+03  0.18747229837E+03  0.12500194557E+03 0.  0.
         25    2    1    2    0    0  0.35418896720E+02 -0.35342401418E+02  0.16102367464E+03  0.20985591400E+03  0.12492916898E+03 0.  0.
          5    1    3    3  501    0  0.25796862646E+02 -0.28080973065E+02  0.13020461776E+02  0.40566508298E+02  0.47000000000E+01 0.  1.
         -5    1    3    3    0  501 -0.61215759366E+02  0.63423374483E+02  0.11742796742E+03  0.14690579007E+03  0.47000000000E+01 0.  1.
          5    1    4    4  502    0  0.42289407954E+02  0.26986998572E+01  0.16527282071E+03  0.17068354423E+03  0.47000000000E+01 0. -1.
         -5    1    4    4    0  502 -0.68705112342E+01 -0.38041101275E+02 -0.42491460654E+01  0.39172369767E+02  0.47000000000E+01 0. -1.
<mgrwt>
<rscale>  0 0.27002541E+03</rscale>
<asrwt>0</asrwt>
<pdfrwt beam="1">  1       21 0.52984638E-01 0.27002541E+03</pdfrwt>
<pdfrwt beam="2">  1       21 0.81427778E-02 0.27002541E+03</pdfrwt>
<totfact> 0.38593868E+05</totfact>
</mgrwt>
</event>
<event>
 8    1  0.9373234E-006  0.4022391E+03  0.7546771E-02  0.1043007E+00
         21   -1    0    0  504  503  0.00000000000E+00  0.00000000000E+00  0.70512435539E+02  0.70512435539E+02  0.00000000000E+00 0. -1.
         21   -1    0    0  503  504 -0.00000000000E+00 -0.00000000000E+00 -0.57364463469E+03  0.57364463469E+03  0.00000000000E+00 0. -1.
         25    2    1    2    0    0  0.61662382976E+02 -0.13854583556E+03 -0.18313851286E+03  0.26863350404E+03  0.12500818602E+03 0.  0.
         25    2    1    2    0    0 -0.61662382976E+02  0.13854583556E+03 -0.31999368629E+03  0.37552356619E+03  0.12499916589E+03 0.  0.
          5    1    3    3  501    0  0.47334389362E+01 -0.13716117574E+03 -0.11079405933E+03  0.17644547928E+03  0.47000000000E+01 0.  1.
         -5    1    3    3    0  501  0.56928944040E+02 -0.13846598195E+01 -0.72344453533E+02  0.92188024761E+02  0.47000000000E+01 0.  1.
          5    1    4    4  502    0 -0.58578013381E+02  0.76005667175E+02 -0.72969702410E+02  0.12064374233E+03  0.47000000000E+01 0.  1.
         -5    1    4    4    0  502 -0.30843695953E+01  0.62540168385E+02 -0.24702398388E+03  0.25487982385E+03  0.47000000000E+01 0.  1.
<mgrwt>
<rscale>  0 0.40223913E+03</rscale>
<asrwt>0</asrwt>
<pdfrwt beam="1">  1       21 0.10848067E-01 0.40223913E+03</pdfrwt>
<pdfrwt beam="2">  1       21 0.88253019E-01 0.40223913E+03</pdfrwt>
<totfact> 0.72121664E+04</totfact>
</mgrwt>
</event>
<event>
 8    1  0.9373234E-006  0.2545134E+03  0.7546771E-02  0.1110485E+00
         21   -1    0    0  504  503  0.00000000000E+00  0.00000000000E+00  0.89127879396E+02  0.89127879396E+02  0.00000000000E+00 0. -1.
         21   -1    0    0  503  504 -0.00000000000E+00 -0.00000000000E+00 -0.18169705479E+03  0.18169705479E+03  0.00000000000E+00 0. -1.
         25    2    1    2    0    0  0.23791092842E+02 -0.10077185683E+00 -0.48076045325E+02  0.13602415322E+03  0.12500095149E+03 0.  0.
         25    2    1    2    0    0 -0.23791092842E+02  0.10077185683E+00 -0.44493130067E+02  0.13480078096E+03  0.12500234266E+03 0.  0.
          5    1    3    3  501    0  0.47476271776E+02  0.45820322787E+02 -0.51786987943E+02  0.84008811933E+02  0.47000000000E+01 0.  1.
         -5    1    3    3    0  501 -0.23685178934E+02 -0.45921094644E+02  0.37109426183E+01  0.52015341290E+02  0.47000000000E+01 0.  1.
          5    1    4    4  502    0  0.28755138561E+02  0.12097757371E+02  0.29463565249E+02  0.43167179712E+02  0.47000000000E+01 0.  1.
         -5    1    4    4    0  502 -0.52546231403E+02 -0.11996985514E+02 -0.73956695317E+02  0.91633601251E+02  0.47000000000E+01 0.  1.
<mgrwt>
<rscale>  0 0.25451344E+03</rscale>
<asrwt>0</asrwt>
<pdfrwt beam="1">  1       21 0.13711982E-01 0.25451344E+03</pdfrwt>
<pdfrwt beam="2">  1       21 0.27953393E-01 0.25451344E+03</pdfrwt>
<totfact> 0.55794204E+05</totfact>
</mgrwt>
</event>
<event>
 8    1  0.9373234E-006  0.2630576E+03  0.7546771E-02  0.1105320E+00
         21   -1    0    0  504  503  0.00000000000E+00  0.00000000000E+00  0.16437160888E+03  0.16437160888E+03  0.00000000000E+00 0.  1.
         21   -1    0    0  503  504 -0.00000000000E+00 -0.00000000000E+00 -0.10524827387E+03  0.10524827387E+03  0.00000000000E+00 0.  1.
         25    2    1    2    0    0 -0.39149076555E+02 -0.11537211960E+02  0.32699105222E+02  0.13549551362E+03  0.12499618104E+03 0.  0.
         25    2    1    2    0    0  0.39149076555E+02  0.11537211960E+02  0.26424229792E+02  0.13412436913E+03  0.12500139607E+03 0.  0.
          5    1    3    3  501    0 -0.71565076222E+02 -0.31732265740E+02 -0.87804276093E+01  0.78915668486E+02  0.47000000000E+01 0.  1.
         -5    1    3    3    0  501  0.32415999666E+02  0.20195053780E+02  0.41479532831E+02  0.56579845135E+02  0.47000000000E+01 0.  1.
          5    1    4    4  502    0 -0.51909879984E+01  0.24913298238E+02 -0.43207724832E+02  0.50364831685E+02  0.47000000000E+01 0. -1.
         -5    1    4    4    0  502  0.44340064554E+02 -0.13376086278E+02  0.69631954624E+02  0.83759537448E+02  0.47000000000E+01 0. -1.
<mgrwt>
<rscale>  0 0.26305762E+03</rscale>
<asrwt>0</asrwt>
<pdfrwt beam="1">  1       21 0.25287940E-01 0.26305762E+03</pdfrwt>
<pdfrwt beam="2">  1       21 0.16192042E-01 0.26305762E+03</pdfrwt>
<totfact> 0.49875901E+05</totfact>
</mgrwt>
</event>
<event>
 8    1  0.9373234E-006  0.3559444E+03  0.7546771E-02  0.1060201E+00
         21   -1    0    0  504  503  0.00000000000E+00  0.00000000000E+00  0.13732950177E+04  0.13732950177E+04  0.00000000000E+00 0.  1.
         21   -1    0    0  503  504 -0.00000000000E+00 -0.00000000000E+00 -0.23064316423E+02  0.23064316423E+02  0.00000000000E+00 0.  1.
         25    2    1    2    0    0 -0.68284882638E+02 -0.10236887677E+03  0.79331125168E+03  0.81247145968E+03  0.12499967450E+03 0.  0.
         25    2    1    2    0    0  0.68284882638E+02  0.10236887677E+03  0.55691944959E+03  0.58388787444E+03  0.12499425769E+03 0.  0.
          5    1    3    3  501    0 -0.56067696054E+02 -0.46752604690E+01  0.49699651929E+03  0.50019303753E+03  0.47000000000E+01 0. -1.
         -5    1    3    3    0  501 -0.12217186584E+02 -0.97693616296E+02  0.29631473239E+03  0.31227842216E+03  0.47000000000E+01 0. -1.
          5    1    4    4  502    0  0.34389883121E+02  0.76782216754E+02  0.52185583234E+03  0.52861495686E+03  0.47000000000E+01 0.  1.
         -5    1    4    4    0  502  0.33894999517E+02  0.25586660011E+02  0.35063617255E+02  0.55272917579E+02  0.47000000000E+01 0.  1.
<mgrwt>
<rscale>  0 0.35594444E+03</rscale>
<asrwt>0</asrwt>
<pdfrwt beam="1">  1       21 0.21127609E+00 0.35594444E+03</pdfrwt>
<pdfrwt beam="2">  1       21 0.35483574E-02 0.35594444E+03</pdfrwt>
<totfact> 0.50218378E+04</totfact>
</mgrwt>
</event>
<event>
 8    1  0.9373234E-006  0.2582985E+03  0.7546771E-02  0.1108170E+00
         21   -1    0    0  504  503  0.00000000000E+00  0.00000000000E+00  0.36160715619E+03  0.36160715619E+03  0.00000000000E+00 0.  1.
         21   -1    0    0  503  504 -0.00000000000E+00 -0.00000000000E+00 -0.46126091573E+02  0.46126091573E+02  0.00000000000E+00 0.  1.
         25    2    1    2    0    0 -0.11720141665E+02  0.26991137033E+02  0.13604103743E+03  0.18708535934E+03  0.12501153792E+03 0.  0.
         25    2    1    2    0    0  0.11720141665E+02 -0.26991137033E+02  0.17944002719E+03  0.22064788843E+03  0.12498353537E+03 0.  0.
          5    1    3    3  501    0  0.34001610593E+02  0.61489904419E+02  0.66350050479E+02  0.96755036391E+02  0.47000000000E+01 0. -1.
         -5    1    3    3    0  501 -0.45721752259E+02 -0.34498767386E+02  0.69690986953E+02  0.90330322944E+02  0.47000000000E+01 0. -1.
          5    1    4    4  502    0 -0.26974710912E+02  0.36768808925E+02  0.10772015097E+03  0.11706964279E+03  0.47000000000E+01 0. -1.
         -5    1    4    4    0  502  0.38694852578E+02 -0.63759945959E+02  0.71719876216E+02  0.10357824564E+03  0.47000000000E+01 0. -1.
<mgrwt>
<rscale>  0 0.25829847E+03</rscale>
<asrwt>0</asrwt>
<pdfrwt beam="1">  1       21 0.55631868E-01 0.25829847E+03</pdfrwt>
<pdfrwt beam="2">  1       21 0.70963220E-02 0.25829847E+03</pdfrwt>
<totfact> 0.44346698E+05</totfact>
</mgrwt>
</event>
<event>
 8    1  0.9373234E-006  0.3061902E+03  0.7546771E-02  0.1082186E+00
         21   -1    0    0  504  503  0.00000000000E+00  0.00000000000E+00  0.28221665443E+03  0.28221665443E+03  0.00000000000E+00 0.  1.
         21   -1    0    0  503  504 -0.00000000000E+00 -0.00000000000E+00 -0.83050069527E+02  0.83050069527E+02  0.00000000000E+00 0.  1.
         25    2    1    2    0    0 -0.72447337508E+02  0.59441628098E+01  0.15962860869E+03  0.21538082640E+03  0.12499463143E+03 0.  0.
         25    2    1    2    0    0  0.72447337508E+02 -0.59441628098E+01  0.39537976213E+02  0.14988589755E+03  0.12497432112E+03 0.  0.
          5    1    3    3  501    0 -0.14027100417E+02 -0.43432867859E+02  0.95482975315E+01  0.46866123611E+02  0.47000000000E+01 0. -1.
         -5    1    3    3    0  501 -0.58420237091E+02  0.49377030669E+02  0.15008031116E+03  0.16851470279E+03  0.47000000000E+01 0. -1.
          5    1    4    4  502    0  0.10387226619E+03  0.16835586276E+02  0.25803928503E+02  0.10844730229E+03  0.47000000000E+01 0. -1.
         -5    1    4    4    0  502 -0.31424928678E+02 -0.22779749086E+02  0.13734047711E+02  0.41438595263E+02  0.47000000000E+01 0. -1.
<mgrwt>
<rscale>  0 0.30619022E+03</rscale>
<asrwt>0</asrwt>
<pdfrwt beam="1">  1       21 0.43417946E-01 0.30619022E+03</pdfrwt>
<pdfrwt beam="2">  1       21 0.12776934E-01 0.30619022E+03</pdfrwt>
<totfact> 0.26008708E+05</totfact>
</mgrwt>
</event>
<event>
 8    1  0.9373234E-006  0.3564840E+03  0.7546771E-02  0.1059985E+00
         21   -1    0    0  504  503  0.00000000000E+00  0.00000000000E+00  0.12191362668E+03  0.12191362668E+03  0.00000000000E+00 0. -1.
         21   -1    0    0  503  504 -0.00000000000E+00 -0.00000000000E+00 -0.26059606228E+03  0.26059606228E+03  0.00000000000E+00 0. -1.
         25    2    1    2    0    0  0.83510995776E+02 -0.89579405575E+02 -0.32984701037E+02  0.17806968613E+03  0.12498906471E+03 0.  0.
         25    2    1    2    0    0 -0.83510995776E+02  0.89579405575E+02 -0.10569773456E+03  0.20444000283E+03  0.12500058939E+03 0.  0.
          5    1    3    3  501    0  0.47087340656E+02 -0.60308981878E+02 -0.80570630798E+02  0.11121199347E+03  0.47000000000E+01 0. -1.
         -5    1    3    3    0  501  0.36423655120E+02 -0.29270423697E+02  0.47585929761E+02  0.66857692653E+02  0.47000000000E+01 0. -1.
          5    1    4    4  502    0  0.83593434115E+01  0.64435496827E+02 -0.43673341817E+01  0.65291465609E+02  0.47000000000E+01 0. -1.
         -5    1    4    4    0  502 -0.91870339187E+02  0.25143908748E+02 -0.10133040038E+03  0.13914853722E+03  0.47000000000E+01 0. -1.
<mgrwt>
<rscale>  0 0.35648400E+03</rscale>
<asrwt>0</asrwt>
<pdfrwt beam="1">  1       21 0.18755943E-01 0.35648400E+03</pdfrwt>
<pdfrwt beam="2">  1       21 0.40091701E-01 0.35648400E+03</pdfrwt>
<totfact> 0.14919359E+05</totfact>
</mgrwt>
</event>
<event>
 8    1  0.9373234E-006  0.2771778E+03  0.7546771E-02  0.1097240E+00
         21   -1    0    0  504  503  0.00000000000E+00  0.00000000000E+00  0.57751143477E+03  0.57751143477E+03  0.00000000000E+00 0. -1.
         21   -1    0    0  503  504 -0.00000000000E+00 -0.00000000000E+00 -0.33258020047E+02  0.33258020047E+02  0.00000000000E+00 0. -1.
         25    2    1    2    0    0 -0.52371815881E+02  0.25664518515E+02  0.30084181715E+03  0.33096094169E+03  0.12501148495E+03 0.  0.
         25    2    1    2    0    0  0.52371815881E+02 -0.25664518515E+02  0.24341159757E+03  0.27980851313E+03  0.12506847555E+03 0.  0.
          5    1    3    3  501    0 -0.12411552007E+02  0.56530724282E+00 -0.99342569779E+01  0.16587515100E+02  0.47000000000E+01 0. -1.
         -5    1    3    3    0  501 -0.39960263874E+02  0.25099211272E+02  0.31077607413E+03  0.31437342659E+03  0.47000000000E+01 0. -1.
          5    1    4    4  502    0  0.35865369544E+02  0.39534717305E+02  0.17792569729E+03  0.18581970391E+03  0.47000000000E+01 0.  1.
         -5    1    4    4    0  502  0.16506446337E+02 -0.65199235820E+02  0.65485900282E+02  0.93988809216E+02  0.47000000000E+01 0.  1.
<mgrwt>
<rscale>  0 0.27717783E+03</rscale>
<asrwt>0</asrwt>
<pdfrwt beam="1">  1       21 0.88847906E-01 0.27717783E+03</pdfrwt>
<pdfrwt beam="2">  1       21 0.51166189E-02 0.27717783E+03</pdfrwt>
<totfact> 0.27356122E+05</totfact>
</mgrwt>
</event>
<event>
 8    1  0.9373234E-006  0.2529355E+03  0.7546771E-02  0.1111464E+00
         21   -1    0    0  504  503  0.00000000000E+00  0.00000000000E+00  0.20282853824E+03  0.20282853824E+03  0.00000000000E+00 0.  1.
         21   -1    0    0  503  504 -0.00000000000E+00 -0.00000000000E+00 -0.78855203489E+02  0.78855203489E+02  0.00000000000E+00 0.  1.
         25    2    1    2    0    0  0.16819938808E+02 -0.23786180603E+01  0.52039997024E+02  0.13646834594E+03  0.12500751973E+03 0.  0.
         25    2    1    2    0    0 -0.16819938808E+02  0.23786180603E+01  0.71933337726E+02  0.14521539579E+03  0.12499815171E+03 0.  0.
          5    1    3    3  501    0  0.54909971846E+02  0.39351760053E+02  0.17002433454E+02  0.69820045622E+02  0.47000000000E+01 0.  1.
         -5    1    3    3    0  501 -0.38090033038E+02 -0.41730378113E+02  0.35037563571E+02  0.66648300318E+02  0.47000000000E+01 0.  1.
          5    1    4    4  502    0 -0.18476358974E+02  0.62558559709E+02  0.42885505661E+02  0.78206175137E+02  0.47000000000E+01 0.  1.
         -5    1    4    4    0  502  0.16564201662E+01 -0.60179941648E+02  0.29047832065E+02  0.67009220651E+02  0.47000000000E+01 0.  1.
<mgrwt>
<rscale>  0 0.25293545E+03</rscale>
<asrwt>0</asrwt>
<pdfrwt beam="1">  1       21 0.31204390E-01 0.25293545E+03</pdfrwt>
<pdfrwt beam="2">  1       21 0.12131570E-01 0.25293545E+03</pdfrwt>
<totfact> 0.56158780E+05</totfact>
</mgrwt>
</event>
<event>
 8    1  0.9373234E-006  0.3562647E+03  0.7546771E-02  0.1060073E+00
         21   -1    0    0  504  503  0.00000000000E+00  0.00000000000E+00  0.35379620620E+03  0.35379620620E+03  0.00000000000E+00 0.  1.
         21   -1    0    0  503  504 -0.00000000000E+00 -0.00000000000E+00 -0.89687607681E+02  0.89687607681E+02  0.00000000000E+00 0.  1.
         25    2    1    2    0    0 -0.19014727469E+02 -0.57060788763E+02 -0.70549925540E+01  0.13889764225E+03  0.12500115450E+03 0.  0.
         25    2    1    2    0    0  0.19014727469E+02  0.57060788763E+02  0.27116359107E+03  0.30458617163E+03  0.12500219739E+03 0.  0.
          5    1    3    3  501    0  0.40125503840E+02 -0.21233603426E+02  0.35278982969E+02  0.57685514753E+02  0.47000000000E+01 0. -1.
         -5    1    3    3    0  501 -0.59140231309E+02 -0.35827185336E+02 -0.42333975523E+02  0.81212127494E+02  0.47000000000E+01 0. -1.
          5    1    4    4  502    0 -0.34640463365E+02 -0.79357419833E+01  0.23327939433E+02  0.42769386962E+02  0.47000000000E+01 0.  1.
         -5    1    4    4    0  502  0.53655190834E+02  0.64996530746E+02  0.24783565164E+03  0.26181678467E+03  0.47000000000E+01 0.  1.
<mgrwt>
<rscale>  0 0.35626471E+03</rscale>
<asrwt>0</asrwt>
<pdfrwt beam="1">  1       21 0.54430185E-01 0.35626471E+03</pdfrwt>
<pdfrwt beam="2">  1       21 0.13798094E-01 0.35626471E+03</pdfrwt>
<totfact> 0.13901248E+05</totfact>
</mgrwt>
</event>
<event>
 8    1  0.9373234E-006  0.2851073E+03  0.7546771E-02  0.1092932E+00
         21   -1    0    0  504  503  0.00000000000E+00  0.00000000000E+00  0.15290467420E+03  0.15290467420E+03  0.00000000000E+00 0. -1.
         21   -1    0    0  503  504 -0.00000000000E+00 -0.00000000000E+00 -0.13290335355E+03  0.13290335355E+03  0.00000000000E+00 0. -1.
         25    2    1    2    0    0 -0.49051811526E+01  0.20905885183E+01  0.78491885723E+02  0.14769838616E+03  0.12500162314E+03 0.  0.
         25    2    1    2    0    0  0.49051811526E+01 -0.20905885183E+01 -0.58490565075E+02  0.13810964159E+03  0.12499878213E+03 0.  0.
          5    1    3    3  501    0 -0.54643077816E+02 -0.15434061032E+02  0.51000350632E+01  0.57202941802E+02  0.47000000000E+01 0.  1.
         -5    1    3    3    0  501  0.49737896664E+02  0.17524649550E+02  0.73391850660E+02  0.90495444358E+02  0.47000000000E+01 0.  1.
          5    1    4    4  502    0  0.54861578128E+02 -0.27089658915E+02 -0.54220324414E+02  0.81887581198E+02  0.47000000000E+01 0. -1.
         -5    1    4    4    0  502 -0.49956396975E+02  0.24999070396E+02 -0.42702406612E+01  0.56222060392E+02  0.47000000000E+01 0. -1.
<mgrwt>
<rscale>  0 0.28510731E+03</rscale>
<asrwt>0</asrwt>
<pdfrwt beam="1">  1       21 0.23523796E-01 0.28510731E+03</pdfrwt>
<pdfrwt beam="2">  1       21 0.20446670E-01 0.28510731E+03</pdfrwt>
<totfact> 0.36929753E+05</totfact>
</mgrwt>
</event>
<event>
 8    1  0.9373234E-006  0.4669445E+03  0.7546771E-02  0.1022786E+00
         21   -1    0    0  504  503  0.00000000000E+00  0.00000000000E+00  0.24518374074E+02  0.24518374074E+02  0.00000000000E+00 0. -1.
         21   -1    0    0  503  504 -0.00000000000E+00 -0.00000000000E+00 -0.22232012995E+04  0.22232012995E+04  0.00000000000E+00 0. -1.
         25    2    1    2    0    0 -0.41625772818E+02  0.44829728294E+02 -0.19694801390E+03  0.24115322089E+03  0.12499578498E+03 0.  0.
         25    2    1    2    0    0  0.41625772818E+02 -0.44829728294E+02 -0.20017349115E+04  0.20065664527E+04  0.12499545406E+03 0.  0.
          5    1    3    3  501    0  0.25379146231E+02 -0.24864435224E+02 -0.24550318880E+02  0.43441332387E+02  0.47000000000E+01 0.  1.
         -5    1    3    3    0  501 -0.67004919050E+02  0.69694163518E+02 -0.17239769502E+03  0.19771188850E+03  0.47000000000E+01 0.  1.
          5    1    4    4  502    0  0.61953577965E+02 -0.66757968663E+02 -0.94314534991E+03  0.94754425399E+03  0.47000000000E+01 0. -1.
         -5    1    4    4    0  502 -0.20327805146E+02  0.21928240369E+02 -0.10585895616E+04  0.10590221987E+04  0.47000000000E+01 0. -1.
<mgrwt>
<rscale>  0 0.46694446E+03</rscale>
<asrwt>0</asrwt>
<pdfrwt beam="1">  1       21 0.37720566E-02 0.46694446E+03</pdfrwt>
<pdfrwt beam="2">  1       21 0.34203106E+00 0.46694446E+03</pdfrwt>
<totfact> 0.68875208E+03</totfact>
</mgrwt>
</event>
<event>
 8    1  0.9373234E-006  0.4268629E+03  0.7546771E-02  0.1034856E+00
         21   -1    0    0  504  503  0.00000000000E+00  0.00000000000E+00  0.91426289351E+02  0.91426289351E+02  0.00000000000E+00 0. -1.
         21   -1    0    0  503  504 -0.00000000000E+00 -0.00000000000E+00 -0.49824810416E+03  0.49824810416E+03  0.00000000000E+00 0. -1.
         25    2    1    2    0    0 -0.12501854779E+03  0.68452758570E+02 -0.67968224932E+02  0.20139412952E+03  0.12499799342E+03 0.  0.
         25    2    1    2    0    0  0.12501854779E+03 -0.68452758570E+02 -0.33885358988E+03  0.38828026398E+03  0.12499756230E+03 0.  0.
          5    1    3    3  501    0 -0.33853230339E+02  0.49798452399E+02  0.28928162053E+02  0.66969064691E+02  0.47000000000E+01 0. -1.
         -5    1    3    3    0  501 -0.91165317452E+02  0.18654306171E+02 -0.96896386985E+02  0.13442506483E+03  0.47000000000E+01 0. -1.
          5    1    4    4  502    0 -0.25365456442E+02 -0.14965712434E+02 -0.49514966538E+02  0.57803121372E+02  0.47000000000E+01 0. -1.
         -5    1    4    4    0  502  0.15038400423E+03 -0.53487046136E+02 -0.28933862334E+03  0.33047714261E+03  0.47000000000E+01 0. -1.
<mgrwt>
<rscale>  0 0.42686286E+03</rscale>
<asrwt>0</asrwt>
<pdfrwt beam="1">  1       21 0.14065583E-01 0.42686286E+03</pdfrwt>
<pdfrwt beam="2">  1       21 0.76653553E-01 0.42686286E+03</pdfrwt>
<totfact> 0.61921397E+04</totfact>
</mgrwt>
</event>
<event>
 8    1  0.9373234E-006  0.3469251E+03  0.7546771E-02  0.1063884E+00
         21   -1    0    0  504  503  0.00000000000E+00  0.00000000000E+00  0.25420706053E+03  0.25420706053E+03  0.00000000000E+00 0. -1.
         21   -1    0    0  503  504 -0.00000000000E+00 -0.00000000000E+00 -0.11836512157E+03  0.11836512157E+03  0.00000000000E+00 0. -1.
         25    2    1    2    0    0  0.10771163555E+02 -0.11469179661E+03  0.10508045881E+03  0.19984033580E+03  0.12499612320E+03 0.  0.
         25    2    1    2    0    0 -0.10771163555E+02  0.11469179661E+03  0.30761480149E+02  0.17273184630E+03  0.12497918183E+03 0.  0.
          5    1    3    3  501    0  0.57366243532E+02 -0.15051063719E+02  0.43407881846E+02  0.73646144654E+02  0.47000000000E+01 0.  1.
         -5    1    3    3    0  501 -0.46595079977E+02 -0.99640732889E+02  0.61672576963E+02  0.12619419114E+03  0.47000000000E+01 0.  1.
          5    1    4    4  502    0 -0.41169047679E+02  0.11194262685E+03 -0.12019593331E+02  0.11996917444E+03  0.47000000000E+01 0.  1.
         -5    1    4    4    0  502  0.30397884124E+02  0.27491697603E+01  0.42781073480E+02  0.52762671859E+02  0.47000000000E+01 0.  1.
<mgrwt>
<rscale>  0 0.34692506E+03</rscale>
<asrwt>0</asrwt>
<pdfrwt beam="1">  1       21 0.39108778E-01 0.34692506E+03</pdfrwt>
<pdfrwt beam="2">  1       21 0.18210019E-01 0.34692506E+03</pdfrwt>
<totfact> 0.16625294E+05</totfact>
</mgrwt>
</event>
<event>
 8    1  0.9373234E-006  0.4010360E+03  0.7546771E-02  0.1043422E+00
         21   -1    0    0  504  503  0.00000000000E+00  0.00000000000E+00  0.22278805615E+03  0.22278805615E+03  0.00000000000E+00 0. -1.
         21   -1    0    0  503  504 -0.00000000000E+00 -0.00000000000E+00 -0.18047408703E+03  0.18047408703E+03  0.00000000000E+00 0. -1.
         25    2    1    2    0    0 -0.38724300742E+02 -0.96202603848E+02  0.13939966932E+03  0.21404013837E+03  0.12500560216E+03 0.  0.
         25    2    1    2    0    0  0.38724300742E+02  0.96202603848E+02 -0.97085700201E+02  0.18922200482E+03  0.12499928587E+03 0.  0.
          5    1    3    3  501    0 -0.78297888051E+02 -0.90769158655E+02  0.88031663346E+02  0.14879940587E+03  0.47000000000E+01 0.  1.
         -5    1    3    3    0  501  0.39573587310E+02 -0.54334451932E+01  0.51368005970E+02  0.65240732495E+02  0.47000000000E+01 0.  1.
          5    1    4    4  502    0  0.39300365864E+02  0.12601366535E+03 -0.75816504638E+02  0.15229640504E+03  0.47000000000E+01 0.  1.
         -5    1    4    4    0  502 -0.57606512263E+00 -0.29811061505E+02 -0.21269195562E+02  0.36925599778E+02  0.47000000000E+01 0.  1.
<mgrwt>
<rscale>  0 0.40103601E+03</rscale>
<asrwt>0</asrwt>
<pdfrwt beam="1">  1       21 0.34275086E-01 0.40103601E+03</pdfrwt>
<pdfrwt beam="2">  1       21 0.27765244E-01 0.40103601E+03</pdfrwt>
<totfact> 0.95634234E+04</totfact>
</mgrwt>
</event>
<event>
 8    1  0.9373234E-006  0.3020913E+03  0.7546771E-02  0.1084200E+00
         21   -1    0    0  504  503  0.00000000000E+00  0.00000000000E+00  0.13594602789E+02  0.13594602789E+02  0.00000000000E+00 0.  1.
         21   -1    0    0  503  504 -0.00000000000E+00 -0.00000000000E+00 -0.16782242078E+04  0.16782242078E+04  0.00000000000E+00 0.  1.
         25    2    1    2    0    0 -0.38940700008E+02 -0.65459855296E+02 -0.62357061476E+03  0.64052007370E+03  0.12499712973E+03 0.  0.
         25    2    1    2    0    0  0.38940700008E+02  0.65459855296E+02 -0.10410589902E+04  0.10512987369E+04  0.12499536888E+03 0.  0.
          5    1    3    3  501    0 -0.38022055326E+02 -0.53305665235E+02 -0.62400580367E+03  0.62744920404E+03  0.47000000000E+01 0. -1.
         -5    1    3    3    0  501 -0.91864468290E+00 -0.12154190061E+02  0.43518891116E+00  0.13070869653E+02  0.47000000000E+01 0. -1.
          5    1    4    4  502    0  0.17402601792E+02 -0.36517679215E+01 -0.78357911121E+03  0.78379493459E+03  0.47000000000E+01 0. -1.
         -5    1    4    4    0  502  0.21538098217E+02  0.69111623217E+02 -0.25747987904E+03  0.26750380230E+03  0.47000000000E+01 0. -1.
<mgrwt>
<rscale>  0 0.30209132E+03</rscale>
<asrwt>0</asrwt>
<pdfrwt beam="1">  1       21 0.20914776E-02 0.30209132E+03</pdfrwt>
<pdfrwt beam="2">  1       21 0.25818831E+00 0.30209132E+03</pdfrwt>
<totfact> 0.63668327E+04</totfact>
</mgrwt>
</event>
<event>
 8    1  0.9373234E-006  0.2633435E+03  0.7546771E-02  0.1105151E+00
         21   -1    0    0  504  503  0.00000000000E+00  0.00000000000E+00  0.56516521014E+02  0.56516521014E+02  0.00000000000E+00 0.  1.
         21   -1    0    0  503  504 -0.00000000000E+00 -0.00000000000E+00 -0.30676770519E+03  0.30676770519E+03  0.00000000000E+00 0.  1.
         25    2    1    2    0    0 -0.25232039229E+02 -0.11668685841E+02 -0.16737024126E+03  0.21074271392E+03  0.12500751890E+03 0.  0.
         25    2    1    2    0    0  0.25232039229E+02  0.11668685841E+02 -0.82880942924E+02  0.15254151228E+03  0.12500739273E+03 0.  0.
          5    1    3    3  501    0 -0.35581351078E+02 -0.17541678048E+02 -0.18482962020E+03  0.18909738633E+03  0.47000000000E+01 0. -1.
         -5    1    3    3    0  501  0.10349311849E+02  0.58729922075E+01  0.17459378949E+02  0.21645327591E+02  0.47000000000E+01 0. -1.
          5    1    4    4  502    0 -0.11657623054E+02  0.20471336763E+02  0.27038539597E+02  0.36168334599E+02  0.47000000000E+01 0.  1.
         -5    1    4    4    0  502  0.36889662283E+02 -0.88026509224E+01 -0.10991948252E+03  0.11637317768E+03  0.47000000000E+01 0.  1.
<mgrwt>
<rscale>  0 0.26334345E+03</rscale>
<asrwt>0</asrwt>
<pdfrwt beam="1">  1       21 0.86948494E-02 0.26334345E+03</pdfrwt>
<pdfrwt beam="2">  1       21 0.47195032E-01 0.26334345E+03</pdfrwt>
<totfact> 0.43913999E+05</totfact>
</mgrwt>
</event>
<event>
 8    1  0.9373234E-006  0.4166889E+03  0.7546771E-02  0.1038149E+00
         21   -1    0    0  504  503  0.00000000000E+00  0.00000000000E+00  0.56808935959E+02  0.56808935959E+02  0.00000000000E+00 0.  1.
         21   -1    0    0  503  504 -0.00000000000E+00 -0.00000000000E+00 -0.76409473193E+03  0.76409473193E+03  0.00000000000E+00 0.  1.
         25    2    1    2    0    0 -0.16275616862E+03 -0.15346757845E+02 -0.41778215142E+03  0.46571029929E+03  0.12497625140E+03 0.  0.
         25    2    1    2    0    0  0.16275616862E+03  0.15346757845E+02 -0.28950364454E+03  0.35519336860E+03  0.12499950197E+03 0.  0.
          5    1    3    3  501    0 -0.13987826262E+02 -0.90221873248E+01  0.45401919823E+01  0.17881904007E+02  0.47000000000E+01 0. -1.
         -5    1    3    3    0  501 -0.14876834235E+03 -0.63245705205E+01 -0.42232234341E+03  0.44782839528E+03  0.47000000000E+01 0. -1.
          5    1    4    4  502    0  0.13183206406E+03 -0.12740235938E+02 -0.28321107931E+03  0.31268612404E+03  0.47000000000E+01 0. -1.
         -5    1    4    4    0  502  0.30924104555E+02  0.28086993784E+02 -0.62925652335E+01  0.42507244554E+02  0.47000000000E+01 0. -1.
<mgrwt>
<rscale>  0 0.41668889E+03</rscale>
<asrwt>0</asrwt>
<pdfrwt beam="1">  1       21 0.87398369E-02 0.41668889E+03</pdfrwt>
<pdfrwt beam="2">  1       21 0.11755303E+00 0.41668889E+03</pdfrwt>
<totfact> 0.52716903E+04</totfact>
</mgrwt>
</event>
<event>
 8    1  0.9373234E-006  0.2936450E+03  0.7546771E-02  0.1088461E+00
         21   -1    0    0  504  503  0.00000000000E+00  0.00000000000E+00  0.16339884536E+04  0.16339884536E+04  0.00000000000E+00 0. -1.
         21   -1    0    0  503  504 -0.00000000000E+00 -0.00000000000E+00 -0.13192774428E+02  0.13192774428E+02  0.00000000000E+00 0. -1.
         25    2    1    2    0    0  0.33723891402E+02 -0.59313737463E+02  0.10108836247E+04  0.10208650577E+04  0.12499737191E+03 0.  0.
         25    2    1    2    0    0 -0.33723891402E+02  0.59313737463E+02  0.60991205440E+03  0.62631617028E+03  0.12499524293E+03 0.  0.
          5    1    3    3  501    0 -0.23939553539E+02 -0.76010320761E+02  0.66559427549E+03  0.67036445360E+03  0.47000000000E+01 0. -1.
         -5    1    3    3    0  501  0.57663444941E+02  0.16696583298E+02  0.34528934924E+03  0.35050060410E+03  0.47000000000E+01 0. -1.
          5    1    4    4  502    0 -0.21740027469E+02  0.66779850088E+02  0.14514865652E+03  0.16131459841E+03  0.47000000000E+01 0. -1.
         -5    1    4    4    0  502 -0.11983863933E+02 -0.74661126249E+01  0.46476339788E+03  0.46500157187E+03  0.47000000000E+01 0. -1.
<mgrwt>
<rscale>  0 0.29364496E+03</rscale>
<asrwt>0</asrwt>
<pdfrwt beam="1">  1       21 0.25138268E+00 0.29364496E+03</pdfrwt>
<pdfrwt beam="2">  1       21 0.20296589E-02 0.29364496E+03</pdfrwt>
<totfact> 0.73780085E+04</totfact>
</mgrwt>
</event>
<event>
 8    1  0.9373234E-006  0.3224714E+03  0.7546771E-02  0.1074517E+00
         21   -1    0    0  504  503  0.00000000000E+00  0.00000000000E+00  0.11014324439E+03  0.11014324439E+03  0.00000000000E+00 0. -1.
         21   -1    0    0  503  504 -0.00000000000E+00 -0.00000000000E+00 -0.23602849699E+03  0.23602849699E+03  0.00000000000E+00 0. -1.
         25    2    1    2    0    0 -0.23382159374E+02 -0.54883706012E+02 -0.15154789828E+03  0.20530588516E+03  0.12499917778E+03 0.  0.
         25    2    1    2    0    0  0.23382159374E+02  0.54883706012E+02  0.25662645676E+02  0.14086585623E+03  0.12500268600E+03 0.  0.
          5    1    3    3  501    0  0.25435171272E+02  0.96919463181E+01 -0.11149472037E+03  0.11486533172E+03  0.47000000000E+01 0.  1.
         -5    1    3    3    0  501 -0.48817330646E+02 -0.64575652330E+02 -0.40053177907E+02  0.90440553435E+02  0.47000000000E+01 0.  1.
          5    1    4    4  502    0 -0.25764854858E+02  0.70189210703E+02 -0.13363054090E+02  0.76098713915E+02  0.47000000000E+01 0. -1.
         -5    1    4    4    0  502  0.49147014232E+02 -0.15305504691E+02  0.39025699766E+02  0.64767142318E+02  0.47000000000E+01 0. -1.
<mgrwt>
<rscale>  0 0.32247136E+03</rscale>
<asrwt>0</asrwt>
<pdfrwt beam="1">  1       21 0.16945115E-01 0.32247136E+03</pdfrwt>
<pdfrwt beam="2">  1       21 0.36312076E-01 0.32247136E+03</pdfrwt>
<totfact> 0.22219993E+05</totfact>
</mgrwt>
</event>
<event>
 8    1  0.9373234E-006  0.2547926E+03  0.7546771E-02  0.1110313E+00
         21   -1    0    0  504  503  0.00000000000E+00  0.00000000000E+00  0.57171585900E+03  0.57171585900E+03  0.00000000000E+00 0. -1.
         21   -1    0    0  503  504 -0.00000000000E+00 -0.00000000000E+00 -0.28387900270E+02  0.28387900270E+02  0.00000000000E+00 0. -1.
         25    2    1    2    0    0 -0.21490224770E+02  0.10572427708E+02  0.25830366584E+03  0.28795462437E+03  0.12499390354E+03 0.  0.
         25    2    1    2    0    0  0.21490224770E+02 -0.10572427708E+02  0.28502429289E+03  0.31214913490E+03  0.12499851556E+03 0.  0.
          5    1    3    3  501    0 -0.36816844854E+02  0.56129150193E+02  0.20624106672E+03  0.21694107303E+03  0.47000000000E+01 0. -1.
         -5    1    3    3    0  501  0.15326620084E+02 -0.45556722485E+02  0.52062599127E+02  0.71013551345E+02  0.47000000000E+01 0. -1.
          5    1    4    4  502    0 -0.38489237428E+02  0.33770266324E+02  0.13688599224E+03  0.14622488556E+03  0.47000000000E+01 0.  1.
         -5    1    4    4    0  502  0.59979462198E+02 -0.44342694032E+02  0.14813830065E+03  0.16592424934E+03  0.47000000000E+01 0.  1.
<mgrwt>
<rscale>  0 0.25479256E+03</rscale>
<asrwt>0</asrwt>
<pdfrwt beam="1">  1       21 0.87956278E-01 0.25479256E+03</pdfrwt>
<pdfrwt beam="2">  1       21 0.43673697E-02 0.25479256E+03</pdfrwt>
<totfact> 0.36862354E+05</totfact>
</mgrwt>
</event>
<event>
 8    1  0.9373234E-006  0.3074693E+03  0.7546771E-02  0.1081565E+00
         21   -1    0    0  504  503  0.00000000000E+00  0.00000000000E+00  0.50308421387E+02  0.50308421387E+02  0.00000000000E+00 0. -1.
         21   -1    0    0  503  504 -0.00000000000E+00 -0.00000000000E+00 -0.46978906368E+03  0.46978906368E+03  0.00000000000E+00 0. -1.
         25    2    1    2    0    0 -0.87157786301E+02  0.18958036532E+02 -0.22188976097E+03  0.26984194596E+03  0.12499489156E+03 0.  0.
         25    2    1    2    0    0  0.87157786301E+02 -0.18958036532E+02 -0.19759088133E+03  0.25025553911E+03  0.12501916496E+03 0.  0.
          5    1    3    3  501    0 -0.11653141796E+03  0.13683643173E+02 -0.20206333077E+03  0.23370599715E+03  0.47000000000E+01 0. -1.
         -5    1    3    3    0  501  0.29373631659E+02  0.52743933589E+01 -0.19826430197E+02  0.36135948811E+02  0.47000000000E+01 0. -1.
          5    1    4    4  502    0  0.65985319495E+02  0.15486672885E+02 -0.24154948614E+02  0.72107218559E+02  0.47000000000E+01 0. -1.
         -5    1    4    4    0  502  0.21172466806E+02 -0.34444709417E+02 -0.17343593271E+03  0.17814832055E+03  0.47000000000E+01 0. -1.
<mgrwt>
<rscale>  0 0.30746932E+03</rscale>
<asrwt>0</asrwt>
<pdfrwt beam="1">  1       21 0.77397572E-02 0.30746932E+03</pdfrwt>
<pdfrwt beam="2">  1       21 0.72275240E-01 0.30746932E+03</pdfrwt>
<totfact> 0.21266593E+05</totfact>
</mgrwt>
</event>
<event>
 8    1  0.9373234E-006  0.3510709E+03  0.7546771E-02  0.1062176E+00
         21   -1    0    0  504  503  0.00000000000E+00  0.00000000000E+00  0.81080720604E+03  0.81080720604E+03  0.00000000000E+00 0.  1.
         21   -1    0    0  503  504 -0.00000000000E+00 -0.00000000000E+00 -0.38002498992E+02  0.38002498992E+02  0.00000000000E+00 0.  1.
         25    2    1    2    0    0 -0.48127612391E+01  0.75061084577E+02  0.62242906395E+03  0.63929701275E+03  0.12500160710E+03 0.  0.
         25    2    1    2    0    0  0.48127612391E+01 -0.75061084577E+02  0.15037564310E+03  0.20951269228E+03  0.12500162039E+03 0.  0.
          5    1    3    3  501    0 -0.60225424527E+02  0.48633700572E+02  0.43933480315E+03  0.44612722159E+03  0.47000000000E+01 0. -1.
         -5    1    3    3    0  501  0.55412663288E+02  0.26427384005E+02  0.18309426080E+03  0.19316979116E+03  0.47000000000E+01 0. -1.
          5    1    4    4  502    0 -0.30659376340E+02 -0.67763468487E+02  0.15569171804E+03  0.17260905563E+03  0.47000000000E+01 0. -1.
         -5    1    4    4    0  502  0.35472137579E+02 -0.72976160903E+01 -0.53160749439E+01  0.36903636648E+02  0.47000000000E+01 0. -1.
<mgrwt>
<rscale>  0 0.35107093E+03</rscale>
<asrwt>0</asrwt>
<pdfrwt beam="1">  1       21 0.12473956E+00 0.35107093E+03</pdfrwt>
<pdfrwt beam="2">  1       21 0.58465389E-02 0.35107093E+03</pdfrwt>
<totfact> 0.93417323E+04</totfact>
</mgrwt>
</event>
<event>
 8    1  0.9373234E-006  0.2627669E+03  0.7546771E-02  0.1105492E+00
         21   -1    0    0  504  503  0.00000000000E+00  0.00000000000E+00  0.36512934839E+03  0.36512934839E+03  0.00000000000E+00 0.  1.
         21   -1    0    0  503  504 -0.00000000000E+00 -0.00000000000E+00 -0.47275334939E+02  0.47275334939E+02  0.00000000000E+00 0.  1.
         25    2    1    2    0    0 -0.24320271058E+02  0.23901650718E+02  0.19309999380E+03  0.23254088859E+03  0.12499957107E+03 0.  0.
         25    2    1    2    0    0  0.24320271058E+02 -0.23901650718E+02  0.12475401964E+03  0.17986379474E+03  0.12499861899E+03 0.  0.
          5    1    3    3  501    0 -0.38454940828E+02 -0.44418013120E+02  0.76353646802E+02  0.96455750184E+02  0.47000000000E+01 0.  1.
         -5    1    3    3    0  501  0.14134669770E+02  0.68319663838E+02  0.11674634700E+03  0.13608513840E+03  0.47000000000E+01 0.  1.
          5    1    4    4  502    0 -0.33699673776E+02  0.28232256315E+02  0.75500186123E+02  0.87493407830E+02  0.47000000000E+01 0. -1.
         -5    1    4    4    0  502  0.58019944833E+02 -0.52133907033E+02  0.49253833522E+02  0.92370386908E+02  0.47000000000E+01 0. -1.
<mgrwt>
<rscale>  0 0.26276691E+03</rscale>
<asrwt>0</asrwt>
<pdfrwt beam="1">  1       21 0.56173744E-01 0.26276691E+03</pdfrwt>
<pdfrwt beam="2">  1       21 0.72731287E-02 0.26276691E+03</pdfrwt>
<totfact> 0.41579071E+05</totfact>
</mgrwt>
</event>
<event>
 8    1  0.9373234E-006  0.2985548E+03  0.7546771E-02  0.1085965E+00
         21   -1    0    0  504  503  0.00000000000E+00  0.00000000000E+00  0.65848952807E+03  0.65848952807E+03  0.00000000000E+00 0. -1.
         21   -1    0    0  503  504 -0.00000000000E+00 -0.00000000000E+00 -0.33840692499E+02  0.33840692499E+02  0.00000000000E+00 0. -1.
         25    2    1    2    0    0  0.41413249640E+02 -0.68691898986E+02  0.34712282773E+03  0.37756380141E+03  0.12500612935E+03 0.  0.
         25    2    1    2    0    0 -0.41413249640E+02  0.68691898986E+02  0.27752600784E+03  0.31476641915E+03  0.12499431734E+03 0.  0.
          5    1    3    3  501    0  0.34932349014E+02  0.27104615313E+02  0.17347865154E+03  0.17908618517E+03  0.47000000000E+01 0.  1.
         -5    1    3    3    0  501  0.64809006267E+01 -0.95796514299E+02  0.17364417619E+03  0.19847761624E+03  0.47000000000E+01 0.  1.
          5    1    4    4  502    0  0.20013653830E+02  0.22279463574E+02  0.40060465416E+01  0.30578738458E+02  0.47000000000E+01 0.  1.
         -5    1    4    4    0  502 -0.61426903470E+02  0.46412435412E+02  0.27351996130E+03  0.28418768070E+03  0.47000000000E+01 0.  1.
<mgrwt>
<rscale>  0 0.29855480E+03</rscale>
<asrwt>0</asrwt>
<pdfrwt beam="1">  1       21 0.10130607E+00 0.29855480E+03</pdfrwt>
<pdfrwt beam="2">  1       21 0.52062609E-02 0.29855480E+03</pdfrwt>
<totfact> 0.19358365E+05</totfact>
</mgrwt>
</event>
<event>
 8    1  0.9373234E-006  0.3535068E+03  0.7546771E-02  0.1061185E+00
         21   -1    0    0  504  503  0.00000000000E+00  0.00000000000E+00  0.74572903647E+03  0.74572903647E+03  0.00000000000E+00 0. -1.
         21   -1    0    0  503  504 -0.00000000000E+00 -0.00000000000E+00 -0.41894259999E+02  0.41894259999E+02  0.00000000000E+00 0. -1.
         25    2    1    2    0    0  0.37309423982E+02  0.13248756540E+02  0.61600546537E+03  0.62980620881E+03  0.12500241845E+03 0.  0.
         25    2    1    2    0    0 -0.37309423982E+02 -0.13248756540E+02  0.87829311103E+02  0.15781708766E+03  0.12499889040E+03 0.  0.
          5    1    3    3  501    0  0.36599266491E+02 -0.21258831930E+02  0.65044680254E+02  0.77745383607E+02  0.47000000000E+01 0. -1.
         -5    1    3    3    0  501  0.71015749053E+00  0.34507588470E+02  0.55096078512E+03  0.55206082520E+03  0.47000000000E+01 0. -1.
          5    1    4    4  502    0 -0.79703151885E+02 -0.29903661736E+02  0.59611068535E+02  0.10403072093E+03  0.47000000000E+01 0.  1.
         -5    1    4    4    0  502  0.42393727904E+02  0.16654905197E+02  0.28218242568E+02  0.53786366733E+02  0.47000000000E+01 0.  1.
<mgrwt>
<rscale>  0 0.35350681E+03</rscale>
<asrwt>0</asrwt>
<pdfrwt beam="1">  1       21 0.11472753E+00 0.35350681E+03</pdfrwt>
<pdfrwt beam="2">  1       21 0.64452713E-02 0.35350681E+03</pdfrwt>
<totfact> 0.97309303E+04</totfact>
</mgrwt>
</event>
<event>
 8    1  0.9373234E-006  0.3516788E+03  0.7546771E-02  0.1061928E+00
         21   -1    0    0  504  503  0.00000000000E+00  0.00000000000E+00  0.17097439481E+04  0.17097439481E+04  0.00000000000E+00 0.  1.
         21   -1    0    0  503  504 -0.00000000000E+00 -0.00000000000E+00 -0.18084288718E+02  0.18084288718E+02  0.00000000000E+00 0.  1.
         25    2    1    2    0    0 -0.46269442005E+02  0.60566913058E+01  0.14084662544E+04  0.14147737794E+04  0.12502044752E+03 0.  0.
         25    2    1    2    0    0  0.46269442005E+02 -0.60566913058E+01  0.28319340502E+03  0.31305445747E+03  0.12500817540E+03 0.  0.
          5    1    3    3  501    0  0.19708344557E+02  0.45056960432E+02  0.34239302721E+03  0.34593875702E+03  0.47000000000E+01 0.  1.
         -5    1    3    3    0  501 -0.65977786562E+02 -0.39000269126E+02  0.10660732272E+04  0.10688350224E+04  0.47000000000E+01 0.  1.
          5    1    4    4  502    0  0.24242594998E+01 -0.38429623558E+02  0.18885117157E+02  0.43144532110E+02  0.47000000000E+01 0.  1.
         -5    1    4    4    0  502  0.43845182506E+02  0.32372932252E+02  0.26430828787E+03  0.26990992536E+03  0.47000000000E+01 0.  1.
<mgrwt>
<rscale>  0 0.35167885E+03</rscale>
<asrwt>0</asrwt>
<pdfrwt beam="1">  1       21 0.26303740E+00 0.35167885E+03</pdfrwt>
<pdfrwt beam="2">  1       21 0.27821996E-02 0.35167885E+03</pdfrwt>
<totfact> 0.36232373E+04</totfact>
</mgrwt>
</event>
<event>
 8    1  0.9373234E-006  0.2816889E+03  0.7546771E-02  0.1094770E+00
         21   -1    0    0  504  503  0.00000000000E+00  0.00000000000E+00  0.83784844003E+03  0.83784844003E+03  0.00000000000E+00 0.  1.
         21   -1    0    0  503  504 -0.00000000000E+00 -0.00000000000E+00 -0.23676307507E+02  0.23676307507E+02  0.00000000000E+00 0.  1.
         25    2    1    2    0    0  0.18411625759E+02  0.52320093120E+02  0.51013536614E+03  0.52814909367E+03  0.12500797273E+03 0.  0.
         25    2    1    2    0    0 -0.18411625759E+02 -0.52320093120E+02  0.30403676639E+03  0.33337565387E+03  0.12499836469E+03 0.  0.
          5    1    3    3  501    0 -0.50760150943E+02  0.37943067163E+02  0.19252252061E+03  0.20273943921E+03  0.47000000000E+01 0.  1.
         -5    1    3    3    0  501  0.69171776702E+02  0.14377025957E+02  0.31761284553E+03  0.32540965445E+03  0.47000000000E+01 0.  1.
          5    1    4    4  502    0 -0.67930554795E+02 -0.53855052045E+02  0.20116052638E+03  0.21909489789E+03  0.47000000000E+01 0.  1.
         -5    1    4    4    0  502  0.49518929036E+02  0.15349589245E+01  0.10287624000E+03  0.11428075599E+03  0.47000000000E+01 0.  1.
<mgrwt>
<rscale>  0 0.28168889E+03</rscale>
<asrwt>0</asrwt>
<pdfrwt beam="1">  1       21 0.12889974E+00 0.28168889E+03</pdfrwt>
<pdfrwt beam="2">  1       21 0.36425095E-02 0.28168889E+03</pdfrwt>
<totfact> 0.19639496E+05</totfact>
</mgrwt>
</event>
<event>
 8    1  0.9373234E-006  0.4007434E+03  0.7546771E-02  0.1043523E+00
         21   -1    0    0  504  503  0.00000000000E+00  0.00000000000E+00  0.34310159885E+03  0.34310159885E+03  0.00000000000E+00 0.  1.
         21   -1    0    0  503  504 -0.00000000000E+00 -0.00000000000E+00 -0.11701729183E+03  0.11701729183E+03  0.00000000000E+00 0.  1.
         25    2    1    2    0    0 -0.26768576743E+02  0.59115190993E+02  0.27668298991E+03  0.31046535531E+03  0.12499638969E+03 0.  0.
         25    2    1    2    0    0  0.26768576743E+02 -0.59115190993E+02 -0.50598682896E+02  0.14965353536E+03  0.12499916571E+03 0.  0.
          5    1    3    3  501    0 -0.12185807225E+02 -0.87071125037E+01 -0.78565875454E+01  0.17553451904E+02  0.47000000000E+01 0. -1.
         -5    1    3    3    0  501 -0.14582769518E+02  0.67822303497E+02  0.28453957746E+03  0.29291190341E+03  0.47000000000E+01 0. -1.
          5    1    4    4  502    0 -0.22577869341E+02 -0.63696665606E+02 -0.68890835174E+02  0.96618127514E+02  0.47000000000E+01 0. -1.
         -5    1    4    4    0  502  0.49346446084E+02  0.45814746132E+01  0.18292152278E+02  0.53035407849E+02  0.47000000000E+01 0. -1.
<mgrwt>
<rscale>  0 0.40074341E+03</rscale>
<asrwt>0</asrwt>
<pdfrwt beam="1">  1       21 0.52784861E-01 0.40074341E+03</pdfrwt>
<pdfrwt beam="2">  1       21 0.18002660E-01 0.40074341E+03</pdfrwt>
<totfact> 0.89751008E+04</totfact>
</mgrwt>
</event>
<event>
 8    1  0.9373234E-006  0.4015744E+03  0.7546771E-02  0.1043236E+00
         21   -1    0    0  504  503  0.00000000000E+00  0.00000000000E+00  0.54796816486E+02  0.54796816486E+02  0.00000000000E+00 0. -1.
         21   -1    0    0  503  504 -0.00000000000E+00 -0.00000000000E+00 -0.73572699154E+03  0.73572699154E+03  0.00000000000E+00 0. -1.
         25    2    1    2    0    0  0.35171835256E+02 -0.13563419478E+03 -0.48043431009E+03  0.51582871511E+03  0.12501377617E+03 0.  0.
         25    2    1    2    0    0 -0.35171835256E+02  0.13563419478E+03 -0.20049586496E+03  0.27469509291E+03  0.12500043766E+03 0.  0.
          5    1    3    3  501    0  0.69844459723E+02 -0.13384783758E+03 -0.41449856032E+03  0.44116282560E+03  0.47000000000E+01 0.  1.
         -5    1    3    3    0  501 -0.34672624467E+02 -0.17863571942E+01 -0.65935749768E+02  0.74665889514E+02  0.47000000000E+01 0.  1.
          5    1    4    4  502    0 -0.32136730523E+02  0.59936545597E+02 -0.18508784547E+03  0.19724289464E+03  0.47000000000E+01 0.  1.
         -5    1    4    4    0  502 -0.30351047338E+01  0.75697649181E+02 -0.15408019495E+02  0.77452198272E+02  0.47000000000E+01 0.  1.
<mgrwt>
<rscale>  0 0.40157439E+03</rscale>
<asrwt>0</asrwt>
<pdfrwt beam="1">  1       21 0.84302798E-02 0.40157439E+03</pdfrwt>
<pdfrwt beam="2">  1       21 0.11318876E+00 0.40157439E+03</pdfrwt>
<totfact> 0.62006029E+04</totfact>
</mgrwt>
</event>
<event>
 8    1  0.9373234E-006  0.4604331E+03  0.7546771E-02  0.1024656E+00
         21   -1    0    0  504  503  0.00000000000E+00  0.00000000000E+00  0.28610698619E+03  0.28610698619E+03  0.00000000000E+00 0.  1.
         21   -1    0    0  503  504 -0.00000000000E+00 -0.00000000000E+00 -0.18524420417E+03  0.18524420417E+03  0.00000000000E+00 0.  1.
         25    2    1    2    0    0 -0.15855291934E+03 -0.65601692661E+02 -0.40739180263E+02  0.21616488719E+03  0.12499986933E+03 0.  0.
         25    2    1    2    0    0  0.15855291934E+03  0.65601692661E+02  0.14160196229E+03  0.25518630317E+03  0.12500529306E+03 0.  0.
          5    1    3    3  501    0 -0.11254340975E+03 -0.13245724063E+02  0.29405912231E+02  0.11716768308E+03  0.47000000000E+01 0.  1.
         -5    1    3    3    0  501 -0.46009509590E+02 -0.52355968598E+02 -0.70145092494E+02  0.98997204110E+02  0.47000000000E+01 0.  1.
          5    1    4    4  502    0  0.14603250417E+03  0.12606942406E+02  0.13640795394E+03  0.20028391640E+03  0.47000000000E+01 0.  1.
         -5    1    4    4    0  502  0.12520415169E+02  0.52994750255E+02  0.51940083512E+01  0.54902386773E+02  0.47000000000E+01 0.  1.
<mgrwt>
<rscale>  0 0.46043310E+03</rscale>
<asrwt>0</asrwt>
<pdfrwt beam="1">  1       21 0.44016460E-01 0.46043310E+03</pdfrwt>
<pdfrwt beam="2">  1       21 0.28499108E-01 0.46043310E+03</pdfrwt>
<totfact> 0.53726241E+04</totfact>
</mgrwt>
</event>
<event>
 8    1  0.9373234E-006  0.4702743E+03  0.7546771E-02  0.1021843E+00
         21   -1    0    0  504  503  0.00000000000E+00  0.00000000000E+00  0.15090020683E+03  0.15090020683E+03  0.00000000000E+00 0.  1.
         21   -1    0    0  503  504 -0.00000000000E+00 -0.00000000000E+00 -0.36639766012E+03  0.36639766012E+03  0.00000000000E+00 0.  1.
         25    2    1    2    0    0  0.19864550745E+03 -0.74773553421E+01 -0.12116166423E+03  0.26423693642E+03  0.12500024487E+03 0.  0.
         25    2    1    2    0    0 -0.19864550745E+03  0.74773553421E+01 -0.94335789057E+02  0.25306093053E+03  0.12499857997E+03 0.  0.
          5    1    3    3  501    0  0.13271906363E+03  0.39736876942E+02 -0.29424695925E+02  0.14170840473E+03  0.47000000000E+01 0. -1.
         -5    1    3    3    0  501  0.65926443819E+02 -0.47214232284E+02 -0.91736968306E+02  0.12252853169E+03  0.47000000000E+01 0. -1.
          5    1    4    4  502    0 -0.42663508454E+02  0.44844400021E+02 -0.65106437919E+02  0.89956286192E+02  0.47000000000E+01 0. -1.
         -5    1    4    4    0  502 -0.15598199899E+03 -0.37367044678E+02 -0.29229351137E+02  0.16310464434E+03  0.47000000000E+01 0. -1.
<mgrwt>
<rscale>  0 0.47027431E+03</rscale>
<asrwt>0</asrwt>
<pdfrwt beam="1">  1       21 0.23215417E-01 0.47027431E+03</pdfrwt>
<pdfrwt beam="2">  1       21 0.56368871E-01 0.47027431E+03</pdfrwt>
<totfact> 0.47277790E+04</totfact>
</mgrwt>
</event>
<event>
 8    1  0.9373234E-006  0.3353226E+03  0.7546771E-02  0.1068806E+00
         21   -1    0    0  504  503  0.00000000000E+00  0.00000000000E+00  0.11158791251E+03  0.11158791251E+03  0.00000000000E+00 0.  1.
         21   -1    0    0  503  504 -0.00000000000E+00 -0.00000000000E+00 -0.25191181948E+03  0.25191181948E+03  0.00000000000E+00 0.  1.
         25    2    1    2    0    0 -0.10506217352E+03  0.19776496333E+02 -0.10538843004E+03  0.19534918791E+03  0.12500165567E+03 0.  0.
         25    2    1    2    0    0  0.10506217352E+03 -0.19776496333E+02 -0.34935476923E+02  0.16815054407E+03  0.12499979125E+03 0.  0.
          5    1    3    3  501    0 -0.11433113289E+03 -0.14132277511E+02 -0.41990367461E+02  0.12270537957E+03  0.47000000000E+01 0. -1.
         -5    1    3    3    0  501  0.92689593754E+01  0.33908773844E+02 -0.63398062583E+02  0.72643808344E+02  0.47000000000E+01 0. -1.
          5    1    4    4  502    0 -0.73098000929E+01  0.37337068266E+02 -0.87207489903E+01  0.39314517765E+02  0.47000000000E+01 0. -1.
         -5    1    4    4    0  502  0.11237197361E+03 -0.57113564599E+02 -0.26214727933E+02  0.12883602631E+03  0.47000000000E+01 0. -1.
<mgrwt>
<rscale>  0 0.33532262E+03</rscale>
<asrwt>0</asrwt>
<pdfrwt beam="1">  1       21 0.17167371E-01 0.33532262E+03</pdfrwt>
<pdfrwt beam="2">  1       21 0.38755664E-01 0.33532262E+03</pdfrwt>
<totfact> 0.18954944E+05</totfact>
</mgrwt>
</event>
<event>
 8    1  0.9373234E-006  0.2688727E+03  0.7546771E-02  0.1101927E+00
         21   -1    0    0  504  503  0.00000000000E+00  0.00000000000E+00  0.19209795408E+02  0.19209795408E+02  0.00000000000E+00 0.  1.
         21   -1    0    0  503  504 -0.00000000000E+00 -0.00000000000E+00 -0.94082908897E+03  0.94082908897E+03  0.00000000000E+00 0.  1.
         25    2    1    2    0    0 -0.20780569097E+02  0.44824394285E+02 -0.46969874754E+03  0.48855342250E+03  0.12500589917E+03 0.  0.
         25    2    1    2    0    0  0.20780569097E+02 -0.44824394285E+02 -0.45192054602E+03  0.47148546187E+03  0.12500120985E+03 0.  0.
          5    1    3    3  501    0 -0.49661439340E+02  0.20897365827E+02 -0.43128100348E+03  0.43465889203E+03  0.47000000000E+01 0. -1.
         -5    1    3    3    0  501  0.28880870242E+02  0.23927028458E+02 -0.38417744057E+02  0.53894530476E+02  0.47000000000E+01 0. -1.
          5    1    4    4  502    0  0.28630532961E+02  0.27705765022E+01 -0.39767757216E+03  0.39874418480E+03  0.47000000000E+01 0.  1.
         -5    1    4    4    0  502 -0.78499638634E+01 -0.47594970787E+02 -0.54242973865E+02  0.72741277075E+02  0.47000000000E+01 0.  1.
<mgrwt>
<rscale>  0 0.26887272E+03</rscale>
<asrwt>0</asrwt>
<pdfrwt beam="1">  1       21 0.29553547E-02 0.26887272E+03</pdfrwt>
<pdfrwt beam="2">  1       21 0.14474286E+00 0.26887272E+03</pdfrwt>
<totfact> 0.20712671E+05</totfact>
</mgrwt>
</event>
<event>
 8    1  0.9373234E-006  0.2854497E+03  0.7546771E-02  0.1092749E+00
         21   -1    0    0  504  503  0.00000000000E+00  0.00000000000E+00  0.34368524912E+02  0.34368524912E+02  0.00000000000E+00 0.  1.
         21   -1    0    0  503  504 -0.00000000000E+00 -0.00000000000E+00 -0.59270452771E+03  0.59270452771E+03  0.00000000000E+00 0.  1.
         25    2    1    2    0    0 -0.47861583674E+02  0.15469899336E+02 -0.38255442122E+03  0.40559039011E+03  0.12500252147E+03 0.  0.
         25    2    1    2    0    0  0.47861583674E+02 -0.15469899336E+02 -0.17578158157E+03  0.22148266251E+03  0.12500142558E+03 0.  0.
          5    1    3    3  501    0 -0.86302901714E+02  0.15058896299E+02 -0.32176797887E+03  0.33351414277E+03  0.47000000000E+01 0.  1.
         -5    1    3    3    0  501  0.38441318040E+02  0.41100303688E+00 -0.60786442352E+02  0.72076247336E+02  0.47000000000E+01 0.  1.
          5    1    4    4  502    0  0.37717203907E+02  0.29365859281E+02 -0.16786400343E+03  0.17460055787E+03  0.47000000000E+01 0. -1.
         -5    1    4    4    0  502  0.10144379767E+02 -0.44835758617E+02 -0.79175781393E+01  0.46882104637E+02  0.47000000000E+01 0. -1.
<mgrwt>
<rscale>  0 0.28544968E+03</rscale>
<asrwt>0</asrwt>
<pdfrwt beam="1">  1       21 0.52874655E-02 0.28544968E+03</pdfrwt>
<pdfrwt beam="2">  1       21 0.91185309E-01 0.28544968E+03</pdfrwt>
<totfact> 0.24287658E+05</totfact>
</mgrwt>
</event>
<event>
 8    1  0.9373234E-006  0.3519647E+03  0.7546771E-02  0.1061812E+00
         21   -1    0    0  504  503  0.00000000000E+00  0.00000000000E+00  0.26093915110E+02  0.26093915110E+02  0.00000000000E+00 0.  1.
         21   -1    0    0  503  504 -0.00000000000E+00 -0.00000000000E+00 -0.11868586865E+04  0.11868586865E+04  0.00000000000E+00 0.  1.
         25    2    1    2    0    0  0.97864330034E+02 -0.72715559235E+02 -0.50474397058E+03  0.53409158504E+03  0.12498946249E+03 0.  0.
         25    2    1    2    0    0 -0.97864330034E+02  0.72715559235E+02 -0.65602080080E+03  0.67886101655E+03  0.12499603620E+03 0.  0.
          5    1    3    3  501    0  0.25888612533E+02 -0.40340617395E+02 -0.39817866306E+02  0.62491104550E+02  0.47000000000E+01 0.  1.
         -5    1    3    3    0  501  0.71975717501E+02 -0.32374941840E+02 -0.46492610427E+03  0.47160048049E+03  0.47000000000E+01 0.  1.
          5    1    4    4  502    0 -0.22937430892E+02  0.32213267798E+02 -0.38212607262E+02  0.55191609071E+02  0.47000000000E+01 0. -1.
         -5    1    4    4    0  502 -0.74926899142E+02  0.40502291437E+02 -0.61780819354E+03  0.62366940748E+03  0.47000000000E+01 0. -1.
<mgrwt>
<rscale>  0 0.35196471E+03</rscale>
<asrwt>0</asrwt>
<pdfrwt beam="1">  1       21 0.40144478E-02 0.35196471E+03</pdfrwt>
<pdfrwt beam="2">  1       21 0.18259367E+00 0.35196471E+03</pdfrwt>
<totfact> 0.63350211E+04</totfact>
</mgrwt>
</event>
<event>
 8    1  0.9373234E-006  0.2743487E+03  0.7546771E-02  0.1098816E+00
         21   -1    0    0  504  503  0.00000000000E+00  0.00000000000E+00  0.29514423613E+02  0.29514423613E+02  0.00000000000E+00 0. -1.
         21   -1    0    0  503  504 -0.00000000000E+00 -0.00000000000E+00 -0.63754587306E+03  0.63754587306E+03  0.00000000000E+00 0. -1.
         25    2    1    2    0    0  0.34296030141E+02  0.43252954104E+02 -0.33387859289E+03  0.36075869310E+03  0.12499953653E+03 0.  0.
         25    2    1    2    0    0 -0.34296030141E+02 -0.43252954104E+02 -0.27415285655E+03  0.30630160357E+03  0.12495538353E+03 0.  0.
          5    1    3    3  501    0  0.31717418745E+02  0.30722773321E+02 -0.34201504376E+03  0.34488587042E+03  0.47000000000E+01 0. -1.
         -5    1    3    3    0  501  0.25786113959E+01  0.12530180784E+02  0.81364508705E+01  0.15872822684E+02  0.47000000000E+01 0. -1.
          5    1    4    4  502    0  0.35199300292E+02 -0.43088805850E+02 -0.64140771721E+02  0.85039782029E+02  0.47000000000E+01 0. -1.
         -5    1    4    4    0  502 -0.69495330433E+02 -0.16414825441E+00 -0.21001208483E+03  0.22126182154E+03  0.47000000000E+01 0. -1.
<mgrwt>
<rscale>  0 0.27434868E+03</rscale>
<asrwt>0</asrwt>
<pdfrwt beam="1">  1       21 0.45406808E-02 0.27434868E+03</pdfrwt>
<pdfrwt beam="2">  1       21 0.98083975E-01 0.27434868E+03</pdfrwt>
<totfact> 0.26581597E+05</totfact>
</mgrwt>
</event>
<event>
 8    1  0.9373234E-006  0.2790158E+03  0.7546771E-02  0.1096228E+00
         21   -1    0    0  504  503  0.00000000000E+00  0.00000000000E+00  0.32209333716E+03  0.32209333716E+03  0.00000000000E+00 0.  1.
         21   -1    0    0  503  504 -0.00000000000E+00 -0.00000000000E+00 -0.60424910521E+02  0.60424910521E+02  0.00000000000E+00 0.  1.
         25    2    1    2    0    0 -0.59886141998E+01  0.32208904453E+02  0.20290233931E+03  0.24055932087E+03  0.12500460206E+03 0.  0.
         25    2    1    2    0    0  0.59886141998E+01 -0.32208904453E+02  0.58766087330E+02  0.14195892680E+03  0.12500242739E+03 0.  0.
          5    1    3    3  501    0  0.21218564860E+02  0.75030283866E+02  0.12861760345E+03  0.15048039377E+03  0.47000000000E+01 0. -1.
         -5    1    3    3    0  501 -0.27207179060E+02 -0.42821379412E+02  0.74284735855E+02  0.90078927104E+02  0.47000000000E+01 0. -1.
          5    1    4    4  502    0 -0.34750715823E+02  0.46465972131E+01 -0.23828962328E+02  0.42651055808E+02  0.47000000000E+01 0.  1.
         -5    1    4    4    0  502  0.40739330023E+02 -0.36855501666E+02  0.82595049658E+02  0.99307870996E+02  0.47000000000E+01 0.  1.
<mgrwt>
<rscale>  0 0.27901585E+03</rscale>
<asrwt>0</asrwt>
<pdfrwt beam="1">  1       21 0.49552820E-01 0.27901585E+03</pdfrwt>
<pdfrwt beam="2">  1       21 0.92961403E-02 0.27901585E+03</pdfrwt>
<totfact> 0.35128953E+05</totfact>
</mgrwt>
</event>
<event>
 8    1  0.9373234E-006  0.3240974E+03  0.7546771E-02  0.1073779E+00
         21   -1    0    0  504  503  0.00000000000E+00  0.00000000000E+00  0.87443459205E+03  0.87443459205E+03  0.00000000000E+00 0.  1.
         21   -1    0    0  503  504 -0.00000000000E+00 -0.00000000000E+00 -0.30030582011E+02  0.30030582011E+02  0.00000000000E+00 0.  1.
         25    2    1    2    0    0  0.52604222839E+01 -0.92078375586E+02  0.55096110723E+03  0.57243996795E+03  0.12499310356E+03 0.  0.
         25    2    1    2    0    0 -0.52604222839E+01  0.92078375586E+02  0.29344290281E+03  0.33202520611E+03  0.12500360390E+03 0.  0.
          5    1    3    3  501    0 -0.12292502243E+02 -0.10963746621E+03  0.29088658121E+03  0.31114076033E+03  0.47000000000E+01 0. -1.
         -5    1    3    3    0  501  0.17552924527E+02  0.17559090624E+02  0.26007452601E+03  0.26129920762E+03  0.47000000000E+01 0. -1.
          5    1    4    4  502    0  0.12003897505E+02  0.85955810858E+02  0.29974438742E+03  0.31209178581E+03  0.47000000000E+01 0. -1.
         -5    1    4    4    0  502 -0.17264319789E+02  0.61225647280E+01 -0.63014846134E+01  0.19933420302E+02  0.47000000000E+01 0. -1.
<mgrwt>
<rscale>  0 0.32409739E+03</rscale>
<asrwt>0</asrwt>
<pdfrwt beam="1">  1       21 0.13452838E+00 0.32409739E+03</pdfrwt>
<pdfrwt beam="2">  1       21 0.46200902E-02 0.32409739E+03</pdfrwt>
<totfact> 0.11619224E+05</totfact>
</mgrwt>
</event>
<event>
 8    1  0.9373234E-006  0.3703171E+03  0.7546771E-02  0.1054572E+00
         21   -1    0    0  504  503  0.00000000000E+00  0.00000000000E+00  0.18778222285E+03  0.18778222285E+03  0.00000000000E+00 0.  1.
         21   -1    0    0  503  504 -0.00000000000E+00 -0.00000000000E+00 -0.18257152470E+03  0.18257152470E+03  0.00000000000E+00 0.  1.
         25    2    1    2    0    0  0.12432490888E+03 -0.25874416979E+02  0.52938376183E+02  0.18588078082E+03  0.12499209807E+03 0.  0.
         25    2    1    2    0    0 -0.12432490888E+03  0.25874416979E+02 -0.47727678034E+02  0.18447296673E+03  0.12500470303E+03 0.  0.
          5    1    3    3  501    0  0.23084607598E+01  0.18926913122E+02  0.52243596203E+02  0.55812546758E+02  0.47000000000E+01 0. -1.
         -5    1    3    3    0  501  0.12201644812E+03 -0.44801330101E+02  0.69477998013E+00  0.13006823406E+03  0.47000000000E+01 0. -1.
          5    1    4    4  502    0  0.10104131943E+02 -0.25458195219E+02 -0.27480496670E+02  0.39082999927E+02  0.47000000000E+01 0. -1.
         -5    1    4    4    0  502 -0.13442904083E+03  0.51332612198E+02 -0.20247181364E+02  0.14538996680E+03  0.47000000000E+01 0. -1.
<mgrwt>
<rscale>  0 0.37031709E+03</rscale>
<asrwt>0</asrwt>
<pdfrwt beam="1">  1       21 0.28889573E-01 0.37031709E+03</pdfrwt>
<pdfrwt beam="2">  1       21 0.28087927E-01 0.37031709E+03</pdfrwt>
<totfact> 0.13224268E+05</totfact>
</mgrwt>
</event>
<event>
 8    1  0.9373234E-006  0.3578541E+03  0.7546771E-02  0.1059437E+00
         21   -1    0    0  504  503  0.00000000000E+00  0.00000000000E+00  0.47515515716E+03  0.47515515716E+03  0.00000000000E+00 0. -1.
         21   -1    0    0  503  504 -0.00000000000E+00 -0.00000000000E+00 -0.67377745581E+02  0.67377745581E+02  0.00000000000E+00 0. -1.
         25    2    1    2    0    0  0.20940300628E+02 -0.46635658489E+02  0.38183812257E+03  0.40501603963E+03  0.12499703867E+03 0.  0.
         25    2    1    2    0    0 -0.20940300628E+02  0.46635658489E+02  0.25939289004E+02  0.13751686311E+03  0.12499864036E+03 0.  0.
          5    1    3    3  501    0  0.32479972987E+02  0.22957531613E+02  0.26824291391E+03  0.27121642237E+03  0.47000000000E+01 0. -1.
         -5    1    3    3    0  501 -0.11539672359E+02 -0.69593190102E+02  0.11359520866E+03  0.13379961726E+03  0.47000000000E+01 0. -1.
          5    1    4    4  502    0 -0.28939151574E+02  0.94070923189E+01 -0.46368512765E+02  0.55660550265E+02  0.47000000000E+01 0. -1.
         -5    1    4    4    0  502  0.79988509461E+01  0.37228566170E+02  0.72307801769E+02  0.81856312843E+02  0.47000000000E+01 0. -1.
<mgrwt>
<rscale>  0 0.35785407E+03</rscale>
<asrwt>0</asrwt>
<pdfrwt beam="1">  1       21 0.73100791E-01 0.35785407E+03</pdfrwt>
<pdfrwt beam="2">  1       21 0.10365807E-01 0.35785407E+03</pdfrwt>
<totfact> 0.12203502E+05</totfact>
</mgrwt>
</event>
<event>
 8    1  0.9373234E-006  0.4338605E+03  0.7546771E-02  0.1032647E+00
         21   -1    0    0  504  503  0.00000000000E+00  0.00000000000E+00  0.39134474572E+03  0.39134474572E+03  0.00000000000E+00 0.  1.
         21   -1    0    0  503  504 -0.00000000000E+00 -0.00000000000E+00 -0.12024877380E+03  0.12024877380E+03  0.00000000000E+00 0.  1.
         25    2    1    2    0    0  0.17172838449E+03  0.35117802694E+02  0.16695985309E+03  0.27244275689E+03  0.12500226050E+03 0.  0.
         25    2    1    2    0    0 -0.17172838449E+03 -0.35117802694E+02  0.10413611883E+03  0.23915076262E+03  0.12499943164E+03 0.  0.
          5    1    3    3  501    0  0.12395281373E+03  0.21260053611E+02  0.18108116509E+03  0.22051931494E+03  0.47000000000E+01 0.  1.
         -5    1    3    3    0  501  0.47775570766E+02  0.13857749083E+02 -0.14121311998E+02  0.51923441952E+02  0.47000000000E+01 0.  1.
          5    1    4    4  502    0 -0.15069315018E+03 -0.68967295835E+02  0.52811113167E+02  0.17400004908E+03  0.47000000000E+01 0.  1.
         -5    1    4    4    0  502 -0.21035234310E+02  0.33849493141E+02  0.51325005663E+02  0.65150713539E+02  0.47000000000E+01 0.  1.
<mgrwt>
<rscale>  0 0.43386047E+03</rscale>
<asrwt>0</asrwt>
<pdfrwt beam="1">  1       21 0.60206884E-01 0.43386047E+03</pdfrwt>
<pdfrwt beam="2">  1       21 0.18499811E-01 0.43386047E+03</pdfrwt>
<totfact> 0.63679754E+04</totfact>
</mgrwt>
</event>
<event>
 8    1  0.9373234E-006  0.3606294E+03  0.7546771E-02  0.1058335E+00
         21   -1    0    0  504  503  0.00000000000E+00  0.00000000000E+00  0.34566255701E+03  0.34566255701E+03  0.00000000000E+00 0. -1.
         21   -1    0    0  503  504 -0.00000000000E+00 -0.00000000000E+00 -0.94061090737E+02  0.94061090737E+02  0.00000000000E+00 0. -1.
         25    2    1    2    0    0 -0.25815648100E+02 -0.77658153564E+02  0.24889155453E+03  0.29029358757E+03  0.12500449818E+03 0.  0.
         25    2    1    2    0    0  0.25815648100E+02  0.77658153564E+02  0.27099117378E+01  0.14943006018E+03  0.12499905104E+03 0.  0.
          5    1    3    3  501    0 -0.45859919547E+02 -0.67527163122E+02  0.25395789753E+03  0.26679534047E+03  0.47000000000E+01 0.  1.
         -5    1    3    3    0  501  0.20044271447E+02 -0.10130990443E+02 -0.50663429984E+01  0.23498247096E+02  0.47000000000E+01 0.  1.
          5    1    4    4  502    0  0.58812428221E+02  0.69130221268E+02  0.39467414694E+02  0.99084085647E+02  0.47000000000E+01 0. -1.
         -5    1    4    4    0  502 -0.32996780122E+02  0.85279322966E+01 -0.36757502957E+02  0.50345974529E+02  0.47000000000E+01 0. -1.
<mgrwt>
<rscale>  0 0.36062943E+03</rscale>
<asrwt>0</asrwt>
<pdfrwt beam="1">  1       21 0.53178854E-01 0.36062943E+03</pdfrwt>
<pdfrwt beam="2">  1       21 0.14470937E-01 0.36062943E+03</pdfrwt>
<totfact> 0.13374211E+05</totfact>
</mgrwt>
</event>
<event>
 8    1  0.9373234E-006  0.2531547E+03  0.7546771E-02  0.1111327E+00
         21   -1    0    0  504  503  0.00000000000E+00  0.00000000000E+00  0.10036874511E+03  0.10036874511E+03  0.00000000000E+00 0. -1.
         21   -1    0    0  503  504 -0.00000000000E+00 -0.00000000000E+00 -0.15962963356E+03  0.15962963356E+03  0.00000000000E+00 0. -1.
         25    2    1    2    0    0 -0.69544893771E+01  0.36491896287E+01 -0.10836322444E+02  0.12571303421E+03  0.12499863831E+03 0.  0.
         25    2    1    2    0    0  0.69544893771E+01 -0.36491896287E+01 -0.48424566009E+02  0.13428534446E+03  0.12500373449E+03 0.  0.
          5    1    3    3  501    0 -0.64760722769E+02 -0.87736264062E+01 -0.60123731113E+00  0.65523882822E+02  0.47000000000E+01 0. -1.
         -5    1    3    3    0  501  0.57806233392E+02  0.12422816035E+02 -0.10235085133E+02  0.60189151388E+02  0.47000000000E+01 0. -1.
          5    1    4    4  502    0  0.33877833276E+02 -0.14948405910E+01  0.33497984271E+02  0.47897255517E+02  0.47000000000E+01 0.  1.
         -5    1    4    4    0  502 -0.26923343899E+02 -0.21543490377E+01 -0.81922550279E+02  0.86388088940E+02  0.47000000000E+01 0.  1.
<mgrwt>
<rscale>  0 0.25315470E+03</rscale>
<asrwt>0</asrwt>
<pdfrwt beam="1">  1       21 0.15441346E-01 0.25315470E+03</pdfrwt>
<pdfrwt beam="2">  1       21 0.24558405E-01 0.25315470E+03</pdfrwt>
<totfact> 0.57676741E+05</totfact>
</mgrwt>
</event>
<event>
 8    1  0.9373234E-006  0.3013988E+03  0.7546771E-02  0.1084543E+00
         21   -1    0    0  504  503  0.00000000000E+00  0.00000000000E+00  0.92487870320E+02  0.92487870320E+02  0.00000000000E+00 0. -1.
         21   -1    0    0  503  504 -0.00000000000E+00 -0.00000000000E+00 -0.24554901059E+03  0.24554901059E+03  0.00000000000E+00 0. -1.
         25    2    1    2    0    0  0.22191377404E+02 -0.69683742238E+02 -0.29774239207E+02  0.14785171541E+03  0.12500137306E+03 0.  0.
         25    2    1    2    0    0 -0.22191377404E+02  0.69683742238E+02 -0.12328690106E+03  0.19018516550E+03  0.12498982374E+03 0.  0.
          5    1    3    3  501    0  0.57887388728E+01 -0.92889000403E+02  0.15225368953E+02  0.94423396218E+02  0.47000000000E+01 0.  1.
         -5    1    3    3    0  501  0.16402638531E+02  0.23205258165E+02 -0.44999608160E+02  0.53428319193E+02  0.47000000000E+01 0.  1.
          5    1    4    4  502    0  0.24688520509E+02 -0.16678118645E+02 -0.74500811531E+02  0.80375018539E+02  0.47000000000E+01 0. -1.
         -5    1    4    4    0  502 -0.46879897913E+02  0.86361860883E+02 -0.48786089534E+02  0.10981014696E+03  0.47000000000E+01 0. -1.
<mgrwt>
<rscale>  0 0.30139877E+03</rscale>
<asrwt>0</asrwt>
<pdfrwt beam="1">  1       21 0.14228903E-01 0.30139877E+03</pdfrwt>
<pdfrwt beam="2">  1       21 0.37776770E-01 0.30139877E+03</pdfrwt>
<totfact> 0.28439194E+05</totfact>
</mgrwt>
</event>
<event>
 8    1  0.9373234E-006  0.2865937E+03  0.7546771E-02  0.1092141E+00
         21   -1    0    0  504  503  0.00000000000E+00  0.00000000000E+00  0.31188387913E+02  0.31188387913E+02  0.00000000000E+00 0. -1.
         21   -1    0    0  503  504 -0.00000000000E+00 -0.00000000000E+00 -0.65838578683E+03  0.65838578683E+03  0.00000000000E+00 0. -1.
         25    2    1    2    0    0  0.68658778457E+02  0.75898292412E+01 -0.28548135456E+03  0.31921300785E+03  0.12500282881E+03 0.  0.
         25    2    1    2    0    0 -0.68658778457E+02 -0.75898292412E+01 -0.34171604435E+03  0.37036116689E+03  0.12500362237E+03 0.  0.
          5    1    3    3  501    0  0.66285171920E+02  0.60229929287E+02 -0.17067270274E+03  0.19280204838E+03  0.47000000000E+01 0.  1.
         -5    1    3    3    0  501  0.23736065374E+01 -0.52640100046E+02 -0.11480865182E+03  0.12641095947E+03  0.47000000000E+01 0.  1.
          5    1    4    4  502    0 -0.77624716421E+02  0.16685022870E+02 -0.10267599919E+03  0.12987854864E+03  0.47000000000E+01 0.  1.
         -5    1    4    4    0  502  0.89659379634E+01 -0.24274852111E+02 -0.23904004517E+03  0.24048261825E+03  0.47000000000E+01 0.  1.
<mgrwt>
<rscale>  0 0.28659373E+03</rscale>
<asrwt>0</asrwt>
<pdfrwt beam="1">  1       21 0.47982137E-02 0.28659373E+03</pdfrwt>
<pdfrwt beam="2">  1       21 0.10129012E+00 0.28659373E+03</pdfrwt>
<totfact> 0.22334255E+05</totfact>
</mgrwt>
</event>
<event>
 8    1  0.9373234E-006  0.2595282E+03  0.7546771E-02  0.1107427E+00
         21   -1    0    0  504  503  0.00000000000E+00  0.00000000000E+00  0.36475979318E+02  0.36475979318E+02  0.00000000000E+00 0. -1.
         21   -1    0    0  503  504 -0.00000000000E+00 -0.00000000000E+00 -0.46163867141E+03  0.46163867141E+03  0.00000000000E+00 0. -1.
         25    2    1    2    0    0  0.34111050062E+02 -0.63113664712E+01 -0.21784250090E+03  0.25354704557E+03  0.12500940779E+03 0.  0.
         25    2    1    2    0    0 -0.34111050062E+02  0.63113664712E+01 -0.20732019119E+03  0.24456760515E+03  0.12501301826E+03 0.  0.
          5    1    3    3  501    0 -0.42096900557E+02  0.22044521288E+02 -0.91840846193E+02  0.10351299911E+03  0.47000000000E+01 0. -1.
         -5    1    3    3    0  501  0.76207950619E+02 -0.28355887760E+02 -0.12600165471E+03  0.15003404646E+03  0.47000000000E+01 0. -1.
          5    1    4    4  502    0 -0.44066812345E+02 -0.53181161393E+02 -0.10923795439E+03  0.12932571498E+03  0.47000000000E+01 0.  1.
         -5    1    4    4    0  502  0.99557622827E+01  0.59492527864E+02 -0.98082236799E+02  0.11524189017E+03  0.47000000000E+01 0.  1.
<mgrwt>
<rscale>  0 0.25952821E+03</rscale>
<asrwt>0</asrwt>
<pdfrwt beam="1">  1       21 0.56116890E-02 0.25952821E+03</pdfrwt>
<pdfrwt beam="2">  1       21 0.71021336E-01 0.25952821E+03</pdfrwt>
<totfact> 0.39048718E+05</totfact>
</mgrwt>
</event>
<event>
 8    1  0.9373234E-006  0.3004674E+03  0.7546771E-02  0.1085007E+00
         21   -1    0    0  504  503  0.00000000000E+00  0.00000000000E+00  0.53910630106E+02  0.53910630106E+02  0.00000000000E+00 0. -1.
         21   -1    0    0  503  504 -0.00000000000E+00 -0.00000000000E+00 -0.41865898387E+03  0.41865898387E+03  0.00000000000E+00 0. -1.
         25    2    1    2    0    0 -0.67833505984E+02  0.48387138965E+02 -0.18510748881E+03  0.23839716135E+03  0.12500289745E+03 0.  0.
         25    2    1    2    0    0  0.67833505984E+02 -0.48387138965E+02 -0.17964086495E+03  0.23417245263E+03  0.12499278963E+03 0.  0.
          5    1    3    3  501    0  0.31404554375E+02 -0.68732052063E+01 -0.67023759410E+02  0.74483295515E+02  0.47000000000E+01 0.  1.
         -5    1    3    3    0  501 -0.99238060360E+02  0.55260344171E+02 -0.11808372940E+03  0.16391386583E+03  0.47000000000E+01 0.  1.
          5    1    4    4  502    0  0.27002347833E+02 -0.82860880951E+02 -0.14821086845E+03  0.17199884856E+03  0.47000000000E+01 0.  1.
         -5    1    4    4    0  502  0.40831158151E+02  0.34473741987E+02 -0.31429996500E+02  0.62173604066E+02  0.47000000000E+01 0.  1.
<mgrwt>
<rscale>  0 0.30046743E+03</rscale>
<asrwt>0</asrwt>
<pdfrwt beam="1">  1       21 0.82939430E-02 0.30046743E+03</pdfrwt>
<pdfrwt beam="2">  1       21 0.64409075E-01 0.30046743E+03</pdfrwt>
<totfact> 0.24360472E+05</totfact>
</mgrwt>
</event>
<event>
 8    1  0.9373234E-006  0.3835593E+03  0.7546771E-02  0.1049626E+00
         21   -1    0    0  504  503  0.00000000000E+00  0.00000000000E+00  0.25778967453E+03  0.25778967453E+03  0.00000000000E+00 0.  1.
         21   -1    0    0  503  504 -0.00000000000E+00 -0.00000000000E+00 -0.14267226943E+03  0.14267226943E+03  0.00000000000E+00 0.  1.
         25    2    1    2    0    0 -0.10398165277E+03 -0.10029576426E+03  0.75075146222E+02  0.20526887984E+03  0.12501044361E+03 0.  0.
         25    2    1    2    0    0  0.10398165277E+03  0.10029576426E+03  0.40042258870E+02  0.19519306411E+03  0.12500210136E+03 0.  0.
          5    1    3    3  501    0 -0.66531423315E+02 -0.91705802205E+02 -0.79395529969E+01  0.11367282414E+03  0.47000000000E+01 0. -1.
         -5    1    3    3    0  501 -0.37450229450E+02 -0.85899620500E+01  0.83014699219E+02  0.91596055703E+02  0.47000000000E+01 0. -1.
          5    1    4    4  502    0  0.31911994279E+02  0.95087245639E+02  0.63824356842E+02  0.11897730115E+03  0.47000000000E+01 0. -1.
         -5    1    4    4    0  502  0.72069658487E+02  0.52085186162E+01 -0.23782097972E+02  0.76215762967E+02  0.47000000000E+01 0. -1.
<mgrwt>
<rscale>  0 0.38355932E+03</rscale>
<asrwt>0</asrwt>
<pdfrwt beam="1">  1       21 0.39659950E-01 0.38355932E+03</pdfrwt>
<pdfrwt beam="2">  1       21 0.21949580E-01 0.38355932E+03</pdfrwt>
<totfact> 0.11254023E+05</totfact>
</mgrwt>
</event>
<event>
 8    1  0.9373234E-006  0.2878567E+03  0.7546771E-02  0.1091473E+00
         21   -1    0    0  504  503  0.00000000000E+00  0.00000000000E+00  0.12218996169E+02  0.12218996169E+02  0.00000000000E+00 0. -1.
         21   -1    0    0  503  504 -0.00000000000E+00 -0.00000000000E+00 -0.16953418394E+04  0.16953418394E+04  0.00000000000E+00 0. -1.
         25    2    1    2    0    0  0.12846766082E+02  0.34018147755E+02 -0.12057193775E+04  0.12127272834E+04  0.12500389171E+03 0.  0.
         25    2    1    2    0    0 -0.12846766082E+02 -0.34018147755E+02 -0.47740346573E+03  0.49483355213E+03  0.12499560571E+03 0.  0.
          5    1    3    3  501    0 -0.55004540109E+02  0.17501603323E+02 -0.66045789449E+03  0.66299210097E+03  0.47000000000E+01 0. -1.
         -5    1    3    3    0  501  0.67851306191E+02  0.16516544431E+02 -0.54526148302E+03  0.54973518248E+03  0.47000000000E+01 0. -1.
          5    1    4    4  502    0 -0.35982389737E+02 -0.81606627069E+01 -0.44675590318E+03  0.44830152332E+03  0.47000000000E+01 0.  1.
         -5    1    4    4    0  502  0.23135623656E+02 -0.25857485048E+02 -0.30647562556E+02  0.46532028814E+02  0.47000000000E+01 0.  1.
<mgrwt>
<rscale>  0 0.28785674E+03</rscale>
<asrwt>0</asrwt>
<pdfrwt beam="1">  1       21 0.18798465E-02 0.28785674E+03</pdfrwt>
<pdfrwt beam="2">  1       21 0.26082170E+00 0.28785674E+03</pdfrwt>
<totfact> 0.73679206E+04</totfact>
</mgrwt>
</event>
<event>
 8    1  0.9373234E-006  0.3024541E+03  0.7546771E-02  0.1084020E+00
         21   -1    0    0  504  503  0.00000000000E+00  0.00000000000E+00  0.43846657687E+03  0.43846657687E+03  0.00000000000E+00 0. -1.
         21   -1    0    0  503  504 -0.00000000000E+00 -0.00000000000E+00 -0.52158188171E+02  0.52158188171E+02  0.00000000000E+00 0. -1.
         25    2    1    2    0    0 -0.59660105122E+02 -0.48624735485E+02  0.13421298043E+03  0.19890173755E+03  0.12500033616E+03 0.  0.
         25    2    1    2    0    0  0.59660105122E+02  0.48624735485E+02  0.25209540827E+03  0.29172302749E+03  0.12500614727E+03 0.  0.
          5    1    3    3  501    0 -0.12924107569E+02 -0.55164868270E+02  0.14002056492E+03  0.15112261197E+03  0.47000000000E+01 0.  1.
         -5    1    3    3    0  501 -0.46735997553E+02  0.65401327848E+01 -0.58075844854E+01  0.47779125585E+02  0.47000000000E+01 0.  1.
          5    1    4    4  502    0  0.76788818021E+02  0.64481796549E+02  0.24802343343E+03  0.26756707232E+03  0.47000000000E+01 0.  1.
         -5    1    4    4    0  502 -0.17128712899E+02 -0.15857061064E+02  0.40719748378E+01  0.24155955171E+02  0.47000000000E+01 0.  1.
<mgrwt>
<rscale>  0 0.30245411E+03</rscale>
<asrwt>0</asrwt>
<pdfrwt beam="1">  1       21 0.67456394E-01 0.30245411E+03</pdfrwt>
<pdfrwt beam="2">  1       21 0.80243369E-02 0.30245411E+03</pdfrwt>
<totfact> 0.23305433E+05</totfact>
</mgrwt>
</event>
<event>
 8    1  0.9373234E-006  0.2707437E+03  0.7546771E-02  0.1100855E+00
         21   -1    0    0  504  503  0.00000000000E+00  0.00000000000E+00  0.21707145145E+02  0.21707145145E+02  0.00000000000E+00 0.  1.
         21   -1    0    0  503  504 -0.00000000000E+00 -0.00000000000E+00 -0.84421654341E+03  0.84421654341E+03  0.00000000000E+00 0.  1.
         25    2    1    2    0    0 -0.15719344960E+02  0.36595505993E+02 -0.30446899374E+03  0.33152969324E+03  0.12499696191E+03 0.  0.
         25    2    1    2    0    0  0.15719344960E+02 -0.36595505993E+02 -0.51804040453E+03  0.53439399532E+03  0.12499901057E+03 0.  0.
          5    1    3    3  501    0 -0.25051287448E+02  0.49400128277E+02 -0.44958084606E+02  0.71493069930E+02  0.47000000000E+01 0. -1.
         -5    1    3    3    0  501  0.93319424887E+01 -0.12804622284E+02 -0.25951090913E+03  0.26003662331E+03  0.47000000000E+01 0. -1.
          5    1    4    4  502    0  0.26528484956E+02 -0.69796717222E+02 -0.18589949802E+03  0.20038975925E+03  0.47000000000E+01 0.  1.
         -5    1    4    4    0  502 -0.10809139997E+02  0.33201211228E+02 -0.33214090651E+03  0.33400423606E+03  0.47000000000E+01 0.  1.
<mgrwt>
<rscale>  0 0.27074365E+03</rscale>
<asrwt>0</asrwt>
<pdfrwt beam="1">  1       21 0.33395615E-02 0.27074365E+03</pdfrwt>
<pdfrwt beam="2">  1       21 0.12987944E+00 0.27074365E+03</pdfrwt>
<totfact> 0.22357658E+05</totfact>
</mgrwt>
</event>
<event>
 8    1  0.9373234E-006  0.2619928E+03  0.7546771E-02  0.1105952E+00
         21   -1    0    0  504  503  0.00000000000E+00  0.00000000000E+00  0.95337380629E+01  0.95337380629E+01  0.00000000000E+00 0. -1.
         21   -1    0    0  503  504 -0.00000000000E+00 -0.00000000000E+00 -0.17999299681E+04  0.17999299681E+04  0.00000000000E+00 0. -1.
         25    2    1    2    0    0  0.29645771008E+02 -0.24536169543E+02 -0.84394398008E+03  0.85401772910E+03  0.12499577895E+03 0.  0.
         25    2    1    2    0    0 -0.29645771008E+02  0.24536169543E+02 -0.94645224995E+03  0.95544597705E+03  0.12499703307E+03 0.  0.
          5    1    3    3  501    0  0.64138010881E+02 -0.54927820397E+02 -0.54585371006E+03  0.55236682801E+03  0.47000000000E+01 0. -1.
         -5    1    3    3    0  501 -0.34492239873E+02  0.30391650854E+02 -0.29809027002E+03  0.30165090110E+03  0.47000000000E+01 0. -1.
          5    1    4    4  502    0  0.22893106866E+02  0.85246284537E+01 -0.38601082043E+02  0.45922730397E+02  0.47000000000E+01 0.  1.
         -5    1    4    4    0  502 -0.52538877874E+02  0.16011541090E+02 -0.90785116791E+03  0.90952324666E+03  0.47000000000E+01 0.  1.
<mgrwt>
<rscale>  0 0.26199283E+03</rscale>
<asrwt>0</asrwt>
<pdfrwt beam="1">  1       21 0.14667309E-02 0.26199283E+03</pdfrwt>
<pdfrwt beam="2">  1       21 0.27691194E+00 0.26199283E+03</pdfrwt>
<totfact> 0.89942194E+04</totfact>
</mgrwt>
</event>
<event>
 8    1  0.9373234E-006  0.3337915E+03  0.7546771E-02  0.1069471E+00
         21   -1    0    0  504  503  0.00000000000E+00  0.00000000000E+00  0.11866830965E+03  0.11866830965E+03  0.00000000000E+00 0.  1.
         21   -1    0    0  503  504 -0.00000000000E+00 -0.00000000000E+00 -0.23472301212E+03  0.23472301212E+03  0.00000000000E+00 0.  1.
         25    2    1    2    0    0 -0.52882451799E+01  0.10826409689E+03 -0.34832099501E+02  0.16907881547E+03  0.12500116188E+03 0.  0.
         25    2    1    2    0    0  0.52882451799E+01 -0.10826409689E+03 -0.81222602970E+02  0.18431250630E+03  0.12499963413E+03 0.  0.
          5    1    3    3  501    0  0.12078626038E+02  0.11039522052E+03  0.18563824176E+02  0.11269296114E+03  0.47000000000E+01 0. -1.
         -5    1    3    3    0  501 -0.17366871218E+02 -0.21311236297E+01 -0.53395923677E+02  0.56385854335E+02  0.47000000000E+01 0. -1.
          5    1    4    4  502    0  0.35812388046E+01 -0.40274538745E+02 -0.10460093562E+03  0.11224219115E+03  0.47000000000E+01 0. -1.
         -5    1    4    4    0  502  0.17070063753E+01 -0.67989558149E+02  0.23378332650E+02  0.72070315148E+02  0.47000000000E+01 0. -1.
<mgrwt>
<rscale>  0 0.33379145E+03</rscale>
<asrwt>0</asrwt>
<pdfrwt beam="1">  1       21 0.18256663E-01 0.33379145E+03</pdfrwt>
<pdfrwt beam="2">  1       21 0.36111232E-01 0.33379145E+03</pdfrwt>
<totfact> 0.19504987E+05</totfact>
</mgrwt>
</event>
<event>
 8    1  0.9373234E-006  0.3995867E+03  0.7546771E-02  0.1043923E+00
         21   -1    0    0  504  503  0.00000000000E+00  0.00000000000E+00  0.29035487056E+03  0.29035487056E+03  0.00000000000E+00 0. -1.
         21   -1    0    0  503  504 -0.00000000000E+00 -0.00000000000E+00 -0.13747794796E+03  0.13747794796E+03  0.00000000000E+00 0. -1.
         25    2    1    2    0    0  0.12392549208E+02 -0.13165638499E+03  0.16477600860E+03  0.24548452747E+03  0.12499816491E+03 0.  0.
         25    2    1    2    0    0 -0.12392549208E+02  0.13165638499E+03 -0.11899086004E+02  0.18234829106E+03  0.12498932762E+03 0.  0.
          5    1    3    3  501    0  0.24098396199E+02  0.39845497662E+01  0.82889647583E+02  0.86541279241E+02  0.47000000000E+01 0.  1.
         -5    1    3    3    0  501 -0.11705846992E+02 -0.13564093476E+03  0.81886361018E+02  0.15894324822E+03  0.47000000000E+01 0.  1.
          5    1    4    4  502    0 -0.15129505944E+02  0.15515053241E+03 -0.11897932874E+01  0.15596183913E+03  0.47000000000E+01 0. -1.
         -5    1    4    4    0  502  0.27369567361E+01 -0.23494147417E+02 -0.10709292717E+02  0.26386451931E+02  0.47000000000E+01 0. -1.
<mgrwt>
<rscale>  0 0.39958675E+03</rscale>
<asrwt>0</asrwt>
<pdfrwt beam="1">  1       21 0.44669980E-01 0.39958675E+03</pdfrwt>
<pdfrwt beam="2">  1       21 0.21150454E-01 0.39958675E+03</pdfrwt>
<totfact> 0.94132552E+04</totfact>
</mgrwt>
</event>
<event>
 8    1  0.9373234E-006  0.3282296E+03  0.7546771E-02  0.1071923E+00
         21   -1    0    0  504  503  0.00000000000E+00  0.00000000000E+00  0.64794370922E+03  0.64794370922E+03  0.00000000000E+00 0. -1.
         21   -1    0    0  503  504 -0.00000000000E+00 -0.00000000000E+00 -0.41567901874E+02  0.41567901874E+02  0.00000000000E+00 0. -1.
         25    2    1    2    0    0 -0.32222088000E+02 -0.65243898131E+02  0.14027646154E+03  0.20148631864E+03  0.12499688691E+03 0.  0.
         25    2    1    2    0    0  0.32222088000E+02  0.65243898131E+02  0.46609934581E+03  0.48802529246E+03  0.12500022686E+03 0.  0.
          5    1    3    3  501    0 -0.54839443066E+02 -0.64675205884E+02  0.15308680522E+03  0.17506543549E+03  0.47000000000E+01 0.  1.
         -5    1    3    3    0  501  0.22617355066E+02 -0.56869224633E+00 -0.12810343680E+02  0.26420883147E+02  0.47000000000E+01 0.  1.
          5    1    4    4  502    0  0.21150918730E+02  0.51872141243E+02  0.62643390064E+02  0.84168668274E+02  0.47000000000E+01 0. -1.
         -5    1    4    4    0  502  0.11071169270E+02  0.13371756888E+02  0.40345595574E+03  0.40385662418E+03  0.47000000000E+01 0. -1.
<mgrwt>
<rscale>  0 0.32822956E+03</rscale>
<asrwt>0</asrwt>
<pdfrwt beam="1">  1       21 0.99683640E-01 0.32822956E+03</pdfrwt>
<pdfrwt beam="2">  1       21 0.63950623E-02 0.32822956E+03</pdfrwt>
<totfact> 0.14007990E+05</totfact>
</mgrwt>
</event>
<event>
 8    1  0.9373234E-006  0.3129562E+03  0.7546771E-02  0.1078937E+00
         21   -1    0    0  504  503  0.00000000000E+00  0.00000000000E+00  0.16479436871E+04  0.16479436871E+04  0.00000000000E+00 0. -1.
         21   -1    0    0  503  504 -0.00000000000E+00 -0.00000000000E+00 -0.14858151975E+02  0.14858151975E+02  0.00000000000E+00 0. -1.
         25    2    1    2    0    0  0.71461333542E+02 -0.21041066857E+02  0.11222451856E+04  0.11316403084E+04  0.12500432861E+03 0.  0.
         25    2    1    2    0    0 -0.71461333542E+02  0.21041066857E+02  0.51084034948E+03  0.53116153069E+03  0.12500104137E+03 0.  0.
          5    1    3    3  501    0  0.92803205710E+02 -0.44741830824E+02  0.63414423311E+03  0.64247588655E+03  0.47000000000E+01 0. -1.
         -5    1    3    3    0  501 -0.21341872167E+02  0.23700763967E+02  0.48810095253E+03  0.48916442183E+03  0.47000000000E+01 0. -1.
          5    1    4    4  502    0  0.11329152662E+02  0.53181442611E+02  0.23861849948E+03  0.24478050133E+03  0.47000000000E+01 0. -1.
         -5    1    4    4    0  502 -0.82790486204E+02 -0.32140375754E+02  0.27222185000E+03  0.28638102936E+03  0.47000000000E+01 0. -1.
<mgrwt>
<rscale>  0 0.31295621E+03</rscale>
<asrwt>0</asrwt>
<pdfrwt beam="1">  1       21 0.25352965E+00 0.31295621E+03</pdfrwt>
<pdfrwt beam="2">  1       21 0.22858708E-02 0.31295621E+03</pdfrwt>
<totfact> 0.58332174E+04</totfact>
</mgrwt>
</event>
<event>
 8    1  0.9373234E-006  0.3648485E+03  0.7546771E-02  0.1056680E+00
         21   -1    0    0  504  503  0.00000000000E+00  0.00000000000E+00  0.13094048669E+03  0.13094048669E+03  0.00000000000E+00 0.  1.
         21   -1    0    0  503  504 -0.00000000000E+00 -0.00000000000E+00 -0.25415067997E+03  0.25415067997E+03  0.00000000000E+00 0.  1.
         25    2    1    2    0    0 -0.85999867157E+01  0.11652310945E+03 -0.12837473227E+03  0.21390887786E+03  0.12500136532E+03 0.  0.
         25    2    1    2    0    0  0.85999867157E+01 -0.11652310945E+03  0.51645389852E+01  0.17118228881E+03  0.12500043492E+03 0.  0.
          5    1    3    3  501    0 -0.22111161770E+02  0.12050902663E+03 -0.47192230301E+02  0.13137931944E+03  0.47000000000E+01 0. -1.
         -5    1    3    3    0  501  0.13511175054E+02 -0.39859171810E+01 -0.81182501966E+02  0.82529558418E+02  0.47000000000E+01 0. -1.
          5    1    4    4  502    0 -0.37785512713E+02  0.50613217371E+01  0.13459090398E+02  0.40701339819E+02  0.47000000000E+01 0. -1.
         -5    1    4    4    0  502  0.46385499429E+02 -0.12158443119E+03 -0.82945514130E+01  0.13048094899E+03  0.47000000000E+01 0. -1.
<mgrwt>
<rscale>  0 0.36484854E+03</rscale>
<asrwt>0</asrwt>
<pdfrwt beam="1">  1       21 0.20144690E-01 0.36484854E+03</pdfrwt>
<pdfrwt beam="2">  1       21 0.39100105E-01 0.36484854E+03</pdfrwt>
<totfact> 0.13697499E+05</totfact>
</mgrwt>
</event>
<event>
 8    1  0.9373234E-006  0.3385933E+03  0.7546771E-02  0.1067397E+00
         21   -1    0    0  504  503  0.00000000000E+00  0.00000000000E+00  0.16075007439E+02  0.16075007439E+02  0.00000000000E+00 0.  1.
         21   -1    0    0  503  504 -0.00000000000E+00 -0.00000000000E+00 -0.17829762303E+04  0.17829762303E+04  0.00000000000E+00 0.  1.
         25    2    1    2    0    0  0.10214130567E+03  0.48633130634E+02 -0.80218062635E+03  0.81971026389E+03  0.12503252264E+03 0.  0.
         25    2    1    2    0    0 -0.10214130567E+03 -0.48633130634E+02 -0.96472059656E+03  0.97934097389E+03  0.12499954403E+03 0.  0.
          5    1    3    3  501    0  0.66265364766E+02  0.19654493994E+02 -0.73400568424E+03  0.73726781579E+03  0.47000000000E+01 0.  1.
         -5    1    3    3    0  501  0.35875940905E+02  0.28978636640E+02 -0.68174942110E+02  0.82442448101E+02  0.47000000000E+01 0.  1.
          5    1    4    4  502    0 -0.10418488362E+03 -0.35675339292E+02 -0.41333418164E+03  0.42777851222E+03  0.47000000000E+01 0. -1.
         -5    1    4    4    0  502  0.20435779528E+01 -0.12957791342E+02 -0.55138641492E+03  0.55156246167E+03  0.47000000000E+01 0. -1.
<mgrwt>
<rscale>  0 0.33859330E+03</rscale>
<asrwt>0</asrwt>
<pdfrwt beam="1">  1       21 0.24730796E-02 0.33859330E+03</pdfrwt>
<pdfrwt beam="2">  1       21 0.27430386E+00 0.33859330E+03</pdfrwt>
<totfact> 0.37975940E+04</totfact>
</mgrwt>
</event>
<event>
 8    1  0.9373234E-006  0.3097763E+03  0.7546771E-02  0.1080453E+00
         21   -1    0    0  504  503  0.00000000000E+00  0.00000000000E+00  0.20022623687E+02  0.20022623687E+02  0.00000000000E+00 0.  1.
         21   -1    0    0  503  504 -0.00000000000E+00 -0.00000000000E+00 -0.11981614738E+04  0.11981614738E+04  0.00000000000E+00 0.  1.
         25    2    1    2    0    0  0.42037991846E+02 -0.27638362734E+02 -0.28872779717E+03  0.31862382715E+03  0.12500532196E+03 0.  0.
         25    2    1    2    0    0 -0.42037991846E+02  0.27638362734E+02 -0.88941105293E+03  0.89956027032E+03  0.12500234803E+03 0.  0.
          5    1    3    3  501    0  0.78435208880E+02 -0.36556962201E+02 -0.13576473997E+03  0.16106721608E+03  0.47000000000E+01 0. -1.
         -5    1    3    3    0  501 -0.36397217034E+02  0.89185994674E+01 -0.15296305720E+03  0.15755661107E+03  0.47000000000E+01 0. -1.
          5    1    4    4  502    0 -0.75472836361E+02  0.17262992855E+02 -0.32828981530E+03  0.33732840494E+03  0.47000000000E+01 0.  1.
         -5    1    4    4    0  502  0.33434844515E+02  0.10375369879E+02 -0.56112123763E+03  0.56223186538E+03  0.47000000000E+01 0.  1.
<mgrwt>
<rscale>  0 0.30977628E+03</rscale>
<asrwt>0</asrwt>
<pdfrwt beam="1">  1       21 0.30804033E-02 0.30977628E+03</pdfrwt>
<pdfrwt beam="2">  1       21 0.18433256E+00 0.30977628E+03</pdfrwt>
<totfact> 0.97737758E+04</totfact>
</mgrwt>
</event>
<event>
 8    1  0.9373234E-006  0.7232413E+03  0.7546771E-02  0.9678292E-01
         21   -1    0    0  504  503  0.00000000000E+00  0.00000000000E+00  0.26125545064E+03  0.26125545064E+03  0.00000000000E+00 0.  1.
         21   -1    0    0  503  504 -0.00000000000E+00 -0.00000000000E+00 -0.50054266315E+03  0.50054266315E+03  0.00000000000E+00 0.  1.
         25    2    1    2    0    0  0.73472389467E+02 -0.30071383376E+03  0.26753157316E+02  0.33491451125E+03  0.12499998637E+03 0.  0.
         25    2    1    2    0    0 -0.73472389467E+02  0.30071383376E+03 -0.26604036983E+03  0.42688360254E+03  0.12500051963E+03 0.  0.
          5    1    3    3  501    0  0.47814869375E+01 -0.18759211846E+03 -0.31331180430E+02  0.19030869238E+03  0.47000000000E+01 0.  1.
         -5    1    3    3    0  501  0.68690902529E+02 -0.11312171530E+03  0.58084337746E+02  0.14460581888E+03  0.47000000000E+01 0.  1.
          5    1    4    4  502    0  0.20780190859E+02  0.15726585676E+03 -0.15841336130E+03  0.22423480790E+03  0.47000000000E+01 0. -1.
         -5    1    4    4    0  502 -0.94252580326E+02  0.14344797700E+03 -0.10762700852E+03  0.20264879463E+03  0.47000000000E+01 0. -1.
<mgrwt>
<rscale>  0 0.72324131E+03</rscale>
<asrwt>0</asrwt>
<pdfrwt beam="1">  1       21 0.40193146E-01 0.72324131E+03</pdfrwt>
<pdfrwt beam="2">  1       21 0.77006564E-01 0.72324131E+03</pdfrwt>
<totfact> 0.74394876E+03</totfact>
</mgrwt>
</event>
<event>
 8    1  0.9373234E-006  0.4123778E+03  0.7546771E-02  0.1039576E+00
         21   -1    0    0  504  503  0.00000000000E+00  0.00000000000E+00  0.21267410128E+02  0.21267410128E+02  0.00000000000E+00 0.  1.
         21   -1    0    0  503  504 -0.00000000000E+00 -0.00000000000E+00 -0.19990141070E+04  0.19990141070E+04  0.00000000000E+00 0.  1.
         25    2    1    2    0    0 -0.83433605479E+01 -0.14107950944E+03 -0.58147531866E+03  0.61132035085E+03  0.12500394192E+03 0.  0.
         25    2    1    2    0    0  0.83433605479E+01  0.14107950944E+03 -0.13962713782E+04  0.14089611663E+04  0.12499906731E+03 0.  0.
          5    1    3    3  501    0 -0.35277489428E+02 -0.12375672121E+03 -0.28092986387E+03  0.30903706205E+03  0.47000000000E+01 0.  1.
         -5    1    3    3    0  501  0.26934128880E+02 -0.17322788230E+02 -0.30054545479E+03  0.30228328880E+03  0.47000000000E+01 0.  1.
          5    1    4    4  502    0  0.54063739067E+02  0.22157989817E+02 -0.55446468435E+03  0.55755451803E+03  0.47000000000E+01 0.  1.
         -5    1    4    4    0  502 -0.45720378519E+02  0.11892151963E+03 -0.84180669385E+03  0.85140664823E+03  0.47000000000E+01 0.  1.
<mgrwt>
<rscale>  0 0.41237775E+03</rscale>
<asrwt>0</asrwt>
<pdfrwt beam="1">  1       21 0.32719090E-02 0.41237775E+03</pdfrwt>
<pdfrwt beam="2">  1       21 0.30754066E+00 0.41237775E+03</pdfrwt>
<totfact> 0.14531118E+04</totfact>
</mgrwt>
</event>
<event>
 8    1  0.9373234E-006  0.2726150E+03  0.7546771E-02  0.1099792E+00
         21   -1    0    0  504  503  0.00000000000E+00  0.00000000000E+00  0.19666259803E+03  0.19666259803E+03  0.00000000000E+00 0. -1.
         21   -1    0    0  503  504 -0.00000000000E+00 -0.00000000000E+00 -0.94475146536E+02  0.94475146536E+02  0.00000000000E+00 0. -1.
         25    2    1    2    0    0 -0.40657751804E+02 -0.27285957184E+02  0.26092313559E+02  0.13680404253E+03  0.12504783479E+03 0.  0.
         25    2    1    2    0    0  0.40657751804E+02  0.27285957184E+02  0.76095137939E+02  0.15433370204E+03  0.12502337912E+03 0.  0.
          5    1    3    3  501    0 -0.50100411756E+02 -0.62458623180E+02  0.48553951411E+02  0.93758770605E+02  0.47000000000E+01 0.  1.
         -5    1    3    3    0  501  0.94426599520E+01  0.35172665996E+02 -0.22461637851E+02  0.43045271926E+02  0.47000000000E+01 0.  1.
          5    1    4    4  502    0  0.92502266138E+01  0.57756794697E+02 -0.81895024664E+01  0.59250079973E+02  0.47000000000E+01 0.  1.
         -5    1    4    4    0  502  0.31407525190E+02 -0.30470837513E+02  0.84284640406E+02  0.95083622068E+02  0.47000000000E+01 0.  1.
<mgrwt>
<rscale>  0 0.27261495E+03</rscale>
<asrwt>0</asrwt>
<pdfrwt beam="1">  1       21 0.30255784E-01 0.27261495E+03</pdfrwt>
<pdfrwt beam="2">  1       21 0.14534638E-01 0.27261495E+03</pdfrwt>
<totfact> 0.42833498E+05</totfact>
</mgrwt>
</event>
<event>
 8    1  0.9373234E-006  0.3830145E+03  0.7546771E-02  0.1049825E+00
         21   -1    0    0  504  503  0.00000000000E+00  0.00000000000E+00  0.46844027854E+02  0.46844027854E+02  0.00000000000E+00 0.  1.
         21   -1    0    0  503  504 -0.00000000000E+00 -0.00000000000E+00 -0.78291796826E+03  0.78291796826E+03  0.00000000000E+00 0.  1.
         25    2    1    2    0    0 -0.92798038993E+02  0.68484879314E+02 -0.17734778071E+03  0.24572115090E+03  0.12499997575E+03 0.  0.
         25    2    1    2    0    0  0.92798038993E+02 -0.68484879314E+02 -0.55872615969E+03  0.58404084522E+03  0.12500853019E+03 0.  0.
          5    1    3    3  501    0 -0.27252512494E+02  0.95175702183E+02 -0.10077682295E+03  0.14134769813E+03  0.47000000000E+01 0. -1.
         -5    1    3    3    0  501 -0.65545526498E+02 -0.26690822869E+02 -0.76570957762E+02  0.10437345276E+03  0.47000000000E+01 0. -1.
          5    1    4    4  502    0  0.31364984808E+02 -0.96619962061E+02 -0.36011018774E+03  0.37419328783E+03  0.47000000000E+01 0.  1.
         -5    1    4    4    0  502  0.61433054185E+02  0.28135082747E+02 -0.19861597195E+03  0.20984755739E+03  0.47000000000E+01 0.  1.
<mgrwt>
<rscale>  0 0.38301452E+03</rscale>
<asrwt>0</asrwt>
<pdfrwt beam="1">  1       21 0.72067740E-02 0.38301452E+03</pdfrwt>
<pdfrwt beam="2">  1       21 0.12044891E+00 0.38301452E+03</pdfrwt>
<totfact> 0.70314707E+04</totfact>
</mgrwt>
</event>
<event>
 8    1  0.9373234E-006  0.3682769E+03  0.7546771E-02  0.1055354E+00
         21   -1    0    0  504  503  0.00000000000E+00  0.00000000000E+00  0.19338859603E+03  0.19338859603E+03  0.00000000000E+00 0.  1.
         21   -1    0    0  503  504 -0.00000000000E+00 -0.00000000000E+00 -0.17533078736E+03  0.17533078736E+03  0.00000000000E+00 0.  1.
         25    2    1    2    0    0  0.91274975948E+02 -0.48002518854E+02  0.96581694577E+02  0.18864847895E+03  0.12499944733E+03 0.  0.
         25    2    1    2    0    0 -0.91274975948E+02  0.48002518854E+02 -0.78523885906E+02  0.18007090443E+03  0.12499666761E+03 0.  0.
          5    1    3    3  501    0  0.10075916702E+03 -0.63689203484E+02  0.35143480780E+02  0.12436188572E+03  0.47000000000E+01 0. -1.
         -5    1    3    3    0  501 -0.94841910678E+01  0.15686684631E+02  0.61438213797E+02  0.64286593232E+02  0.47000000000E+01 0. -1.
          5    1    4    4  502    0 -0.84354619714E+02  0.36845294051E+02  0.79195070749E+01  0.92509924619E+02  0.47000000000E+01 0. -1.
         -5    1    4    4    0  502 -0.69203562338E+01  0.11157224803E+02 -0.86443392981E+02  0.87560979813E+02  0.47000000000E+01 0. -1.
<mgrwt>
<rscale>  0 0.36827693E+03</rscale>
<asrwt>0</asrwt>
<pdfrwt beam="1">  1       21 0.29752092E-01 0.36827693E+03</pdfrwt>
<pdfrwt beam="2">  1       21 0.26973967E-01 0.36827693E+03</pdfrwt>
<totfact> 0.13513653E+05</totfact>
</mgrwt>
</event>
<event>
 8    1  0.9373234E-006  0.2588925E+03  0.7546771E-02  0.1107810E+00
         21   -1    0    0  504  503  0.00000000000E+00  0.00000000000E+00  0.43313571714E+03  0.43313571714E+03  0.00000000000E+00 0.  1.
         21   -1    0    0  503  504 -0.00000000000E+00 -0.00000000000E+00 -0.38686098240E+02  0.38686098240E+02  0.00000000000E+00 0.  1.
         25    2    1    2    0    0 -0.12565478145E+01 -0.33413685005E+02  0.19053087028E+03  0.23031488397E+03  0.12499951996E+03 0.  0.
         25    2    1    2    0    0  0.12565478145E+01  0.33413685005E+02  0.20391874862E+03  0.24150693141E+03  0.12499875449E+03 0.  0.
          5    1    3    3  501    0 -0.47992695180E+01 -0.68420494481E+02  0.18091501926E+03  0.19353741563E+03  0.47000000000E+01 0.  1.
         -5    1    3    3    0  501  0.35427217034E+01  0.35006809476E+02  0.96158510175E+01  0.36777468341E+02  0.47000000000E+01 0.  1.
          5    1    4    4  502    0  0.57694708660E+02  0.25340085276E+02  0.62149510577E+02  0.88630982134E+02  0.47000000000E+01 0.  1.
         -5    1    4    4    0  502 -0.56438160846E+02  0.80735997291E+01  0.14176923804E+03  0.15287594928E+03  0.47000000000E+01 0.  1.
<mgrwt>
<rscale>  0 0.25889249E+03</rscale>
<asrwt>0</asrwt>
<pdfrwt beam="1">  1       21 0.66636261E-01 0.25889249E+03</pdfrwt>
<pdfrwt beam="2">  1       21 0.59517077E-02 0.25889249E+03</pdfrwt>
<totfact> 0.40649032E+05</totfact>
</mgrwt>
</event>
<event>
 8    1  0.9373234E-006  0.2684771E+03  0.7546771E-02  0.1102154E+00
         21   -1    0    0  504  503  0.00000000000E+00  0.00000000000E+00  0.44057614569E+02  0.44057614569E+02  0.00000000000E+00 0. -1.
         21   -1    0    0  503  504 -0.00000000000E+00 -0.00000000000E+00 -0.40900957323E+03  0.40900957323E+03  0.00000000000E+00 0. -1.
         25    2    1    2    0    0 -0.97413288227E+01 -0.27015699617E+02 -0.24935049958E+03  0.28040183025E+03  0.12499909302E+03 0.  0.
         25    2    1    2    0    0  0.97413288227E+01  0.27015699617E+02 -0.11560145908E+03  0.17266535755E+03  0.12499954737E+03 0.  0.
          5    1    3    3  501    0 -0.49865137220E+02 -0.47003199360E+02 -0.20867685424E+03  0.21969058276E+03  0.47000000000E+01 0. -1.
         -5    1    3    3    0  501  0.40123808397E+02  0.19987499743E+02 -0.40673645338E+02  0.60711247486E+02  0.47000000000E+01 0. -1.
          5    1    4    4  502    0 -0.42878257452E+02  0.13381966820E+02 -0.10865192784E+03  0.11766458015E+03  0.47000000000E+01 0.  1.
         -5    1    4    4    0  502  0.52619586274E+02  0.13633732797E+02 -0.69495312387E+01  0.55000777395E+02  0.47000000000E+01 0.  1.
<mgrwt>
<rscale>  0 0.26847708E+03</rscale>
<asrwt>0</asrwt>
<pdfrwt beam="1">  1       21 0.67780949E-02 0.26847708E+03</pdfrwt>
<pdfrwt beam="2">  1       21 0.62924547E-01 0.26847708E+03</pdfrwt>
<totfact> 0.36737893E+05</totfact>
</mgrwt>
</event>
<event>
 8    1  0.9373234E-006  0.2999716E+03  0.7546771E-02  0.1085255E+00
         21   -1    0    0  504  503  0.00000000000E+00  0.00000000000E+00  0.69897272407E+02  0.69897272407E+02  0.00000000000E+00 0.  1.
         21   -1    0    0  503  504 -0.00000000000E+00 -0.00000000000E+00 -0.32184008633E+03  0.32184008633E+03  0.00000000000E+00 0.  1.
         25    2    1    2    0    0 -0.15426174713E+02 -0.67411279172E+02 -0.66285004362E+02  0.15748006476E+03  0.12499608621E+03 0.  0.
         25    2    1    2    0    0  0.15426174713E+02  0.67411279172E+02 -0.18565780956E+03  0.23425729397E+03  0.12500164041E+03 0.  0.
          5    1    3    3  501    0  0.46184128236E+02  0.11480280176E+01 -0.40588478231E+02  0.61675004940E+02  0.47000000000E+01 0.  1.
         -5    1    3    3    0  501 -0.61610302949E+02 -0.68559307190E+02 -0.25696526131E+02  0.95805059820E+02  0.47000000000E+01 0.  1.
          5    1    4    4  502    0 -0.43578994365E+02 -0.68750491805E+01 -0.84849474403E+02  0.95749247295E+02  0.47000000000E+01 0.  1.
         -5    1    4    4    0  502  0.59005169078E+02  0.74286328353E+02 -0.10080833515E+03  0.13850804668E+03  0.47000000000E+01 0.  1.
<mgrwt>
<rscale>  0 0.29997163E+03</rscale>
<asrwt>0</asrwt>
<pdfrwt beam="1">  1       21 0.10753427E-01 0.29997163E+03</pdfrwt>
<pdfrwt beam="2">  1       21 0.49513859E-01 0.29997163E+03</pdfrwt>
<totfact> 0.27026954E+05</totfact>
</mgrwt>
</event>
<event>
 8    1  0.9373234E-006  0.3270415E+03  0.7546771E-02  0.1072453E+00
         21   -1    0    0  504  503  0.00000000000E+00  0.00000000000E+00  0.42369410424E+03  0.42369410424E+03  0.00000000000E+00 0.  1.
         21   -1    0    0  503  504 -0.00000000000E+00 -0.00000000000E+00 -0.63109284468E+02  0.63109284468E+02  0.00000000000E+00 0.  1.
         25    2    1    2    0    0 -0.70819955452E+02  0.26248573551E+02  0.70808228647E+02  0.16230362010E+03  0.12499682455E+03 0.  0.
         25    2    1    2    0    0  0.70819955452E+02 -0.26248573551E+02  0.28977659113E+03  0.32449976862E+03  0.12500069344E+03 0.  0.
          5    1    3    3  501    0 -0.62628854048E+02  0.51903704637E+02  0.95452272270E+02  0.12549738721E+03  0.47000000000E+01 0. -1.
         -5    1    3    3    0  501 -0.81911014046E+01 -0.25655131086E+02 -0.24644043624E+02  0.36806232888E+02  0.47000000000E+01 0. -1.
          5    1    4    4  502    0  0.96608669680E+02 -0.23760679009E+02  0.13647691897E+03  0.16895515481E+03  0.47000000000E+01 0.  1.
         -5    1    4    4    0  502 -0.25788714228E+02 -0.24878945416E+01  0.15329967216E+03  0.15554461381E+03  0.47000000000E+01 0.  1.
<mgrwt>
<rscale>  0 0.32704148E+03</rscale>
<asrwt>0</asrwt>
<pdfrwt beam="1">  1       21 0.65183707E-01 0.32704148E+03</pdfrwt>
<pdfrwt beam="2">  1       21 0.97091210E-02 0.32704148E+03</pdfrwt>
<totfact> 0.17842065E+05</totfact>
</mgrwt>
</event>
<event>
 8    1  0.9373234E-006  0.3250055E+03  0.7546771E-02  0.1073368E+00
         21   -1    0    0  504  503  0.00000000000E+00  0.00000000000E+00  0.37608486471E+03  0.37608486471E+03  0.00000000000E+00 0. -1.
         21   -1    0    0  503  504 -0.00000000000E+00 -0.00000000000E+00 -0.70215900427E+02  0.70215900427E+02  0.00000000000E+00 0. -1.
         25    2    1    2    0    0 -0.77069768938E+02  0.64610539173E+02  0.11746570296E+03  0.19884304156E+03  0.12500437092E+03 0.  0.
         25    2    1    2    0    0  0.77069768938E+02 -0.64610539173E+02  0.18840326132E+03  0.24745772358E+03  0.12500106009E+03 0.  0.
          5    1    3    3  501    0 -0.19100847099E+02 -0.32913588881E+02  0.60946895261E+02  0.72005282688E+02  0.47000000000E+01 0. -1.
         -5    1    3    3    0  501 -0.57968921839E+02  0.97524128054E+02  0.56518807698E+02  0.12683775887E+03  0.47000000000E+01 0. -1.
          5    1    4    4  502    0  0.45175986010E+02 -0.98022318069E+02  0.98145829353E+02  0.14595868721E+03  0.47000000000E+01 0.  1.
         -5    1    4    4    0  502  0.31893782928E+02  0.33411778896E+02  0.90257431970E+02  0.10149903637E+03  0.47000000000E+01 0.  1.
<mgrwt>
<rscale>  0 0.32500546E+03</rscale>
<asrwt>0</asrwt>
<pdfrwt beam="1">  1       21 0.57859209E-01 0.32500546E+03</pdfrwt>
<pdfrwt beam="2">  1       21 0.10802446E-01 0.32500546E+03</pdfrwt>
<totfact> 0.19131332E+05</totfact>
</mgrwt>
</event>
<event>
 8    1  0.9373234E-006  0.3503002E+03  0.7546771E-02  0.1062492E+00
         21   -1    0    0  504  503  0.00000000000E+00  0.00000000000E+00  0.47024025000E+03  0.47024025000E+03  0.00000000000E+00 0.  1.
         21   -1    0    0  503  504 -0.00000000000E+00 -0.00000000000E+00 -0.65238067961E+02  0.65238067961E+02  0.00000000000E+00 0.  1.
         25    2    1    2    0    0  0.93251507489E+02  0.47755910288E+02  0.10489377183E+03  0.19391536817E+03  0.12499598404E+03 0.  0.
         25    2    1    2    0    0 -0.93251507489E+02 -0.47755910288E+02  0.30010841021E+03  0.34156294979E+03  0.12499488060E+03 0.  0.
          5    1    3    3  501    0  0.54255267525E+02  0.67445790291E+02  0.11948476810E+03  0.14761865902E+03  0.47000000000E+01 0.  1.
         -5    1    3    3    0  501  0.38996239964E+02 -0.19689880002E+02 -0.14590996271E+02  0.46296709149E+02  0.47000000000E+01 0.  1.
          5    1    4    4  502    0 -0.18910518798E+02 -0.41970149630E+02  0.24341555714E+03  0.24777474576E+03  0.47000000000E+01 0.  1.
         -5    1    4    4    0  502 -0.74340988691E+02 -0.57857606580E+01  0.56692853071E+02  0.93788204030E+02  0.47000000000E+01 0.  1.
<mgrwt>
<rscale>  0 0.35030024E+03</rscale>
<asrwt>0</asrwt>
<pdfrwt beam="1">  1       21 0.72344652E-01 0.35030024E+03</pdfrwt>
<pdfrwt beam="2">  1       21 0.10036626E-01 0.35030024E+03</pdfrwt>
<totfact> 0.13259700E+05</totfact>
</mgrwt>
</event>
<event>
 8    1  0.9373234E-006  0.2701501E+03  0.7546771E-02  0.1101194E+00
         21   -1    0    0  504  503  0.00000000000E+00  0.00000000000E+00  0.12894617163E+03  0.12894617163E+03  0.00000000000E+00 0.  1.
         21   -1    0    0  503  504 -0.00000000000E+00 -0.00000000000E+00 -0.14149526897E+03  0.14149526897E+03  0.00000000000E+00 0.  1.
         25    2    1    2    0    0  0.61662424044E+01  0.43438645270E+02  0.20149113478E+02  0.13399369216E+03  0.12499353710E+03 0.  0.
         25    2    1    2    0    0 -0.61662424044E+01 -0.43438645270E+02 -0.32698210818E+02  0.13644774845E+03  0.12499550639E+03 0.  0.
          5    1    3    3  501    0 -0.15782360888E+02  0.46843285662E+02 -0.43752057637E+02  0.66179368947E+02  0.47000000000E+01 0. -1.
         -5    1    3    3    0  501  0.21948603293E+02 -0.34046403913E+01  0.63901171115E+02  0.67814323211E+02  0.47000000000E+01 0. -1.
          5    1    4    4  502    0  0.18362178107E+01  0.19568420998E+02 -0.62824585663E+02  0.65994797977E+02  0.47000000000E+01 0. -1.
         -5    1    4    4    0  502 -0.80024602151E+01 -0.63007066268E+02  0.30126374845E+02  0.70452950474E+02  0.47000000000E+01 0. -1.
<mgrwt>
<rscale>  0 0.27015013E+03</rscale>
<asrwt>0</asrwt>
<pdfrwt beam="1">  1       21 0.19837872E-01 0.27015013E+03</pdfrwt>
<pdfrwt beam="2">  1       21 0.21768503E-01 0.27015013E+03</pdfrwt>
<totfact> 0.45445423E+05</totfact>
</mgrwt>
</event>
<event>
 8    1  0.9373234E-006  0.3043788E+03  0.7546771E-02  0.1083072E+00
         21   -1    0    0  504  503  0.00000000000E+00  0.00000000000E+00  0.19290675396E+02  0.19290675396E+02  0.00000000000E+00 0.  1.
         21   -1    0    0  503  504 -0.00000000000E+00 -0.00000000000E+00 -0.12006639740E+04  0.12006639740E+04  0.00000000000E+00 0.  1.
         25    2    1    2    0    0 -0.37061466818E+02  0.70003341416E+02 -0.44825811995E+03  0.47205324169E+03  0.12499960303E+03 0.  0.
         25    2    1    2    0    0  0.37061466818E+02 -0.70003341416E+02 -0.73311517867E+03  0.74790140772E+03  0.12499852136E+03 0.  0.
          5    1    3    3  501    0  0.14443004049E+02  0.54591411908E+02 -0.38391773103E+03  0.38807697280E+03  0.47000000000E+01 0.  1.
         -5    1    3    3    0  501 -0.51504470866E+02  0.15411929508E+02 -0.64340388922E+02  0.83976268892E+02  0.47000000000E+01 0.  1.
          5    1    4    4  502    0  0.23208644669E+02 -0.60501536792E+02 -0.72625832247E+03  0.72915863713E+03  0.47000000000E+01 0.  1.
         -5    1    4    4    0  502  0.13852822149E+02 -0.95018046234E+01 -0.68568562031E+01  0.18742770595E+02  0.47000000000E+01 0.  1.
<mgrwt>
<rscale>  0 0.30437884E+03</rscale>
<asrwt>0</asrwt>
<pdfrwt beam="1">  1       21 0.29677956E-02 0.30437884E+03</pdfrwt>
<pdfrwt beam="2">  1       21 0.18471757E+00 0.30437884E+03</pdfrwt>
<totfact> 0.10358934E+05</totfact>
</mgrwt>
</event>
<event>
 8    1  0.9373234E-006  0.3222114E+03  0.7546771E-02  0.1074636E+00
         21   -1    0    0  504  503  0.00000000000E+00  0.00000000000E+00  0.37384710955E+03  0.37384710955E+03  0.00000000000E+00 0.  1.
         21   -1    0    0  503  504 -0.00000000000E+00 -0.00000000000E+00 -0.69426906247E+02  0.69426906247E+02  0.00000000000E+00 0.  1.
         25    2    1    2    0    0 -0.30614518123E+02 -0.95800071367E+02  0.17237658099E+03  0.23548749523E+03  0.12500308934E+03 0.  0.
         25    2    1    2    0    0  0.30614518123E+02  0.95800071367E+02  0.13204362231E+03  0.20778652056E+03  0.12499927015E+03 0.  0.
          5    1    3    3  501    0  0.64623275150E+01 -0.67772320539E+02  0.13082248439E+02  0.69484417910E+02  0.47000000000E+01 0. -1.
         -5    1    3    3    0  501 -0.37076845638E+02 -0.28027750828E+02  0.15929433255E+03  0.16600307732E+03  0.47000000000E+01 0. -1.
          5    1    4    4  502    0 -0.82692118550E+01  0.74583305872E+02  0.14331319664E+03  0.16183884488E+03  0.47000000000E+01 0. -1.
         -5    1    4    4    0  502  0.38883729978E+02  0.21216765495E+02 -0.11269574329E+02  0.45947675682E+02  0.47000000000E+01 0. -1.
<mgrwt>
<rscale>  0 0.32221141E+03</rscale>
<asrwt>0</asrwt>
<pdfrwt beam="1">  1       21 0.57514939E-01 0.32221141E+03</pdfrwt>
<pdfrwt beam="2">  1       21 0.10681063E-01 0.32221141E+03</pdfrwt>
<totfact> 0.19788779E+05</totfact>
</mgrwt>
</event>
<event>
 8    1  0.9373234E-006  0.3323435E+03  0.7546771E-02  0.1070105E+00
         21   -1    0    0  504  503  0.00000000000E+00  0.00000000000E+00  0.42325583973E+03  0.42325583973E+03  0.00000000000E+00 0. -1.
         21   -1    0    0  503  504 -0.00000000000E+00 -0.00000000000E+00 -0.65239614287E+02  0.65239614287E+02  0.00000000000E+00 0. -1.
         25    2    1    2    0    0  0.23991314931E+02 -0.38607023817E+02  0.32541595060E+03  0.35154562477E+03  0.12499079929E+03 0.  0.
         25    2    1    2    0    0 -0.23991314931E+02  0.38607023817E+02  0.32600274839E+02  0.13694982925E+03  0.12500556920E+03 0.  0.
          5    1    3    3  501    0 -0.45666358462E+02 -0.34393360592E+02  0.19862809172E+03  0.20674508064E+03  0.47000000000E+01 0. -1.
         -5    1    3    3    0  501  0.69657673393E+02 -0.42136632252E+01  0.12678785888E+03  0.14480054413E+03  0.47000000000E+01 0. -1.
          5    1    4    4  502    0  0.12255727541E+02  0.74744768163E+02  0.38705852742E+02  0.85189296639E+02  0.47000000000E+01 0.  1.
         -5    1    4    4    0  502 -0.36247042472E+02 -0.36137744346E+02 -0.61055779033E+01  0.51760532609E+02  0.47000000000E+01 0.  1.
<mgrwt>
<rscale>  0 0.33234348E+03</rscale>
<asrwt>0</asrwt>
<pdfrwt beam="1">  1       21 0.65116281E-01 0.33234348E+03</pdfrwt>
<pdfrwt beam="2">  1       21 0.10036864E-01 0.33234348E+03</pdfrwt>
<totfact> 0.16833571E+05</totfact>
</mgrwt>
</event>
<event>
 8    1  0.9373234E-006  0.3058084E+03  0.7546771E-02  0.1082373E+00
         21   -1    0    0  504  503  0.00000000000E+00  0.00000000000E+00  0.37163968056E+02  0.37163968056E+02  0.00000000000E+00 0.  1.
         21   -1    0    0  503  504 -0.00000000000E+00 -0.00000000000E+00 -0.62909578835E+03  0.62909578835E+03  0.00000000000E+00 0.  1.
         25    2    1    2    0    0 -0.76351809992E+02  0.16745938488E+02 -0.20760314904E+03  0.25462568381E+03  0.12500058409E+03 0.  0.
         25    2    1    2    0    0  0.76351809992E+02 -0.16745938488E+02 -0.38432867125E+03  0.41163407259E+03  0.12499622723E+03 0.  0.
          5    1    3    3  501    0 -0.28908873119E+02  0.55941592656E+02 -0.17233862989E+03  0.18354257840E+03  0.47000000000E+01 0.  1.
         -5    1    3    3    0  501 -0.47442936873E+02 -0.39195654168E+02 -0.35264519153E+02  0.71083105418E+02  0.47000000000E+01 0.  1.
          5    1    4    4  502    0  0.15257428899E+02  0.39676581605E+02 -0.24958880135E+03  0.25322653894E+03  0.47000000000E+01 0. -1.
         -5    1    4    4    0  502  0.61094381093E+02 -0.56422520093E+02 -0.13473986991E+03  0.15840753365E+03  0.47000000000E+01 0. -1.
<mgrwt>
<rscale>  0 0.30580841E+03</rscale>
<asrwt>0</asrwt>
<pdfrwt beam="1">  1       21 0.57175335E-02 0.30580841E+03</pdfrwt>
<pdfrwt beam="2">  1       21 0.96783968E-01 0.30580841E+03</pdfrwt>
<totfact> 0.18351029E+05</totfact>
</mgrwt>
</event>
<event>
 8    1  0.9373234E-006  0.3745826E+03  0.7546771E-02  0.1052954E+00
         21   -1    0    0  504  503  0.00000000000E+00  0.00000000000E+00  0.42938528316E+03  0.42938528316E+03  0.00000000000E+00 0. -1.
         21   -1    0    0  503  504 -0.00000000000E+00 -0.00000000000E+00 -0.81693619493E+02  0.81693619493E+02  0.00000000000E+00 0. -1.
         25    2    1    2    0    0  0.17128041248E+02 -0.10376111735E+03  0.29884818098E+03  0.34057937917E+03  0.12499735586E+03 0.  0.
         25    2    1    2    0    0 -0.17128041248E+02  0.10376111735E+03  0.48843482682E+02  0.17049952348E+03  0.12499864973E+03 0.  0.
          5    1    3    3  501    0  0.65640626823E+02 -0.24629648021E+02  0.13589760852E+03  0.15298876251E+03  0.47000000000E+01 0. -1.
         -5    1    3    3    0  501 -0.48512585575E+02 -0.79131469324E+02  0.16295057246E+03  0.18759061667E+03  0.47000000000E+01 0. -1.
          5    1    4    4  502    0 -0.43694538223E+02  0.12000384238E+03  0.23196017674E+02  0.12988564236E+03  0.47000000000E+01 0. -1.
         -5    1    4    4    0  502  0.26566496975E+02 -0.16242725030E+02  0.25647465009E+02  0.40613881116E+02  0.47000000000E+01 0. -1.
<mgrwt>
<rscale>  0 0.37458264E+03</rscale>
<asrwt>0</asrwt>
<pdfrwt beam="1">  1       21 0.66059273E-01 0.37458264E+03</pdfrwt>
<pdfrwt beam="2">  1       21 0.12568249E-01 0.37458264E+03</pdfrwt>
<totfact> 0.10765178E+05</totfact>
</mgrwt>
</event>
<event>
 8    1  0.9373234E-006  0.3632270E+03  0.7546771E-02  0.1057313E+00
         21   -1    0    0  504  503  0.00000000000E+00  0.00000000000E+00  0.24431636105E+03  0.24431636105E+03  0.00000000000E+00 0. -1.
         21   -1    0    0  503  504 -0.00000000000E+00 -0.00000000000E+00 -0.13500307833E+03  0.13500307833E+03  0.00000000000E+00 0. -1.
         25    2    1    2    0    0  0.80399388868E+02 -0.60150453144E+02 -0.34431843756E+02  0.16397696988E+03  0.12498302302E+03 0.  0.
         25    2    1    2    0    0 -0.80399388868E+02  0.60150453144E+02  0.14374512647E+03  0.21534246950E+03  0.12501031574E+03 0.  0.
          5    1    3    3  501    0  0.81357443456E+02  0.15440747528E+02 -0.29648792961E+02  0.88082865610E+02  0.47000000000E+01 0. -1.
         -5    1    3    3    0  501 -0.95805458828E+00 -0.75591200673E+02 -0.47830507954E+01  0.75894104268E+02  0.47000000000E+01 0. -1.
          5    1    4    4  502    0 -0.52886261057E+01 -0.35962857237E+02  0.46884943966E+02  0.59511214383E+02  0.47000000000E+01 0. -1.
         -5    1    4    4    0  502 -0.75110762762E+02  0.96113310381E+02  0.96860182507E+02  0.15583125511E+03  0.47000000000E+01 0. -1.
<mgrwt>
<rscale>  0 0.36322699E+03</rscale>
<asrwt>0</asrwt>
<pdfrwt beam="1">  1       21 0.37587132E-01 0.36322699E+03</pdfrwt>
<pdfrwt beam="2">  1       21 0.20769704E-01 0.36322699E+03</pdfrwt>
<totfact> 0.14012412E+05</totfact>
</mgrwt>
</event>
<event>
 8    1  0.9373234E-006  0.2688786E+03  0.7546771E-02  0.1101923E+00
         21   -1    0    0  504  503  0.00000000000E+00  0.00000000000E+00  0.86530033895E+03  0.86530033895E+03  0.00000000000E+00 0. -1.
         21   -1    0    0  503  504 -0.00000000000E+00 -0.00000000000E+00 -0.20887454817E+02  0.20887454817E+02  0.00000000000E+00 0. -1.
         25    2    1    2    0    0  0.47582800368E+02 -0.90313660834E+01  0.45594717036E+03  0.47524278172E+03  0.12498876332E+03 0.  0.
         25    2    1    2    0    0 -0.47582800368E+02  0.90313660834E+01  0.38846571378E+03  0.41094501205E+03  0.12499801471E+03 0.  0.
          5    1    3    3  501    0  0.50901199718E+02 -0.37916817748E+02  0.43366611714E+03  0.43831154258E+03  0.47000000000E+01 0.  1.
         -5    1    3    3    0  501 -0.33183993498E+01  0.28885451665E+02  0.22281053215E+02  0.36931239141E+02  0.47000000000E+01 0.  1.
          5    1    4    4  502    0 -0.79181748259E+02  0.27202220218E+02  0.33960500371E+03  0.34980474352E+03  0.47000000000E+01 0.  1.
         -5    1    4    4    0  502  0.31598947891E+02 -0.18170854134E+02  0.48860710069E+02  0.61140268532E+02  0.47000000000E+01 0.  1.
<mgrwt>
<rscale>  0 0.26887857E+03</rscale>
<asrwt>0</asrwt>
<pdfrwt beam="1">  1       21 0.13312310E+00 0.26887857E+03</pdfrwt>
<pdfrwt beam="2">  1       21 0.32134553E-02 0.26887857E+03</pdfrwt>
<totfact> 0.22398789E+05</totfact>
</mgrwt>
</event>
<event>
 8    1  0.9373234E-006  0.2663637E+03  0.7546771E-02  0.1103379E+00
         21   -1    0    0  504  503  0.00000000000E+00  0.00000000000E+00  0.84886777774E+03  0.84886777774E+03  0.00000000000E+00 0. -1.
         21   -1    0    0  503  504 -0.00000000000E+00 -0.00000000000E+00 -0.20895369300E+02  0.20895369300E+02  0.00000000000E+00 0. -1.
         25    2    1    2    0    0  0.50708977739E+01  0.66593263875E+01  0.56134046559E+03  0.57515158683E+03  0.12500467551E+03 0.  0.
         25    2    1    2    0    0 -0.50708977739E+01 -0.66593263875E+01  0.26663194286E+03  0.29461156021E+03  0.12503326687E+03 0.  0.
          5    1    3    3  501    0  0.52263199419E+02  0.31712143967E+02  0.18228285966E+03  0.19231805171E+03  0.47000000000E+01 0.  1.
         -5    1    3    3    0  501 -0.47192301645E+02 -0.25052817579E+02  0.37905760592E+03  0.38283353512E+03  0.47000000000E+01 0.  1.
          5    1    4    4  502    0  0.56054504427E+02  0.39104846767E+01  0.17497734581E+03  0.18383840976E+03  0.47000000000E+01 0. -1.
         -5    1    4    4    0  502 -0.61125402201E+02 -0.10569811064E+02  0.91654597049E+02  0.11077315045E+03  0.47000000000E+01 0. -1.
<mgrwt>
<rscale>  0 0.26636370E+03</rscale>
<asrwt>0</asrwt>
<pdfrwt beam="1">  1       21 0.13059502E+00 0.26636370E+03</pdfrwt>
<pdfrwt beam="2">  1       21 0.32146729E-02 0.26636370E+03</pdfrwt>
<totfact> 0.23527899E+05</totfact>
</mgrwt>
</event>
<event>
 8    1  0.9373234E-006  0.4558617E+03  0.7546771E-02  0.1025988E+00
         21   -1    0    0  504  503  0.00000000000E+00  0.00000000000E+00  0.72928488570E+03  0.72928488570E+03  0.00000000000E+00 0.  1.
         21   -1    0    0  503  504 -0.00000000000E+00 -0.00000000000E+00 -0.71237565173E+02  0.71237565173E+02  0.00000000000E+00 0.  1.
         25    2    1    2    0    0  0.17194139700E+03 -0.10939871920E+02  0.18586875485E+03  0.28258740650E+03  0.12499969395E+03 0.  0.
         25    2    1    2    0    0 -0.17194139700E+03  0.10939871920E+02  0.47217856568E+03  0.51793504437E+03  0.12498234876E+03 0.  0.
          5    1    3    3  501    0  0.75687676026E+02 -0.65312346121E+02  0.10826503672E+03  0.14743722405E+03  0.47000000000E+01 0. -1.
         -5    1    3    3    0  501  0.96253720970E+02  0.54372474201E+02  0.77603718122E+02  0.13515018246E+03  0.47000000000E+01 0. -1.
          5    1    4    4  502    0 -0.11556530958E+03 -0.14049179657E+02  0.42348798857E+03  0.43922304891E+03  0.47000000000E+01 0. -1.
         -5    1    4    4    0  502 -0.56376087412E+02  0.24989051576E+02  0.48690577113E+02  0.78711995465E+02  0.47000000000E+01 0. -1.
<mgrwt>
<rscale>  0 0.45586173E+03</rscale>
<asrwt>0</asrwt>
<pdfrwt beam="1">  1       21 0.11219767E+00 0.45586173E+03</pdfrwt>
<pdfrwt beam="2">  1       21 0.10959626E-01 0.45586173E+03</pdfrwt>
<totfact> 0.39074458E+04</totfact>
</mgrwt>
</event>
<event>
 8    1  0.9373234E-006  0.2771310E+03  0.7546771E-02  0.1097266E+00
         21   -1    0    0  504  503  0.00000000000E+00  0.00000000000E+00  0.38748340385E+02  0.38748340385E+02  0.00000000000E+00 0. -1.
         21   -1    0    0  503  504 -0.00000000000E+00 -0.00000000000E+00 -0.49551546043E+03  0.49551546043E+03  0.00000000000E+00 0. -1.
         25    2    1    2    0    0  0.55965467681E+02  0.20988888044E+02 -0.22975660208E+03  0.26830962129E+03  0.12501715756E+03 0.  0.
         25    2    1    2    0    0 -0.55965467681E+02 -0.20988888044E+02 -0.22701051796E+03  0.26595417952E+03  0.12500073338E+03 0.  0.
          5    1    3    3  501    0  0.56288968562E+02  0.40985196582E+02 -0.46398455239E+02  0.83804182289E+02  0.47000000000E+01 0.  1.
         -5    1    3    3    0  501 -0.32350088115E+00 -0.19996308538E+02 -0.18335814684E+03  0.18450543900E+03  0.47000000000E+01 0.  1.
          5    1    4    4  502    0 -0.45616265443E+02  0.27832720241E+02 -0.20374950887E+03  0.21069280091E+03  0.47000000000E+01 0. -1.
         -5    1    4    4    0  502 -0.10349202238E+02 -0.48821608285E+02 -0.23261009091E+02  0.55261378615E+02  0.47000000000E+01 0. -1.
<mgrwt>
<rscale>  0 0.27713103E+03</rscale>
<asrwt>0</asrwt>
<pdfrwt beam="1">  1       21 0.59612836E-02 0.27713103E+03</pdfrwt>
<pdfrwt beam="2">  1       21 0.76233141E-01 0.27713103E+03</pdfrwt>
<totfact> 0.29906560E+05</totfact>
</mgrwt>
</event>
<event>
 8    1  0.9373234E-006  0.2947169E+03  0.7546771E-02  0.1087912E+00
         21   -1    0    0  504  503  0.00000000000E+00  0.00000000000E+00  0.81913391172E+03  0.81913391172E+03  0.00000000000E+00 0.  1.
         21   -1    0    0  503  504 -0.00000000000E+00 -0.00000000000E+00 -0.26509117016E+02  0.26509117016E+02  0.00000000000E+00 0.  1.
         25    2    1    2    0    0 -0.59461550828E+02  0.49682240654E+02  0.42266396251E+03  0.44752222293E+03  0.12500925466E+03 0.  0.
         25    2    1    2    0    0  0.59461550828E+02 -0.49682240654E+02  0.36996083220E+03  0.39812080581E+03  0.12500063037E+03 0.  0.
          5    1    3    3  501    0 -0.90812169828E+02  0.54665212845E+02  0.37744372042E+03  0.39207268174E+03  0.47000000000E+01 0. -1.
         -5    1    3    3    0  501  0.31350619000E+02 -0.49829721909E+01  0.45220242089E+02  0.55449541190E+02  0.47000000000E+01 0. -1.
          5    1    4    4  502    0 -0.21064775009E+01 -0.78157771943E+02  0.21786211077E+03  0.23151471631E+03  0.47000000000E+01 0.  1.
         -5    1    4    4    0  502  0.61568028329E+02  0.28475531289E+02  0.15209872143E+03  0.16660608949E+03  0.47000000000E+01 0.  1.
<mgrwt>
<rscale>  0 0.29471693E+03</rscale>
<asrwt>0</asrwt>
<pdfrwt beam="1">  1       21 0.12602058E+00 0.29471693E+03</pdfrwt>
<pdfrwt beam="2">  1       21 0.40783263E-02 0.29471693E+03</pdfrwt>
<totfact> 0.17127169E+05</totfact>
</mgrwt>
</event>
<event>
 8    1  0.9373234E-006  0.2750394E+03  0.7546771E-02  0.1098430E+00
         21   -1    0    0  504  503  0.00000000000E+00  0.00000000000E+00  0.62102616496E+03  0.62102616496E+03  0.00000000000E+00 0. -1.
         21   -1    0    0  503  504 -0.00000000000E+00 -0.00000000000E+00 -0.30452292674E+02  0.30452292674E+02  0.00000000000E+00 0. -1.
         25    2    1    2    0    0  0.21947679800E+02 -0.40963969294E+02  0.37482571602E+03  0.39784294915E+03  0.12499978949E+03 0.  0.
         25    2    1    2    0    0 -0.21947679800E+02  0.40963969294E+02  0.21574815627E+03  0.25363550849E+03  0.12499582714E+03 0.  0.
          5    1    3    3  501    0  0.41714061323E+02  0.34609251126E+02  0.13408410475E+03  0.14470141783E+03  0.47000000000E+01 0.  1.
         -5    1    3    3    0  501 -0.19766381523E+02 -0.75573220420E+02  0.24074161126E+03  0.25314153132E+03  0.47000000000E+01 0.  1.
          5    1    4    4  502    0 -0.51827455490E+02  0.46131740416E+02  0.21152140740E+03  0.22266032068E+03  0.47000000000E+01 0. -1.
         -5    1    4    4    0  502  0.29879775690E+02 -0.51677711225E+01  0.42267488701E+01  0.30975187807E+02  0.47000000000E+01 0. -1.
<mgrwt>
<rscale>  0 0.27503942E+03</rscale>
<asrwt>0</asrwt>
<pdfrwt beam="1">  1       21 0.95542478E-01 0.27503942E+03</pdfrwt>
<pdfrwt beam="2">  1       21 0.46849686E-02 0.27503942E+03</pdfrwt>
<totfact> 0.26820689E+05</totfact>
</mgrwt>
</event>
<event>
 8    1  0.9373234E-006  0.2656806E+03  0.7546771E-02  0.1103777E+00
         21   -1    0    0  504  503  0.00000000000E+00  0.00000000000E+00  0.17267658062E+04  0.17267658062E+04  0.00000000000E+00 0.  1.
         21   -1    0    0  503  504 -0.00000000000E+00 -0.00000000000E+00 -0.10219420641E+02  0.10219420641E+02  0.00000000000E+00 0.  1.
         25    2    1    2    0    0 -0.66104607172E+01 -0.14543860284E+02  0.11330933109E+04  0.11400792428E+04  0.12500002692E+03 0.  0.
         25    2    1    2    0    0  0.66104607172E+01  0.14543860284E+02  0.58345307467E+03  0.59690598399E+03  0.12499616522E+03 0.  0.
          5    1    3    3  501    0 -0.62880829814E+02  0.48914996549E+01  0.70670418001E+03  0.70952858545E+03  0.47000000000E+01 0. -1.
         -5    1    3    3    0  501  0.56270369097E+02 -0.19435359939E+02  0.42638913087E+03  0.43055065739E+03  0.47000000000E+01 0. -1.
          5    1    4    4  502    0  0.23362910010E+02 -0.40664994281E+02  0.10663655036E+03  0.11658864094E+03  0.47000000000E+01 0.  1.
         -5    1    4    4    0  502 -0.16752449292E+02  0.55208854565E+02  0.47681652431E+03  0.48031734305E+03  0.47000000000E+01 0.  1.
<mgrwt>
<rscale>  0 0.26568061E+03</rscale>
<asrwt>0</asrwt>
<pdfrwt beam="1">  1       21 0.26565605E+00 0.26568061E+03</pdfrwt>
<pdfrwt beam="2">  1       21 0.15722199E-02 0.26568061E+03</pdfrwt>
<totfact> 0.93418019E+04</totfact>
</mgrwt>
</event>
<event>
 8    1  0.9373234E-006  0.5461741E+03  0.7546771E-02  0.1002383E+00
         21   -1    0    0  504  503  0.00000000000E+00  0.00000000000E+00  0.11902790464E+04  0.11902790464E+04  0.00000000000E+00 0. -1.
         21   -1    0    0  503  504 -0.00000000000E+00 -0.00000000000E+00 -0.62654677821E+02  0.62654677821E+02  0.00000000000E+00 0. -1.
         25    2    1    2    0    0  0.20103090058E+03  0.12011828418E+03  0.71086011855E+03  0.75880908873E+03  0.12500919892E+03 0.  0.
         25    2    1    2    0    0 -0.20103090058E+03 -0.12011828418E+03  0.41676425006E+03  0.49412463552E+03  0.12499956048E+03 0.  0.
          5    1    3    3  501    0  0.88864572311E+02  0.29194405351E+02  0.12980777641E+03  0.16006678086E+03  0.47000000000E+01 0.  1.
         -5    1    3    3    0  501  0.11216632827E+03  0.90923878826E+02  0.58105234214E+03  0.59874230788E+03  0.47000000000E+01 0.  1.
          5    1    4    4  502    0 -0.14966560872E+03 -0.10945120559E+03  0.20740500345E+03  0.27824141729E+03  0.47000000000E+01 0. -1.
         -5    1    4    4    0  502 -0.51365291857E+02 -0.10667078588E+02  0.20935924661E+03  0.21588321823E+03  0.47000000000E+01 0. -1.
<mgrwt>
<rscale>  0 0.54617415E+03</rscale>
<asrwt>0</asrwt>
<pdfrwt beam="1">  1       21 0.18311984E+00 0.54617415E+03</pdfrwt>
<pdfrwt beam="2">  1       21 0.96391821E-02 0.54617415E+03</pdfrwt>
<totfact> 0.12827485E+04</totfact>
</mgrwt>
</event>
<event>
 8    1  0.9373234E-006  0.2964022E+03  0.7546771E-02  0.1087053E+00
         21   -1    0    0  504  503  0.00000000000E+00  0.00000000000E+00  0.15883352594E+03  0.15883352594E+03  0.00000000000E+00 0.  1.
         21   -1    0    0  503  504 -0.00000000000E+00 -0.00000000000E+00 -0.13828038837E+03  0.13828038837E+03  0.00000000000E+00 0.  1.
         25    2    1    2    0    0 -0.49602443668E+02  0.62160168344E+02  0.65708202666E+01  0.14829882820E+03  0.12500031128E+03 0.  0.
         25    2    1    2    0    0  0.49602443668E+02 -0.62160168344E+02  0.13982317303E+02  0.14881508611E+03  0.12500454276E+03 0.  0.
          5    1    3    3  501    0 -0.38047159792E+02  0.96633752103E+02  0.25495866377E+02  0.10704110246E+03  0.47000000000E+01 0.  1.
         -5    1    3    3    0  501 -0.11555283876E+02 -0.34473583760E+02 -0.18925046111E+02  0.41257725737E+02  0.47000000000E+01 0.  1.
          5    1    4    4  502    0  0.60192703978E+01 -0.66222806769E+02  0.56669392221E+02  0.87494009893E+02  0.47000000000E+01 0.  1.
         -5    1    4    4    0  502  0.43583173270E+02  0.40626384256E+01 -0.42687074918E+02  0.61321076216E+02  0.47000000000E+01 0.  1.
<mgrwt>
<rscale>  0 0.29640217E+03</rscale>
<asrwt>0</asrwt>
<pdfrwt beam="1">  1       21 0.24435927E-01 0.29640217E+03</pdfrwt>
<pdfrwt beam="2">  1       21 0.21273906E-01 0.29640217E+03</pdfrwt>
<totfact> 0.31778295E+05</totfact>
</mgrwt>
</event>
<event>
 8    1  0.9373234E-006  0.3082308E+03  0.7546771E-02  0.1081197E+00
         21   -1    0    0  504  503  0.00000000000E+00  0.00000000000E+00  0.57144046885E+02  0.57144046885E+02  0.00000000000E+00 0.  1.
         21   -1    0    0  503  504 -0.00000000000E+00 -0.00000000000E+00 -0.41564362580E+03  0.41564362580E+03  0.00000000000E+00 0.  1.
         25    2    1    2    0    0 -0.63865828052E+02 -0.16106552238E+02 -0.27364667888E+03  0.30797423909E+03  0.12500944789E+03 0.  0.
         25    2    1    2    0    0  0.63865828052E+02  0.16106552238E+02 -0.84852900039E+02  0.16481343360E+03  0.12500075293E+03 0.  0.
          5    1    3    3  501    0 -0.14879302065E+02  0.21277757015E+01 -0.24985728705E+03  0.25035310054E+03  0.47000000000E+01 0. -1.
         -5    1    3    3    0  501 -0.48986525986E+02 -0.18234327940E+02 -0.23789391829E+02  0.57621138545E+02  0.47000000000E+01 0. -1.
          5    1    4    4  502    0  0.87478906617E+02 -0.24289953978E+00 -0.14656127201E+02  0.88822914654E+02  0.47000000000E+01 0. -1.
         -5    1    4    4    0  502 -0.23613078565E+02  0.16349451778E+02 -0.70196772838E+02  0.75990518946E+02  0.47000000000E+01 0. -1.
<mgrwt>
<rscale>  0 0.30823082E+03</rscale>
<asrwt>0</asrwt>
<pdfrwt beam="1">  1       21 0.87913916E-02 0.30823082E+03</pdfrwt>
<pdfrwt beam="2">  1       21 0.63945175E-01 0.30823082E+03</pdfrwt>
<totfact> 0.22294273E+05</totfact>
</mgrwt>
</event>
<event>
 8    1  0.9373234E-006  0.2774221E+03  0.7546771E-02  0.1097105E+00
         21   -1    0    0  504  503  0.00000000000E+00  0.00000000000E+00  0.24148152412E+03  0.24148152412E+03  0.00000000000E+00 0.  1.
         21   -1    0    0  503  504 -0.00000000000E+00 -0.00000000000E+00 -0.79677985077E+02  0.79677985077E+02  0.00000000000E+00 0.  1.
         25    2    1    2    0    0  0.34699716519E+02 -0.11350487258E+02  0.25570911897E+02  0.13270194477E+03  0.12499212264E+03 0.  0.
         25    2    1    2    0    0 -0.34699716519E+02  0.11350487258E+02  0.13623262715E+03  0.18845756443E+03  0.12499608395E+03 0.  0.
          5    1    3    3  501    0 -0.12018021444E+02 -0.29525855100E+02 -0.39148757976E+02  0.50704281967E+02  0.47000000000E+01 0.  1.
         -5    1    3    3    0  501  0.46717737963E+02  0.18175367842E+02  0.64719669872E+02  0.81997662802E+02  0.47000000000E+01 0.  1.
          5    1    4    4  502    0 -0.20986043747E+02 -0.16584347654E+02 -0.16991087328E+02  0.32035006912E+02  0.47000000000E+01 0.  1.
         -5    1    4    4    0  502 -0.13713672772E+02  0.27934834912E+02  0.15322371447E+03  0.15642255752E+03  0.47000000000E+01 0.  1.
<mgrwt>
<rscale>  0 0.27742214E+03</rscale>
<asrwt>0</asrwt>
<pdfrwt beam="1">  1       21 0.37151003E-01 0.27742214E+03</pdfrwt>
<pdfrwt beam="2">  1       21 0.12258152E-01 0.27742214E+03</pdfrwt>
<totfact> 0.38759565E+05</totfact>
</mgrwt>
</event>
<event>
 8    1  0.9373234E-006  0.3389728E+03  0.7546771E-02  0.1067234E+00
         21   -1    0    0  504  503  0.00000000000E+00  0.00000000000E+00  0.68411729842E+02  0.68411729842E+02  0.00000000000E+00 0.  1.
         21   -1    0    0  503  504 -0.00000000000E+00 -0.00000000000E+00 -0.41989340712E+03  0.41989340712E+03  0.00000000000E+00 0.  1.
         25    2    1    2    0    0  0.10682998393E+03 -0.33550408863E+02 -0.21003892206E+03  0.26884045864E+03  0.12498227083E+03 0.  0.
         25    2    1    2    0    0 -0.10682998393E+03  0.33550408863E+02 -0.14144275521E+03  0.21946467832E+03  0.12498166516E+03 0.  0.
          5    1    3    3  501    0  0.11956211906E+03 -0.20793755865E+02 -0.21723008771E+03  0.24887442939E+03  0.47000000000E+01 0.  1.
         -5    1    3    3    0  501 -0.12732135133E+02 -0.12756652997E+02  0.71911656471E+01  0.19966029253E+02  0.47000000000E+01 0.  1.
          5    1    4    4  502    0 -0.60393394177E+02 -0.45665883005E+02 -0.63542902041E+02  0.98957189384E+02  0.47000000000E+01 0.  1.
         -5    1    4    4    0  502 -0.46436589751E+02  0.79216291868E+02 -0.77899853172E+02  0.12050748893E+03  0.47000000000E+01 0.  1.
<mgrwt>
<rscale>  0 0.33897277E+03</rscale>
<asrwt>0</asrwt>
<pdfrwt beam="1">  1       21 0.10524881E-01 0.33897277E+03</pdfrwt>
<pdfrwt beam="2">  1       21 0.64598987E-01 0.33897277E+03</pdfrwt>
<totfact> 0.15712277E+05</totfact>
</mgrwt>
</event>
<event>
 8    1  0.9373234E-006  0.2967465E+03  0.7546771E-02  0.1086878E+00
         21   -1    0    0  504  503  0.00000000000E+00  0.00000000000E+00  0.24521203660E+02  0.24521203660E+02  0.00000000000E+00 0. -1.
         21   -1    0    0  503  504 -0.00000000000E+00 -0.00000000000E+00 -0.89777899149E+03  0.89777899149E+03  0.00000000000E+00 0. -1.
         25    2    1    2    0    0  0.25858461085E+02  0.16829178900E+02 -0.20742483440E+03  0.24413616380E+03  0.12500209310E+03 0.  0.
         25    2    1    2    0    0 -0.25858461085E+02 -0.16829178900E+02 -0.66583295343E+03  0.67816403135E+03  0.12498420007E+03 0.  0.
          5    1    3    3  501    0  0.52151101385E+02 -0.39960706651E+02 -0.11163989347E+03  0.12962311239E+03  0.47000000000E+01 0. -1.
         -5    1    3    3    0  501 -0.26292640300E+02  0.56789885551E+02 -0.95784940927E+02  0.11451305141E+03  0.47000000000E+01 0. -1.
          5    1    4    4  502    0 -0.50166149862E+02  0.26649321487E+02 -0.15975686662E+03  0.16962068081E+03  0.47000000000E+01 0.  1.
         -5    1    4    4    0  502  0.24307688777E+02 -0.43478500387E+02 -0.50607608681E+03  0.50854335054E+03  0.47000000000E+01 0.  1.
<mgrwt>
<rscale>  0 0.29674650E+03</rscale>
<asrwt>0</asrwt>
<pdfrwt beam="1">  1       21 0.37724927E-02 0.29674650E+03</pdfrwt>
<pdfrwt beam="2">  1       21 0.13811985E+00 0.29674650E+03</pdfrwt>
<totfact> 0.15427220E+05</totfact>
</mgrwt>
</event>
<event>
 8    1  0.9373234E-006  0.9888900E+03  0.7546771E-02  0.9320815E-01
         21   -1    0    0  504  503  0.00000000000E+00  0.00000000000E+00  0.28617950408E+03  0.28617950408E+03  0.00000000000E+00 0.  1.
         21   -1    0    0  503  504 -0.00000000000E+00 -0.00000000000E+00 -0.85427454360E+03  0.85427454360E+03  0.00000000000E+00 0.  1.
         25    2    1    2    0    0 -0.45385670732E+03  0.14527797583E+03 -0.33249737458E+03  0.59436513428E+03  0.12499523075E+03 0.  0.
         25    2    1    2    0    0  0.45385670732E+03 -0.14527797583E+03 -0.23559766494E+03  0.54608891339E+03  0.12496095616E+03 0.  0.
          5    1    3    3  501    0 -0.18999829443E+03  0.10767409255E+03 -0.20220424895E+03  0.29766039439E+03  0.47000000000E+01 0.  1.
         -5    1    3    3    0  501 -0.26385841289E+03  0.37603883274E+02 -0.13029312563E+03  0.29670473990E+03  0.47000000000E+01 0.  1.
          5    1    4    4  502    0  0.42554046574E+03 -0.16201138380E+03 -0.23595107324E+03  0.51286194577E+03  0.47000000000E+01 0. -1.
         -5    1    4    4    0  502  0.28316241585E+02  0.16733407973E+02  0.35340829469E+00  0.33226967622E+02  0.47000000000E+01 0. -1.
<mgrwt>
<rscale>  0 0.98889001E+03</rscale>
<asrwt>0</asrwt>
<pdfrwt beam="1">  1       21 0.44027616E-01 0.98889001E+03</pdfrwt>
<pdfrwt beam="2">  1       21 0.13142685E+00 0.98889001E+03</pdfrwt>
<totfact> 0.15593825E+03</totfact>
</mgrwt>
</event>
<event>
 8    1  0.9373234E-006  0.2605271E+03  0.7546771E-02  0.1106827E+00
         21   -1    0    0  504  503  0.00000000000E+00  0.00000000000E+00  0.10077392388E+03  0.10077392388E+03  0.00000000000E+00 0. -1.
         21   -1    0    0  503  504 -0.00000000000E+00 -0.00000000000E+00 -0.16838277981E+03  0.16838277981E+03  0.00000000000E+00 0. -1.
         25    2    1    2    0    0  0.55463911478E+01 -0.32752219982E+02 -0.17870914268E+02  0.13057759976E+03  0.12501067800E+03 0.  0.
         25    2    1    2    0    0 -0.55463911478E+01  0.32752219982E+02 -0.49737941665E+02  0.13857910392E+03  0.12500733912E+03 0.  0.
          5    1    3    3  501    0  0.51893648834E+02 -0.18595336966E+02 -0.48064160417E+02  0.73287044304E+02  0.47000000000E+01 0. -1.
         -5    1    3    3    0  501 -0.46347257687E+02 -0.14156883016E+02  0.30193246149E+02  0.57290555459E+02  0.47000000000E+01 0. -1.
          5    1    4    4  502    0  0.52934461775E+02  0.33301646894E+02 -0.16798825669E+01  0.62737300984E+02  0.47000000000E+01 0. -1.
         -5    1    4    4    0  502 -0.58480852923E+02 -0.54942691119E+00 -0.48058059098E+02  0.75841802938E+02  0.47000000000E+01 0. -1.
<mgrwt>
<rscale>  0 0.26052711E+03</rscale>
<asrwt>0</asrwt>
<pdfrwt beam="1">  1       21 0.15503681E-01 0.26052711E+03</pdfrwt>
<pdfrwt beam="2">  1       21 0.25905043E-01 0.26052711E+03</pdfrwt>
<totfact> 0.51599581E+05</totfact>
</mgrwt>
</event>
<event>
 8    1  0.9373234E-006  0.3995946E+03  0.7546771E-02  0.1043920E+00
         21   -1    0    0  504  503  0.00000000000E+00  0.00000000000E+00  0.25415054257E+04  0.25415054257E+04  0.00000000000E+00 0. -1.
         21   -1    0    0  503  504 -0.00000000000E+00 -0.00000000000E+00 -0.15706814967E+02  0.15706814967E+02  0.00000000000E+00 0. -1.
         25    2    1    2    0    0  0.10714544486E+03 -0.80979000547E+02  0.75674278305E+03  0.77866753742E+03  0.12500299702E+03 0.  0.
         25    2    1    2    0    0 -0.10714544486E+03  0.80979000547E+02  0.17690558277E+04  0.17785447032E+04  0.12499998029E+03 0.  0.
          5    1    3    3  501    0  0.92496336361E+02 -0.34326003926E+02  0.68271711666E+03  0.68982504896E+03  0.47000000000E+01 0. -1.
         -5    1    3    3    0  501  0.14649108500E+02 -0.46652996621E+02  0.74025666380E+02  0.88842488465E+02  0.47000000000E+01 0. -1.
          5    1    4    4  502    0 -0.66257024598E+02 -0.19229032244E+02  0.48159452105E+03  0.48653378269E+03  0.47000000000E+01 0.  1.
         -5    1    4    4    0  502 -0.40888420264E+02  0.10020803279E+03  0.12874613066E+04  0.12920109205E+04  0.47000000000E+01 0.  1.
<mgrwt>
<rscale>  0 0.39959457E+03</rscale>
<asrwt>0</asrwt>
<pdfrwt beam="1">  1       21 0.39100051E+00 0.39959457E+03</pdfrwt>
<pdfrwt beam="2">  1       21 0.24164351E-02 0.39959457E+03</pdfrwt>
<totfact> 0.74912086E+03</totfact>
</mgrwt>
</event>
<event>
 8    1  0.9373234E-006  0.3481249E+03  0.7546771E-02  0.1063387E+00
         21   -1    0    0  504  503  0.00000000000E+00  0.00000000000E+00  0.46764852969E+03  0.46764852969E+03  0.00000000000E+00 0.  1.
         21   -1    0    0  503  504 -0.00000000000E+00 -0.00000000000E+00 -0.64787391600E+02  0.64787391600E+02  0.00000000000E+00 0.  1.
         25    2    1    2    0    0 -0.10934373379E+03 -0.16229508944E+02  0.27717553463E+03  0.32352700047E+03  0.12499597577E+03 0.  0.
         25    2    1    2    0    0  0.10934373379E+03  0.16229508944E+02  0.12568560347E+03  0.20890892082E+03  0.12500646863E+03 0.  0.
          5    1    3    3  501    0 -0.63750404741E+02 -0.60509494195E+02  0.90380964151E+02  0.12615990517E+03  0.47000000000E+01 0.  1.
         -5    1    3    3    0  501 -0.45593329047E+02  0.44279985252E+02  0.18679457048E+03  0.19736709530E+03  0.47000000000E+01 0.  1.
          5    1    4    4  502    0  0.71681719128E+02 -0.31529040166E+02  0.12538512547E+03  0.14790493203E+03  0.47000000000E+01 0.  1.
         -5    1    4    4    0  502  0.37662014660E+02  0.47758549109E+02  0.30047800014E+00  0.61003988790E+02  0.47000000000E+01 0.  1.
<mgrwt>
<rscale>  0 0.34812485E+03</rscale>
<asrwt>0</asrwt>
<pdfrwt beam="1">  1       21 0.71945926E-01 0.34812485E+03</pdfrwt>
<pdfrwt beam="2">  1       21 0.99672913E-02 0.34812485E+03</pdfrwt>
<totfact> 0.13599963E+05</totfact>
</mgrwt>
</event>
<event>
 8    1  0.9373234E-006  0.2879524E+03  0.7546771E-02  0.1091423E+00
         21   -1    0    0  504  503  0.00000000000E+00  0.00000000000E+00  0.47261741115E+03  0.47261741115E+03  0.00000000000E+00 0.  1.
         21   -1    0    0  503  504 -0.00000000000E+00 -0.00000000000E+00 -0.43860319530E+02  0.43860319530E+02  0.00000000000E+00 0.  1.
         25    2    1    2    0    0  0.31529046653E+02  0.26097600432E+02  0.10933263768E+03  0.17103625188E+03  0.12499843304E+03 0.  0.
         25    2    1    2    0    0 -0.31529046653E+02 -0.26097600432E+02  0.31942445395E+03  0.34544147881E+03  0.12499067153E+03 0.  0.
          5    1    3    3  501    0  0.24410454505E+02  0.55508887675E+02  0.12321850189E+03  0.13741177573E+03  0.47000000000E+01 0.  1.
         -5    1    3    3    0  501  0.71185921486E+01 -0.29411287243E+02 -0.13885864213E+02  0.33624476151E+02  0.47000000000E+01 0.  1.
          5    1    4    4  502    0 -0.46811959025E+02 -0.58762621743E+02  0.28703292485E+03  0.29673960836E+03  0.47000000000E+01 0.  1.
         -5    1    4    4    0  502  0.15282912371E+02  0.32665021311E+02  0.32391529095E+02  0.48701870446E+02  0.47000000000E+01 0.  1.
<mgrwt>
<rscale>  0 0.28795243E+03</rscale>
<asrwt>0</asrwt>
<pdfrwt beam="1">  1       21 0.72710368E-01 0.28795243E+03</pdfrwt>
<pdfrwt beam="2">  1       21 0.67477418E-02 0.28795243E+03</pdfrwt>
<totfact> 0.26779175E+05</totfact>
</mgrwt>
</event>
<event>
 8    1  0.9373234E-006  0.3070071E+03  0.7546771E-02  0.1081789E+00
         21   -1    0    0  504  503  0.00000000000E+00  0.00000000000E+00  0.97876306985E+03  0.97876306985E+03  0.00000000000E+00 0.  1.
         21   -1    0    0  503  504 -0.00000000000E+00 -0.00000000000E+00 -0.24074613120E+02  0.24074613120E+02  0.00000000000E+00 0.  1.
         25    2    1    2    0    0 -0.48389648690E+02 -0.51606883624E+00  0.72171857448E+03  0.73406080597E+03  0.12500296670E+03 0.  0.
         25    2    1    2    0    0  0.48389648690E+02  0.51606883624E+00  0.23296988225E+03  0.26877687700E+03  0.12499687655E+03 0.  0.
          5    1    3    3  501    0 -0.23741619484E+02  0.63766336502E+01  0.69920183225E+03  0.69964963959E+03  0.47000000000E+01 0. -1.
         -5    1    3    3    0  501 -0.24648029205E+02 -0.68927024864E+01  0.22516742235E+02  0.34411166388E+02  0.47000000000E+01 0. -1.
          5    1    4    4  502    0 -0.35927369653E+02  0.27383945708E+02  0.79425876903E+02  0.91494351162E+02  0.47000000000E+01 0.  1.
         -5    1    4    4    0  502  0.84317018343E+02 -0.26867876872E+02  0.15354400535E+03  0.17728252584E+03  0.47000000000E+01 0.  1.
<mgrwt>
<rscale>  0 0.30700712E+03</rscale>
<asrwt>0</asrwt>
<pdfrwt beam="1">  1       21 0.15057890E+00 0.30700712E+03</pdfrwt>
<pdfrwt beam="2">  1       21 0.37037874E-02 0.30700712E+03</pdfrwt>
<totfact> 0.12620465E+05</totfact>
</mgrwt>
</event>
<event>
 8    1  0.9373234E-006  0.3537453E+03  0.7546771E-02  0.1061088E+00
         21   -1    0    0  504  503  0.00000000000E+00  0.00000000000E+00  0.98777755801E+02  0.98777755801E+02  0.00000000000E+00 0.  1.
         21   -1    0    0  503  504 -0.00000000000E+00 -0.00000000000E+00 -0.31671027085E+03  0.31671027085E+03  0.00000000000E+00 0.  1.
         25    2    1    2    0    0 -0.95291830212E+02  0.66008331063E+02 -0.16425990520E+03  0.23673764338E+03  0.12500305060E+03 0.  0.
         25    2    1    2    0    0  0.95291830212E+02 -0.66008331063E+02 -0.53672609841E+02  0.17875038327E+03  0.12503326676E+03 0.  0.
          5    1    3    3  501    0 -0.90665364601E+02  0.99530474428E+02 -0.11705883449E+03  0.17846956158E+03  0.47000000000E+01 0. -1.
         -5    1    3    3    0  501 -0.46264656109E+01 -0.33522143365E+02 -0.47201070713E+02  0.58268081797E+02  0.47000000000E+01 0. -1.
          5    1    4    4  502    0  0.56293667311E+02  0.14786781109E+02  0.20873768674E+02  0.62011531940E+02  0.47000000000E+01 0.  1.
         -5    1    4    4    0  502  0.38998162901E+02 -0.80795112171E+02 -0.74546378516E+02  0.11673885133E+03  0.47000000000E+01 0.  1.
<mgrwt>
<rscale>  0 0.35374527E+03</rscale>
<asrwt>0</asrwt>
<pdfrwt beam="1">  1       21 0.15196578E-01 0.35374527E+03</pdfrwt>
<pdfrwt beam="2">  1       21 0.48724656E-01 0.35374527E+03</pdfrwt>
<totfact> 0.14734184E+05</totfact>
</mgrwt>
</event>
<event>
 8    1  0.9373234E-006  0.3342313E+03  0.7546771E-02  0.1069280E+00
         21   -1    0    0  504  503  0.00000000000E+00  0.00000000000E+00  0.10000023463E+04  0.10000023463E+04  0.00000000000E+00 0. -1.
         21   -1    0    0  503  504 -0.00000000000E+00 -0.00000000000E+00 -0.27927577204E+02  0.27927577204E+02  0.00000000000E+00 0. -1.
         25    2    1    2    0    0 -0.66214091759E+02  0.15651041951E+02  0.21662750385E+03  0.25919371679E+03  0.12499858533E+03 0.  0.
         25    2    1    2    0    0  0.66214091759E+02 -0.15651041951E+02  0.75544726527E+03  0.76873620675E+03  0.12500209558E+03 0.  0.
          5    1    3    3  501    0 -0.42299118475E+02  0.38037773013E+02  0.21870883439E+03  0.22603480227E+03  0.47000000000E+01 0. -1.
         -5    1    3    3    0  501 -0.23914973284E+02 -0.22386731063E+02 -0.20813305337E+01  0.33158914512E+02  0.47000000000E+01 0. -1.
          5    1    4    4  502    0 -0.11699231350E+02 -0.34465175970E+02  0.49098227670E+03  0.49235191317E+03  0.47000000000E+01 0. -1.
         -5    1    4    4    0  502  0.77913323110E+02  0.18814134019E+02  0.26446498857E+03  0.27638429358E+03  0.47000000000E+01 0. -1.
<mgrwt>
<rscale>  0 0.33423131E+03</rscale>
<asrwt>0</asrwt>
<pdfrwt beam="1">  1       21 0.15384649E+00 0.33423131E+03</pdfrwt>
<pdfrwt beam="2">  1       21 0.42965511E-02 0.33423131E+03</pdfrwt>
<totfact> 0.91839131E+04</totfact>
</mgrwt>
</event>
<event>
 8    1  0.9373234E-006  0.2760898E+03  0.7546771E-02  0.1097844E+00
         21   -1    0    0  504  503  0.00000000000E+00  0.00000000000E+00  0.25419788456E+03  0.25419788456E+03  0.00000000000E+00 0.  1.
         21   -1    0    0  503  504 -0.00000000000E+00 -0.00000000000E+00 -0.74966746876E+02  0.74966746876E+02  0.00000000000E+00 0.  1.
         25    2    1    2    0    0  0.25679147077E+02 -0.45770442553E+02  0.58599261696E+02  0.14769593919E+03  0.12500345986E+03 0.  0.
         25    2    1    2    0    0 -0.25679147077E+02  0.45770442553E+02  0.12063187599E+03  0.18146869225E+03  0.12499793900E+03 0.  0.
          5    1    3    3  501    0  0.42501491981E+02  0.94572002147E+01  0.75565269267E+02  0.87338510268E+02  0.47000000000E+01 0. -1.
         -5    1    3    3    0  501 -0.16822344904E+02 -0.55227642768E+02 -0.16966007570E+02  0.60357428927E+02  0.47000000000E+01 0. -1.
          5    1    4    4  502    0 -0.68355564880E+02 -0.50813108887E+01  0.67410128786E+02  0.96252368456E+02  0.47000000000E+01 0. -1.
         -5    1    4    4    0  502  0.42676417803E+02  0.50851753442E+02  0.53221747205E+02  0.85216323789E+02  0.47000000000E+01 0. -1.
<mgrwt>
<rscale>  0 0.27608976E+03</rscale>
<asrwt>0</asrwt>
<pdfrwt beam="1">  1       21 0.39107366E-01 0.27608976E+03</pdfrwt>
<pdfrwt beam="2">  1       21 0.11533346E-01 0.27608976E+03</pdfrwt>
<totfact> 0.39002634E+05</totfact>
</mgrwt>
</event>
<event>
 8    1  0.9373234E-006  0.2828169E+03  0.7546771E-02  0.1094160E+00
         21   -1    0    0  504  503  0.00000000000E+00  0.00000000000E+00  0.10289221019E+03  0.10289221019E+03  0.00000000000E+00 0. -1.
         21   -1    0    0  503  504 -0.00000000000E+00 -0.00000000000E+00 -0.19434274466E+03  0.19434274466E+03  0.00000000000E+00 0. -1.
         25    2    1    2    0    0  0.24794922532E+02 -0.29140986689E+02  0.10931200915E+02  0.13118933058E+03  0.12500865576E+03 0.  0.
         25    2    1    2    0    0 -0.24794922532E+02  0.29140986689E+02 -0.10238173539E+03  0.16604562427E+03  0.12500057723E+03 0.  0.
          5    1    3    3  501    0  0.53142644580E+02 -0.23520950655E+02  0.53761281993E+02  0.79307888852E+02  0.47000000000E+01 0. -1.
         -5    1    3    3    0  501 -0.28347722048E+02 -0.56200360337E+01 -0.42830081077E+02  0.51881441725E+02  0.47000000000E+01 0. -1.
          5    1    4    4  502    0 -0.37701391020E+02 -0.12167081816E+02  0.13612020913E+02  0.42152222694E+02  0.47000000000E+01 0.  1.
         -5    1    4    4    0  502  0.12906468487E+02  0.41308068505E+02 -0.11599375630E+03  0.12389340158E+03  0.47000000000E+01 0.  1.
<mgrwt>
<rscale>  0 0.28281693E+03</rscale>
<asrwt>0</asrwt>
<pdfrwt beam="1">  1       21 0.15829571E-01 0.28281693E+03</pdfrwt>
<pdfrwt beam="2">  1       21 0.29898884E-01 0.28281693E+03</pdfrwt>
<totfact> 0.37410354E+05</totfact>
</mgrwt>
</event>
<event>
 8    1  0.9373234E-006  0.3012986E+03  0.7546771E-02  0.1084593E+00
         21   -1    0    0  504  503  0.00000000000E+00  0.00000000000E+00  0.41303146270E+02  0.41303146270E+02  0.00000000000E+00 0.  1.
         21   -1    0    0  503  504 -0.00000000000E+00 -0.00000000000E+00 -0.54947911068E+03  0.54947911068E+03  0.00000000000E+00 0.  1.
         25    2    1    2    0    0 -0.34506748616E+02  0.66395566415E+02 -0.17884744572E+03  0.23066814531E+03  0.12498918945E+03 0.  0.
         25    2    1    2    0    0  0.34506748616E+02 -0.66395566415E+02 -0.32932851869E+03  0.36011411164E+03  0.12500325292E+03 0.  0.
          5    1    3    3  501    0 -0.65248298740E+01  0.13783073874E+02  0.18520485867E+02  0.24446777437E+02  0.47000000000E+01 0.  1.
         -5    1    3    3    0  501 -0.27981918742E+02  0.52612492541E+02 -0.19736793159E+03  0.20622136788E+03  0.47000000000E+01 0.  1.
          5    1    4    4  502    0  0.43777648817E+02 -0.17517652998E+02 -0.29664061840E+03  0.30040155989E+03  0.47000000000E+01 0.  1.
         -5    1    4    4    0  502 -0.92709002010E+01 -0.48877913418E+02 -0.32687900291E+02  0.59712551746E+02  0.47000000000E+01 0.  1.
<mgrwt>
<rscale>  0 0.30129863E+03</rscale>
<asrwt>0</asrwt>
<pdfrwt beam="1">  1       21 0.63543306E-02 0.30129863E+03</pdfrwt>
<pdfrwt beam="2">  1       21 0.84535242E-01 0.30129863E+03</pdfrwt>
<totfact> 0.21025776E+05</totfact>
</mgrwt>
</event>
<event>
 8    1  0.9373234E-006  0.2620760E+03  0.7546771E-02  0.1105902E+00
         21   -1    0    0  504  503  0.00000000000E+00  0.00000000000E+00  0.23219463090E+03  0.23219463090E+03  0.00000000000E+00 0. -1.
         21   -1    0    0  503  504 -0.00000000000E+00 -0.00000000000E+00 -0.73950710713E+02  0.73950710713E+02  0.00000000000E+00 0. -1.
         25    2    1    2    0    0 -0.13196760386E+02  0.35911121583E+02  0.68561515431E+02  0.14761475405E+03  0.12500268428E+03 0.  0.
         25    2    1    2    0    0  0.13196760386E+02 -0.35911121583E+02  0.89682404759E+02  0.15853058757E+03  0.12500100133E+03 0.  0.
          5    1    3    3  501    0 -0.28767441669E+02  0.78370057473E+02  0.55318164959E+02  0.10025777268E+03  0.47000000000E+01 0.  1.
         -5    1    3    3    0  501  0.15570681283E+02 -0.42458935890E+02  0.13243350472E+02  0.47356981368E+02  0.47000000000E+01 0.  1.
          5    1    4    4  502    0 -0.34101181239E+02 -0.40525446257E+02 -0.40583550275E+01  0.53326940675E+02  0.47000000000E+01 0.  1.
         -5    1    4    4    0  502  0.47297941625E+02  0.46143246744E+01  0.93740759786E+02  0.10520364689E+03  0.47000000000E+01 0.  1.
<mgrwt>
<rscale>  0 0.26207600E+03</rscale>
<asrwt>0</asrwt>
<pdfrwt beam="1">  1       21 0.35722251E-01 0.26207600E+03</pdfrwt>
<pdfrwt beam="2">  1       21 0.11377032E-01 0.26207600E+03</pdfrwt>
<totfact> 0.48102946E+05</totfact>
</mgrwt>
</event>
<event>
 8    1  0.9373234E-006  0.5926811E+03  0.7546771E-02  0.9920708E-01
         21   -1    0    0  504  503  0.00000000000E+00  0.00000000000E+00  0.60229973662E+03  0.60229973662E+03  0.00000000000E+00 0.  1.
         21   -1    0    0  503  504 -0.00000000000E+00 -0.00000000000E+00 -0.14580399698E+03  0.14580399698E+03  0.00000000000E+00 0.  1.
         25    2    1    2    0    0 -0.43210343574E+02  0.56955368601E+02  0.55517190961E+03  0.57354073139E+03  0.12498829362E+03 0.  0.
         25    2    1    2    0    0  0.43210343574E+02 -0.56955368601E+02 -0.98676169971E+02  0.17456300221E+03  0.12499682962E+03 0.  0.
          5    1    3    3  501    0 -0.38884438393E+02  0.96388164051E+02  0.40212283255E+03  0.41536434630E+03  0.47000000000E+01 0.  1.
         -5    1    3    3    0  501 -0.43259051803E+01 -0.39432795450E+02  0.15304907706E+03  0.15817638509E+03  0.47000000000E+01 0.  1.
          5    1    4    4  502    0  0.41729795037E+01 -0.76575195204E+02 -0.10506223113E+03  0.13015889016E+03  0.47000000000E+01 0.  1.
         -5    1    4    4    0  502  0.39037364070E+02  0.19619826604E+02  0.63860611560E+01  0.44404112046E+02  0.47000000000E+01 0.  1.
<mgrwt>
<rscale>  0 0.59268106E+03</rscale>
<asrwt>0</asrwt>
<pdfrwt beam="1">  1       21 0.92661496E-01 0.59268106E+03</pdfrwt>
<pdfrwt beam="2">  1       21 0.22431385E-01 0.59268106E+03</pdfrwt>
<totfact> 0.15875157E+04</totfact>
</mgrwt>
</event>
<event>
 8    1  0.9373234E-006  0.2584138E+03  0.7546771E-02  0.1108100E+00
         21   -1    0    0  504  503  0.00000000000E+00  0.00000000000E+00  0.20325280731E+02  0.20325280731E+02  0.00000000000E+00 0.  1.
         21   -1    0    0  503  504 -0.00000000000E+00 -0.00000000000E+00 -0.82136254546E+03  0.82136254546E+03  0.00000000000E+00 0.  1.
         25    2    1    2    0    0  0.25651966148E+02  0.58954868793E+01 -0.46382761416E+03  0.48109482214E+03  0.12499356824E+03 0.  0.
         25    2    1    2    0    0 -0.25651966148E+02 -0.58954868793E+01 -0.33720965057E+03  0.36059300405E+03  0.12499674395E+03 0.  0.
          5    1    3    3  501    0  0.81221666137E+01  0.34892090817E+02 -0.33069964850E+02  0.48981018438E+02  0.47000000000E+01 0.  1.
         -5    1    3    3    0  501  0.17529799534E+02 -0.28996603938E+02 -0.43075764931E+03  0.43211380370E+03  0.47000000000E+01 0.  1.
          5    1    4    4  502    0 -0.32398074319E+01 -0.88319357544E+01  0.88619131770E+01  0.13752197880E+02  0.47000000000E+01 0. -1.
         -5    1    4    4    0  502 -0.22412158716E+02  0.29364488751E+01 -0.34607156374E+03  0.34684080617E+03  0.47000000000E+01 0. -1.
<mgrwt>
<rscale>  0 0.25841381E+03</rscale>
<asrwt>0</asrwt>
<pdfrwt beam="1">  1       21 0.31269661E-02 0.25841381E+03</pdfrwt>
<pdfrwt beam="2">  1       21 0.12636347E+00 0.25841381E+03</pdfrwt>
<totfact> 0.26854786E+05</totfact>
</mgrwt>
</event>
<event>
 8    1  0.9373234E-006  0.3716396E+03  0.7546771E-02  0.1054068E+00
         21   -1    0    0  504  503  0.00000000000E+00  0.00000000000E+00  0.30392115564E+02  0.30392115564E+02  0.00000000000E+00 0.  1.
         21   -1    0    0  503  504 -0.00000000000E+00 -0.00000000000E+00 -0.11361172122E+04  0.11361172122E+04  0.00000000000E+00 0.  1.
         25    2    1    2    0    0  0.73146886324E+02 -0.68868115336E+02 -0.84747153984E+03  0.86251415908E+03  0.12501751673E+03 0.  0.
         25    2    1    2    0    0 -0.73146886324E+02  0.68868115336E+02 -0.25825355680E+03  0.30399516868E+03  0.12499951478E+03 0.  0.
          5    1    3    3  501    0  0.11102762285E+02 -0.69212722506E+02 -0.68404011887E+03  0.68763845624E+03  0.47000000000E+01 0. -1.
         -5    1    3    3    0  501  0.62044124039E+02  0.34460717025E+00 -0.16343142098E+03  0.17487570284E+03  0.47000000000E+01 0. -1.
          5    1    4    4  502    0 -0.83598297020E+02  0.32650470463E+02 -0.75620546058E+02  0.11745333317E+03  0.47000000000E+01 0.  1.
         -5    1    4    4    0  502  0.10451410696E+02  0.36217644873E+02 -0.18263301074E+03  0.18654183552E+03  0.47000000000E+01 0.  1.
<mgrwt>
<rscale>  0 0.37163964E+03</rscale>
<asrwt>0</asrwt>
<pdfrwt beam="1">  1       21 0.46757091E-02 0.37163964E+03</pdfrwt>
<pdfrwt beam="2">  1       21 0.17478730E+00 0.37163964E+03</pdfrwt>
<totfact> 0.55057938E+04</totfact>
</mgrwt>
</event>
<event>
 8    1  0.9373234E-006  0.2732551E+03  0.7546771E-02  0.1099431E+00
         21   -1    0    0  504  503  0.00000000000E+00  0.00000000000E+00  0.23915748965E+03  0.23915748965E+03  0.00000000000E+00 0.  1.
         21   -1    0    0  503  504 -0.00000000000E+00 -0.00000000000E+00 -0.78053561849E+02  0.78053561849E+02  0.00000000000E+00 0.  1.
         25    2    1    2    0    0  0.30202677028E+02 -0.46053475348E+02  0.77064223738E+02  0.15683269223E+03  0.12499789790E+03 0.  0.
         25    2    1    2    0    0 -0.30202677028E+02  0.46053475348E+02  0.84039704067E+02  0.16037835927E+03  0.12500168788E+03 0.  0.
          5    1    3    3  501    0  0.69562464645E+02  0.22930335176E+01  0.60035937697E+02  0.92035853369E+02  0.47000000000E+01 0. -1.
         -5    1    3    3    0  501 -0.39359787617E+02 -0.48346508865E+02  0.17028286041E+02  0.64796838860E+02  0.47000000000E+01 0. -1.
          5    1    4    4  502    0  0.18624419941E+02  0.75749838098E+02  0.38296532939E+02  0.87026555862E+02  0.47000000000E+01 0.  1.
         -5    1    4    4    0  502 -0.48827096970E+02 -0.29696362750E+02  0.45743171129E+02  0.73351803413E+02  0.47000000000E+01 0.  1.
<mgrwt>
<rscale>  0 0.27325515E+03</rscale>
<asrwt>0</asrwt>
<pdfrwt beam="1">  1       21 0.36793460E-01 0.27325515E+03</pdfrwt>
<pdfrwt beam="2">  1       21 0.12008240E-01 0.27325515E+03</pdfrwt>
<totfact> 0.41051115E+05</totfact>
</mgrwt>
</event>
<event>
 8    1  0.9373234E-006  0.2654768E+03  0.7546771E-02  0.1103897E+00
         21   -1    0    0  504  503  0.00000000000E+00  0.00000000000E+00  0.44161466630E+03  0.44161466630E+03  0.00000000000E+00 0. -1.
         21   -1    0    0  503  504 -0.00000000000E+00 -0.00000000000E+00 -0.39897857790E+02  0.39897857790E+02  0.00000000000E+00 0. -1.
         25    2    1    2    0    0  0.24546172172E+02  0.14544564932E+02  0.13856483871E+03  0.18878144067E+03  0.12499663547E+03 0.  0.
         25    2    1    2    0    0 -0.24546172172E+02 -0.14544564932E+02  0.26315196981E+03  0.29273108342E+03  0.12501387544E+03 0.  0.
          5    1    3    3  501    0  0.49826083254E+02 -0.11480393611E+02  0.14298997482E+03  0.15192978940E+03  0.47000000000E+01 0. -1.
         -5    1    3    3    0  501 -0.25279911082E+02  0.26024958543E+02 -0.44251361101E+01  0.36851651267E+02  0.47000000000E+01 0. -1.
          5    1    4    4  502    0 -0.59849940877E+02  0.38609004754E+01  0.57535119113E+02  0.83242428525E+02  0.47000000000E+01 0.  1.
         -5    1    4    4    0  502  0.35303768705E+02 -0.18405465408E+02  0.20561685070E+03  0.20948865490E+03  0.47000000000E+01 0.  1.
<mgrwt>
<rscale>  0 0.26547677E+03</rscale>
<asrwt>0</asrwt>
<pdfrwt beam="1">  1       21 0.67940715E-01 0.26547677E+03</pdfrwt>
<pdfrwt beam="2">  1       21 0.61381323E-02 0.26547677E+03</pdfrwt>
<totfact> 0.36879436E+05</totfact>
</mgrwt>
</event>
<event>
 8    1  0.9373234E-006  0.2823906E+03  0.7546771E-02  0.1094390E+00
         21   -1    0    0  504  503  0.00000000000E+00  0.00000000000E+00  0.51668677874E+02  0.51668677874E+02  0.00000000000E+00 0. -1.
         21   -1    0    0  503  504 -0.00000000000E+00 -0.00000000000E+00 -0.38584513436E+03  0.38584513436E+03  0.00000000000E+00 0. -1.
         25    2    1    2    0    0 -0.62054712773E+02 -0.28062379574E+00 -0.20032847877E+03  0.24414713519E+03  0.12500183233E+03 0.  0.
         25    2    1    2    0    0  0.62054712773E+02  0.28062379574E+00 -0.13384797771E+03  0.19336667704E+03  0.12499809809E+03 0.  0.
          5    1    3    3  501    0  0.30381661390E+02  0.12661449179E+02 -0.10709545138E+03  0.11213778735E+03  0.47000000000E+01 0. -1.
         -5    1    3    3    0  501 -0.92436374163E+02 -0.12942072974E+02 -0.93233027388E+02  0.13200934784E+03  0.47000000000E+01 0. -1.
          5    1    4    4  502    0  0.17369544950E+02 -0.53004708751E+02 -0.10282499329E+03  0.11707377796E+03  0.47000000000E+01 0. -1.
         -5    1    4    4    0  502  0.44685167823E+02  0.53285332546E+02 -0.31022984426E+02  0.76292899084E+02  0.47000000000E+01 0. -1.
<mgrwt>
<rscale>  0 0.28239057E+03</rscale>
<asrwt>0</asrwt>
<pdfrwt beam="1">  1       21 0.79490271E-02 0.28239057E+03</pdfrwt>
<pdfrwt beam="2">  1       21 0.59360792E-01 0.28239057E+03</pdfrwt>
<totfact> 0.31483954E+05</totfact>
</mgrwt>
</event>
<event>
 8    1  0.9373234E-006  0.3800279E+03  0.7546771E-02  0.1050923E+00
         21   -1    0    0  504  503  0.00000000000E+00  0.00000000000E+00  0.51974374887E+02  0.51974374887E+02  0.00000000000E+00 0. -1.
         21   -1    0    0  503  504 -0.00000000000E+00 -0.00000000000E+00 -0.69467512789E+03  0.69467512789E+03  0.00000000000E+00 0. -1.
         25    2    1    2    0    0 -0.12679797593E+03 -0.41936847898E+02 -0.42234883564E+03  0.46025959528E+03  0.12499572063E+03 0.  0.
         25    2    1    2    0    0  0.12679797593E+03  0.41936847898E+02 -0.22035191736E+03  0.28638990749E+03  0.12501114237E+03 0.  0.
          5    1    3    3  501    0 -0.74463643088E+02 -0.61165701674E+02 -0.12610790698E+03  0.15878089118E+03  0.47000000000E+01 0.  1.
         -5    1    3    3    0  501 -0.52334332839E+02  0.19228853775E+02 -0.29624092866E+03  0.30147870410E+03  0.47000000000E+01 0.  1.
          5    1    4    4  502    0  0.20347917964E+02  0.65099704714E+02 -0.12046311994E+03  0.13851159730E+03  0.47000000000E+01 0.  1.
         -5    1    4    4    0  502  0.10645005796E+03 -0.23162856816E+02 -0.99888797423E+02  0.14787831020E+03  0.47000000000E+01 0.  1.
<mgrwt>
<rscale>  0 0.38002792E+03</rscale>
<asrwt>0</asrwt>
<pdfrwt beam="1">  1       21 0.79960582E-02 0.38002792E+03</pdfrwt>
<pdfrwt beam="2">  1       21 0.10687309E+00 0.38002792E+03</pdfrwt>
<totfact> 0.78899852E+04</totfact>
</mgrwt>
</event>
<event>
 8    1  0.9373234E-006  0.3601043E+03  0.7546771E-02  0.1058543E+00
         21   -1    0    0  504  503  0.00000000000E+00  0.00000000000E+00  0.13527757277E+03  0.13527757277E+03  0.00000000000E+00 0. -1.
         21   -1    0    0  503  504 -0.00000000000E+00 -0.00000000000E+00 -0.23964636815E+03  0.23964636815E+03  0.00000000000E+00 0. -1.
         25    2    1    2    0    0 -0.11570330448E+03  0.15056744886E+02  0.65286705577E+01  0.17111645413E+03  0.12499702837E+03 0.  0.
         25    2    1    2    0    0  0.11570330448E+03 -0.15056744886E+02 -0.11089746594E+03  0.20380748679E+03  0.12500113394E+03 0.  0.
          5    1    3    3  501    0 -0.14235737703E+03  0.13686649615E+02  0.11545587994E+02  0.14355604402E+03  0.47000000000E+01 0.  1.
         -5    1    3    3    0  501  0.26654072555E+02  0.13700952710E+01 -0.50169174363E+01  0.27560410109E+02  0.47000000000E+01 0.  1.
          5    1    4    4  502    0  0.74582606987E+02 -0.69870469166E+02 -0.67065430209E+02  0.12232869514E+03  0.47000000000E+01 0.  1.
         -5    1    4    4    0  502  0.41120697493E+02  0.54813724280E+02 -0.43832035731E+02  0.81478791645E+02  0.47000000000E+01 0.  1.
<mgrwt>
<rscale>  0 0.36010431E+03</rscale>
<asrwt>0</asrwt>
<pdfrwt beam="1">  1       21 0.20811934E-01 0.36010431E+03</pdfrwt>
<pdfrwt beam="2">  1       21 0.36868672E-01 0.36010431E+03</pdfrwt>
<totfact> 0.14525459E+05</totfact>
</mgrwt>
</event>
<event>
 8    1  0.9373234E-006  0.3056395E+03  0.7546771E-02  0.1082455E+00
         21   -1    0    0  504  503  0.00000000000E+00  0.00000000000E+00  0.14280465093E+03  0.14280465093E+03  0.00000000000E+00 0. -1.
         21   -1    0    0  503  504 -0.00000000000E+00 -0.00000000000E+00 -0.16353716964E+03  0.16353716964E+03  0.00000000000E+00 0. -1.
         25    2    1    2    0    0  0.69102064583E+02 -0.35309444558E+02  0.31044136886E+02  0.15036857603E+03  0.12500047208E+03 0.  0.
         25    2    1    2    0    0 -0.69102064583E+02  0.35309444558E+02 -0.51776655601E+02  0.15597324454E+03  0.12499991497E+03 0.  0.
          5    1    3    3  501    0 -0.39874624552E+01 -0.34853584204E+02 -0.36423527456E+02  0.50788143705E+02  0.47000000000E+01 0. -1.
         -5    1    3    3    0  501  0.73089527038E+02 -0.45586035461E+00  0.67467664342E+02  0.99580432330E+02  0.47000000000E+01 0. -1.
          5    1    4    4  502    0 -0.10539582078E+03  0.20224915841E+02 -0.40646754311E+02  0.11485458152E+03  0.47000000000E+01 0. -1.
         -5    1    4    4    0  502  0.36293756201E+02  0.15084528717E+02 -0.11129901290E+02  0.41118663019E+02  0.47000000000E+01 0. -1.
<mgrwt>
<rscale>  0 0.30563945E+03</rscale>
<asrwt>0</asrwt>
<pdfrwt beam="1">  1       21 0.21969946E-01 0.30563945E+03</pdfrwt>
<pdfrwt beam="2">  1       21 0.25159565E-01 0.30563945E+03</pdfrwt>
<totfact> 0.28206467E+05</totfact>
</mgrwt>
</event>
<event>
 8    1  0.9373234E-006  0.3054507E+03  0.7546771E-02  0.1082547E+00
         21   -1    0    0  504  503  0.00000000000E+00  0.00000000000E+00  0.24570823539E+03  0.24570823539E+03  0.00000000000E+00 0.  1.
         21   -1    0    0  503  504 -0.00000000000E+00 -0.00000000000E+00 -0.94929799319E+02  0.94929799319E+02  0.00000000000E+00 0.  1.
         25    2    1    2    0    0  0.35916769986E+02 -0.31444086615E+02  0.15748871975E+03  0.20666477514E+03  0.12501554898E+03 0.  0.
         25    2    1    2    0    0 -0.35916769986E+02  0.31444086615E+02 -0.67102836812E+01  0.13397325957E+03  0.12500024569E+03 0.  0.
          5    1    3    3  501    0 -0.46504004955E+02 -0.14033816915E+02  0.67696441312E+02  0.83453392144E+02  0.47000000000E+01 0. -1.
         -5    1    3    3    0  501  0.82420774941E+02 -0.17410269701E+02  0.89792278442E+02  0.12321138300E+03  0.47000000000E+01 0. -1.
          5    1    4    4  502    0 -0.59671350614E+02 -0.15865548090E+00 -0.47918081955E+02  0.76674166666E+02  0.47000000000E+01 0. -1.
         -5    1    4    4    0  502  0.23754580628E+02  0.31602742096E+02  0.41207798274E+02  0.57299092902E+02  0.47000000000E+01 0. -1.
<mgrwt>
<rscale>  0 0.30545071E+03</rscale>
<asrwt>0</asrwt>
<pdfrwt beam="1">  1       21 0.37801267E-01 0.30545071E+03</pdfrwt>
<pdfrwt beam="2">  1       21 0.14604585E-01 0.30545071E+03</pdfrwt>
<totfact> 0.27054706E+05</totfact>
</mgrwt>
</event>
<event>
 8    1  0.9373234E-006  0.3390284E+03  0.7546771E-02  0.1067211E+00
         21   -1    0    0  504  503  0.00000000000E+00  0.00000000000E+00  0.18888062391E+03  0.18888062391E+03  0.00000000000E+00 0. -1.
         21   -1    0    0  503  504 -0.00000000000E+00 -0.00000000000E+00 -0.15213342906E+03  0.15213342906E+03  0.00000000000E+00 0. -1.
         25    2    1    2    0    0 -0.60553834501E+02 -0.83205545199E+00 -0.79373300368E+02  0.15997649301E+03  0.12499959326E+03 0.  0.
         25    2    1    2    0    0  0.60553834501E+02  0.83205545199E+00  0.11612049522E+03  0.18103755995E+03  0.12499267784E+03 0.  0.
          5    1    3    3  501    0 -0.69078059284E+02  0.51024490702E+02 -0.52494238554E+02  0.10076215563E+03  0.47000000000E+01 0.  1.
         -5    1    3    3    0  501  0.85242247832E+01 -0.51856546154E+02 -0.26879061814E+02  0.59214337379E+02  0.47000000000E+01 0.  1.
          5    1    4    4  502    0  0.94430517866E+02  0.15788558110E+01  0.11200147317E+03  0.14658115664E+03  0.47000000000E+01 0.  1.
         -5    1    4    4    0  502 -0.33876683365E+02 -0.74680035898E+00  0.41190220525E+01  0.34456403313E+02  0.47000000000E+01 0.  1.
<mgrwt>
<rscale>  0 0.33902836E+03</rscale>
<asrwt>0</asrwt>
<pdfrwt beam="1">  1       21 0.29058558E-01 0.33902836E+03</pdfrwt>
<pdfrwt beam="2">  1       21 0.23405143E-01 0.33902836E+03</pdfrwt>
<totfact> 0.18748137E+05</totfact>
</mgrwt>
</event>
<event>
 8    1  0.9373234E-006  0.2636487E+03  0.7546771E-02  0.1104971E+00
         21   -1    0    0  504  503  0.00000000000E+00  0.00000000000E+00  0.30171757978E+03  0.30171757978E+03  0.00000000000E+00 0.  1.
         21   -1    0    0  503  504 -0.00000000000E+00 -0.00000000000E+00 -0.57595795798E+02  0.57595795798E+02  0.00000000000E+00 0.  1.
         25    2    1    2    0    0  0.19060341115E+02  0.30177955380E+02  0.15189390904E+03  0.19992701181E+03  0.12500017941E+03 0.  0.
         25    2    1    2    0    0 -0.19060341115E+02 -0.30177955380E+02  0.92227874937E+02  0.15938636377E+03  0.12499610572E+03 0.  0.
          5    1    3    3  501    0  0.64791740704E+02  0.70440187000E+01  0.12685352792E+03  0.14269371187E+03  0.47000000000E+01 0.  1.
         -5    1    3    3    0  501 -0.45731399588E+02  0.23133936680E+02  0.25040381124E+02  0.57233299935E+02  0.47000000000E+01 0.  1.
          5    1    4    4  502    0 -0.25809788451E+00 -0.39415898755E+02  0.11878142795E+03  0.12523896085E+03  0.47000000000E+01 0. -1.
         -5    1    4    4    0  502 -0.18802243231E+02  0.92379433752E+01 -0.26553553013E+02  0.34147402916E+02  0.47000000000E+01 0. -1.
<mgrwt>
<rscale>  0 0.26364874E+03</rscale>
<asrwt>0</asrwt>
<pdfrwt beam="1">  1       21 0.46418088E-01 0.26364874E+03</pdfrwt>
<pdfrwt beam="2">  1       21 0.88608919E-02 0.26364874E+03</pdfrwt>
<totfact> 0.43963935E+05</totfact>
</mgrwt>
</event>
<event>
 8    1  0.9373234E-006  0.4327776E+03  0.7546771E-02  0.1032986E+00
         21   -1    0    0  504  503  0.00000000000E+00  0.00000000000E+00  0.15266712377E+03  0.15266712377E+03  0.00000000000E+00 0.  1.
         21   -1    0    0  503  504 -0.00000000000E+00 -0.00000000000E+00 -0.30670728539E+03  0.30670728539E+03  0.00000000000E+00 0.  1.
         25    2    1    2    0    0  0.28421978926E+01  0.74905547003E+01  0.11027185794E+03  0.16688165861E+03  0.12500167531E+03 0.  0.
         25    2    1    2    0    0 -0.28421978926E+01 -0.74905547003E+01 -0.26431201956E+03  0.29249275055E+03  0.12500791551E+03 0.  0.
          5    1    3    3  501    0  0.63194482415E+01  0.35857659292E+02  0.12783978861E+03  0.13300679948E+03  0.47000000000E+01 0.  1.
         -5    1    3    3    0  501 -0.34772503489E+01 -0.28367104591E+02 -0.17567930676E+02  0.33874859131E+02  0.47000000000E+01 0.  1.
          5    1    4    4  502    0 -0.45731365646E+02 -0.61850366316E+01 -0.23681007311E+03  0.24131040841E+03  0.47000000000E+01 0. -1.
         -5    1    4    4    0  502  0.42889167754E+02 -0.13055180687E+01 -0.27501946451E+02  0.51182342137E+02  0.47000000000E+01 0. -1.
<mgrwt>
<rscale>  0 0.43277763E+03</rscale>
<asrwt>0</asrwt>
<pdfrwt beam="1">  1       21 0.23487250E-01 0.43277763E+03</pdfrwt>
<pdfrwt beam="2">  1       21 0.47185736E-01 0.43277763E+03</pdfrwt>
<totfact> 0.68140225E+04</totfact>
</mgrwt>
</event>
<event>
 8    1  0.9373234E-006  0.3805584E+03  0.7546771E-02  0.1050728E+00
         21   -1    0    0  504  503  0.00000000000E+00  0.00000000000E+00  0.46155590303E+02  0.46155590303E+02  0.00000000000E+00 0. -1.
         21   -1    0    0  503  504 -0.00000000000E+00 -0.00000000000E+00 -0.78443726802E+03  0.78443726802E+03  0.00000000000E+00 0. -1.
         25    2    1    2    0    0  0.98508680353E+02  0.73028094684E+02 -0.53167008425E+03  0.55976222240E+03  0.12499441758E+03 0.  0.
         25    2    1    2    0    0 -0.98508680353E+02 -0.73028094684E+02 -0.20661159346E+03  0.27083063592E+03  0.12499528023E+03 0.  0.
          5    1    3    3  501    0  0.11205185169E+03  0.89918328874E+02 -0.50516108889E+03  0.52521494559E+03  0.47000000000E+01 0.  1.
         -5    1    3    3    0  501 -0.13543171335E+02 -0.16890234190E+02 -0.26508995356E+02  0.34547276819E+02  0.47000000000E+01 0.  1.
          5    1    4    4  502    0 -0.48997955091E+01 -0.89056290285E+01 -0.13736612545E+03  0.13782184386E+03  0.47000000000E+01 0.  1.
         -5    1    4    4    0  502 -0.93608884844E+02 -0.64122465656E+02 -0.69245468016E+02  0.13300879206E+03  0.47000000000E+01 0.  1.
<mgrwt>
<rscale>  0 0.38055835E+03</rscale>
<asrwt>0</asrwt>
<pdfrwt beam="1">  1       21 0.71008605E-02 0.38055835E+03</pdfrwt>
<pdfrwt beam="2">  1       21 0.12068265E+00 0.38055835E+03</pdfrwt>
<totfact> 0.71857486E+04</totfact>
</mgrwt>
</event>
<event>
 8    1  0.9373234E-006  0.3231688E+03  0.7546771E-02  0.1074200E+00
         21   -1    0    0  504  503  0.00000000000E+00  0.00000000000E+00  0.39580127781E+03  0.39580127781E+03  0.00000000000E+00 0. -1.
         21   -1    0    0  503  504 -0.00000000000E+00 -0.00000000000E+00 -0.65966215663E+02  0.65966215663E+02  0.00000000000E+00 0. -1.
         25    2    1    2    0    0 -0.46347398543E+02  0.44744910074E+02  0.27865445174E+03  0.31212787457E+03  0.12500127311E+03 0.  0.
         25    2    1    2    0    0  0.46347398543E+02 -0.44744910074E+02  0.51180610400E+02  0.14963961890E+03  0.12498948889E+03 0.  0.
          5    1    3    3  501    0  0.31955390027E+02  0.14603880564E+02  0.17565702437E+03  0.17919793663E+03  0.47000000000E+01 0.  1.
         -5    1    3    3    0  501 -0.78302788570E+02  0.30141029511E+02  0.10299742737E+03  0.13292993795E+03  0.47000000000E+01 0.  1.
          5    1    4    4  502    0  0.60658861537E+01 -0.13422557305E+01  0.82240272506E+02  0.82608407848E+02  0.47000000000E+01 0. -1.
         -5    1    4    4    0  502  0.40281512390E+02 -0.43402654344E+02 -0.31059662106E+02  0.67031211048E+02  0.47000000000E+01 0. -1.
<mgrwt>
<rscale>  0 0.32316876E+03</rscale>
<asrwt>0</asrwt>
<pdfrwt beam="1">  1       21 0.60892503E-01 0.32316876E+03</pdfrwt>
<pdfrwt beam="2">  1       21 0.10148649E-01 0.32316876E+03</pdfrwt>
<totfact> 0.19157463E+05</totfact>
</mgrwt>
</event>
<event>
 8    1  0.9373234E-006  0.1117512E+04  0.7546771E-02  0.9188290E-01
         21   -1    0    0  504  503  0.00000000000E+00  0.00000000000E+00  0.15879527469E+04  0.15879527469E+04  0.00000000000E+00 0. -1.
         21   -1    0    0  503  504 -0.00000000000E+00 -0.00000000000E+00 -0.19661056277E+03  0.19661056277E+03  0.00000000000E+00 0. -1.
         25    2    1    2    0    0  0.14505557738E+03  0.44981124083E+03  0.26358655586E+03  0.55540530319E+03  0.12500362187E+03 0.  0.
         25    2    1    2    0    0 -0.14505557738E+03 -0.44981124083E+03  0.11277556283E+04  0.12291580065E+04  0.12500149962E+03 0.  0.
          5    1    3    3  501    0  0.10033283850E+03  0.42638974225E+03  0.23979027435E+03  0.49939599163E+03  0.47000000000E+01 0.  1.
         -5    1    3    3    0  501  0.44722738879E+02  0.23421498574E+02  0.23796281508E+02  0.56009311564E+02  0.47000000000E+01 0.  1.
          5    1    4    4  502    0  0.66893011196E+01 -0.14789506270E+03  0.28551676615E+03  0.32165137972E+03  0.47000000000E+01 0.  1.
         -5    1    4    4    0  502 -0.15174487850E+03 -0.30191617813E+03  0.84223886213E+03  0.90750662678E+03  0.47000000000E+01 0.  1.
<mgrwt>
<rscale>  0 0.11175120E+04</rscale>
<asrwt>0</asrwt>
<pdfrwt beam="1">  1       21 0.24430041E+00 0.11175120E+04</pdfrwt>
<pdfrwt beam="2">  1       21 0.30247780E-01 0.11175120E+04</pdfrwt>
<totfact> 0.50129970E+02</totfact>
</mgrwt>
</event>
<event>
 8    1  0.9373234E-006  0.5311451E+03  0.7546771E-02  0.1005955E+00
         21   -1    0    0  504  503  0.00000000000E+00  0.00000000000E+00  0.10533979226E+03  0.10533979226E+03  0.00000000000E+00 0.  1.
         21   -1    0    0  503  504 -0.00000000000E+00 -0.00000000000E+00 -0.66953593662E+03  0.66953593662E+03  0.00000000000E+00 0.  1.
         25    2    1    2    0    0  0.10247217714E+02  0.99233058719E+02  0.27211708102E+02  0.16222980786E+03  0.12500331230E+03 0.  0.
         25    2    1    2    0    0 -0.10247217714E+02 -0.99233058719E+02 -0.59140785246E+03  0.61264592101E+03  0.12497828280E+03 0.  0.
          5    1    3    3  501    0 -0.36310652353E+02  0.10358623885E+03  0.43123394236E+01  0.10995116472E+03  0.47000000000E+01 0.  1.
         -5    1    3    3    0  501  0.46557870067E+02 -0.43531801275E+01  0.22899368679E+02  0.52278643138E+02  0.47000000000E+01 0.  1.
          5    1    4    4  502    0 -0.15237144485E+02 -0.10785375101E+03 -0.27184251169E+03  0.29289083861E+03  0.47000000000E+01 0. -1.
         -5    1    4    4    0  502  0.49899267708E+01  0.86206922887E+01 -0.31956534076E+03  0.31975508240E+03  0.47000000000E+01 0. -1.
<mgrwt>
<rscale>  0 0.53114509E+03</rscale>
<asrwt>0</asrwt>
<pdfrwt beam="1">  1       21 0.16206121E-01 0.53114509E+03</pdfrwt>
<pdfrwt beam="2">  1       21 0.10300553E+00 0.53114509E+03</pdfrwt>
<totfact> 0.23095916E+04</totfact>
</mgrwt>
</event>
<event>
 8    1  0.9373234E-006  0.2698275E+03  0.7546771E-02  0.1101378E+00
         21   -1    0    0  504  503  0.00000000000E+00  0.00000000000E+00  0.21781517638E+03  0.21781517638E+03  0.00000000000E+00 0.  1.
         21   -1    0    0  503  504 -0.00000000000E+00 -0.00000000000E+00 -0.83564998850E+02  0.83564998850E+02  0.00000000000E+00 0.  1.
         25    2    1    2    0    0 -0.42197335284E+02  0.22268959194E+01  0.98545289748E+02  0.16468576927E+03  0.12499861718E+03 0.  0.
         25    2    1    2    0    0  0.42197335284E+02 -0.22268959194E+01  0.35704887781E+02  0.13669440596E+03  0.12499978976E+03 0.  0.
          5    1    3    3  501    0 -0.56168730599E+02 -0.49726889185E+02  0.73599200540E+02  0.10519801388E+03  0.47000000000E+01 0. -1.
         -5    1    3    3    0  501  0.13971395315E+02  0.51953785104E+02  0.24946089208E+02  0.59487755383E+02  0.47000000000E+01 0. -1.
          5    1    4    4  502    0 -0.36961101479E+02  0.25025016717E+02 -0.16205612321E+01  0.44912032941E+02  0.47000000000E+01 0.  1.
         -5    1    4    4    0  502  0.79158436763E+02 -0.27251912637E+02  0.37325449013E+02  0.91782373019E+02  0.47000000000E+01 0.  1.
<mgrwt>
<rscale>  0 0.26982754E+03</rscale>
<asrwt>0</asrwt>
<pdfrwt beam="1">  1       21 0.33510027E-01 0.26982754E+03</pdfrwt>
<pdfrwt beam="2">  1       21 0.12856154E-01 0.26982754E+03</pdfrwt>
<totfact> 0.43783260E+05</totfact>
</mgrwt>
</event>
<event>
 8    1  0.9373234E-006  0.3623655E+03  0.7546771E-02  0.1057651E+00
         21   -1    0    0  504  503  0.00000000000E+00  0.00000000000E+00  0.45155282891E+03  0.45155282891E+03  0.00000000000E+00 0. -1.
         21   -1    0    0  503  504 -0.00000000000E+00 -0.00000000000E+00 -0.72698434709E+02  0.72698434709E+02  0.00000000000E+00 0. -1.
         25    2    1    2    0    0 -0.72294586403E+02  0.48805187591E+02  0.47718058987E+02  0.15971876626E+03  0.12499847032E+03 0.  0.
         25    2    1    2    0    0  0.72294586403E+02 -0.48805187591E+02  0.33113633521E+03  0.36453249736E+03  0.12499686226E+03 0.  0.
          5    1    3    3  501    0 -0.59561159905E+02  0.43421690920E+01 -0.31640149464E+02  0.67746404035E+02  0.47000000000E+01 0.  1.
         -5    1    3    3    0  501 -0.12733426498E+02  0.44463018499E+02  0.79358208451E+02  0.91972362224E+02  0.47000000000E+01 0.  1.
          5    1    4    4  502    0  0.28362016635E+02 -0.43570430467E+02  0.30162998937E+02  0.60288331405E+02  0.47000000000E+01 0.  1.
         -5    1    4    4    0  502  0.43932569767E+02 -0.52347571234E+01  0.30097333627E+03  0.30424416595E+03  0.47000000000E+01 0.  1.
<mgrwt>
<rscale>  0 0.36236547E+03</rscale>
<asrwt>0</asrwt>
<pdfrwt beam="1">  1       21 0.69469664E-01 0.36236547E+03</pdfrwt>
<pdfrwt beam="2">  1       21 0.11184375E-01 0.36236547E+03</pdfrwt>
<totfact> 0.11922173E+05</totfact>
</mgrwt>
</event>
<event>
 8    1  0.9373234E-006  0.3403444E+03  0.7546771E-02  0.1066649E+00
         21   -1    0    0  504  503  0.00000000000E+00  0.00000000000E+00  0.67119166869E+03  0.67119166869E+03  0.00000000000E+00 0.  1.
         21   -1    0    0  503  504 -0.00000000000E+00 -0.00000000000E+00 -0.43145025246E+02  0.43145025246E+02  0.00000000000E+00 0.  1.
         25    2    1    2    0    0  0.58934120313E+02 -0.98689819216E+02  0.33698674100E+03  0.37735854901E+03  0.12500599962E+03 0.  0.
         25    2    1    2    0    0 -0.58934120313E+02  0.98689819216E+02  0.29105990243E+03  0.33697814493E+03  0.12500196958E+03 0.  0.
          5    1    3    3  501    0 -0.24153976354E+02 -0.55201644354E+02  0.61147504222E+02  0.85975248680E+02  0.47000000000E+01 0. -1.
         -5    1    3    3    0  501  0.83088096667E+02 -0.43488174862E+02  0.27583923678E+03  0.29138330033E+03  0.47000000000E+01 0. -1.
          5    1    4    4  502    0 -0.59124045963E+02 -0.69072123677E+01  0.14384451768E+03  0.15574561843E+03  0.47000000000E+01 0. -1.
         -5    1    4    4    0  502  0.18992564995E+00  0.10559703158E+03  0.14721538475E+03  0.18123252649E+03  0.47000000000E+01 0. -1.
<mgrwt>
<rscale>  0 0.34034442E+03</rscale>
<asrwt>0</asrwt>
<pdfrwt beam="1">  1       21 0.10326025E+00 0.34034442E+03</pdfrwt>
<pdfrwt beam="2">  1       21 0.66376967E-02 0.34034442E+03</pdfrwt>
<totfact> 0.12017061E+05</totfact>
</mgrwt>
</event>
<event>
 8    1  0.9373234E-006  0.3126340E+03  0.7546771E-02  0.1079090E+00
         21   -1    0    0  504  503  0.00000000000E+00  0.00000000000E+00  0.14752394838E+03  0.14752394838E+03  0.00000000000E+00 0.  1.
         21   -1    0    0  503  504 -0.00000000000E+00 -0.00000000000E+00 -0.16563416934E+03  0.16563416934E+03  0.00000000000E+00 0.  1.
         25    2    1    2    0    0  0.58971767307E+02  0.72858300991E+02 -0.41697192066E+01  0.15629408841E+03  0.12499781658E+03 0.  0.
         25    2    1    2    0    0 -0.58971767307E+02 -0.72858300991E+02 -0.13940501750E+02  0.15686402931E+03  0.12500393890E+03 0.  0.
          5    1    3    3  501    0  0.93366211989E+02  0.49622964816E+02 -0.26249648292E+02  0.10904504672E+03  0.47000000000E+01 0. -1.
         -5    1    3    3    0  501 -0.34394444681E+02  0.23235336176E+02  0.22079929086E+02  0.47249041689E+02  0.47000000000E+01 0. -1.
          5    1    4    4  502    0 -0.89527522506E+02 -0.50553753020E+02  0.21125402353E+02  0.10506774888E+03  0.47000000000E+01 0.  1.
         -5    1    4    4    0  502  0.30555755198E+02 -0.22304547971E+02 -0.35065904103E+02  0.51796280431E+02  0.47000000000E+01 0.  1.
<mgrwt>
<rscale>  0 0.31263401E+03</rscale>
<asrwt>0</asrwt>
<pdfrwt beam="1">  1       21 0.22695992E-01 0.31263401E+03</pdfrwt>
<pdfrwt beam="2">  1       21 0.25482180E-01 0.31263401E+03</pdfrwt>
<totfact> 0.25829537E+05</totfact>
</mgrwt>
</event>
<event>
 8    1  0.9373234E-006  0.2618074E+03  0.7546771E-02  0.1106062E+00
         21   -1    0    0  504  503  0.00000000000E+00  0.00000000000E+00  0.40102008568E+03  0.40102008568E+03  0.00000000000E+00 0.  1.
         21   -1    0    0  503  504 -0.00000000000E+00 -0.00000000000E+00 -0.42730483166E+02  0.42730483166E+02  0.00000000000E+00 0.  1.
         25    2    1    2    0    0 -0.31214389360E+02  0.14386486943E+02  0.20991102897E+03  0.24671684699E+03  0.12500101356E+03 0.  0.
         25    2    1    2    0    0  0.31214389360E+02 -0.14386486943E+02  0.14837857354E+03  0.19703372186E+03  0.12499910941E+03 0.  0.
          5    1    3    3  501    0  0.47365297428E+02  0.40664512444E+01  0.56577768495E+02  0.74048236400E+02  0.47000000000E+01 0. -1.
         -5    1    3    3    0  501 -0.78579686788E+02  0.10320035699E+02  0.15333326048E+03  0.17266861058E+03  0.47000000000E+01 0. -1.
          5    1    4    4  502    0 -0.34521013383E+02 -0.30375810078E+02  0.10952011105E+03  0.11887445027E+03  0.47000000000E+01 0. -1.
         -5    1    4    4    0  502  0.65735402743E+02  0.15989323135E+02  0.38858462490E+02  0.78159271588E+02  0.47000000000E+01 0. -1.
<mgrwt>
<rscale>  0 0.26180743E+03</rscale>
<asrwt>0</asrwt>
<pdfrwt beam="1">  1       21 0.61695395E-01 0.26180743E+03</pdfrwt>
<pdfrwt beam="2">  1       21 0.65739208E-02 0.26180743E+03</pdfrwt>
<totfact> 0.40495760E+05</totfact>
</mgrwt>
</event>
<event>
 8    1  0.9373234E-006  0.4934422E+03  0.7546771E-02  0.1015505E+00
         21   -1    0    0  504  503  0.00000000000E+00  0.00000000000E+00  0.74490341312E+03  0.74490341312E+03  0.00000000000E+00 0.  1.
         21   -1    0    0  503  504 -0.00000000000E+00 -0.00000000000E+00 -0.81717030379E+02  0.81717030379E+02  0.00000000000E+00 0.  1.
         25    2    1    2    0    0  0.10180040089E+03 -0.12901787860E+03  0.55782201424E+03  0.59480990941E+03  0.12499797654E+03 0.  0.
         25    2    1    2    0    0 -0.10180040089E+03  0.12901787860E+03  0.10536436850E+03  0.23181053409E+03  0.12500215576E+03 0.  0.
          5    1    3    3  501    0 -0.45478934285E+01 -0.44586656666E+02  0.42737451604E+02  0.62106626514E+02  0.47000000000E+01 0. -1.
         -5    1    3    3    0  501  0.10634829432E+03 -0.84431221936E+02  0.51508456264E+03  0.53270328290E+03  0.47000000000E+01 0. -1.
          5    1    4    4  502    0 -0.12501306601E+03  0.87825235506E+02  0.10284085373E+03  0.18422776626E+03  0.47000000000E+01 0. -1.
         -5    1    4    4    0  502  0.23212665121E+02  0.41192643096E+02  0.25235147665E+01  0.47582767827E+02  0.47000000000E+01 0. -1.
<mgrwt>
<rscale>  0 0.49344217E+03</rscale>
<asrwt>0</asrwt>
<pdfrwt beam="1">  1       21 0.11460052E+00 0.49344217E+03</pdfrwt>
<pdfrwt beam="2">  1       21 0.12571851E-01 0.49344217E+03</pdfrwt>
<totfact> 0.28605142E+04</totfact>
</mgrwt>
</event>
<event>
 8    1  0.9373234E-006  0.2657108E+03  0.7546771E-02  0.1103760E+00
         21   -1    0    0  504  503  0.00000000000E+00  0.00000000000E+00  0.30231171903E+02  0.30231171903E+02  0.00000000000E+00 0.  1.
         21   -1    0    0  503  504 -0.00000000000E+00 -0.00000000000E+00 -0.58385276725E+03  0.58385276725E+03  0.00000000000E+00 0.  1.
         25    2    1    2    0    0  0.43911436806E+02 -0.98459521746E+01 -0.27873279940E+03  0.30877532921E+03  0.12500029365E+03 0.  0.
         25    2    1    2    0    0 -0.43911436806E+02  0.98459521746E+01 -0.27488879595E+03  0.30530860994E+03  0.12499736041E+03 0.  0.
          5    1    3    3  501    0 -0.32366164780E+02  0.23618937605E+02 -0.15033313193E+03  0.15565205875E+03  0.47000000000E+01 0.  1.
         -5    1    3    3    0  501  0.76277601586E+02 -0.33464889780E+02 -0.12839966747E+03  0.15312327047E+03  0.47000000000E+01 0.  1.
          5    1    4    4  502    0  0.19505828820E+02 -0.39948846531E+02 -0.15049344510E+03  0.15699284925E+03  0.47000000000E+01 0.  1.
         -5    1    4    4    0  502 -0.63417265626E+02  0.49794798705E+02 -0.12439535085E+03  0.14831576069E+03  0.47000000000E+01 0.  1.
<mgrwt>
<rscale>  0 0.26571077E+03</rscale>
<asrwt>0</asrwt>
<pdfrwt beam="1">  1       21 0.46509494E-02 0.26571077E+03</pdfrwt>
<pdfrwt beam="2">  1       21 0.89823504E-01 0.26571077E+03</pdfrwt>
<totfact> 0.31467197E+05</totfact>
</mgrwt>
</event>
<event>
 8    1  0.9373234E-006  0.2900370E+03  0.7546771E-02  0.1090330E+00
         21   -1    0    0  504  503  0.00000000000E+00  0.00000000000E+00  0.54462376306E+03  0.54462376306E+03  0.00000000000E+00 0. -1.
         21   -1    0    0  503  504 -0.00000000000E+00 -0.00000000000E+00 -0.38614480213E+02  0.38614480213E+02  0.00000000000E+00 0. -1.
         25    2    1    2    0    0 -0.33829633033E+00  0.63693774751E+02  0.32686002661E+03  0.35569669013E+03  0.12500258790E+03 0.  0.
         25    2    1    2    0    0  0.33829633033E+00 -0.63693774751E+02  0.17914925624E+03  0.22754155315E+03  0.12499476395E+03 0.  0.
          5    1    3    3  501    0  0.34665369861E+02  0.41917153449E+02  0.30290535299E+03  0.30778641701E+03  0.47000000000E+01 0. -1.
         -5    1    3    3    0  501 -0.35003666192E+02  0.21776621302E+02  0.23954673620E+02  0.47910273120E+02  0.47000000000E+01 0. -1.
          5    1    4    4  502    0  0.61525243816E+02 -0.42480365498E+02  0.10495215868E+03  0.12894565790E+03  0.47000000000E+01 0.  1.
         -5    1    4    4    0  502 -0.61186947486E+02 -0.21213409253E+02  0.74197097558E+02  0.98595895253E+02  0.47000000000E+01 0.  1.
<mgrwt>
<rscale>  0 0.29003699E+03</rscale>
<asrwt>0</asrwt>
<pdfrwt beam="1">  1       21 0.83788265E-01 0.29003699E+03</pdfrwt>
<pdfrwt beam="2">  1       21 0.59406897E-02 0.29003699E+03</pdfrwt>
<totfact> 0.24175449E+05</totfact>
</mgrwt>
</event>
<event>
 8    1  0.9373234E-006  0.3955104E+03  0.7546771E-02  0.1045345E+00
         21   -1    0    0  504  503  0.00000000000E+00  0.00000000000E+00  0.11088248540E+04  0.11088248540E+04  0.00000000000E+00 0.  1.
         21   -1    0    0  503  504 -0.00000000000E+00 -0.00000000000E+00 -0.35268980151E+02  0.35268980151E+02  0.00000000000E+00 0.  1.
         25    2    1    2    0    0 -0.14596369663E+03 -0.11659595876E+02  0.66747973372E+03  0.69469181136E+03  0.12500468366E+03 0.  0.
         25    2    1    2    0    0  0.14596369663E+03  0.11659595876E+02  0.40607614012E+03  0.44940202278E+03  0.12499199813E+03 0.  0.
          5    1    3    3  501    0 -0.15147604275E+03 -0.28321667184E+02  0.65437155434E+03  0.67228812982E+03  0.47000000000E+01 0. -1.
         -5    1    3    3    0  501  0.55123461247E+01  0.16662071308E+02  0.13108179374E+02  0.22403681540E+02  0.47000000000E+01 0. -1.
          5    1    4    4  502    0  0.93230990490E+02 -0.17799244123E+02  0.10224252673E+03  0.13958672914E+03  0.47000000000E+01 0.  1.
         -5    1    4    4    0  502  0.52732706136E+02  0.29458839999E+02  0.30383361339E+03  0.30981529365E+03  0.47000000000E+01 0.  1.
<mgrwt>
<rscale>  0 0.39551041E+03</rscale>
<asrwt>0</asrwt>
<pdfrwt beam="1">  1       21 0.17058841E+00 0.39551041E+03</pdfrwt>
<pdfrwt beam="2">  1       21 0.54259978E-02 0.39551041E+03</pdfrwt>
<totfact> 0.45333942E+04</totfact>
</mgrwt>
</event>
<event>
 8    1  0.9373234E-006  0.4084432E+03  0.7546771E-02  0.1040895E+00
         21   -1    0    0  504  503  0.00000000000E+00  0.00000000000E+00  0.78798193936E+02  0.78798193936E+02  0.00000000000E+00 0. -1.
         21   -1    0    0  503  504 -0.00000000000E+00 -0.00000000000E+00 -0.52928196026E+03  0.52928196026E+03  0.00000000000E+00 0. -1.
         25    2    1    2    0    0 -0.16630740107E+02 -0.39105289313E+02  0.67195325613E+01  0.13219660066E+03  0.12499993576E+03 0.  0.
         25    2    1    2    0    0  0.16630740107E+02  0.39105289313E+02 -0.45720329889E+03  0.47588355354E+03  0.12499797936E+03 0.  0.
          5    1    3    3  501    0  0.60160118178E+01 -0.82034704212E+02 -0.31278711483E+01  0.82448521341E+02  0.47000000000E+01 0. -1.
         -5    1    3    3    0  501 -0.22646751925E+02  0.42929414899E+02  0.98474037096E+01  0.49748079321E+02  0.47000000000E+01 0. -1.
          5    1    4    4  502    0  0.54737566508E+02  0.38717087733E+02 -0.40785889963E+03  0.41335963286E+03  0.47000000000E+01 0.  1.
         -5    1    4    4    0  502 -0.38106826401E+02  0.38820157986E+00 -0.49344399253E+02  0.62523920674E+02  0.47000000000E+01 0.  1.
<mgrwt>
<rscale>  0 0.40844320E+03</rscale>
<asrwt>0</asrwt>
<pdfrwt beam="1">  1       21 0.12122799E-01 0.40844320E+03</pdfrwt>
<pdfrwt beam="2">  1       21 0.81427995E-01 0.40844320E+03</pdfrwt>
<totfact> 0.71042929E+04</totfact>
</mgrwt>
</event>
<event>
 8    1  0.9373234E-006  0.3476655E+03  0.7546771E-02  0.1063577E+00
         21   -1    0    0  504  503  0.00000000000E+00  0.00000000000E+00  0.26059202582E+03  0.26059202582E+03  0.00000000000E+00 0. -1.
         21   -1    0    0  503  504 -0.00000000000E+00 -0.00000000000E+00 -0.11595838620E+03  0.11595838620E+03  0.00000000000E+00 0. -1.
         25    2    1    2    0    0  0.21024018005E+02  0.10253375543E+03  0.69427692060E+01  0.16314887766E+03  0.12495668810E+03 0.  0.
         25    2    1    2    0    0 -0.21024018005E+02 -0.10253375543E+03  0.13769087042E+03  0.21340153437E+03  0.12500503485E+03 0.  0.
          5    1    3    3  501    0  0.45585840413E+02  0.13998470809E+02 -0.37623753113E+02  0.60923417742E+02  0.47000000000E+01 0.  1.
         -5    1    3    3    0  501 -0.24561822408E+02  0.88535284622E+02  0.44566522319E+02  0.10222545991E+03  0.47000000000E+01 0.  1.
          5    1    4    4  502    0  0.35761752207E+02  0.53916489088E+01  0.12465410711E+02  0.38541526475E+02  0.47000000000E+01 0.  1.
         -5    1    4    4    0  502 -0.56785770212E+02 -0.10792540434E+03  0.12522545971E+03  0.17486000789E+03  0.47000000000E+01 0.  1.
<mgrwt>
<rscale>  0 0.34766553E+03</rscale>
<asrwt>0</asrwt>
<pdfrwt beam="1">  1       21 0.40091081E-01 0.34766553E+03</pdfrwt>
<pdfrwt beam="2">  1       21 0.17839752E-01 0.34766553E+03</pdfrwt>
<totfact> 0.16420316E+05</totfact>
</mgrwt>
</event>
<event>
 8    1  0.9373234E-006  0.2695329E+03  0.7546771E-02  0.1101547E+00
         21   -1    0    0  504  503  0.00000000000E+00  0.00000000000E+00  0.10924991013E+03  0.10924991013E+03  0.00000000000E+00 0. -1.
         21   -1    0    0  503  504 -0.00000000000E+00 -0.00000000000E+00 -0.16624265694E+03  0.16624265694E+03  0.00000000000E+00 0. -1.
         25    2    1    2    0    0  0.49202232870E+02 -0.84263856110E+01 -0.34946453249E+02  0.13910022394E+03  0.12504300865E+03 0.  0.
         25    2    1    2    0    0 -0.49202232870E+02  0.84263856110E+01 -0.22046293557E+02  0.13639234312E+03  0.12499987404E+03 0.  0.
          5    1    3    3  501    0  0.15913265442E+02 -0.65946313614E+02 -0.16690640284E+02  0.70020109750E+02  0.47000000000E+01 0.  1.
         -5    1    3    3    0  501  0.33288967428E+02  0.57519928003E+02 -0.18255812965E+02  0.69080114193E+02  0.47000000000E+01 0.  1.
          5    1    4    4  502    0 -0.43726794165E+02 -0.45098655716E+02  0.21975267176E+02  0.66715242957E+02  0.47000000000E+01 0. -1.
         -5    1    4    4    0  502 -0.54754387041E+01  0.53525041327E+02 -0.44021560733E+02  0.69677100165E+02  0.47000000000E+01 0. -1.
<mgrwt>
<rscale>  0 0.26953289E+03</rscale>
<asrwt>0</asrwt>
<pdfrwt beam="1">  1       21 0.16807679E-01 0.26953289E+03</pdfrwt>
<pdfrwt beam="2">  1       21 0.25575793E-01 0.26953289E+03</pdfrwt>
<totfact> 0.45495464E+05</totfact>
</mgrwt>
</event>
<event>
 8    1  0.9373234E-006  0.2969953E+03  0.7546771E-02  0.1086752E+00
         21   -1    0    0  504  503  0.00000000000E+00  0.00000000000E+00  0.14447660073E+03  0.14447660073E+03  0.00000000000E+00 0. -1.
         21   -1    0    0  503  504 -0.00000000000E+00 -0.00000000000E+00 -0.15263059835E+03  0.15263059835E+03  0.00000000000E+00 0. -1.
         25    2    1    2    0    0 -0.34456522316E+02 -0.21602202951E+02  0.65037072801E+02  0.14665508685E+03  0.12499594617E+03 0.  0.
         25    2    1    2    0    0  0.34456522316E+02  0.21602202951E+02 -0.73191070425E+02  0.15045211223E+03  0.12499999273E+03 0.  0.
          5    1    3    3  501    0 -0.40459873085E+02  0.93732721017E+01  0.94437334344E+02  0.10327322827E+03  0.47000000000E+01 0. -1.
         -5    1    3    3    0  501  0.60033507695E+01 -0.30975475053E+02 -0.29400261543E+02  0.43381858581E+02  0.47000000000E+01 0. -1.
          5    1    4    4  502    0 -0.24193820510E+02  0.14956180391E+02  0.23417311368E+02  0.37141469470E+02  0.47000000000E+01 0. -1.
         -5    1    4    4    0  502  0.58650342826E+02  0.66460225604E+01 -0.96608381793E+02  0.11331064276E+03  0.47000000000E+01 0. -1.
<mgrwt>
<rscale>  0 0.29699529E+03</rscale>
<asrwt>0</asrwt>
<pdfrwt beam="1">  1       21 0.22227169E-01 0.29699529E+03</pdfrwt>
<pdfrwt beam="2">  1       21 0.23481630E-01 0.29699529E+03</pdfrwt>
<totfact> 0.31556984E+05</totfact>
</mgrwt>
</event>
<event>
 8    1  0.9373234E-006  0.2894004E+03  0.7546771E-02  0.1090663E+00
         21   -1    0    0  504  503  0.00000000000E+00  0.00000000000E+00  0.12646906799E+02  0.12646906799E+02  0.00000000000E+00 0. -1.
         21   -1    0    0  503  504 -0.00000000000E+00 -0.00000000000E+00 -0.16555946441E+04  0.16555946441E+04  0.00000000000E+00 0. -1.
         25    2    1    2    0    0  0.59493044079E+02  0.23125811378E+02 -0.61862833091E+03  0.63435024332E+03  0.12499997583E+03 0.  0.
         25    2    1    2    0    0 -0.59493044079E+02 -0.23125811378E+02 -0.10243194064E+04  0.10338913075E+04  0.12500705628E+03 0.  0.
          5    1    3    3  501    0  0.40378539323E+02 -0.27953096130E+02 -0.51312557724E+03  0.51549175555E+03  0.47000000000E+01 0.  1.
         -5    1    3    3    0  501  0.19114504756E+02  0.51078907508E+02 -0.10550275366E+03  0.11885848777E+03  0.47000000000E+01 0.  1.
          5    1    4    4  502    0 -0.95254137314E+02  0.15509398976E+01 -0.63437920435E+03  0.64150979806E+03  0.47000000000E+01 0. -1.
         -5    1    4    4    0  502  0.35761093235E+02 -0.24676751275E+02 -0.38994020201E+03  0.39238150949E+03  0.47000000000E+01 0. -1.
<mgrwt>
<rscale>  0 0.28940042E+03</rscale>
<asrwt>0</asrwt>
<pdfrwt beam="1">  1       21 0.19456803E-02 0.28940042E+03</pdfrwt>
<pdfrwt beam="2">  1       21 0.25470656E+00 0.28940042E+03</pdfrwt>
<totfact> 0.75686617E+04</totfact>
</mgrwt>
</event>
<event>
 8    1  0.9373234E-006  0.3988989E+03  0.7546771E-02  0.1044162E+00
         21   -1    0    0  504  503  0.00000000000E+00  0.00000000000E+00  0.94143918291E+02  0.94143918291E+02  0.00000000000E+00 0.  1.
         21   -1    0    0  503  504 -0.00000000000E+00 -0.00000000000E+00 -0.42254541559E+03  0.42254541559E+03  0.00000000000E+00 0.  1.
         25    2    1    2    0    0  0.11244769491E+03  0.74083325173E+02 -0.26471309267E+03  0.32223059889E+03  0.12500685688E+03 0.  0.
         25    2    1    2    0    0 -0.11244769491E+03 -0.74083325173E+02 -0.63688404621E+02  0.19445873499E+03  0.12500065429E+03 0.  0.
          5    1    3    3  501    0  0.50329953963E+02 -0.32610846187E+02 -0.83815723130E+02  0.10316848840E+03  0.47000000000E+01 0. -1.
         -5    1    3    3    0  501  0.62117740946E+02  0.10669417136E+03 -0.18089736954E+03  0.21906211049E+03  0.47000000000E+01 0. -1.
          5    1    4    4  502    0  0.73130505652E+01 -0.49579895611E+02  0.10456922659E+02  0.51410932581E+02  0.47000000000E+01 0.  1.
         -5    1    4    4    0  502 -0.11976074547E+03 -0.24503429562E+02 -0.74145327279E+02  0.14304780241E+03  0.47000000000E+01 0.  1.
<mgrwt>
<rscale>  0 0.39889889E+03</rscale>
<asrwt>0</asrwt>
<pdfrwt beam="1">  1       21 0.14483680E-01 0.39889889E+03</pdfrwt>
<pdfrwt beam="2">  1       21 0.65006988E-01 0.39889889E+03</pdfrwt>
<totfact> 0.85544057E+04</totfact>
</mgrwt>
</event>
<event>
 8    1  0.9373234E-006  0.2966423E+03  0.7546771E-02  0.1086931E+00
         21   -1    0    0  504  503  0.00000000000E+00  0.00000000000E+00  0.18210683184E+02  0.18210683184E+02  0.00000000000E+00 0. -1.
         21   -1    0    0  503  504 -0.00000000000E+00 -0.00000000000E+00 -0.12080364094E+04  0.12080364094E+04  0.00000000000E+00 0. -1.
         25    2    1    2    0    0  0.28516624778E+02 -0.73364876445E+01 -0.28811908221E+03  0.31544202550E+03  0.12499617586E+03 0.  0.
         25    2    1    2    0    0 -0.28516624778E+02  0.73364876445E+01 -0.90170664403E+03  0.91080506711E+03  0.12499590570E+03 0.  0.
          5    1    3    3  501    0  0.51386395005E+02 -0.14843877677E+02 -0.42171384908E+02  0.68274578000E+02  0.47000000000E+01 0.  1.
         -5    1    3    3    0  501 -0.22869770227E+02  0.75073900326E+01 -0.24594769730E+03  0.24716744750E+03  0.47000000000E+01 0.  1.
          5    1    4    4  502    0  0.36828362510E+02  0.22600356013E+02 -0.60541474383E+03  0.60697298657E+03  0.47000000000E+01 0. -1.
         -5    1    4    4    0  502 -0.65344987288E+02 -0.15263868368E+02 -0.29629190020E+03  0.30383208054E+03  0.47000000000E+01 0. -1.
<mgrwt>
<rscale>  0 0.29664233E+03</rscale>
<asrwt>0</asrwt>
<pdfrwt beam="1">  1       21 0.28016430E-02 0.29664233E+03</pdfrwt>
<pdfrwt beam="2">  1       21 0.18585180E+00 0.29664233E+03</pdfrwt>
<totfact> 0.11233633E+05</totfact>
</mgrwt>
</event>
<event>
 8    1  0.9373234E-006  0.3145377E+03  0.7546771E-02  0.1078191E+00
         21   -1    0    0  504  503  0.00000000000E+00  0.00000000000E+00  0.18111571445E+03  0.18111571445E+03  0.00000000000E+00 0. -1.
         21   -1    0    0  503  504 -0.00000000000E+00 -0.00000000000E+00 -0.13656181092E+03  0.13656181092E+03  0.00000000000E+00 0. -1.
         25    2    1    2    0    0 -0.65576923059E+02  0.33564326973E+02  0.83555353398E+02  0.16742944046E+03  0.12499689423E+03 0.  0.
         25    2    1    2    0    0  0.65576923059E+02 -0.33564326973E+02 -0.39001449875E+02  0.15024808491E+03  0.12500590804E+03 0.  0.
          5    1    3    3  501    0 -0.27876084099E+02  0.59328494914E+02  0.99146071756E+02  0.11894948473E+03  0.47000000000E+01 0.  1.
         -5    1    3    3    0  501 -0.37700838960E+02 -0.25764167941E+02 -0.15590718359E+02  0.48479955723E+02  0.47000000000E+01 0.  1.
          5    1    4    4  502    0  0.57141409426E+02 -0.12808306326E+01 -0.79207205787E+02  0.97788816573E+02  0.47000000000E+01 0. -1.
         -5    1    4    4    0  502  0.84355136335E+01 -0.32283496340E+02  0.40205755912E+02  0.52459268339E+02  0.47000000000E+01 0. -1.
<mgrwt>
<rscale>  0 0.31453769E+03</rscale>
<asrwt>0</asrwt>
<pdfrwt beam="1">  1       21 0.27863956E-01 0.31453769E+03</pdfrwt>
<pdfrwt beam="2">  1       21 0.21009509E-01 0.31453769E+03</pdfrwt>
<totfact> 0.25140773E+05</totfact>
</mgrwt>
</event>
<event>
 8    1  0.9373234E-006  0.4152693E+03  0.7546771E-02  0.1038617E+00
         21   -1    0    0  504  503  0.00000000000E+00  0.00000000000E+00  0.28455777298E+03  0.28455777298E+03  0.00000000000E+00 0. -1.
         21   -1    0    0  503  504 -0.00000000000E+00 -0.00000000000E+00 -0.15150581252E+03  0.15150581252E+03  0.00000000000E+00 0. -1.
         25    2    1    2    0    0  0.12994769585E+03  0.92563062391E+02  0.19173920885E+02  0.20358307882E+03  0.12499642620E+03 0.  0.
         25    2    1    2    0    0 -0.12994769585E+03 -0.92563062391E+02  0.11387803958E+03  0.23248050668E+03  0.12499861564E+03 0.  0.
          5    1    3    3  501    0  0.18143836154E+02  0.83564082261E+02  0.30130162085E+02  0.90785854084E+02  0.47000000000E+01 0.  1.
         -5    1    3    3    0  501  0.11180385970E+03  0.89989801293E+01 -0.10956241199E+02  0.11279722473E+03  0.47000000000E+01 0.  1.
          5    1    4    4  502    0 -0.11618974382E+03 -0.12275762753E+03  0.92637255739E+02  0.19280363803E+03  0.47000000000E+01 0. -1.
         -5    1    4    4    0  502 -0.13757952030E+02  0.30194565137E+02  0.21240783844E+02  0.39676868654E+02  0.47000000000E+01 0. -1.
<mgrwt>
<rscale>  0 0.41526934E+03</rscale>
<asrwt>0</asrwt>
<pdfrwt beam="1">  1       21 0.43778119E-01 0.41526934E+03</pdfrwt>
<pdfrwt beam="2">  1       21 0.23308587E-01 0.41526934E+03</pdfrwt>
<totfact> 0.81208811E+04</totfact>
</mgrwt>
</event>
<event>
 8    1  0.9373234E-006  0.2788768E+03  0.7546771E-02  0.1096304E+00
         21   -1    0    0  504  503  0.00000000000E+00  0.00000000000E+00  0.51539884039E+03  0.51539884039E+03  0.00000000000E+00 0. -1.
         21   -1    0    0  503  504 -0.00000000000E+00 -0.00000000000E+00 -0.37724322805E+02  0.37724322805E+02  0.00000000000E+00 0. -1.
         25    2    1    2    0    0 -0.58725898914E+02 -0.19057629993E+02  0.23382645129E+03  0.27223431000E+03  0.12499914302E+03 0.  0.
         25    2    1    2    0    0  0.58725898914E+02  0.19057629993E+02  0.24384806630E+03  0.28088885319E+03  0.12499897578E+03 0.  0.
          5    1    3    3  501    0  0.10747402841E+02 -0.48434470939E+02  0.39056998857E+02  0.63316220692E+02  0.47000000000E+01 0. -1.
         -5    1    3    3    0  501 -0.69473301755E+02  0.29376840946E+02  0.19476945243E+03  0.20891808931E+03  0.47000000000E+01 0. -1.
          5    1    4    4  502    0 -0.20226843654E+02  0.23783313692E+01 -0.30252052637E+01  0.21119269191E+02  0.47000000000E+01 0.  1.
         -5    1    4    4    0  502  0.78952742567E+02  0.16679298624E+02  0.24687327156E+03  0.25976958400E+03  0.47000000000E+01 0.  1.
<mgrwt>
<rscale>  0 0.27887683E+03</rscale>
<asrwt>0</asrwt>
<pdfrwt beam="1">  1       21 0.79292124E-01 0.27887683E+03</pdfrwt>
<pdfrwt beam="2">  1       21 0.58037423E-02 0.27887683E+03</pdfrwt>
<totfact> 0.28632459E+05</totfact>
</mgrwt>
</event>
<event>
 8    1  0.9373234E-006  0.3898649E+03  0.7546771E-02  0.1047347E+00
         21   -1    0    0  504  503  0.00000000000E+00  0.00000000000E+00  0.64395961719E+02  0.64395961719E+02  0.00000000000E+00 0. -1.
         21   -1    0    0  503  504 -0.00000000000E+00 -0.00000000000E+00 -0.59007834116E+03  0.59007834116E+03  0.00000000000E+00 0. -1.
         25    2    1    2    0    0  0.77747388197E+02 -0.10265868839E+03 -0.39058219656E+03  0.42984168569E+03  0.12500383920E+03 0.  0.
         25    2    1    2    0    0 -0.77747388197E+02  0.10265868839E+03 -0.13510018288E+03  0.22463261719E+03  0.12499716243E+03 0.  0.
          5    1    3    3  501    0  0.63465830381E+02 -0.40994609181E+01 -0.72773034334E+02  0.96761158178E+02  0.47000000000E+01 0.  1.
         -5    1    3    3    0  501  0.14281557816E+02 -0.98559227475E+02 -0.31780916222E+03  0.33308052751E+03  0.47000000000E+01 0.  1.
          5    1    4    4  502    0 -0.54975298962E+02 -0.11062516691E+01 -0.97140330925E+02  0.11172216065E+03  0.47000000000E+01 0.  1.
         -5    1    4    4    0  502 -0.22772089236E+02  0.10376494006E+03 -0.37959851956E+02  0.11291045653E+03  0.47000000000E+01 0.  1.
<mgrwt>
<rscale>  0 0.38986491E+03</rscale>
<asrwt>0</asrwt>
<pdfrwt beam="1">  1       21 0.99070710E-02 0.38986491E+03</pdfrwt>
<pdfrwt beam="2">  1       21 0.90781284E-01 0.38986491E+03</pdfrwt>
<totfact> 0.79670607E+04</totfact>
</mgrwt>
</event>
<event>
 8    1  0.9373234E-006  0.2989923E+03  0.7546771E-02  0.1085745E+00
         21   -1    0    0  504  503  0.00000000000E+00  0.00000000000E+00  0.17062354160E+04  0.17062354160E+04  0.00000000000E+00 0.  1.
         21   -1    0    0  503  504 -0.00000000000E+00 -0.00000000000E+00 -0.13098486803E+02  0.13098486803E+02  0.00000000000E+00 0.  1.
         25    2    1    2    0    0  0.23844735279E+02 -0.68911986799E+02  0.63085878719E+03  0.64724469155E+03  0.12500179214E+03 0.  0.
         25    2    1    2    0    0 -0.23844735279E+02  0.68911986799E+02  0.10622781420E+04  0.10720892113E+04  0.12499197005E+03 0.  0.
          5    1    3    3  501    0 -0.31486597640E+02  0.13421063297E+02  0.74877427081E+02  0.82463627480E+02  0.47000000000E+01 0. -1.
         -5    1    3    3    0  501  0.55331332919E+02 -0.82333050096E+02  0.55598136011E+03  0.56478106407E+03  0.47000000000E+01 0. -1.
          5    1    4    4  502    0  0.28111423914E+00 -0.30074144165E+01  0.77217660401E+03  0.77219681516E+03  0.47000000000E+01 0. -1.
         -5    1    4    4    0  502 -0.24125849518E+02  0.71919401215E+02  0.29010153802E+03  0.29989239612E+03  0.47000000000E+01 0. -1.
<mgrwt>
<rscale>  0 0.29899232E+03</rscale>
<asrwt>0</asrwt>
<pdfrwt beam="1">  1       21 0.26249758E+00 0.29899232E+03</pdfrwt>
<pdfrwt beam="2">  1       21 0.20151532E-02 0.29899232E+03</pdfrwt>
<totfact> 0.63889503E+04</totfact>
</mgrwt>
</event>
<event>
 8    1  0.9373234E-006  0.3675970E+03  0.7546771E-02  0.1055616E+00
         21   -1    0    0  504  503  0.00000000000E+00  0.00000000000E+00  0.57001910976E+02  0.57001910976E+02  0.00000000000E+00 0.  1.
         21   -1    0    0  503  504 -0.00000000000E+00 -0.00000000000E+00 -0.59264480321E+03  0.59264480321E+03  0.00000000000E+00 0.  1.
         25    2    1    2    0    0  0.12582213162E+03  0.48001047608E+02 -0.25997924674E+03  0.31835947174E+03  0.12501293987E+03 0.  0.
         25    2    1    2    0    0 -0.12582213162E+03 -0.48001047608E+02 -0.27566364550E+03  0.33128724245E+03  0.12500192872E+03 0.  0.
          5    1    3    3  501    0  0.13586942311E+03  0.27999869423E+02 -0.14346461818E+03  0.19962134028E+03  0.47000000000E+01 0.  1.
         -5    1    3    3    0  501 -0.10047291492E+02  0.20001178185E+02 -0.11651462855E+03  0.11873813146E+03  0.47000000000E+01 0.  1.
          5    1    4    4  502    0  0.25308063416E+02 -0.92132238204E+01 -0.48176515162E+02  0.55393575261E+02  0.47000000000E+01 0. -1.
         -5    1    4    4    0  502 -0.15113019504E+03 -0.38787823787E+02 -0.22748713034E+03  0.27589366719E+03  0.47000000000E+01 0. -1.
<mgrwt>
<rscale>  0 0.36759699E+03</rscale>
<asrwt>0</asrwt>
<pdfrwt beam="1">  1       21 0.87695249E-02 0.36759699E+03</pdfrwt>
<pdfrwt beam="2">  1       21 0.91176122E-01 0.36759699E+03</pdfrwt>
<totfact> 0.98550943E+04</totfact>
</mgrwt>
</event>
<event>
 8    1  0.9373234E-006  0.3231059E+03  0.7546771E-02  0.1074229E+00
         21   -1    0    0  504  503  0.00000000000E+00  0.00000000000E+00  0.23270811977E+03  0.23270811977E+03  0.00000000000E+00 0. -1.
         21   -1    0    0  503  504 -0.00000000000E+00 -0.00000000000E+00 -0.11215489800E+03  0.11215489800E+03  0.00000000000E+00 0. -1.
         25    2    1    2    0    0 -0.52564069849E+02 -0.53200938614E+02 -0.14312330318E+02  0.14635265671E+03  0.12498374301E+03 0.  0.
         25    2    1    2    0    0  0.52564069849E+02  0.53200938614E+02  0.13486555208E+03  0.19851036106E+03  0.12499729997E+03 0.  0.
          5    1    3    3  501    0 -0.88810913049E+01  0.49304682860E+01 -0.59545250277E+02  0.60588036202E+02  0.47000000000E+01 0.  1.
         -5    1    3    3    0  501 -0.43682978544E+02 -0.58131406900E+02  0.45232919959E+02  0.85764620507E+02  0.47000000000E+01 0.  1.
          5    1    4    4  502    0  0.59113552190E+02 -0.20384233929E+02  0.28396074296E+02  0.68835718060E+02  0.47000000000E+01 0. -1.
         -5    1    4    4    0  502 -0.65494823407E+01  0.73585172542E+02  0.10646947779E+03  0.12967464300E+03  0.47000000000E+01 0. -1.
<mgrwt>
<rscale>  0 0.32310590E+03</rscale>
<asrwt>0</asrwt>
<pdfrwt beam="1">  1       21 0.35801249E-01 0.32310590E+03</pdfrwt>
<pdfrwt beam="2">  1       21 0.17254600E-01 0.32310590E+03</pdfrwt>
<totfact> 0.22103302E+05</totfact>
</mgrwt>
</event>
<event>
 8    1  0.9373234E-006  0.2588018E+03  0.7546771E-02  0.1107865E+00
         21   -1    0    0  504  503  0.00000000000E+00  0.00000000000E+00  0.11405818011E+03  0.11405818011E+03  0.00000000000E+00 0.  1.
         21   -1    0    0  503  504 -0.00000000000E+00 -0.00000000000E+00 -0.14680746935E+03  0.14680746935E+03  0.00000000000E+00 0.  1.
         25    2    1    2    0    0  0.30106795618E+02  0.12591083483E+02 -0.23824588362E+02  0.13136711136E+03  0.12499900964E+03 0.  0.
         25    2    1    2    0    0 -0.30106795618E+02 -0.12591083483E+02 -0.89247008816E+01  0.12949853810E+03  0.12500106623E+03 0.  0.
          5    1    3    3  501    0  0.24321260199E+02  0.60834192197E+02  0.16867651150E+02  0.67815413390E+02  0.47000000000E+01 0. -1.
         -5    1    3    3    0  501  0.57855354187E+01 -0.48243108714E+02 -0.40692239513E+02  0.63551697971E+02  0.47000000000E+01 0. -1.
          5    1    4    4  502    0 -0.53432712752E+01 -0.61707844429E+02 -0.31748317112E+02  0.69759975999E+02  0.47000000000E+01 0.  1.
         -5    1    4    4    0  502 -0.24763524343E+02  0.49116760946E+02  0.22823616230E+02  0.59738562098E+02  0.47000000000E+01 0.  1.
<mgrwt>
<rscale>  0 0.25880180E+03</rscale>
<asrwt>0</asrwt>
<pdfrwt beam="1">  1       21 0.17547412E-01 0.25880180E+03</pdfrwt>
<pdfrwt beam="2">  1       21 0.22585765E-01 0.25880180E+03</pdfrwt>
<totfact> 0.53395680E+05</totfact>
</mgrwt>
</event>
<event>
 8    1  0.9373234E-006  0.2604120E+03  0.7546771E-02  0.1106896E+00
         21   -1    0    0  504  503  0.00000000000E+00  0.00000000000E+00  0.14019624640E+03  0.14019624640E+03  0.00000000000E+00 0.  1.
         21   -1    0    0  503  504 -0.00000000000E+00 -0.00000000000E+00 -0.12092767912E+03  0.12092767912E+03  0.00000000000E+00 0.  1.
         25    2    1    2    0    0  0.32730372221E+02  0.15904506532E+02  0.11491858183E+02  0.13070166424E+03  0.12500652638E+03 0.  0.
         25    2    1    2    0    0 -0.32730372221E+02 -0.15904506532E+02  0.77767090888E+01  0.13042226128E+03  0.12500103375E+03 0.  0.
          5    1    3    3  501    0 -0.11258305678E+02 -0.37619868047E+02  0.39435077649E+02  0.55849971064E+02  0.47000000000E+01 0.  1.
         -5    1    3    3    0  501  0.43988677899E+02  0.53524374580E+02 -0.27943219466E+02  0.74851693178E+02  0.47000000000E+01 0.  1.
          5    1    4    4  502    0 -0.28787380232E+02 -0.23470688544E+02 -0.55198885937E+02  0.66697777249E+02  0.47000000000E+01 0. -1.
         -5    1    4    4    0  502 -0.39429919893E+01  0.75661820118E+01  0.62975595026E+02  0.63724484030E+02  0.47000000000E+01 0. -1.
<mgrwt>
<rscale>  0 0.26041203E+03</rscale>
<asrwt>0</asrwt>
<pdfrwt beam="1">  1       21 0.21568653E-01 0.26041203E+03</pdfrwt>
<pdfrwt beam="2">  1       21 0.18604258E-01 0.26041203E+03</pdfrwt>
<totfact> 0.52249673E+05</totfact>
</mgrwt>
</event>
<event>
 8    1  0.9373234E-006  0.3620653E+03  0.7546771E-02  0.1057769E+00
         21   -1    0    0  504  503  0.00000000000E+00  0.00000000000E+00  0.24605098840E+02  0.24605098840E+02  0.00000000000E+00 0.  1.
         21   -1    0    0  503  504 -0.00000000000E+00 -0.00000000000E+00 -0.13319522587E+04  0.13319522587E+04  0.00000000000E+00 0.  1.
         25    2    1    2    0    0 -0.22110505794E+01 -0.42157796173E+02 -0.11181296296E+04  0.11258860428E+04  0.12499337666E+03 0.  0.
         25    2    1    2    0    0  0.22110505794E+01  0.42157796173E+02 -0.18921753023E+03  0.23067131473E+03  0.12499525260E+03 0.  0.
          5    1    3    3  501    0 -0.71010773699E+01 -0.87528213337E+01 -0.66906930468E+01  0.13924530676E+02  0.47000000000E+01 0.  1.
         -5    1    3    3    0  501  0.48900267905E+01 -0.33404974840E+02 -0.11114389366E+04  0.11119615121E+04  0.47000000000E+01 0.  1.
          5    1    4    4  502    0 -0.52769504265E+02 -0.16349297679E+01 -0.12323272366E+03  0.13414800690E+03  0.47000000000E+01 0.  1.
         -5    1    4    4    0  502  0.54980554845E+02  0.43792725941E+02 -0.65984806573E+02  0.96523307832E+02  0.47000000000E+01 0.  1.
<mgrwt>
<rscale>  0 0.36206528E+03</rscale>
<asrwt>0</asrwt>
<pdfrwt beam="1">  1       21 0.37853988E-02 0.36206528E+03</pdfrwt>
<pdfrwt beam="2">  1       21 0.20491579E+00 0.36206528E+03</pdfrwt>
<totfact> 0.49384798E+04</totfact>
</mgrwt>
</event>
<event>
 8    1  0.9373234E-006  0.3135104E+03  0.7546771E-02  0.1078675E+00
         21   -1    0    0  504  503  0.00000000000E+00  0.00000000000E+00  0.25020994405E+03  0.25020994405E+03  0.00000000000E+00 0.  1.
         21   -1    0    0  503  504 -0.00000000000E+00 -0.00000000000E+00 -0.98206271138E+02  0.98206271138E+02  0.00000000000E+00 0.  1.
         25    2    1    2    0    0 -0.18883437697E+02 -0.86399679446E+02  0.11329590944E+03  0.19048139285E+03  0.12500283637E+03 0.  0.
         25    2    1    2    0    0  0.18883437697E+02  0.86399679446E+02  0.38707763472E+02  0.15793482234E+03  0.12499451318E+03 0.  0.
          5    1    3    3  501    0  0.30326793834E+02 -0.94292335087E+02  0.54109348773E+02  0.11296313782E+03  0.47000000000E+01 0.  1.
         -5    1    3    3    0  501 -0.49210231531E+02  0.78926556411E+01  0.59186560669E+02  0.77518255039E+02  0.47000000000E+01 0.  1.
          5    1    4    4  502    0  0.85865796600E+01  0.66636115802E+02  0.83743888648E+02  0.10746734465E+03  0.47000000000E+01 0.  1.
         -5    1    4    4    0  502  0.10296858037E+02  0.19763563644E+02 -0.45036125177E+02  0.50467477689E+02  0.47000000000E+01 0.  1.
<mgrwt>
<rscale>  0 0.31351035E+03</rscale>
<asrwt>0</asrwt>
<pdfrwt beam="1">  1       21 0.38493837E-01 0.31351035E+03</pdfrwt>
<pdfrwt beam="2">  1       21 0.15108657E-01 0.31351035E+03</pdfrwt>
<totfact> 0.24459258E+05</totfact>
</mgrwt>
</event>
<event>
 8    1  0.9373234E-006  0.2640448E+03  0.7546771E-02  0.1104737E+00
         21   -1    0    0  504  503  0.00000000000E+00  0.00000000000E+00  0.11372111120E+03  0.11372111120E+03  0.00000000000E+00 0. -1.
         21   -1    0    0  503  504 -0.00000000000E+00 -0.00000000000E+00 -0.15326894979E+03  0.15326894979E+03  0.00000000000E+00 0. -1.
         25    2    1    2    0    0  0.25475310704E+02 -0.33376602551E+02 -0.26469255165E+02  0.13449573370E+03  0.12500196743E+03 0.  0.
         25    2    1    2    0    0 -0.25475310704E+02  0.33376602551E+02 -0.13078583433E+02  0.13249432729E+03  0.12498283228E+03 0.  0.
          5    1    3    3  501    0  0.51426413868E+02 -0.32390398888E+02 -0.64148807620E+02  0.88492787856E+02  0.47000000000E+01 0.  1.
         -5    1    3    3    0  501 -0.25951103164E+02 -0.98620366364E+00  0.37679552455E+02  0.46002945844E+02  0.47000000000E+01 0.  1.
          5    1    4    4  502    0  0.45850365719E+02  0.15703717779E+02 -0.29664188702E+02  0.57016812257E+02  0.47000000000E+01 0. -1.
         -5    1    4    4    0  502 -0.71325676423E+02  0.17672884772E+02  0.16585605269E+02  0.75477515032E+02  0.47000000000E+01 0. -1.
<mgrwt>
<rscale>  0 0.26404481E+03</rscale>
<asrwt>0</asrwt>
<pdfrwt beam="1">  1       21 0.17495556E-01 0.26404481E+03</pdfrwt>
<pdfrwt beam="2">  1       21 0.23579838E-01 0.26404481E+03</pdfrwt>
<totfact> 0.49411602E+05</totfact>
</mgrwt>
</event>
<event>
 8    1  0.9373234E-006  0.4714952E+03  0.7546771E-02  0.1021499E+00
         21   -1    0    0  504  503  0.00000000000E+00  0.00000000000E+00  0.12216859535E+03  0.12216859535E+03  0.00000000000E+00 0. -1.
         21   -1    0    0  503  504 -0.00000000000E+00 -0.00000000000E+00 -0.45492001617E+03  0.45492001617E+03  0.00000000000E+00 0. -1.
         25    2    1    2    0    0 -0.11469697847E+03  0.16155721569E+03 -0.13405990636E+03  0.26991033892E+03  0.12499360685E+03 0.  0.
         25    2    1    2    0    0  0.11469697847E+03 -0.16155721569E+03 -0.19869151445E+03  0.30717827260E+03  0.12499616967E+03 0.  0.
          5    1    3    3  501    0  0.58703226064E+01  0.52365315898E+02 -0.84689509240E+02  0.99854844509E+02  0.47000000000E+01 0. -1.
         -5    1    3    3    0  501 -0.12056730108E+03  0.10919189979E+03 -0.49370397125E+02  0.17005549442E+03  0.47000000000E+01 0. -1.
          5    1    4    4  502    0  0.50866692436E+01  0.16815458668E+02 -0.41576346369E+02  0.45379691841E+02  0.47000000000E+01 0.  1.
         -5    1    4    4    0  502  0.10961030923E+03 -0.17837267436E+03 -0.15711516808E+03  0.26179858076E+03  0.47000000000E+01 0.  1.
<mgrwt>
<rscale>  0 0.47149524E+03</rscale>
<asrwt>0</asrwt>
<pdfrwt beam="1">  1       21 0.18795168E-01 0.47149524E+03</pdfrwt>
<pdfrwt beam="2">  1       21 0.69987696E-01 0.47149524E+03</pdfrwt>
<totfact> 0.43873373E+04</totfact>
</mgrwt>
</event>
<event>
 8    1  0.9373234E-006  0.3203691E+03  0.7546771E-02  0.1075480E+00
         21   -1    0    0  504  503  0.00000000000E+00  0.00000000000E+00  0.15882481736E+03  0.15882481736E+03  0.00000000000E+00 0.  1.
         21   -1    0    0  503  504 -0.00000000000E+00 -0.00000000000E+00 -0.16155589069E+03  0.16155589069E+03  0.00000000000E+00 0.  1.
         25    2    1    2    0    0  0.97563934093E+02  0.68796673811E+01  0.20267131920E+02  0.16000948476E+03  0.12500490998E+03 0.  0.
         25    2    1    2    0    0 -0.97563934093E+02 -0.68796673811E+01 -0.22998205256E+02  0.16037122329E+03  0.12499584295E+03 0.  0.
          5    1    3    3  501    0 -0.22772466398E+01  0.16106101890E+02 -0.39647151103E+02  0.43111239381E+02  0.47000000000E+01 0. -1.
         -5    1    3    3    0  501  0.99841180732E+02 -0.92264345093E+01  0.59914283023E+02  0.11689824538E+03  0.47000000000E+01 0. -1.
          5    1    4    4  502    0  0.23659938033E+02 -0.24486048879E+02 -0.15065572983E+02  0.37528932129E+02  0.47000000000E+01 0.  1.
         -5    1    4    4    0  502 -0.12122387213E+03  0.17606381498E+02 -0.79326322735E+01  0.12284229116E+03  0.47000000000E+01 0.  1.
<mgrwt>
<rscale>  0 0.32036907E+03</rscale>
<asrwt>0</asrwt>
<pdfrwt beam="1">  1       21 0.24434587E-01 0.32036907E+03</pdfrwt>
<pdfrwt beam="2">  1       21 0.24854752E-01 0.32036907E+03</pdfrwt>
<totfact> 0.23488213E+05</totfact>
</mgrwt>
</event>
<event>
 8    1  0.9373234E-006  0.4570462E+03  0.7546771E-02  0.1025641E+00
         21   -1    0    0  504  503  0.00000000000E+00  0.00000000000E+00  0.21636064668E+04  0.21636064668E+04  0.00000000000E+00 0.  1.
         21   -1    0    0  503  504 -0.00000000000E+00 -0.00000000000E+00 -0.24136925307E+02  0.24136925307E+02  0.00000000000E+00 0.  1.
         25    2    1    2    0    0  0.11866788375E+03  0.13979484424E+03  0.80874347418E+03  0.83863932888E+03  0.12500100726E+03 0.  0.
         25    2    1    2    0    0 -0.11866788375E+03 -0.13979484424E+03  0.13307260673E+04  0.13491040632E+04  0.12500096825E+03 0.  0.
          5    1    3    3  501    0  0.50549963710E+02  0.12009337617E+03  0.33296707372E+03  0.35758478717E+03  0.47000000000E+01 0. -1.
         -5    1    3    3    0  501  0.68117920041E+02  0.19701468069E+02  0.47577640046E+03  0.48105454172E+03  0.47000000000E+01 0. -1.
          5    1    4    4  502    0 -0.47990576104E+02  0.98767235537E+00  0.14178961332E+03  0.14976800505E+03  0.47000000000E+01 0. -1.
         -5    1    4    4    0  502 -0.70677307647E+02 -0.14078251659E+03  0.11889364540E+04  0.11993360581E+04  0.47000000000E+01 0. -1.
<mgrwt>
<rscale>  0 0.45704620E+03</rscale>
<asrwt>0</asrwt>
<pdfrwt beam="1">  1       21 0.33286238E+00 0.45704620E+03</pdfrwt>
<pdfrwt beam="2">  1       21 0.37133748E-02 0.45704620E+03</pdfrwt>
<totfact> 0.80822839E+03</totfact>
</mgrwt>
</event>
<event>
 8    1  0.9373234E-006  0.2639863E+03  0.7546771E-02  0.1104772E+00
         21   -1    0    0  504  503  0.00000000000E+00  0.00000000000E+00  0.45966140687E+02  0.45966140687E+02  0.00000000000E+00 0.  1.
         21   -1    0    0  503  504 -0.00000000000E+00 -0.00000000000E+00 -0.37902218195E+03  0.37902218195E+03  0.00000000000E+00 0.  1.
         25    2    1    2    0    0 -0.41757446630E+02  0.18548865052E+01 -0.17811079557E+03  0.22156801648E+03  0.12498722124E+03 0.  0.
         25    2    1    2    0    0  0.41757446630E+02 -0.18548865052E+01 -0.15494524569E+03  0.20342030616E+03  0.12499866736E+03 0.  0.
          5    1    3    3  501    0 -0.81745854951E+01 -0.21895468213E+01 -0.18621715904E+03  0.18646859865E+03  0.47000000000E+01 0. -1.
         -5    1    3    3    0  501 -0.33582861134E+02  0.40444333264E+01  0.81063634667E+01  0.35099417824E+02  0.47000000000E+01 0. -1.
          5    1    4    4  502    0  0.27688370902E+02 -0.28434026476E+02  0.52951549348E+01  0.40314617828E+02  0.47000000000E+01 0.  1.
         -5    1    4    4    0  502  0.14069075727E+02  0.26579139970E+02 -0.16024040063E+03  0.16310568833E+03  0.47000000000E+01 0.  1.
<mgrwt>
<rscale>  0 0.26398626E+03</rscale>
<asrwt>0</asrwt>
<pdfrwt beam="1">  1       21 0.70717141E-02 0.26398626E+03</pdfrwt>
<pdfrwt beam="2">  1       21 0.58311103E-01 0.26398626E+03</pdfrwt>
<totfact> 0.40290044E+05</totfact>
</mgrwt>
</event>
<event>
 8    1  0.9373234E-006  0.2550372E+03  0.7546771E-02  0.1110162E+00
         21   -1    0    0  504  503  0.00000000000E+00  0.00000000000E+00  0.21865428017E+03  0.21865428017E+03  0.00000000000E+00 0. -1.
         21   -1    0    0  503  504 -0.00000000000E+00 -0.00000000000E+00 -0.74368526378E+02  0.74368526378E+02  0.00000000000E+00 0. -1.
         25    2    1    2    0    0 -0.44240068302E+01 -0.65926206777E+00  0.10064789304E+03  0.16054931113E+03  0.12500430580E+03 0.  0.
         25    2    1    2    0    0  0.44240068302E+01  0.65926206777E+00  0.43637860753E+02  0.13247349542E+03  0.12499983054E+03 0.  0.
          5    1    3    3  501    0 -0.37610089189E+02 -0.36675629708E+02  0.97984953768E+02  0.11127785848E+03  0.47000000000E+01 0. -1.
         -5    1    3    3    0  501  0.33186082359E+02  0.36016367641E+02  0.26629392714E+01  0.49271452647E+02  0.47000000000E+01 0. -1.
          5    1    4    4  502    0 -0.14010814046E+02 -0.45104365499E+02  0.63331651411E+02  0.79143507426E+02  0.47000000000E+01 0. -1.
         -5    1    4    4    0  502  0.18434820876E+02  0.45763627567E+02 -0.19693790659E+02  0.53329987993E+02  0.47000000000E+01 0. -1.
<mgrwt>
<rscale>  0 0.25503723E+03</rscale>
<asrwt>0</asrwt>
<pdfrwt beam="1">  1       21 0.33639120E-01 0.25503723E+03</pdfrwt>
<pdfrwt beam="2">  1       21 0.11441312E-01 0.25503723E+03</pdfrwt>
<totfact> 0.53754305E+05</totfact>
</mgrwt>
</event>
<event>
 8    1  0.9373234E-006  0.4576518E+03  0.7546771E-02  0.1025464E+00
         21   -1    0    0  504  503  0.00000000000E+00  0.00000000000E+00  0.53800184235E+02  0.53800184235E+02  0.00000000000E+00 0.  1.
         21   -1    0    0  503  504 -0.00000000000E+00 -0.00000000000E+00 -0.97325476204E+03  0.97325476204E+03  0.00000000000E+00 0.  1.
         25    2    1    2    0    0  0.17447851416E+03  0.61005641089E+02 -0.34591436152E+03  0.41163843012E+03  0.12500004599E+03 0.  0.
         25    2    1    2    0    0 -0.17447851416E+03 -0.61005641089E+02 -0.57354021629E+03  0.61541651616E+03  0.12499867405E+03 0.  0.
          5    1    3    3  501    0  0.13969678934E+03 -0.97707061140E+01 -0.25687077399E+03  0.29260099826E+03  0.47000000000E+01 0.  1.
         -5    1    3    3    0  501  0.34781724823E+02  0.70776347203E+02 -0.89043587525E+02  0.11903743186E+03  0.47000000000E+01 0.  1.
          5    1    4    4  502    0 -0.13613132330E+03 -0.73040364275E+02 -0.28644339590E+03  0.32548201341E+03  0.47000000000E+01 0. -1.
         -5    1    4    4    0  502 -0.38347190856E+02  0.12034723185E+02 -0.28709682039E+03  0.28993450275E+03  0.47000000000E+01 0. -1.
<mgrwt>
<rscale>  0 0.45765177E+03</rscale>
<asrwt>0</asrwt>
<pdfrwt beam="1">  1       21 0.82769516E-02 0.45765177E+03</pdfrwt>
<pdfrwt beam="2">  1       21 0.14973150E+00 0.45765177E+03</pdfrwt>
<totfact> 0.30526724E+04</totfact>
</mgrwt>
</event>
<event>
 8    1  0.9373234E-006  0.3173167E+03  0.7546771E-02  0.1076891E+00
         21   -1    0    0  504  503  0.00000000000E+00  0.00000000000E+00  0.52098083667E+02  0.52098083667E+02  0.00000000000E+00 0. -1.
         21   -1    0    0  503  504 -0.00000000000E+00 -0.00000000000E+00 -0.48317454098E+03  0.48317454098E+03  0.00000000000E+00 0. -1.
         25    2    1    2    0    0 -0.91308396785E+02 -0.27422283940E+02 -0.25171557111E+03  0.29676606874E+03  0.12498066186E+03 0.  0.
         25    2    1    2    0    0  0.91308396785E+02  0.27422283940E+02 -0.17936088620E+03  0.23850655590E+03  0.12500337887E+03 0.  0.
          5    1    3    3  501    0 -0.93255928582E+02  0.20812526649E+02 -0.10407702160E+03  0.14136458505E+03  0.47000000000E+01 0.  1.
         -5    1    3    3    0  501  0.19475317970E+01 -0.48234810590E+02 -0.14763854951E+03  0.15540148369E+03  0.47000000000E+01 0.  1.
          5    1    4    4  502    0  0.45140375899E+02 -0.23132974788E+02 -0.50694921035E+01  0.51191579474E+02  0.47000000000E+01 0.  1.
         -5    1    4    4    0  502  0.46168020886E+02  0.50555258728E+02 -0.17429139410E+03  0.18731497643E+03  0.47000000000E+01 0.  1.
<mgrwt>
<rscale>  0 0.31731667E+03</rscale>
<asrwt>0</asrwt>
<pdfrwt beam="1">  1       21 0.80150896E-02 0.31731667E+03</pdfrwt>
<pdfrwt beam="2">  1       21 0.74334547E-01 0.31731667E+03</pdfrwt>
<totfact> 0.18731984E+05</totfact>
</mgrwt>
</event>
<event>
 8    1  0.9373234E-006  0.2708111E+03  0.7546771E-02  0.1100816E+00
         21   -1    0    0  504  503  0.00000000000E+00  0.00000000000E+00  0.66497177361E+03  0.66497177361E+03  0.00000000000E+00 0.  1.
         21   -1    0    0  503  504 -0.00000000000E+00 -0.00000000000E+00 -0.27572094502E+02  0.27572094502E+02  0.00000000000E+00 0.  1.
         25    2    1    2    0    0 -0.28310675890E+02  0.10401506700E+02  0.42713357933E+03  0.44607515337E+03  0.12502104684E+03 0.  0.
         25    2    1    2    0    0  0.28310675890E+02 -0.10401506700E+02  0.21026609978E+03  0.24646871474E+03  0.12500123567E+03 0.  0.
          5    1    3    3  501    0 -0.89790600237E+01 -0.25702861560E+02  0.38880855197E+03  0.38978896944E+03  0.47000000000E+01 0.  1.
         -5    1    3    3    0  501 -0.19331615866E+02  0.36104368260E+02  0.38325027362E+02  0.56286183933E+02  0.47000000000E+01 0.  1.
          5    1    4    4  502    0  0.50579906323E+02  0.35774629187E+02  0.17034873156E+03  0.18132548459E+03  0.47000000000E+01 0. -1.
         -5    1    4    4    0  502 -0.22269230433E+02 -0.46176135886E+02  0.39917368218E+02  0.65143230154E+02  0.47000000000E+01 0. -1.
<mgrwt>
<rscale>  0 0.27081111E+03</rscale>
<asrwt>0</asrwt>
<pdfrwt beam="1">  1       21 0.10230334E+00 0.27081111E+03</pdfrwt>
<pdfrwt beam="2">  1       21 0.42418612E-02 0.27081111E+03</pdfrwt>
<totfact> 0.26993833E+05</totfact>
</mgrwt>
</event>
<event>
 8    1  0.9373234E-006  0.3072094E+03  0.7546771E-02  0.1081691E+00
         21   -1    0    0  504  503  0.00000000000E+00  0.00000000000E+00  0.27857584891E+03  0.27857584891E+03  0.00000000000E+00 0. -1.
         21   -1    0    0  503  504 -0.00000000000E+00 -0.00000000000E+00 -0.84696543172E+02  0.84696543172E+02  0.00000000000E+00 0. -1.
         25    2    1    2    0    0 -0.35748277696E+02  0.78853022783E+02  0.71181251615E+02  0.16788714490E+03  0.12499433699E+03 0.  0.
         25    2    1    2    0    0  0.35748277696E+02 -0.78853022783E+02  0.12269805412E+03  0.19538524718E+03  0.12499937508E+03 0.  0.
          5    1    3    3  501    0  0.15967488911E+02 -0.18759195300E+02 -0.13626463886E+02  0.28541874999E+02  0.47000000000E+01 0. -1.
         -5    1    3    3    0  501 -0.51715766607E+02  0.97612218083E+02  0.84807715501E+02  0.13934526990E+03  0.47000000000E+01 0. -1.
          5    1    4    4  502    0  0.47554516999E+02 -0.56581178487E+02  0.42378973287E+01  0.74181612410E+02  0.47000000000E+01 0. -1.
         -5    1    4    4    0  502 -0.11806239303E+02 -0.22271844296E+02  0.11846015679E+03  0.12120363477E+03  0.47000000000E+01 0. -1.
<mgrwt>
<rscale>  0 0.30720945E+03</rscale>
<asrwt>0</asrwt>
<pdfrwt beam="1">  1       21 0.42857823E-01 0.30720945E+03</pdfrwt>
<pdfrwt beam="2">  1       21 0.13030238E-01 0.30720945E+03</pdfrwt>
<totfact> 0.25773421E+05</totfact>
</mgrwt>
</event>
<event>
 8    1  0.9373234E-006  0.3333604E+03  0.7546771E-02  0.1069660E+00
         21   -1    0    0  504  503  0.00000000000E+00  0.00000000000E+00  0.44805560930E+03  0.44805560930E+03  0.00000000000E+00 0. -1.
         21   -1    0    0  503  504 -0.00000000000E+00 -0.00000000000E+00 -0.62006327541E+02  0.62006327541E+02  0.00000000000E+00 0. -1.
         25    2    1    2    0    0 -0.10272136795E+03  0.20827887862E+02  0.24539576098E+03  0.29466784216E+03  0.12499830937E+03 0.  0.
         25    2    1    2    0    0  0.10272136795E+03 -0.20827887862E+02  0.14065352078E+03  0.21539409469E+03  0.12500289105E+03 0.  0.
          5    1    3    3  501    0 -0.10009838535E+03 -0.26085153371E+02  0.10906513745E+03  0.15039087799E+03  0.47000000000E+01 0. -1.
         -5    1    3    3    0  501 -0.26229826000E+01  0.46913041233E+02  0.13633062353E+03  0.14427696416E+03  0.47000000000E+01 0. -1.
          5    1    4    4  502    0  0.54080914115E+02 -0.61800782712E+02  0.12515551853E+03  0.14976673808E+03  0.47000000000E+01 0. -1.
         -5    1    4    4    0  502  0.48640453836E+02  0.40972894851E+02  0.15498002246E+02  0.65627356609E+02  0.47000000000E+01 0. -1.
<mgrwt>
<rscale>  0 0.33336036E+03</rscale>
<asrwt>0</asrwt>
<pdfrwt beam="1">  1       21 0.68931630E-01 0.33336036E+03</pdfrwt>
<pdfrwt beam="2">  1       21 0.95394353E-02 0.33336036E+03</pdfrwt>
<totfact> 0.16241836E+05</totfact>
</mgrwt>
</event>
<event>
 8    1  0.9373234E-006  0.4190802E+03  0.7546771E-02  0.1037366E+00
         21   -1    0    0  504  503  0.00000000000E+00  0.00000000000E+00  0.10297450193E+03  0.10297450193E+03  0.00000000000E+00 0.  1.
         21   -1    0    0  503  504 -0.00000000000E+00 -0.00000000000E+00 -0.42638755655E+03  0.42638755655E+03  0.00000000000E+00 0.  1.
         25    2    1    2    0    0 -0.97004320899E+02  0.82577668425E+01  0.11498475472E+02  0.15885575450E+03  0.12499962725E+03 0.  0.
         25    2    1    2    0    0  0.97004320899E+02 -0.82577668425E+01 -0.33491153009E+03  0.37050630399E+03  0.12502463484E+03 0.  0.
          5    1    3    3  501    0 -0.11168379125E+03  0.57867264339E-02 -0.28366274179E+02  0.11532564664E+03  0.47000000000E+01 0. -1.
         -5    1    3    3    0  501  0.14679470350E+02  0.82519801160E+01  0.39864749651E+02  0.43530107860E+02  0.47000000000E+01 0. -1.
          5    1    4    4  502    0  0.14617474428E+02 -0.38506972642E+02 -0.25083554439E+02  0.48453402399E+02  0.47000000000E+01 0. -1.
         -5    1    4    4    0  502  0.82386846471E+02  0.30249205800E+02 -0.30982797565E+03  0.32205290159E+03  0.47000000000E+01 0. -1.
<mgrwt>
<rscale>  0 0.41908017E+03</rscale>
<asrwt>0</asrwt>
<pdfrwt beam="1">  1       21 0.15842231E-01 0.41908017E+03</pdfrwt>
<pdfrwt beam="2">  1       21 0.65598085E-01 0.41908017E+03</pdfrwt>
<totfact> 0.70696067E+04</totfact>
</mgrwt>
</event>
<event>
 8    1  0.9373234E-006  0.2773372E+03  0.7546771E-02  0.1097152E+00
         21   -1    0    0  504  503  0.00000000000E+00  0.00000000000E+00  0.56405125859E+02  0.56405125859E+02  0.00000000000E+00 0.  1.
         21   -1    0    0  503  504 -0.00000000000E+00 -0.00000000000E+00 -0.34090830223E+03  0.34090830223E+03  0.00000000000E+00 0.  1.
         25    2    1    2    0    0  0.58727022963E+02 -0.10235746099E+02 -0.15227066284E+03  0.20583350821E+03  0.12500977807E+03 0.  0.
         25    2    1    2    0    0 -0.58727022963E+02  0.10235746099E+02 -0.13223251353E+03  0.19147991989E+03  0.12500195343E+03 0.  0.
          5    1    3    3  501    0  0.14661837141E+02  0.20887310126E+02  0.15029785850E+02  0.29987224869E+02  0.47000000000E+01 0. -1.
         -5    1    3    3    0  501  0.44065185822E+02 -0.31123056225E+02 -0.16730044869E+03  0.17584628334E+03  0.47000000000E+01 0. -1.
          5    1    4    4  502    0 -0.88758845637E+02  0.38496505323E+02 -0.96201734953E+02  0.13651731542E+03  0.47000000000E+01 0. -1.
         -5    1    4    4    0  502  0.30031822674E+02 -0.28260759224E+02 -0.36030778576E+02  0.54962604468E+02  0.47000000000E+01 0. -1.
<mgrwt>
<rscale>  0 0.27733716E+03</rscale>
<asrwt>0</asrwt>
<pdfrwt beam="1">  1       21 0.86777117E-02 0.27733716E+03</pdfrwt>
<pdfrwt beam="2">  1       21 0.52447431E-01 0.27733716E+03</pdfrwt>
<totfact> 0.35208634E+05</totfact>
</mgrwt>
</event>
<event>
 8    1  0.9373234E-006  0.2699898E+03  0.7546771E-02  0.1101285E+00
         21   -1    0    0  504  503  0.00000000000E+00  0.00000000000E+00  0.13893957707E+04  0.13893957707E+04  0.00000000000E+00 0. -1.
         21   -1    0    0  503  504 -0.00000000000E+00 -0.00000000000E+00 -0.13116225860E+02  0.13116225860E+02  0.00000000000E+00 0. -1.
         25    2    1    2    0    0 -0.41911546655E+02 -0.12983122256E+02  0.82294295097E+03  0.83353653278E+03  0.12499164665E+03 0.  0.
         25    2    1    2    0    0  0.41911546655E+02  0.12983122256E+02  0.55333659386E+03  0.56897546376E+03  0.12500621207E+03 0.  0.
          5    1    3    3  501    0 -0.83464377252E+02  0.24129857749E+01  0.62927094541E+03  0.63480401503E+03  0.47000000000E+01 0.  1.
         -5    1    3    3    0  501  0.41552830597E+02 -0.15396108031E+02  0.19367200556E+03  0.19873251775E+03  0.47000000000E+01 0.  1.
          5    1    4    4  502    0  0.78745486328E+02  0.12894335055E+02  0.22959365248E+03  0.24310995609E+03  0.47000000000E+01 0.  1.
         -5    1    4    4    0  502 -0.36833939673E+02  0.88787201454E-01  0.32374294138E+03  0.32586550767E+03  0.47000000000E+01 0.  1.
<mgrwt>
<rscale>  0 0.26998984E+03</rscale>
<asrwt>0</asrwt>
<pdfrwt beam="1">  1       21 0.21375308E+00 0.26998984E+03</pdfrwt>
<pdfrwt beam="2">  1       21 0.20178820E-02 0.26998984E+03</pdfrwt>
<totfact> 0.12821992E+05</totfact>
</mgrwt>
</event>
<event>
 8    1  0.9373234E-006  0.2538224E+03  0.7546771E-02  0.1110913E+00
         21   -1    0    0  504  503  0.00000000000E+00  0.00000000000E+00  0.67685698352E+02  0.67685698352E+02  0.00000000000E+00 0. -1.
         21   -1    0    0  503  504 -0.00000000000E+00 -0.00000000000E+00 -0.23795952279E+03  0.23795952279E+03  0.00000000000E+00 0. -1.
         25    2    1    2    0    0  0.58919366977E+01  0.19400248014E+02 -0.95317378241E+02  0.15849222378E+03  0.12499319127E+03 0.  0.
         25    2    1    2    0    0 -0.58919366977E+01 -0.19400248014E+02 -0.74956446200E+02  0.14715299736E+03  0.12499780504E+03 0.  0.
          5    1    3    3  501    0  0.39459305365E+02  0.60123049358E+02 -0.67070648168E+02  0.98449884152E+02  0.47000000000E+01 0. -1.
         -5    1    3    3    0  501 -0.33567368667E+02 -0.40722801343E+02 -0.28246730073E+02  0.60042339631E+02  0.47000000000E+01 0. -1.
          5    1    4    4  502    0  0.24735344268E+02  0.21040793623E+02  0.20685264472E+02  0.38788173695E+02  0.47000000000E+01 0.  1.
         -5    1    4    4    0  502 -0.30627280965E+02 -0.40441041638E+02 -0.95641710672E+02  0.10836482367E+03  0.47000000000E+01 0.  1.
<mgrwt>
<rscale>  0 0.25382243E+03</rscale>
<asrwt>0</asrwt>
<pdfrwt beam="1">  1       21 0.10413184E-01 0.25382243E+03</pdfrwt>
<pdfrwt beam="2">  1       21 0.36609157E-01 0.25382243E+03</pdfrwt>
<totfact> 0.53726413E+05</totfact>
</mgrwt>
</event>
<event>
 8    1  0.9373234E-006  0.3425209E+03  0.7546771E-02  0.1065727E+00
         21   -1    0    0  504  503  0.00000000000E+00  0.00000000000E+00  0.29074823006E+02  0.29074823006E+02  0.00000000000E+00 0.  1.
         21   -1    0    0  503  504 -0.00000000000E+00 -0.00000000000E+00 -0.10087817170E+04  0.10087817170E+04  0.00000000000E+00 0.  1.
         25    2    1    2    0    0 -0.52363771964E+00  0.10795238802E+03 -0.62703526396E+03  0.64842525791E+03  0.12501240168E+03 0.  0.
         25    2    1    2    0    0  0.52363771964E+00 -0.10795238802E+03 -0.35267163002E+03  0.38943128207E+03  0.12500181024E+03 0.  0.
          5    1    3    3  501    0 -0.13309383450E+02  0.76109937183E+02 -0.13849940917E+03  0.15866328676E+03  0.47000000000E+01 0.  1.
         -5    1    3    3    0  501  0.12785745730E+02  0.31842450840E+02 -0.48853585479E+03  0.48976197115E+03  0.47000000000E+01 0.  1.
          5    1    4    4  502    0 -0.58627549903E+02 -0.72677450831E+02 -0.16775052095E+03  0.19204564235E+03  0.47000000000E+01 0. -1.
         -5    1    4    4    0  502  0.59151187623E+02 -0.35274937193E+02 -0.18492110906E+03  0.19738563972E+03  0.47000000000E+01 0. -1.
<mgrwt>
<rscale>  0 0.34252095E+03</rscale>
<asrwt>0</asrwt>
<pdfrwt beam="1">  1       21 0.44730491E-02 0.34252095E+03</pdfrwt>
<pdfrwt beam="2">  1       21 0.15519721E+00 0.34252095E+03</pdfrwt>
<totfact> 0.83524520E+04</totfact>
</mgrwt>
</event>
<event>
 8    1  0.9373234E-006  0.2731500E+03  0.7546771E-02  0.1099490E+00
         21   -1    0    0  504  503  0.00000000000E+00  0.00000000000E+00  0.67554782469E+02  0.67554782469E+02  0.00000000000E+00 0. -1.
         21   -1    0    0  503  504 -0.00000000000E+00 -0.00000000000E+00 -0.27611270912E+03  0.27611270912E+03  0.00000000000E+00 0. -1.
         25    2    1    2    0    0 -0.36672590607E+01  0.33650361698E+02 -0.49701584142E+02  0.13871231986E+03  0.12500025834E+03 0.  0.
         25    2    1    2    0    0  0.36672590607E+01 -0.33650361698E+02 -0.15885634251E+03  0.20495517173E+03  0.12500195691E+03 0.  0.
          5    1    3    3  501    0  0.40943367233E+01  0.72004190425E+02  0.36689333036E+01  0.72366553763E+02  0.47000000000E+01 0. -1.
         -5    1    3    3    0  501 -0.77615957840E+01 -0.38353828727E+02 -0.53370517445E+02  0.66345766101E+02  0.47000000000E+01 0. -1.
          5    1    4    4  502    0 -0.21575264107E+02 -0.20037401564E+02  0.11633198884E+02  0.32006418090E+02  0.47000000000E+01 0.  1.
         -5    1    4    4    0  502  0.25242523168E+02 -0.13612960134E+02 -0.17048954140E+03  0.17294875364E+03  0.47000000000E+01 0.  1.
<mgrwt>
<rscale>  0 0.27315002E+03</rscale>
<asrwt>0</asrwt>
<pdfrwt beam="1">  1       21 0.10393043E-01 0.27315002E+03</pdfrwt>
<pdfrwt beam="2">  1       21 0.42478880E-01 0.27315002E+03</pdfrwt>
<totfact> 0.39716129E+05</totfact>
</mgrwt>
</event>
<event>
 8    1  0.9373234E-006  0.3138003E+03  0.7546771E-02  0.1078538E+00
         21   -1    0    0  504  503  0.00000000000E+00  0.00000000000E+00  0.25634717690E+03  0.25634717690E+03  0.00000000000E+00 0.  1.
         21   -1    0    0  503  504 -0.00000000000E+00 -0.00000000000E+00 -0.96032492675E+02  0.96032492675E+02  0.00000000000E+00 0.  1.
         25    2    1    2    0    0 -0.92631288215E+01  0.94377606921E+02  0.82090044482E+02  0.17705927413E+03  0.12497308874E+03 0.  0.
         25    2    1    2    0    0  0.92631288215E+01 -0.94377606921E+02  0.78224639742E+02  0.17532039544E+03  0.12500083421E+03 0.  0.
          5    1    3    3  501    0  0.46481703274E+02 -0.50877485988E+00  0.23622402817E+02  0.52353753504E+02  0.47000000000E+01 0. -1.
         -5    1    3    3    0  501 -0.55744832095E+02  0.94886381781E+02  0.58467641666E+02  0.12470552063E+03  0.47000000000E+01 0. -1.
          5    1    4    4  502    0 -0.66855074021E+01  0.23953668490E+02 -0.95522512545E+01  0.27051982319E+02  0.47000000000E+01 0. -1.
         -5    1    4    4    0  502  0.15948636224E+02 -0.11833127541E+03  0.87776890997E+02  0.14826841313E+03  0.47000000000E+01 0. -1.
<mgrwt>
<rscale>  0 0.31380031E+03</rscale>
<asrwt>0</asrwt>
<pdfrwt beam="1">  1       21 0.39438027E-01 0.31380031E+03</pdfrwt>
<pdfrwt beam="2">  1       21 0.14774230E-01 0.31380031E+03</pdfrwt>
<totfact> 0.24259937E+05</totfact>
</mgrwt>
</event>
<event>
 8    1  0.9373234E-006  0.2820959E+03  0.7546771E-02  0.1094550E+00
         21   -1    0    0  504  503  0.00000000000E+00  0.00000000000E+00  0.10513443110E+03  0.10513443110E+03  0.00000000000E+00 0. -1.
         21   -1    0    0  503  504 -0.00000000000E+00 -0.00000000000E+00 -0.18922940321E+03  0.18922940321E+03  0.00000000000E+00 0. -1.
         25    2    1    2    0    0 -0.11869965484E+02  0.14167147674E+02 -0.10743510185E+03  0.16585574613E+03  0.12499689300E+03 0.  0.
         25    2    1    2    0    0  0.11869965484E+02 -0.14167147674E+02  0.23340129743E+02  0.12850808819E+03  0.12501185112E+03 0.  0.
          5    1    3    3  501    0  0.35180067501E+02 -0.40575670951E+02 -0.49329238399E+02  0.73071786509E+02  0.47000000000E+01 0.  1.
         -5    1    3    3    0  501 -0.47050032985E+02  0.54742818625E+02 -0.58105863453E+02  0.92783959619E+02  0.47000000000E+01 0.  1.
          5    1    4    4  502    0 -0.43804521824E+01 -0.95345856076E+01 -0.50921508139E+02  0.52203320538E+02  0.47000000000E+01 0.  1.
         -5    1    4    4    0  502  0.16250417667E+02 -0.46325620665E+01  0.74261637882E+02  0.76304767653E+02  0.47000000000E+01 0.  1.
<mgrwt>
<rscale>  0 0.28209591E+03</rscale>
<asrwt>0</asrwt>
<pdfrwt beam="1">  1       21 0.16174528E-01 0.28209591E+03</pdfrwt>
<pdfrwt beam="2">  1       21 0.29112216E-01 0.28209591E+03</pdfrwt>
<totfact> 0.37887207E+05</totfact>
</mgrwt>
</event>
<event>
 8    1  0.9373234E-006  0.4495346E+03  0.7546771E-02  0.1027861E+00
         21   -1    0    0  504  503  0.00000000000E+00  0.00000000000E+00  0.34748171973E+03  0.34748171973E+03  0.00000000000E+00 0. -1.
         21   -1    0    0  503  504 -0.00000000000E+00 -0.00000000000E+00 -0.14538989461E+03  0.14538989461E+03  0.00000000000E+00 0. -1.
         25    2    1    2    0    0  0.98187223658E+02  0.60515721721E+01  0.27515598559E+03  0.31782665859E+03  0.12500246435E+03 0.  0.
         25    2    1    2    0    0 -0.98187223658E+02 -0.60515721721E+01 -0.73064160474E+02  0.17504495575E+03  0.12500005029E+03 0.  0.
          5    1    3    3  501    0  0.67047857250E+02  0.41899850689E+01  0.27810473663E+03  0.28614210748E+03  0.47000000000E+01 0. -1.
         -5    1    3    3    0  501  0.31139366408E+02  0.18615871032E+01 -0.29487510386E+01  0.31684551117E+02  0.47000000000E+01 0. -1.
          5    1    4    4  502    0  0.10797179867E+02  0.18781541705E+02  0.19742902481E+02  0.29684972634E+02  0.47000000000E+01 0. -1.
         -5    1    4    4    0  502 -0.10898440353E+03 -0.24833113878E+02 -0.92807062955E+02  0.14535998311E+03  0.47000000000E+01 0. -1.
<mgrwt>
<rscale>  0 0.44953456E+03</rscale>
<asrwt>0</asrwt>
<pdfrwt beam="1">  1       21 0.53458726E-01 0.44953456E+03</pdfrwt>
<pdfrwt beam="2">  1       21 0.22367676E-01 0.44953456E+03</pdfrwt>
<totfact> 0.57202898E+04</totfact>
</mgrwt>
</event>
<event>
 8    1  0.9373234E-006  0.3483419E+03  0.7546771E-02  0.1063298E+00
         21   -1    0    0  504  503  0.00000000000E+00  0.00000000000E+00  0.19498537214E+02  0.19498537214E+02  0.00000000000E+00 0.  1.
         21   -1    0    0  503  504 -0.00000000000E+00 -0.00000000000E+00 -0.15557842655E+04  0.15557842655E+04  0.00000000000E+00 0.  1.
         25    2    1    2    0    0  0.10144237523E+03  0.66453699124E+02 -0.75901843379E+03  0.77874286832E+03  0.12499929006E+03 0.  0.
         25    2    1    2    0    0 -0.10144237523E+03 -0.66453699124E+02 -0.77726729455E+03  0.79653993444E+03  0.12499908146E+03 0.  0.
          5    1    3    3  501    0  0.79315884944E+02  0.13510185874E+02 -0.18435185217E+03  0.20119947845E+03  0.47000000000E+01 0.  1.
         -5    1    3    3    0  501  0.22126490289E+02  0.52943513250E+02 -0.57466658161E+03  0.57754338987E+03  0.47000000000E+01 0.  1.
          5    1    4    4  502    0 -0.46021950997E+02  0.34130110293E+02 -0.20880823522E+03  0.21657759232E+03  0.47000000000E+01 0. -1.
         -5    1    4    4    0  502 -0.55420424236E+02 -0.10058380942E+03 -0.56845905933E+03  0.57996234212E+03  0.47000000000E+01 0. -1.
<mgrwt>
<rscale>  0 0.34834189E+03</rscale>
<asrwt>0</asrwt>
<pdfrwt beam="1">  1       21 0.29997745E-02 0.34834189E+03</pdfrwt>
<pdfrwt beam="2">  1       21 0.23935147E+00 0.34834189E+03</pdfrwt>
<totfact> 0.44533184E+04</totfact>
</mgrwt>
</event>
<event>
 8    1  0.9373234E-006  0.4178666E+03  0.7546771E-02  0.1037763E+00
         21   -1    0    0  504  503  0.00000000000E+00  0.00000000000E+00  0.19997139538E+02  0.19997139538E+02  0.00000000000E+00 0. -1.
         21   -1    0    0  503  504 -0.00000000000E+00 -0.00000000000E+00 -0.21829684224E+04  0.21829684224E+04  0.00000000000E+00 0. -1.
         25    2    1    2    0    0  0.60640478500E+02 -0.15548150153E+03 -0.10117150054E+04  0.10329790783E+04  0.12500703603E+03 0.  0.
         25    2    1    2    0    0 -0.60640478500E+02  0.15548150153E+03 -0.11512562775E+04  0.11699864837E+04  0.12500236238E+03 0.  0.
          5    1    3    3  501    0 -0.23418283266E+02 -0.11298379304E+02 -0.46961126323E+02  0.53884197605E+02  0.47000000000E+01 0.  1.
         -5    1    3    3    0  501  0.84058761767E+02 -0.14418312223E+03 -0.96475387908E+03  0.97909488067E+03  0.47000000000E+01 0.  1.
          5    1    4    4  502    0 -0.36648341668E+02  0.49848087087E+02 -0.14253858251E+03  0.15545825883E+03  0.47000000000E+01 0. -1.
         -5    1    4    4    0  502 -0.23992136833E+02  0.10563341444E+03 -0.10087176950E+04  0.10145282249E+04  0.47000000000E+01 0. -1.
<mgrwt>
<rscale>  0 0.41786660E+03</rscale>
<asrwt>0</asrwt>
<pdfrwt beam="1">  1       21 0.30764843E-02 0.41786660E+03</pdfrwt>
<pdfrwt beam="2">  1       21 0.33584115E+00 0.41786660E+03</pdfrwt>
<totfact> 0.10859865E+04</totfact>
</mgrwt>
</event>
<event>
 8    1  0.9373234E-006  0.3177811E+03  0.7546771E-02  0.1076675E+00
         21   -1    0    0  504  503  0.00000000000E+00  0.00000000000E+00  0.12475150361E+03  0.12475150361E+03  0.00000000000E+00 0.  1.
         21   -1    0    0  503  504 -0.00000000000E+00 -0.00000000000E+00 -0.20237199063E+03  0.20237199063E+03  0.00000000000E+00 0.  1.
         25    2    1    2    0    0  0.84774913827E+02  0.21502602501E+02 -0.84548671031E+02  0.17442469963E+03  0.12500540043E+03 0.  0.
         25    2    1    2    0    0 -0.84774913827E+02 -0.21502602501E+02  0.69281840093E+01  0.15269879462E+03  0.12497909511E+03 0.  0.
          5    1    3    3  501    0  0.99765539506E+02  0.22671485168E+02 -0.15477675940E+02  0.10357995735E+03  0.47000000000E+01 0.  1.
         -5    1    3    3    0  501 -0.14990625679E+02 -0.11688826669E+01 -0.69070995091E+02  0.70844742274E+02  0.47000000000E+01 0.  1.
          5    1    4    4  502    0 -0.14096643069E+02  0.44291216847E+02  0.27003151210E+02  0.53960053844E+02  0.47000000000E+01 0.  1.
         -5    1    4    4    0  502 -0.70678270758E+02 -0.65793819347E+02 -0.20074967201E+02  0.98738740775E+02  0.47000000000E+01 0.  1.
<mgrwt>
<rscale>  0 0.31778112E+03</rscale>
<asrwt>0</asrwt>
<pdfrwt beam="1">  1       21 0.19192539E-01 0.31778112E+03</pdfrwt>
<pdfrwt beam="2">  1       21 0.31134152E-01 0.31778112E+03</pdfrwt>
<totfact> 0.23961697E+05</totfact>
</mgrwt>
</event>
<event>
 8    1  0.9373234E-006  0.3944796E+03  0.7546771E-02  0.1045708E+00
         21   -1    0    0  504  503  0.00000000000E+00  0.00000000000E+00  0.65900491104E+02  0.65900491104E+02  0.00000000000E+00 0.  1.
         21   -1    0    0  503  504 -0.00000000000E+00 -0.00000000000E+00 -0.59033758653E+03  0.59033758653E+03  0.00000000000E+00 0.  1.
         25    2    1    2    0    0 -0.61468890587E+02  0.94236548223E+02 -0.90812648983E+02  0.19113833909E+03  0.12501190313E+03 0.  0.
         25    2    1    2    0    0  0.61468890587E+02 -0.94236548223E+02 -0.43362444644E+03  0.46509973855E+03  0.12501461799E+03 0.  0.
          5    1    3    3  501    0  0.19018484990E+01  0.88943752920E+02 -0.12205193973E+02  0.89920325684E+02  0.47000000000E+01 0. -1.
         -5    1    3    3    0  501 -0.63370739086E+02  0.52927953031E+01 -0.78607455011E+02  0.10121801340E+03  0.47000000000E+01 0. -1.
          5    1    4    4  502    0  0.57241446748E+02 -0.10978388994E+03 -0.23405847305E+03  0.26482927430E+03  0.47000000000E+01 0.  1.
         -5    1    4    4    0  502  0.42274438386E+01  0.15547341717E+02 -0.19956597339E+03  0.20027046425E+03  0.47000000000E+01 0.  1.
<mgrwt>
<rscale>  0 0.39447959E+03</rscale>
<asrwt>0</asrwt>
<pdfrwt beam="1">  1       21 0.10138537E-01 0.39447959E+03</pdfrwt>
<pdfrwt beam="2">  1       21 0.90821166E-01 0.39447959E+03</pdfrwt>
<totfact> 0.76273576E+04</totfact>
</mgrwt>
</event>
<event>
 8    1  0.9373234E-006  0.4018342E+03  0.7546771E-02  0.1043146E+00
         21   -1    0    0  504  503  0.00000000000E+00  0.00000000000E+00  0.25027949624E+03  0.25027949624E+03  0.00000000000E+00 0. -1.
         21   -1    0    0  503  504 -0.00000000000E+00 -0.00000000000E+00 -0.16129037500E+03  0.16129037500E+03  0.00000000000E+00 0. -1.
         25    2    1    2    0    0  0.46004211955E+02 -0.13037043595E+03  0.12134815076E+03  0.22240076639E+03  0.12499555637E+03 0.  0.
         25    2    1    2    0    0 -0.46004211955E+02  0.13037043595E+03 -0.32359029519E+02  0.18916910485E+03  0.12500002141E+03 0.  0.
          5    1    3    3  501    0 -0.31815154819E+02 -0.95049111064E+02  0.57801218384E+02  0.11579986372E+03  0.47000000000E+01 0.  1.
         -5    1    3    3    0  501  0.77819366773E+02 -0.35321324884E+02  0.63546932372E+02  0.10660090267E+03  0.47000000000E+01 0.  1.
          5    1    4    4  502    0 -0.22081211452E+02  0.14719242029E+03 -0.52347856641E+01  0.14900564241E+03  0.47000000000E+01 0.  1.
         -5    1    4    4    0  502 -0.23923000503E+02 -0.16821984342E+02 -0.27124243855E+02  0.40163462438E+02  0.47000000000E+01 0.  1.
<mgrwt>
<rscale>  0 0.40183416E+03</rscale>
<asrwt>0</asrwt>
<pdfrwt beam="1">  1       21 0.38504538E-01 0.40183416E+03</pdfrwt>
<pdfrwt beam="2">  1       21 0.24813904E-01 0.40183416E+03</pdfrwt>
<totfact> 0.94035398E+04</totfact>
</mgrwt>
</event>
<event>
 8    1  0.9373234E-006  0.2728023E+03  0.7546771E-02  0.1099686E+00
         21   -1    0    0  504  503  0.00000000000E+00  0.00000000000E+00  0.53630171960E+03  0.53630171960E+03  0.00000000000E+00 0.  1.
         21   -1    0    0  503  504 -0.00000000000E+00 -0.00000000000E+00 -0.34691799833E+02  0.34691799833E+02  0.00000000000E+00 0.  1.
         25    2    1    2    0    0  0.16621459345E+02  0.49799660698E+02  0.28221734208E+03  0.31309610662E+03  0.12500505868E+03 0.  0.
         25    2    1    2    0    0 -0.16621459345E+02 -0.49799660698E+02  0.21939257769E+03  0.25789741281E+03  0.12498677240E+03 0.  0.
          5    1    3    3  501    0 -0.19748562369E+02 -0.30611968397E+02  0.35727943841E+02  0.51241333861E+02  0.47000000000E+01 0. -1.
         -5    1    3    3    0  501  0.36370021714E+02  0.80411629095E+02  0.24648939824E+03  0.26185477276E+03  0.47000000000E+01 0. -1.
          5    1    4    4  502    0 -0.66901541088E+02 -0.52123384777E+02  0.13341457674E+03  0.15815878960E+03  0.47000000000E+01 0.  1.
         -5    1    4    4    0  502  0.50280081743E+02  0.23237240784E+01  0.85978000950E+02  0.99738623216E+02  0.47000000000E+01 0.  1.
<mgrwt>
<rscale>  0 0.27280229E+03</rscale>
<asrwt>0</asrwt>
<pdfrwt beam="1">  1       21 0.82507951E-01 0.27280229E+03</pdfrwt>
<pdfrwt beam="2">  1       21 0.53372004E-02 0.27280229E+03</pdfrwt>
<totfact> 0.30234298E+05</totfact>
</mgrwt>
</event>
<event>
 8    1  0.9373234E-006  0.3236684E+03  0.7546771E-02  0.1073973E+00
         21   -1    0    0  504  503  0.00000000000E+00  0.00000000000E+00  0.10129407349E+04  0.10129407349E+04  0.00000000000E+00 0.  1.
         21   -1    0    0  503  504 -0.00000000000E+00 -0.00000000000E+00 -0.25855709019E+02  0.25855709019E+02  0.00000000000E+00 0.  1.
         25    2    1    2    0    0 -0.49318928761E+02 -0.25100270145E+02  0.21554992977E+03  0.25524336255E+03  0.12500008643E+03 0.  0.
         25    2    1    2    0    0  0.49318928761E+02  0.25100270145E+02  0.77153509613E+03  0.78355308139E+03  0.12500658581E+03 0.  0.
          5    1    3    3  501    0  0.21170993085E+02 -0.54736167979E+02  0.77080164984E+02  0.96993303208E+02  0.47000000000E+01 0. -1.
         -5    1    3    3    0  501 -0.70489921846E+02  0.29635897834E+02  0.13846976479E+03  0.15825005934E+03  0.47000000000E+01 0. -1.
          5    1    4    4  502    0 -0.20965493822E+02 -0.59625826295E+01  0.52052131009E+03  0.52099868385E+03  0.47000000000E+01 0. -1.
         -5    1    4    4    0  502  0.70284422583E+02  0.31062852775E+02  0.25101378605E+03  0.26255439754E+03  0.47000000000E+01 0. -1.
<mgrwt>
<rscale>  0 0.32366835E+03</rscale>
<asrwt>0</asrwt>
<pdfrwt beam="1">  1       21 0.15583701E+00 0.32366835E+03</pdfrwt>
<pdfrwt beam="2">  1       21 0.39778022E-02 0.32366835E+03</pdfrwt>
<totfact> 0.10142690E+05</totfact>
</mgrwt>
</event>
<event>
 8    1  0.9373234E-006  0.2733679E+03  0.7546771E-02  0.1099367E+00
         21   -1    0    0  504  503  0.00000000000E+00  0.00000000000E+00  0.25060147192E+03  0.25060147192E+03  0.00000000000E+00 0.  1.
         21   -1    0    0  503  504 -0.00000000000E+00 -0.00000000000E+00 -0.74550656098E+02  0.74550656098E+02  0.00000000000E+00 0.  1.
         25    2    1    2    0    0 -0.31628581268E+02 -0.34435272249E+02  0.12315467837E+03  0.18159686257E+03  0.12499676222E+03 0.  0.
         25    2    1    2    0    0  0.31628581268E+02  0.34435272249E+02  0.52896137454E+02  0.14355526545E+03  0.12499583094E+03 0.  0.
          5    1    3    3  501    0 -0.53084374151E+02 -0.36013333099E+02  0.85377930008E+01  0.64883702493E+02  0.47000000000E+01 0.  1.
         -5    1    3    3    0  501  0.21455792884E+02  0.15780608491E+01  0.11461688537E+03  0.11671316008E+03  0.47000000000E+01 0.  1.
          5    1    4    4  502    0 -0.11343672610E+02  0.40910839564E+02 -0.28371776819E+02  0.51277903837E+02  0.47000000000E+01 0. -1.
         -5    1    4    4    0  502  0.42972253878E+02 -0.64755673143E+01  0.81267914273E+02  0.92277361610E+02  0.47000000000E+01 0. -1.
<mgrwt>
<rscale>  0 0.27336791E+03</rscale>
<asrwt>0</asrwt>
<pdfrwt beam="1">  1       21 0.38554072E-01 0.27336791E+03</pdfrwt>
<pdfrwt beam="2">  1       21 0.11469332E-01 0.27336791E+03</pdfrwt>
<totfact> 0.40570574E+05</totfact>
</mgrwt>
</event>
<event>
 8    1  0.9373234E-006  0.3627231E+03  0.7546771E-02  0.1057511E+00
         21   -1    0    0  504  503  0.00000000000E+00  0.00000000000E+00  0.28248811903E+03  0.28248811903E+03  0.00000000000E+00 0. -1.
         21   -1    0    0  503  504 -0.00000000000E+00 -0.00000000000E+00 -0.11643676916E+03  0.11643676916E+03  0.00000000000E+00 0. -1.
         25    2    1    2    0    0 -0.66412290287E+02 -0.10004194450E+03  0.14171729987E+03  0.22389309091E+03  0.12500136044E+03 0.  0.
         25    2    1    2    0    0  0.66412290287E+02  0.10004194450E+03  0.24334050007E+02  0.17503179728E+03  0.12500000443E+03 0.  0.
          5    1    3    3  501    0 -0.13221375845E+02 -0.11619953909E+03  0.87877809954E+02  0.14636166556E+03  0.47000000000E+01 0.  1.
         -5    1    3    3    0  501 -0.53190914442E+02  0.16157594585E+02  0.53839489912E+02  0.77531425344E+02  0.47000000000E+01 0.  1.
          5    1    4    4  502    0  0.78746834333E+01 -0.29487746850E+02  0.78206106070E+01  0.31855765628E+02  0.47000000000E+01 0. -1.
         -5    1    4    4    0  502  0.58537606854E+02  0.12952969135E+03  0.16513439400E+02  0.14317603165E+03  0.47000000000E+01 0. -1.
<mgrwt>
<rscale>  0 0.36272306E+03</rscale>
<asrwt>0</asrwt>
<pdfrwt beam="1">  1       21 0.43459710E-01 0.36272306E+03</pdfrwt>
<pdfrwt beam="2">  1       21 0.17913349E-01 0.36272306E+03</pdfrwt>
<totfact> 0.13753541E+05</totfact>
</mgrwt>
</event>
<event>
 8    1  0.9373234E-006  0.2866587E+03  0.7546771E-02  0.1092107E+00
         21   -1    0    0  504  503  0.00000000000E+00  0.00000000000E+00  0.26701314395E+03  0.26701314395E+03  0.00000000000E+00 0. -1.
         21   -1    0    0  503  504 -0.00000000000E+00 -0.00000000000E+00 -0.76937421261E+02  0.76937421261E+02  0.00000000000E+00 0. -1.
         25    2    1    2    0    0 -0.68710874080E+02  0.13575694851E+02  0.90758658718E+02  0.16961141397E+03  0.12500165563E+03 0.  0.
         25    2    1    2    0    0  0.68710874080E+02 -0.13575694851E+02  0.99317063976E+02  0.17433915124E+03  0.12499910701E+03 0.  0.
          5    1    3    3  501    0 -0.83255799064E+02  0.46297107026E+02  0.31929561009E+02  0.10058099752E+03  0.47000000000E+01 0.  1.
         -5    1    3    3    0  501  0.14544924984E+02 -0.32721412175E+02  0.58829097708E+02  0.69030416446E+02  0.47000000000E+01 0.  1.
          5    1    4    4  502    0 -0.16733395238E+02 -0.44159961443E+02  0.13480874049E+02  0.49334903222E+02  0.47000000000E+01 0. -1.
         -5    1    4    4    0  502  0.85444269318E+02  0.30584266592E+02  0.85836189927E+02  0.12500424802E+03  0.47000000000E+01 0. -1.
<mgrwt>
<rscale>  0 0.28665870E+03</rscale>
<asrwt>0</asrwt>
<pdfrwt beam="1">  1       21 0.41078945E-01 0.28665870E+03</pdfrwt>
<pdfrwt beam="2">  1       21 0.11836526E-01 0.28665870E+03</pdfrwt>
<totfact> 0.33601349E+05</totfact>
</mgrwt>
</event>
<event>
 8    1  0.9373234E-006  0.3092349E+03  0.7546771E-02  0.1080713E+00
         21   -1    0    0  504  503  0.00000000000E+00  0.00000000000E+00  0.23172854661E+04  0.23172854661E+04  0.00000000000E+00 0.  1.
         21   -1    0    0  503  504 -0.00000000000E+00 -0.00000000000E+00 -0.10316618716E+02  0.10316618716E+02  0.00000000000E+00 0.  1.
         25    2    1    2    0    0 -0.88031398533E+02 -0.18829095811E+02  0.12540088747E+04  0.12634339734E+04  0.12499234104E+03 0.  0.
         25    2    1    2    0    0  0.88031398533E+02  0.18829095811E+02  0.10529599727E+04  0.10641681114E+04  0.12500001329E+03 0.  0.
          5    1    3    3  501    0 -0.51648411114E+02  0.22413977640E+02  0.10658360323E+04  0.10673324142E+04  0.47000000000E+01 0.  1.
         -5    1    3    3    0  501 -0.36382987419E+02 -0.41243073451E+02  0.18817284247E+03  0.19610155921E+03  0.47000000000E+01 0.  1.
          5    1    4    4  502    0  0.51810261210E+02  0.35863238511E+02  0.96877660322E+03  0.97083503851E+03  0.47000000000E+01 0.  1.
         -5    1    4    4    0  502  0.36221137323E+02 -0.17034142699E+02  0.84183369474E+02  0.93333072930E+02  0.47000000000E+01 0.  1.
<mgrwt>
<rscale>  0 0.30923487E+03</rscale>
<asrwt>0</asrwt>
<pdfrwt beam="1">  1       21 0.35650504E+00 0.30923487E+03</pdfrwt>
<pdfrwt beam="2">  1       21 0.15871740E-02 0.30923487E+03</pdfrwt>
<totfact> 0.25925557E+04</totfact>
</mgrwt>
</event>
<event>
 8    1  0.9373234E-006  0.2588272E+03  0.7546771E-02  0.1107850E+00
         21   -1    0    0  504  503  0.00000000000E+00  0.00000000000E+00  0.14412596154E+03  0.14412596154E+03  0.00000000000E+00 0.  1.
         21   -1    0    0  503  504 -0.00000000000E+00 -0.00000000000E+00 -0.11620303423E+03  0.11620303423E+03  0.00000000000E+00 0.  1.
         25    2    1    2    0    0  0.10191958903E+02 -0.31699947184E+02  0.17745662446E+02  0.13057177832E+03  0.12500127231E+03 0.  0.
         25    2    1    2    0    0 -0.10191958903E+02  0.31699947184E+02  0.10177264865E+02  0.12975721744E+03  0.12499838431E+03 0.  0.
          5    1    3    3  501    0  0.38685662434E+02 -0.69645453315E+02  0.21754010095E+02  0.82718780217E+02  0.47000000000E+01 0. -1.
         -5    1    3    3    0  501 -0.28493703532E+02  0.37945506131E+02 -0.40083476492E+01  0.47852998102E+02  0.47000000000E+01 0. -1.
          5    1    4    4  502    0  0.41633263274E+02 -0.85083746680E+00 -0.34138230286E+02  0.54051469011E+02  0.47000000000E+01 0. -1.
         -5    1    4    4    0  502 -0.51825222176E+02  0.32550784651E+02  0.44315495151E+02  0.75705748431E+02  0.47000000000E+01 0. -1.
<mgrwt>
<rscale>  0 0.25882715E+03</rscale>
<asrwt>0</asrwt>
<pdfrwt beam="1">  1       21 0.22173225E-01 0.25882715E+03</pdfrwt>
<pdfrwt beam="2">  1       21 0.17877390E-01 0.25882715E+03</pdfrwt>
<totfact> 0.53417555E+05</totfact>
</mgrwt>
</event>
<event>
 8    1  0.9373234E-006  0.2629804E+03  0.7546771E-02  0.1105366E+00
         21   -1    0    0  504  503  0.00000000000E+00  0.00000000000E+00  0.13459141371E+03  0.13459141371E+03  0.00000000000E+00 0. -1.
         21   -1    0    0  503  504 -0.00000000000E+00 -0.00000000000E+00 -0.12846040041E+03  0.12846040041E+03  0.00000000000E+00 0. -1.
         25    2    1    2    0    0  0.26252580859E+02  0.21490096238E+02 -0.19611427146E+02  0.13100087565E+03  0.12500239641E+03 0.  0.
         25    2    1    2    0    0 -0.26252580859E+02 -0.21490096238E+02  0.25742440453E+02  0.13205093847E+03  0.12499501939E+03 0.  0.
          5    1    3    3  501    0 -0.23985831427E+01  0.17112092731E+02 -0.70233049182E+02  0.72479984244E+02  0.47000000000E+01 0.  1.
         -5    1    3    3    0  501  0.28651164002E+02  0.43780035077E+01  0.50621622036E+02  0.58520891406E+02  0.47000000000E+01 0.  1.
          5    1    4    4  502    0  0.25447261165E+02 -0.56218639276E+02 -0.56525938389E+01  0.62146120715E+02  0.47000000000E+01 0. -1.
         -5    1    4    4    0  502 -0.51699842024E+02  0.34728543038E+02  0.31395034292E+02  0.69904817752E+02  0.47000000000E+01 0. -1.
<mgrwt>
<rscale>  0 0.26298036E+03</rscale>
<asrwt>0</asrwt>
<pdfrwt beam="1">  1       21 0.20706371E-01 0.26298036E+03</pdfrwt>
<pdfrwt beam="2">  1       21 0.19763139E-01 0.26298036E+03</pdfrwt>
<totfact> 0.50376490E+05</totfact>
</mgrwt>
</event>
<event>
 8    1  0.9373234E-006  0.3213220E+03  0.7546771E-02  0.1075042E+00
         21   -1    0    0  504  503  0.00000000000E+00  0.00000000000E+00  0.18737758377E+03  0.18737758377E+03  0.00000000000E+00 0. -1.
         21   -1    0    0  503  504 -0.00000000000E+00 -0.00000000000E+00 -0.13775374226E+03  0.13775374226E+03  0.00000000000E+00 0. -1.
         25    2    1    2    0    0 -0.50123534906E+02  0.62114171067E+02 -0.37729820937E+02  0.15300489406E+03  0.12496567216E+03 0.  0.
         25    2    1    2    0    0  0.50123534906E+02 -0.62114171067E+02  0.87353662446E+02  0.17212643197E+03  0.12500522886E+03 0.  0.
          5    1    3    3  501    0 -0.59661575877E+02 -0.18845128594E+02  0.72674702670E+00  0.62747594927E+02  0.47000000000E+01 0.  1.
         -5    1    3    3    0  501  0.95380409710E+01  0.80959299661E+02 -0.38456567964E+02  0.90257299133E+02  0.47000000000E+01 0.  1.
          5    1    4    4  502    0  0.71295979761E+01  0.25003277731E+02 -0.15447538404E+02  0.30605743045E+02  0.47000000000E+01 0.  1.
         -5    1    4    4    0  502  0.42993936930E+02 -0.87117448798E+02  0.10280120085E+03  0.14152068893E+03  0.47000000000E+01 0.  1.
<mgrwt>
<rscale>  0 0.32132204E+03</rscale>
<asrwt>0</asrwt>
<pdfrwt beam="1">  1       21 0.28827321E-01 0.32132204E+03</pdfrwt>
<pdfrwt beam="2">  1       21 0.21192883E-01 0.32132204E+03</pdfrwt>
<totfact> 0.23105072E+05</totfact>
</mgrwt>
</event>
<event>
 8    1  0.9373234E-006  0.2701960E+03  0.7546771E-02  0.1101168E+00
         21   -1    0    0  504  503  0.00000000000E+00  0.00000000000E+00  0.25476582484E+02  0.25476582484E+02  0.00000000000E+00 0.  1.
         21   -1    0    0  503  504 -0.00000000000E+00 -0.00000000000E+00 -0.71640154960E+03  0.71640154960E+03  0.00000000000E+00 0.  1.
         25    2    1    2    0    0  0.96302376982E+01 -0.13006862709E+02 -0.47897042795E+03  0.49527729002E+03  0.12500001282E+03 0.  0.
         25    2    1    2    0    0 -0.96302376982E+01  0.13006862709E+02 -0.21195453917E+03  0.24660084206E+03  0.12500131470E+03 0.  0.
          5    1    3    3  501    0  0.16047228529E+02  0.88892198221E+01 -0.35263740205E+01  0.19262842112E+02  0.47000000000E+01 0.  1.
         -5    1    3    3    0  501 -0.64169908305E+01 -0.21896082531E+02 -0.47544405393E+03  0.47601444791E+03  0.47000000000E+01 0.  1.
          5    1    4    4  502    0 -0.39837393862E+02  0.52454881839E+02 -0.16642053479E+03  0.17904305901E+03  0.47000000000E+01 0.  1.
         -5    1    4    4    0  502  0.30207156164E+02 -0.39448019130E+02 -0.45534004372E+02  0.67557783052E+02  0.47000000000E+01 0.  1.
<mgrwt>
<rscale>  0 0.27019595E+03</rscale>
<asrwt>0</asrwt>
<pdfrwt beam="1">  1       21 0.39194742E-02 0.27019595E+03</pdfrwt>
<pdfrwt beam="2">  1       21 0.11021562E+00 0.27019595E+03</pdfrwt>
<totfact> 0.25746614E+05</totfact>
</mgrwt>
</event>
<event>
 8    1  0.9373234E-006  0.2773408E+03  0.7546771E-02  0.1097150E+00
         21   -1    0    0  504  503  0.00000000000E+00  0.00000000000E+00  0.20105221985E+03  0.20105221985E+03  0.00000000000E+00 0.  1.
         21   -1    0    0  503  504 -0.00000000000E+00 -0.00000000000E+00 -0.95644235662E+02  0.95644235662E+02  0.00000000000E+00 0.  1.
         25    2    1    2    0    0  0.40028684367E+02 -0.69603407934E+01  0.54208583488E+01  0.13155010245E+03  0.12500120733E+03 0.  0.
         25    2    1    2    0    0 -0.40028684367E+02  0.69603407934E+01  0.99987125839E+02  0.16514635306E+03  0.12500060272E+03 0.  0.
          5    1    3    3  501    0  0.25094283755E+02  0.51671976330E+02  0.31288537620E+02  0.65580323279E+02  0.47000000000E+01 0. -1.
         -5    1    3    3    0  501  0.14934400612E+02 -0.58632317123E+02 -0.25867679271E+02  0.65969779170E+02  0.47000000000E+01 0. -1.
          5    1    4    4  502    0 -0.40484880270E+02  0.10059632929E+02  0.12896375883E+03  0.13562434456E+03  0.47000000000E+01 0.  1.
         -5    1    4    4    0  502  0.45619590362E+00 -0.30992921358E+01 -0.28976632993E+02  0.29522008503E+02  0.47000000000E+01 0.  1.
<mgrwt>
<rscale>  0 0.27734084E+03</rscale>
<asrwt>0</asrwt>
<pdfrwt beam="1">  1       21 0.30931111E-01 0.27734084E+03</pdfrwt>
<pdfrwt beam="2">  1       21 0.14714498E-01 0.27734084E+03</pdfrwt>
<totfact> 0.40062896E+05</totfact>
</mgrwt>
</event>
<event>
 8    1  0.9373234E-006  0.3197449E+03  0.7546771E-02  0.1075767E+00
         21   -1    0    0  504  503  0.00000000000E+00  0.00000000000E+00  0.34927088639E+02  0.34927088639E+02  0.00000000000E+00 0.  1.
         21   -1    0    0  503  504 -0.00000000000E+00 -0.00000000000E+00 -0.73178734127E+03  0.73178734127E+03  0.00000000000E+00 0.  1.
         25    2    1    2    0    0  0.61519539954E+02  0.36978644080E+02 -0.51434983757E+03  0.53416400159E+03  0.12499340492E+03 0.  0.
         25    2    1    2    0    0 -0.61519539954E+02 -0.36978644080E+02 -0.18251041506E+03  0.23255042832E+03  0.12497030124E+03 0.  0.
          5    1    3    3  501    0  0.54021270830E+02  0.17143562116E+02 -0.74243854776E+02  0.93522400504E+02  0.47000000000E+01 0.  1.
         -5    1    3    3    0  501  0.74982691244E+01  0.19835081964E+02 -0.44010598279E+03  0.44064160108E+03  0.47000000000E+01 0.  1.
          5    1    4    4  502    0 -0.28174626595E+02 -0.80931118990E+02 -0.87373497885E+02  0.12247397167E+03  0.47000000000E+01 0. -1.
         -5    1    4    4    0  502 -0.33344913359E+02  0.43952474910E+02 -0.95136917176E+02  0.11007645664E+03  0.47000000000E+01 0. -1.
<mgrwt>
<rscale>  0 0.31974491E+03</rscale>
<asrwt>0</asrwt>
<pdfrwt beam="1">  1       21 0.53733986E-02 0.31974491E+03</pdfrwt>
<pdfrwt beam="2">  1       21 0.11258266E+00 0.31974491E+03</pdfrwt>
<totfact> 0.14092363E+05</totfact>
</mgrwt>
</event>
<event>
 8    1  0.9373234E-006  0.2913651E+03  0.7546771E-02  0.1089639E+00
         21   -1    0    0  504  503  0.00000000000E+00  0.00000000000E+00  0.89552608922E+02  0.89552608922E+02  0.00000000000E+00 0. -1.
         21   -1    0    0  503  504 -0.00000000000E+00 -0.00000000000E+00 -0.23699369314E+03  0.23699369314E+03  0.00000000000E+00 0. -1.
         25    2    1    2    0    0  0.66258157841E+00  0.28663290983E+02 -0.15118763523E+03  0.19825037929E+03  0.12499395417E+03 0.  0.
         25    2    1    2    0    0 -0.66258157841E+00 -0.28663290983E+02  0.37465510087E+01  0.12829592277E+03  0.12499513547E+03 0.  0.
          5    1    3    3  501    0 -0.25281860445E+02 -0.33904985365E+02 -0.13351798627E+02  0.44599114640E+02  0.47000000000E+01 0. -1.
         -5    1    3    3    0  501  0.25944442023E+02  0.62568276348E+02 -0.13783583660E+03  0.15365126465E+03  0.47000000000E+01 0. -1.
          5    1    4    4  502    0 -0.14679808161E+02  0.18689764745E+02  0.53071893213E+02  0.58339694232E+02  0.47000000000E+01 0.  1.
         -5    1    4    4    0  502  0.14017226582E+02 -0.47353055728E+02 -0.49325342205E+02  0.69956228540E+02  0.47000000000E+01 0.  1.
<mgrwt>
<rscale>  0 0.29136509E+03</rscale>
<asrwt>0</asrwt>
<pdfrwt beam="1">  1       21 0.13777325E-01 0.29136509E+03</pdfrwt>
<pdfrwt beam="2">  1       21 0.36460568E-01 0.29136509E+03</pdfrwt>
<totfact> 0.32470978E+05</totfact>
</mgrwt>
</event>
<event>
 8    1  0.9373234E-006  0.3418975E+03  0.7546771E-02  0.1065991E+00
         21   -1    0    0  504  503  0.00000000000E+00  0.00000000000E+00  0.14424011276E+02  0.14424011276E+02  0.00000000000E+00 0. -1.
         21   -1    0    0  503  504 -0.00000000000E+00 -0.00000000000E+00 -0.20260300312E+04  0.20260300312E+04  0.00000000000E+00 0. -1.
         25    2    1    2    0    0  0.48812626155E+02 -0.10193759779E+03 -0.83455697874E+03  0.85140164509E+03  0.12500185670E+03 0.  0.
         25    2    1    2    0    0 -0.48812626155E+02  0.10193759779E+03 -0.11770490412E+04  0.11890523974E+04  0.12500884798E+03 0.  0.
          5    1    3    3  501    0  0.42885691962E+02 -0.94836203294E+02 -0.83454778560E+03  0.84102626860E+03  0.47000000000E+01 0. -1.
         -5    1    3    3    0  501  0.59269341929E+01 -0.71013944920E+01 -0.91931397817E-02  0.10375376483E+02  0.47000000000E+01 0. -1.
          5    1    4    4  502    0 -0.83356932658E+02  0.84070096527E+02 -0.66228477175E+03  0.67279964941E+03  0.47000000000E+01 0.  1.
         -5    1    4    4    0  502  0.34544306504E+02  0.17867501258E+02 -0.51476426941E+03  0.51625274796E+03  0.47000000000E+01 0.  1.
<mgrwt>
<rscale>  0 0.34189753E+03</rscale>
<asrwt>0</asrwt>
<pdfrwt beam="1">  1       21 0.22190796E-02 0.34189753E+03</pdfrwt>
<pdfrwt beam="2">  1       21 0.31169679E+00 0.34189753E+03</pdfrwt>
<totfact> 0.27205658E+04</totfact>
</mgrwt>
</event>
<event>
 8    1  0.9373234E-006  0.2913179E+03  0.7546771E-02  0.1089663E+00
         21   -1    0    0  504  503  0.00000000000E+00  0.00000000000E+00  0.59516266231E+02  0.59516266231E+02  0.00000000000E+00 0.  1.
         21   -1    0    0  503  504 -0.00000000000E+00 -0.00000000000E+00 -0.35648281626E+03  0.35648281626E+03  0.00000000000E+00 0.  1.
         25    2    1    2    0    0 -0.72029165552E+02 -0.15947811761E+02 -0.13155788744E+03  0.19593912141E+03  0.12506849388E+03 0.  0.
         25    2    1    2    0    0  0.72029165552E+02  0.15947811761E+02 -0.16540866258E+03  0.22005996107E+03  0.12499530959E+03 0.  0.
          5    1    3    3  501    0 -0.58940792328E+02 -0.68551890984E+02 -0.76374870901E+02  0.11844234742E+03  0.47000000000E+01 0.  1.
         -5    1    3    3    0  501 -0.13088373224E+02  0.52604079223E+02 -0.55183016543E+02  0.77496773993E+02  0.47000000000E+01 0.  1.
          5    1    4    4  502    0  0.56692922953E+02 -0.48101379898E+02 -0.11486354453E+03  0.13690710034E+03  0.47000000000E+01 0.  1.
         -5    1    4    4    0  502  0.15336242598E+02  0.64049191659E+02 -0.50545118048E+02  0.83152860730E+02  0.47000000000E+01 0.  1.
<mgrwt>
<rscale>  0 0.29131788E+03</rscale>
<asrwt>0</asrwt>
<pdfrwt beam="1">  1       21 0.91563488E-02 0.29131788E+03</pdfrwt>
<pdfrwt beam="2">  1       21 0.54843509E-01 0.29131788E+03</pdfrwt>
<totfact> 0.29034032E+05</totfact>
</mgrwt>
</event>
<event>
 8    1  0.9373234E-006  0.2654660E+03  0.7546771E-02  0.1103903E+00
         21   -1    0    0  504  503  0.00000000000E+00  0.00000000000E+00  0.25419845318E+03  0.25419845318E+03  0.00000000000E+00 0. -1.
         21   -1    0    0  503  504 -0.00000000000E+00 -0.00000000000E+00 -0.69308258092E+02  0.69308258092E+02  0.00000000000E+00 0. -1.
         25    2    1    2    0    0 -0.13262416874E+02 -0.35496360731E+02  0.12119861594E+03  0.17819171791E+03  0.12500920166E+03 0.  0.
         25    2    1    2    0    0  0.13262416874E+02  0.35496360731E+02  0.63691579150E+02  0.14531499336E+03  0.12499578678E+03 0.  0.
          5    1    3    3  501    0 -0.14441563734E+02 -0.81142377967E+02  0.92849303971E+02  0.12424060332E+03  0.47000000000E+01 0.  1.
         -5    1    3    3    0  501  0.11791468601E+01  0.45646017237E+02  0.28349311970E+02  0.53951114595E+02  0.47000000000E+01 0.  1.
          5    1    4    4  502    0 -0.71147608236E+01 -0.55206217002E+01 -0.34982994938E+02  0.36427970303E+02  0.47000000000E+01 0. -1.
         -5    1    4    4    0  502  0.20377177697E+02  0.41016982431E+02  0.98674574088E+02  0.10888702306E+03  0.47000000000E+01 0. -1.
<mgrwt>
<rscale>  0 0.26546602E+03</rscale>
<asrwt>0</asrwt>
<pdfrwt beam="1">  1       21 0.39107454E-01 0.26546602E+03</pdfrwt>
<pdfrwt beam="2">  1       21 0.10662809E-01 0.26546602E+03</pdfrwt>
<totfact> 0.44982883E+05</totfact>
</mgrwt>
</event>
<event>
 8    1  0.9373234E-006  0.3219377E+03  0.7546771E-02  0.1074761E+00
         21   -1    0    0  504  503  0.00000000000E+00  0.00000000000E+00  0.11687406582E+04  0.11687406582E+04  0.00000000000E+00 0.  1.
         21   -1    0    0  503  504 -0.00000000000E+00 -0.00000000000E+00 -0.22169998311E+02  0.22169998311E+02  0.00000000000E+00 0.  1.
         25    2    1    2    0    0  0.34112394032E+02 -0.77240888823E+02  0.36547755430E+03  0.39538429181E+03  0.12500034074E+03 0.  0.
         25    2    1    2    0    0 -0.34112394032E+02  0.77240888823E+02  0.78109310559E+03  0.79552636469E+03  0.12500378791E+03 0.  0.
          5    1    3    3  501    0  0.20972157651E+02  0.33109466312E+02  0.10350411283E+03  0.11077571723E+03  0.47000000000E+01 0. -1.
         -5    1    3    3    0  501  0.13140236382E+02 -0.11035035513E+03  0.26197344147E+03  0.28460857458E+03  0.47000000000E+01 0. -1.
          5    1    4    4  502    0 -0.26022264111E+02  0.30089843622E+02  0.56058447420E+02  0.68899901638E+02  0.47000000000E+01 0.  1.
         -5    1    4    4    0  502 -0.80901299217E+01  0.47151045201E+02  0.72503465817E+03  0.72662646305E+03  0.47000000000E+01 0.  1.
<mgrwt>
<rscale>  0 0.32193775E+03</rscale>
<asrwt>0</asrwt>
<pdfrwt beam="1">  1       21 0.17980621E+00 0.32193775E+03</pdfrwt>
<pdfrwt beam="2">  1       21 0.34107699E-02 0.32193775E+03</pdfrwt>
<totfact> 0.88145361E+04</totfact>
</mgrwt>
</event>
<event>
 8    1  0.9373234E-006  0.2636364E+03  0.7546771E-02  0.1104978E+00
         21   -1    0    0  504  503  0.00000000000E+00  0.00000000000E+00  0.97266796656E+01  0.97266796656E+01  0.00000000000E+00 0.  1.
         21   -1    0    0  503  504 -0.00000000000E+00 -0.00000000000E+00 -0.17864309573E+04  0.17864309573E+04  0.00000000000E+00 0.  1.
         25    2    1    2    0    0 -0.33265439301E+02  0.91169805832E+01 -0.10497377783E+04  0.10577164269E+04  0.12499971046E+03 0.  0.
         25    2    1    2    0    0  0.33265439301E+02 -0.91169805832E+01 -0.72696649927E+03  0.73844121007E+03  0.12500168351E+03 0.  0.
          5    1    3    3  501    0  0.33948806991E+02 -0.22585713609E+02 -0.17216768862E+03  0.17699276527E+03  0.47000000000E+01 0.  1.
         -5    1    3    3    0  501 -0.67214246292E+02  0.31702694193E+02 -0.87757008970E+03  0.88072366158E+03  0.47000000000E+01 0.  1.
          5    1    4    4  502    0  0.69747982820E+01  0.49065444237E+02 -0.15252215277E+03  0.16044052703E+03  0.47000000000E+01 0. -1.
         -5    1    4    4    0  502  0.26290641019E+02 -0.58182424820E+02 -0.57444434651E+03  0.57800068304E+03  0.47000000000E+01 0. -1.
<mgrwt>
<rscale>  0 0.26363643E+03</rscale>
<asrwt>0</asrwt>
<pdfrwt beam="1">  1       21 0.14964121E-02 0.26363643E+03</pdfrwt>
<pdfrwt beam="2">  1       21 0.27483556E+00 0.26363643E+03</pdfrwt>
<totfact> 0.89463451E+04</totfact>
</mgrwt>
</event>
<event>
 8    1  0.9373234E-006  0.3350053E+03  0.7546771E-02  0.1068943E+00
         21   -1    0    0  504  503  0.00000000000E+00  0.00000000000E+00  0.17707465514E+03  0.17707465514E+03  0.00000000000E+00 0.  1.
         21   -1    0    0  503  504 -0.00000000000E+00 -0.00000000000E+00 -0.15844803060E+03  0.15844803060E+03  0.00000000000E+00 0.  1.
         25    2    1    2    0    0  0.54656349602E+02 -0.81383397633E+01 -0.87673022840E+02  0.16238068958E+03  0.12500952079E+03 0.  0.
         25    2    1    2    0    0 -0.54656349602E+02  0.81383397633E+01  0.10629964737E+03  0.17314199617E+03  0.12499994671E+03 0.  0.
          5    1    3    3  501    0  0.75277332358E+02  0.31291607941E+02 -0.84524651306E+02  0.11752594681E+03  0.47000000000E+01 0.  1.
         -5    1    3    3    0  501 -0.20620982757E+02 -0.39429947704E+02 -0.31483715339E+01  0.44854742772E+02  0.47000000000E+01 0.  1.
          5    1    4    4  502    0 -0.20189075699E+02 -0.56788683041E+02  0.31520458091E+02  0.68177581194E+02  0.47000000000E+01 0.  1.
         -5    1    4    4    0  502 -0.34467273902E+02  0.64927022805E+02  0.74779189284E+02  0.10496441497E+03  0.47000000000E+01 0.  1.
<mgrwt>
<rscale>  0 0.33500526E+03</rscale>
<asrwt>0</asrwt>
<pdfrwt beam="1">  1       21 0.27242255E-01 0.33500526E+03</pdfrwt>
<pdfrwt beam="2">  1       21 0.24376620E-01 0.33500526E+03</pdfrwt>
<totfact> 0.19690714E+05</totfact>
</mgrwt>
</event>
<event>
 8    1  0.9373234E-006  0.2585630E+03  0.7546771E-02  0.1108010E+00
         21   -1    0    0  504  503  0.00000000000E+00  0.00000000000E+00  0.10730547872E+04  0.10730547872E+04  0.00000000000E+00 0.  1.
         21   -1    0    0  503  504 -0.00000000000E+00 -0.00000000000E+00 -0.15575813331E+02  0.15575813331E+02  0.00000000000E+00 0.  1.
         25    2    1    2    0    0  0.14793351226E+02  0.29038207140E+02  0.50733722168E+03  0.52352491807E+03  0.12500089048E+03 0.  0.
         25    2    1    2    0    0 -0.14793351226E+02 -0.29038207140E+02  0.55014175222E+03  0.56510568249E+03  0.12500569642E+03 0.  0.
          5    1    3    3  501    0 -0.48977867303E+02  0.27201709718E+02  0.14375397683E+03  0.15435692518E+03  0.47000000000E+01 0. -1.
         -5    1    3    3    0  501  0.63771218529E+02  0.18364974225E+01  0.36358324485E+03  0.36916799289E+03  0.47000000000E+01 0. -1.
          5    1    4    4  502    0 -0.39607691658E+02 -0.69756692175E+02  0.37614051851E+03  0.38462780062E+03  0.47000000000E+01 0. -1.
         -5    1    4    4    0  502  0.24814340432E+02  0.40718485035E+02  0.17400123370E+03  0.18047788187E+03  0.47000000000E+01 0. -1.
<mgrwt>
<rscale>  0 0.25856296E+03</rscale>
<asrwt>0</asrwt>
<pdfrwt beam="1">  1       21 0.16508529E+00 0.25856296E+03</pdfrwt>
<pdfrwt beam="2">  1       21 0.23962798E-02 0.25856296E+03</pdfrwt>
<totfact> 0.20639106E+05</totfact>
</mgrwt>
</event>
<event>
 8    1  0.9373234E-006  0.4691113E+03  0.7546771E-02  0.1022171E+00
         21   -1    0    0  504  503  0.00000000000E+00  0.00000000000E+00  0.69044006646E+03  0.69044006646E+03  0.00000000000E+00 0. -1.
         21   -1    0    0  503  504 -0.00000000000E+00 -0.00000000000E+00 -0.79683036538E+02  0.79683036538E+02  0.00000000000E+00 0. -1.
         25    2    1    2    0    0  0.63354903560E+02 -0.14724324135E+03  0.11331007937E+03  0.23274718204E+03  0.12505063267E+03 0.  0.
         25    2    1    2    0    0 -0.63354903560E+02  0.14724324135E+03  0.49744695055E+03  0.53737592096E+03  0.12499998353E+03 0.  0.
          5    1    3    3  501    0 -0.21396460809E+02 -0.58988447931E+02  0.87220073827E+02  0.10754941563E+03  0.47000000000E+01 0.  1.
         -5    1    3    3    0  501  0.84751364369E+02 -0.88254793420E+02  0.26090005541E+02  0.12519776641E+03  0.47000000000E+01 0.  1.
          5    1    4    4  502    0 -0.18262941868E+02  0.15037290030E+03  0.43105847164E+03  0.45692345109E+03  0.47000000000E+01 0.  1.
         -5    1    4    4    0  502 -0.45091961692E+02 -0.31296589487E+01  0.66388478917E+02  0.80452469864E+02  0.47000000000E+01 0.  1.
<mgrwt>
<rscale>  0 0.46911133E+03</rscale>
<asrwt>0</asrwt>
<pdfrwt beam="1">  1       21 0.10622154E+00 0.46911133E+03</pdfrwt>
<pdfrwt beam="2">  1       21 0.12258929E-01 0.46911133E+03</pdfrwt>
<totfact> 0.36390324E+04</totfact>
</mgrwt>
</event>
<event>
 8    1  0.9373234E-006  0.3358626E+03  0.7546771E-02  0.1068572E+00
         21   -1    0    0  504  503  0.00000000000E+00  0.00000000000E+00  0.12460812130E+04  0.12460812130E+04  0.00000000000E+00 0.  1.
         21   -1    0    0  503  504 -0.00000000000E+00 -0.00000000000E+00 -0.22631689902E+02  0.22631689902E+02  0.00000000000E+00 0.  1.
         25    2    1    2    0    0 -0.96846119063E+02  0.26539792612E+02  0.80032143789E+03  0.81622469480E+03  0.12499926832E+03 0.  0.
         25    2    1    2    0    0  0.96846119063E+02 -0.26539792612E+02  0.42312808525E+03  0.45248820815E+03  0.12499868246E+03 0.  0.
          5    1    3    3  501    0 -0.11323682522E+03  0.26858612483E+02  0.42954148512E+03  0.44505273967E+03  0.47000000000E+01 0.  1.
         -5    1    3    3    0  501  0.16390706162E+02 -0.31881987118E+00  0.37077995277E+03  0.37117195513E+03  0.47000000000E+01 0.  1.
          5    1    4    4  502    0 -0.10208664657E+02 -0.49272133399E+02  0.14575234615E+03  0.15426534404E+03  0.47000000000E+01 0. -1.
         -5    1    4    4    0  502  0.10705478372E+03  0.22732340787E+02  0.27737573910E+03  0.29822286411E+03  0.47000000000E+01 0. -1.
<mgrwt>
<rscale>  0 0.33586261E+03</rscale>
<asrwt>0</asrwt>
<pdfrwt beam="1">  1       21 0.19170475E+00 0.33586261E+03</pdfrwt>
<pdfrwt beam="2">  1       21 0.34817994E-02 0.33586261E+03</pdfrwt>
<totfact> 0.70243481E+04</totfact>
</mgrwt>
</event>
<event>
 8    1  0.9373234E-006  0.3345466E+03  0.7546771E-02  0.1069143E+00
         21   -1    0    0  504  503  0.00000000000E+00  0.00000000000E+00  0.35478983438E+02  0.35478983438E+02  0.00000000000E+00 0.  1.
         21   -1    0    0  503  504 -0.00000000000E+00 -0.00000000000E+00 -0.78864593598E+03  0.78864593598E+03  0.00000000000E+00 0.  1.
         25    2    1    2    0    0 -0.85206298006E+01  0.79485429210E+02 -0.18633480616E+03  0.23819343197E+03  0.12499966583E+03 0.  0.
         25    2    1    2    0    0  0.85206298006E+01 -0.79485429210E+02 -0.56683214638E+03  0.58593148745E+03  0.12500596476E+03 0.  0.
          5    1    3    3  501    0 -0.40702501873E+02  0.71162427175E+02 -0.46462004177E+02  0.94348251347E+02  0.47000000000E+01 0.  1.
         -5    1    3    3    0  501  0.32181872072E+02  0.83230020354E+01 -0.13987280198E+03  0.14384518062E+03  0.47000000000E+01 0.  1.
          5    1    4    4  502    0 -0.32566779679E+02  0.14061419403E+02 -0.69277788730E+02  0.77973204793E+02  0.47000000000E+01 0. -1.
         -5    1    4    4    0  502  0.41087409480E+02 -0.93546848614E+02 -0.49755435765E+03  0.50795828266E+03  0.47000000000E+01 0. -1.
<mgrwt>
<rscale>  0 0.33454660E+03</rscale>
<asrwt>0</asrwt>
<pdfrwt beam="1">  1       21 0.54583055E-02 0.33454660E+03</pdfrwt>
<pdfrwt beam="2">  1       21 0.12133014E+00 0.33454660E+03</pdfrwt>
<totfact> 0.11336746E+05</totfact>
</mgrwt>
</event>
<event>
 8    1  0.9373234E-006  0.4182772E+03  0.7546771E-02  0.1037628E+00
         21   -1    0    0  504  503  0.00000000000E+00  0.00000000000E+00  0.14189731122E+04  0.14189731122E+04  0.00000000000E+00 0.  1.
         21   -1    0    0  503  504 -0.00000000000E+00 -0.00000000000E+00 -0.30824378015E+02  0.30824378015E+02  0.00000000000E+00 0.  1.
         25    2    1    2    0    0 -0.24169706747E+02 -0.33669770308E+02  0.13093145976E+03  0.18570293959E+03  0.12499882584E+03 0.  0.
         25    2    1    2    0    0  0.24169706747E+02  0.33669770308E+02  0.12572172744E+04  0.12640945506E+04  0.12498771798E+03 0.  0.
          5    1    3    3  501    0  0.22289524292E+02 -0.51657303126E+01 -0.16400960646E+02  0.28541008618E+02  0.47000000000E+01 0.  1.
         -5    1    3    3    0  501 -0.46459231039E+02 -0.28504039995E+02  0.14733242040E+03  0.15716193097E+03  0.47000000000E+01 0.  1.
          5    1    4    4  502    0 -0.45943300157E+02  0.33420652865E+02  0.72865131946E+03  0.73087793935E+03  0.47000000000E+01 0.  1.
         -5    1    4    4    0  502  0.70113006904E+02  0.24911744287E+00  0.52856595493E+03  0.53321661125E+03  0.47000000000E+01 0.  1.
<mgrwt>
<rscale>  0 0.41827725E+03</rscale>
<asrwt>0</asrwt>
<pdfrwt beam="1">  1       21 0.21830351E+00 0.41827725E+03</pdfrwt>
<pdfrwt beam="2">  1       21 0.47422131E-02 0.41827725E+03</pdfrwt>
<totfact> 0.26998574E+04</totfact>
</mgrwt>
</event>
<event>
 8    1  0.9373234E-006  0.4905102E+03  0.7546771E-02  0.1016286E+00
         21   -1    0    0  504  503  0.00000000000E+00  0.00000000000E+00  0.37930713034E+03  0.37930713034E+03  0.00000000000E+00 0. -1.
         21   -1    0    0  503  504 -0.00000000000E+00 -0.00000000000E+00 -0.15857879252E+03  0.15857879252E+03  0.00000000000E+00 0. -1.
         25    2    1    2    0    0  0.12844562267E+03  0.79645811513E+02 -0.51104432156E+02  0.20268105195E+03  0.12500485014E+03 0.  0.
         25    2    1    2    0    0 -0.12844562267E+03 -0.79645811513E+02  0.27183276997E+03  0.33520487091E+03  0.12501006910E+03 0.  0.
          5    1    3    3  501    0  0.44119133898E+02 -0.16447900939E+02  0.25310566523E+02  0.53663266756E+02  0.47000000000E+01 0.  1.
         -5    1    3    3    0  501  0.84326488771E+02  0.96093712452E+02 -0.76414998679E+02  0.14901778519E+03  0.47000000000E+01 0.  1.
          5    1    4    4  502    0  0.32045687175E+01  0.26178782757E+02  0.44665934117E+02  0.52083909203E+02  0.47000000000E+01 0. -1.
         -5    1    4    4    0  502 -0.13165019139E+03 -0.10582459427E+03  0.22716683586E+03  0.28312096171E+03  0.47000000000E+01 0. -1.
<mgrwt>
<rscale>  0 0.49051021E+03</rscale>
<asrwt>0</asrwt>
<pdfrwt beam="1">  1       21 0.58354943E-01 0.49051021E+03</pdfrwt>
<pdfrwt beam="2">  1       21 0.24396737E-01 0.49051021E+03</pdfrwt>
<totfact> 0.39652393E+04</totfact>
</mgrwt>
</event>
<event>
 8    1  0.9373234E-006  0.2677921E+03  0.7546771E-02  0.1102550E+00
         21   -1    0    0  504  503  0.00000000000E+00  0.00000000000E+00  0.68907376301E+03  0.68907376301E+03  0.00000000000E+00 0.  1.
         21   -1    0    0  503  504 -0.00000000000E+00 -0.00000000000E+00 -0.26017757615E+02  0.26017757615E+02  0.00000000000E+00 0.  1.
         25    2    1    2    0    0 -0.38509305507E+02 -0.17204695801E+02  0.39271313993E+03  0.41427924684E+03  0.12499886368E+03 0.  0.
         25    2    1    2    0    0  0.38509305507E+02  0.17204695801E+02  0.27034286546E+03  0.30081227378E+03  0.12499516384E+03 0.  0.
          5    1    3    3  501    0 -0.72461303537E+02 -0.41922337898E+02  0.31326120319E+03  0.32428813476E+03  0.47000000000E+01 0. -1.
         -5    1    3    3    0  501  0.33951998030E+02  0.24717642098E+02  0.79451936740E+02  0.89991112077E+02  0.47000000000E+01 0. -1.
          5    1    4    4  502    0  0.11666407061E+01 -0.20415859517E+02  0.23718669863E+03  0.23811297398E+03  0.47000000000E+01 0.  1.
         -5    1    4    4    0  502  0.37342664800E+02  0.37620555317E+02  0.33156166835E+02  0.62699299804E+02  0.47000000000E+01 0.  1.
<mgrwt>
<rscale>  0 0.26779211E+03</rscale>
<asrwt>0</asrwt>
<pdfrwt beam="1">  1       21 0.10601133E+00 0.26779211E+03</pdfrwt>
<pdfrwt beam="2">  1       21 0.40027325E-02 0.26779211E+03</pdfrwt>
<totfact> 0.27337662E+05</totfact>
</mgrwt>
</event>
<event>
 8    1  0.9373234E-006  0.3656859E+03  0.7546771E-02  0.1056355E+00
         21   -1    0    0  504  503  0.00000000000E+00  0.00000000000E+00  0.20563125615E+04  0.20563125615E+04  0.00000000000E+00 0. -1.
         21   -1    0    0  503  504 -0.00000000000E+00 -0.00000000000E+00 -0.16258003439E+02  0.16258003439E+02  0.00000000000E+00 0. -1.
         25    2    1    2    0    0 -0.10576704101E+03 -0.75580621761E+02  0.11904616081E+04  0.12040441111E+04  0.12499713523E+03 0.  0.
         25    2    1    2    0    0  0.10576704101E+03  0.75580621761E+02  0.84959294991E+03  0.86852645377E+03  0.12502368978E+03 0.  0.
          5    1    3    3  501    0 -0.25244215220E+02 -0.83885447688E+02  0.82739883195E+03  0.83203663132E+03  0.47000000000E+01 0. -1.
         -5    1    3    3    0  501 -0.80522825788E+02  0.83048259266E+01  0.36306277615E+03  0.37200747980E+03  0.47000000000E+01 0. -1.
          5    1    4    4  502    0  0.13319146160E+03  0.50056979292E+02  0.68902404546E+03  0.70357792166E+03  0.47000000000E+01 0. -1.
         -5    1    4    4    0  502 -0.27424420591E+02  0.25523642470E+02  0.16056890445E+03  0.16494853211E+03  0.47000000000E+01 0. -1.
<mgrwt>
<rscale>  0 0.36568586E+03</rscale>
<asrwt>0</asrwt>
<pdfrwt beam="1">  1       21 0.31635557E+00 0.36568586E+03</pdfrwt>
<pdfrwt beam="2">  1       21 0.25012329E-02 0.36568586E+03</pdfrwt>
<totfact> 0.20664684E+04</totfact>
</mgrwt>
</event>
<event>
 8    1  0.9373234E-006  0.2607631E+03  0.7546771E-02  0.1106686E+00
         21   -1    0    0  504  503  0.00000000000E+00  0.00000000000E+00  0.70585639464E+02  0.70585639464E+02  0.00000000000E+00 0. -1.
         21   -1    0    0  503  504 -0.00000000000E+00 -0.00000000000E+00 -0.24083287612E+03  0.24083287612E+03  0.00000000000E+00 0. -1.
         25    2    1    2    0    0  0.30139858711E+02  0.36648930093E+00 -0.59301767715E+02  0.14158805999E+03  0.12498773412E+03 0.  0.
         25    2    1    2    0    0 -0.30139858711E+02 -0.36648930093E+00 -0.11094546894E+03  0.16983045560E+03  0.12499976468E+03 0.  0.
          5    1    3    3  501    0  0.28837870967E+02 -0.36081208041E+02  0.22728350034E+02  0.51692787416E+02  0.47000000000E+01 0.  1.
         -5    1    3    3    0  501  0.13019877441E+01  0.36447697342E+02 -0.82030117749E+02  0.89895272576E+02  0.47000000000E+01 0.  1.
          5    1    4    4  502    0 -0.73197624494E+02 -0.40802295846E+01 -0.10158107440E+03  0.12536085984E+03  0.47000000000E+01 0. -1.
         -5    1    4    4    0  502  0.43057765783E+02  0.37137402836E+01 -0.93643945480E+01  0.44469595752E+02  0.47000000000E+01 0. -1.
<mgrwt>
<rscale>  0 0.26076305E+03</rscale>
<asrwt>0</asrwt>
<pdfrwt beam="1">  1       21 0.10859329E-01 0.26076305E+03</pdfrwt>
<pdfrwt beam="2">  1       21 0.37051211E-01 0.26076305E+03</pdfrwt>
<totfact> 0.48600511E+05</totfact>
</mgrwt>
</event>
<event>
 8    1  0.9373234E-006  0.2646637E+03  0.7546771E-02  0.1104373E+00
         21   -1    0    0  504  503  0.00000000000E+00  0.00000000000E+00  0.90073920276E+03  0.90073920276E+03  0.00000000000E+00 0.  1.
         21   -1    0    0  503  504 -0.00000000000E+00 -0.00000000000E+00 -0.19441496768E+02  0.19441496768E+02  0.00000000000E+00 0.  1.
         25    2    1    2    0    0  0.42869640081E+02  0.25044714833E+01  0.41665395104E+03  0.43710196510E+03  0.12495412985E+03 0.  0.
         25    2    1    2    0    0 -0.42869640081E+02 -0.25044714833E+01  0.46464375495E+03  0.48307873442E+03  0.12500866456E+03 0.  0.
          5    1    3    3  501    0  0.16013345826E+02  0.38007249372E+02  0.39498071410E+02  0.57298917044E+02  0.47000000000E+01 0.  1.
         -5    1    3    3    0  501  0.26856294255E+02 -0.35502777888E+02  0.37715587963E+03  0.37980304806E+03  0.47000000000E+01 0.  1.
          5    1    4    4  502    0  0.12316029617E+02 -0.49466421729E+02  0.11358205366E+03  0.12458565077E+03  0.47000000000E+01 0. -1.
         -5    1    4    4    0  502 -0.55185669698E+02  0.46961950246E+02  0.35106170129E+03  0.35849308365E+03  0.47000000000E+01 0. -1.
<mgrwt>
<rscale>  0 0.26466370E+03</rscale>
<asrwt>0</asrwt>
<pdfrwt beam="1">  1       21 0.13857523E+00 0.26466370E+03</pdfrwt>
<pdfrwt beam="2">  1       21 0.29910002E-02 0.26466370E+03</pdfrwt>
<totfact> 0.22789813E+05</totfact>
</mgrwt>
</event>
<event>
 8    1  0.9373234E-006  0.3304874E+03  0.7546771E-02  0.1070921E+00
         21   -1    0    0  504  503  0.00000000000E+00  0.00000000000E+00  0.40869188151E+02  0.40869188151E+02  0.00000000000E+00 0.  1.
         21   -1    0    0  503  504 -0.00000000000E+00 -0.00000000000E+00 -0.66811888902E+03  0.66811888902E+03  0.00000000000E+00 0.  1.
         25    2    1    2    0    0  0.10719197971E+03  0.91026110512E+01 -0.33598159907E+03  0.37427398149E+03  0.12499760103E+03 0.  0.
         25    2    1    2    0    0 -0.10719197971E+03 -0.91026110512E+01 -0.29126810179E+03  0.33471409568E+03  0.12499376257E+03 0.  0.
          5    1    3    3  501    0  0.11923784437E+02  0.54567564339E+02 -0.15341063169E+03  0.16333005734E+03  0.47000000000E+01 0. -1.
         -5    1    3    3    0  501  0.95268195268E+02 -0.45464953288E+02 -0.18257096738E+03  0.21094392416E+03  0.47000000000E+01 0. -1.
          5    1    4    4  502    0 -0.12256280767E+03 -0.17261165018E+02 -0.16063377693E+03  0.20284203197E+03  0.47000000000E+01 0. -1.
         -5    1    4    4    0  502  0.15370827964E+02  0.81585539663E+01 -0.13063432486E+03  0.13187206371E+03  0.47000000000E+01 0. -1.
<mgrwt>
<rscale>  0 0.33048738E+03</rscale>
<asrwt>0</asrwt>
<pdfrwt beam="1">  1       21 0.62875671E-02 0.33048738E+03</pdfrwt>
<pdfrwt beam="2">  1       21 0.10278753E+00 0.33048738E+03</pdfrwt>
<totfact> 0.13386918E+05</totfact>
</mgrwt>
</event>
<event>
 8    1  0.9373234E-006  0.3195701E+03  0.7546771E-02  0.1075847E+00
         21   -1    0    0  504  503  0.00000000000E+00  0.00000000000E+00  0.40286550913E+02  0.40286550913E+02  0.00000000000E+00 0. -1.
         21   -1    0    0  503  504 -0.00000000000E+00 -0.00000000000E+00 -0.63374148805E+03  0.63374148805E+03  0.00000000000E+00 0. -1.
         25    2    1    2    0    0 -0.34920519543E+02 -0.56136788231E+02 -0.13978475776E+03  0.19883208936E+03  0.12499455820E+03 0.  0.
         25    2    1    2    0    0  0.34920519543E+02  0.56136788231E+02 -0.45367017938E+03  0.47519594960E+03  0.12499510864E+03 0.  0.
          5    1    3    3  501    0 -0.63940390113E+02 -0.57675307954E+02 -0.14522058390E+03  0.16889618889E+03  0.47000000000E+01 0.  1.
         -5    1    3    3    0  501  0.29019870571E+02  0.15385197224E+01  0.54358261383E+01  0.29935900465E+02  0.47000000000E+01 0.  1.
          5    1    4    4  502    0 -0.43544422333E+02  0.34692602856E+02 -0.24246794576E+03  0.24882220184E+03  0.47000000000E+01 0. -1.
         -5    1    4    4    0  502  0.78464941875E+02  0.21444185375E+02 -0.21120223362E+03  0.22637374776E+03  0.47000000000E+01 0. -1.
<mgrwt>
<rscale>  0 0.31957008E+03</rscale>
<asrwt>0</asrwt>
<pdfrwt beam="1">  1       21 0.61979312E-02 0.31957008E+03</pdfrwt>
<pdfrwt beam="2">  1       21 0.97498687E-01 0.31957008E+03</pdfrwt>
<totfact> 0.15630863E+05</totfact>
</mgrwt>
</event>
<event>
 8    1  0.9373234E-006  0.8543031E+03  0.7546771E-02  0.9484580E-01
         21   -1    0    0  504  503  0.00000000000E+00  0.00000000000E+00  0.10225780291E+03  0.10225780291E+03  0.00000000000E+00 0.  1.
         21   -1    0    0  503  504 -0.00000000000E+00 -0.00000000000E+00 -0.17842985728E+04  0.17842985728E+04  0.00000000000E+00 0.  1.
         25    2    1    2    0    0 -0.26214792222E+03  0.29514357934E+03 -0.10726476508E+04  0.11497944907E+04  0.12499248956E+03 0.  0.
         25    2    1    2    0    0  0.26214792222E+03 -0.29514357934E+03 -0.60939311902E+03  0.73676188497E+03  0.12500734410E+03 0.  0.
          5    1    3    3  501    0 -0.26465028251E+03  0.29591445840E+03 -0.10732974666E+04  0.11443752359E+04  0.47000000000E+01 0.  1.
         -5    1    3    3    0  501  0.25023602849E+01 -0.77087905639E+00  0.64981581601E+00  0.54192547559E+01  0.47000000000E+01 0.  1.
          5    1    4    4  502    0  0.16103456314E+03 -0.26199017971E+03 -0.45176522019E+03  0.54652071229E+03  0.47000000000E+01 0. -1.
         -5    1    4    4    0  502  0.10111335908E+03 -0.33153399636E+02 -0.15762789883E+03  0.19024117268E+03  0.47000000000E+01 0. -1.
<mgrwt>
<rscale>  0 0.85430311E+03</rscale>
<asrwt>0</asrwt>
<pdfrwt beam="1">  1       21 0.15731971E-01 0.85430311E+03</pdfrwt>
<pdfrwt beam="2">  1       21 0.27450745E+00 0.85430311E+03</pdfrwt>
<totfact> 0.12254665E+03</totfact>
</mgrwt>
</event>
<event>
 8    1  0.9373234E-006  0.2635173E+03  0.7546771E-02  0.1105048E+00
         21   -1    0    0  504  503  0.00000000000E+00  0.00000000000E+00  0.19427578790E+02  0.19427578790E+02  0.00000000000E+00 0.  1.
         21   -1    0    0  503  504 -0.00000000000E+00 -0.00000000000E+00 -0.89359255755E+03  0.89359255755E+03  0.00000000000E+00 0.  1.
         25    2    1    2    0    0  0.24503873732E+02  0.19742805479E+02 -0.34251076801E+03  0.36596333487E+03  0.12500127226E+03 0.  0.
         25    2    1    2    0    0 -0.24503873732E+02 -0.19742805479E+02 -0.53165421075E+03  0.54705680147E+03  0.12499890414E+03 0.  0.
          5    1    3    3  501    0 -0.43381976476E+02  0.37753473929E+02 -0.17486648323E+03  0.18414042912E+03  0.47000000000E+01 0. -1.
         -5    1    3    3    0  501  0.67885850208E+02 -0.18010668450E+02 -0.16764428478E+03  0.18182290575E+03  0.47000000000E+01 0. -1.
          5    1    4    4  502    0  0.23645241905E+01 -0.67239220350E+02 -0.37711665181E+03  0.38310019943E+03  0.47000000000E+01 0. -1.
         -5    1    4    4    0  502 -0.26868397923E+02  0.47496414871E+02 -0.15453755894E+03  0.16395660204E+03  0.47000000000E+01 0. -1.
<mgrwt>
<rscale>  0 0.26351728E+03</rscale>
<asrwt>0</asrwt>
<pdfrwt beam="1">  1       21 0.29888589E-02 0.26351728E+03</pdfrwt>
<pdfrwt beam="2">  1       21 0.13747575E+00 0.26351728E+03</pdfrwt>
<totfact> 0.23303344E+05</totfact>
</mgrwt>
</event>
<event>
 8    1  0.9373234E-006  0.2895972E+03  0.7546771E-02  0.1090560E+00
         21   -1    0    0  504  503  0.00000000000E+00  0.00000000000E+00  0.53117244326E+02  0.53117244326E+02  0.00000000000E+00 0. -1.
         21   -1    0    0  503  504 -0.00000000000E+00 -0.00000000000E+00 -0.39472371119E+03  0.39472371119E+03  0.00000000000E+00 0. -1.
         25    2    1    2    0    0  0.35924924306E+02 -0.59596105124E+02 -0.20548807218E+03  0.25037200428E+03  0.12497398444E+03 0.  0.
         25    2    1    2    0    0 -0.35924924306E+02  0.59596105124E+02 -0.13611839469E+03  0.19746895124E+03  0.12499389344E+03 0.  0.
          5    1    3    3  501    0  0.13592959919E+01 -0.93679924478E+02 -0.14454034410E+03  0.17231302043E+03  0.47000000000E+01 0.  1.
         -5    1    3    3    0  501  0.34565628314E+02  0.34083819354E+02 -0.60947728071E+02  0.78058983849E+02  0.47000000000E+01 0.  1.
          5    1    4    4  502    0  0.24439136014E+02  0.22872969984E+02  0.98697490743E+01  0.35212867986E+02  0.47000000000E+01 0. -1.
         -5    1    4    4    0  502 -0.60364060320E+02  0.36723135140E+02 -0.14598814376E+03  0.16225608325E+03  0.47000000000E+01 0. -1.
<mgrwt>
<rscale>  0 0.28959721E+03</rscale>
<asrwt>0</asrwt>
<pdfrwt beam="1">  1       21 0.81718837E-02 0.28959721E+03</pdfrwt>
<pdfrwt beam="2">  1       21 0.60726725E-01 0.28959721E+03</pdfrwt>
<totfact> 0.28504119E+05</totfact>
</mgrwt>
</event>
<event>
 8    1  0.9373234E-006  0.3566519E+03  0.7546771E-02  0.1059917E+00
         21   -1    0    0  504  503  0.00000000000E+00  0.00000000000E+00  0.43405803829E+03  0.43405803829E+03  0.00000000000E+00 0. -1.
         21   -1    0    0  503  504 -0.00000000000E+00 -0.00000000000E+00 -0.73262409511E+02  0.73262409511E+02  0.00000000000E+00 0. -1.
         25    2    1    2    0    0  0.44995468867E+02  0.29690982135E+01  0.11250487721E+02  0.13336717855E+03  0.12500729210E+03 0.  0.
         25    2    1    2    0    0 -0.44995468867E+02 -0.29690982135E+01  0.34954514106E+03  0.37395326925E+03  0.12500333668E+03 0.  0.
          5    1    3    3  501    0  0.55309857075E+02 -0.15547396539E+02  0.58029986090E+02  0.81795300076E+02  0.47000000000E+01 0. -1.
         -5    1    3    3    0  501 -0.10314388209E+02  0.18516494752E+02 -0.46779498369E+02  0.51571878477E+02  0.47000000000E+01 0. -1.
          5    1    4    4  502    0 -0.29410507604E+02  0.45744976149E+01  0.69957475202E+01  0.30934357425E+02  0.47000000000E+01 0. -1.
         -5    1    4    4    0  502 -0.15584961263E+02 -0.75435958284E+01  0.34254939354E+03  0.34301891183E+03  0.47000000000E+01 0. -1.
<mgrwt>
<rscale>  0 0.35665186E+03</rscale>
<asrwt>0</asrwt>
<pdfrwt beam="1">  1       21 0.66778159E-01 0.35665186E+03</pdfrwt>
<pdfrwt beam="2">  1       21 0.11271140E-01 0.35665186E+03</pdfrwt>
<totfact> 0.12855835E+05</totfact>
</mgrwt>
</event>
<event>
 8    1  0.9373234E-006  0.2661876E+03  0.7546771E-02  0.1103482E+00
         21   -1    0    0  504  503  0.00000000000E+00  0.00000000000E+00  0.26931973423E+03  0.26931973423E+03  0.00000000000E+00 0. -1.
         21   -1    0    0  503  504 -0.00000000000E+00 -0.00000000000E+00 -0.65772955936E+02  0.65772955936E+02  0.00000000000E+00 0. -1.
         25    2    1    2    0    0 -0.15873154649E+02 -0.37729626471E+02  0.76190501928E+02  0.15200745915E+03  0.12500317317E+03 0.  0.
         25    2    1    2    0    0  0.15873154649E+02  0.37729626471E+02  0.12735627636E+03  0.18308523101E+03  0.12500039573E+03 0.  0.
          5    1    3    3  501    0  0.32048307881E+02 -0.20805532458E+02 -0.19800521026E+02  0.43291048172E+02  0.47000000000E+01 0.  1.
         -5    1    3    3    0  501 -0.47921462529E+02 -0.16924094013E+02  0.95991022954E+02  0.10871641098E+03  0.47000000000E+01 0.  1.
          5    1    4    4  502    0 -0.22719076374E+02  0.44258991096E+02  0.21390193557E+00  0.49971496657E+02  0.47000000000E+01 0. -1.
         -5    1    4    4    0  502  0.38592231023E+02 -0.65293646249E+01  0.12714237443E+03  0.13311373435E+03  0.47000000000E+01 0. -1.
<mgrwt>
<rscale>  0 0.26618757E+03</rscale>
<asrwt>0</asrwt>
<pdfrwt beam="1">  1       21 0.41433805E-01 0.26618757E+03</pdfrwt>
<pdfrwt beam="2">  1       21 0.10118916E-01 0.26618757E+03</pdfrwt>
<totfact> 0.43894542E+05</totfact>
</mgrwt>
</event>
<event>
 8    1  0.9373234E-006  0.3162772E+03  0.7546771E-02  0.1077376E+00
         21   -1    0    0  504  503  0.00000000000E+00  0.00000000000E+00  0.11400539332E+03  0.11400539332E+03  0.00000000000E+00 0. -1.
         21   -1    0    0  503  504 -0.00000000000E+00 -0.00000000000E+00 -0.21935638311E+03  0.21935638311E+03  0.00000000000E+00 0. -1.
         25    2    1    2    0    0 -0.61594046104E+01  0.17449957985E+02 -0.15289276227E+03  0.19835160344E+03  0.12499889013E+03 0.  0.
         25    2    1    2    0    0  0.61594046104E+01 -0.17449957985E+02  0.47541772477E+02  0.13501017300E+03  0.12500034953E+03 0.  0.
          5    1    3    3  501    0  0.32187170859E+02 -0.38334825263E+02 -0.10136519363E+03  0.11314842145E+03  0.47000000000E+01 0. -1.
         -5    1    3    3    0  501 -0.38346575469E+02  0.55784783248E+02 -0.51527568632E+02  0.85203181991E+02  0.47000000000E+01 0. -1.
          5    1    4    4  502    0 -0.20362288401E+02 -0.65756658716E+02  0.38362591683E+02  0.78945167015E+02  0.47000000000E+01 0.  1.
         -5    1    4    4    0  502  0.26521693011E+02  0.48306700731E+02  0.91791807940E+01  0.56065005982E+02  0.47000000000E+01 0.  1.
<mgrwt>
<rscale>  0 0.31627716E+03</rscale>
<asrwt>0</asrwt>
<pdfrwt beam="1">  1       21 0.17539291E-01 0.31627716E+03</pdfrwt>
<pdfrwt beam="2">  1       21 0.33747136E-01 0.31627716E+03</pdfrwt>
<totfact> 0.24171217E+05</totfact>
</mgrwt>
</event>
<event>
 8    1  0.9373234E-006  0.3237013E+03  0.7546771E-02  0.1073958E+00
         21   -1    0    0  504  503  0.00000000000E+00  0.00000000000E+00  0.12077906359E+03  0.12077906359E+03  0.00000000000E+00 0. -1.
         21   -1    0    0  503  504 -0.00000000000E+00 -0.00000000000E+00 -0.21688892246E+03  0.21688892246E+03  0.00000000000E+00 0. -1.
         25    2    1    2    0    0  0.97939761939E+02  0.42391893322E+01 -0.80377419386E+02  0.17803579864E+03  0.12500419335E+03 0.  0.
         25    2    1    2    0    0 -0.97939761939E+02 -0.42391893322E+01 -0.15732439479E+02  0.15963218742E+03  0.12499903165E+03 0.  0.
          5    1    3    3  501    0  0.37798422843E+02  0.33023882057E+02  0.22617282542E+02  0.55253316870E+02  0.47000000000E+01 0. -1.
         -5    1    3    3    0  501  0.60141339096E+02 -0.28784692725E+02 -0.10299470193E+03  0.12278248177E+03  0.47000000000E+01 0. -1.
          5    1    4    4  502    0 -0.67736695997E+02  0.19540032176E+02  0.47744558713E+02  0.85274296999E+02  0.47000000000E+01 0. -1.
         -5    1    4    4    0  502 -0.30203065942E+02 -0.23779221508E+02 -0.63476998192E+02  0.74357890417E+02  0.47000000000E+01 0. -1.
<mgrwt>
<rscale>  0 0.32370135E+03</rscale>
<asrwt>0</asrwt>
<pdfrwt beam="1">  1       21 0.18581395E-01 0.32370135E+03</pdfrwt>
<pdfrwt beam="2">  1       21 0.33367526E-01 0.32370135E+03</pdfrwt>
<totfact> 0.22160469E+05</totfact>
</mgrwt>
</event>
<event>
 8    1  0.9373234E-006  0.3027497E+03  0.7546771E-02  0.1083874E+00
         21   -1    0    0  504  503  0.00000000000E+00  0.00000000000E+00  0.43497575178E+03  0.43497575178E+03  0.00000000000E+00 0.  1.
         21   -1    0    0  503  504 -0.00000000000E+00 -0.00000000000E+00 -0.52679592564E+02  0.52679592564E+02  0.00000000000E+00 0.  1.
         25    2    1    2    0    0  0.51381557850E+01  0.41742664374E+02  0.31082500029E+03  0.33764872997E+03  0.12500253346E+03 0.  0.
         25    2    1    2    0    0 -0.51381557850E+01 -0.41742664374E+02  0.71471158930E+02  0.15000661438E+03  0.12500002850E+03 0.  0.
          5    1    3    3  501    0  0.60279644322E+02  0.45341435769E+02  0.19793007915E+03  0.21186761798E+03  0.47000000000E+01 0.  1.
         -5    1    3    3    0  501 -0.55141488537E+02 -0.35987713951E+01  0.11289492114E+03  0.12578111198E+03  0.47000000000E+01 0.  1.
          5    1    4    4  502    0 -0.41195631828E+02  0.21688999769E+02  0.59854294260E+02  0.75974465014E+02  0.47000000000E+01 0.  1.
         -5    1    4    4    0  502  0.36057476043E+02 -0.63431664143E+02  0.11616864669E+02  0.74032149363E+02  0.47000000000E+01 0.  1.
<mgrwt>
<rscale>  0 0.30274970E+03</rscale>
<asrwt>0</asrwt>
<pdfrwt beam="1">  1       21 0.66919344E-01 0.30274970E+03</pdfrwt>
<pdfrwt beam="2">  1       21 0.81045530E-02 0.30274970E+03</pdfrwt>
<totfact> 0.23308658E+05</totfact>
</mgrwt>
</event>
<event>
 8    1  0.9373234E-006  0.2616515E+03  0.7546771E-02  0.1106155E+00
         21   -1    0    0  504  503  0.00000000000E+00  0.00000000000E+00  0.12104118328E+03  0.12104118328E+03  0.00000000000E+00 0.  1.
         21   -1    0    0  503  504 -0.00000000000E+00 -0.00000000000E+00 -0.14140131704E+03  0.14140131704E+03  0.00000000000E+00 0.  1.
         25    2    1    2    0    0 -0.12627441314E+02  0.11629581758E+02 -0.44850260461E+02  0.13391710260E+03  0.12501017983E+03 0.  0.
         25    2    1    2    0    0  0.12627441314E+02 -0.11629581758E+02  0.24490126703E+02  0.12852539771E+03  0.12499724839E+03 0.  0.
          5    1    3    3  501    0  0.53368997337E+02  0.63328761509E+01 -0.40388675511E+02  0.67392064122E+02  0.47000000000E+01 0. -1.
         -5    1    3    3    0  501 -0.65996438650E+02  0.52967056068E+01 -0.44615849496E+01  0.66525038482E+02  0.47000000000E+01 0. -1.
          5    1    4    4  502    0  0.46970161602E+02 -0.46510759543E+01  0.61283915709E+02  0.77496044500E+02  0.47000000000E+01 0. -1.
         -5    1    4    4    0  502 -0.34342720288E+02 -0.69785058033E+01 -0.36793789006E+02  0.51029353214E+02  0.47000000000E+01 0. -1.
<mgrwt>
<rscale>  0 0.26165154E+03</rscale>
<asrwt>0</asrwt>
<pdfrwt beam="1">  1       21 0.18621720E-01 0.26165154E+03</pdfrwt>
<pdfrwt beam="2">  1       21 0.21754049E-01 0.26165154E+03</pdfrwt>
<totfact> 0.51308117E+05</totfact>
</mgrwt>
</event>
<event>
 8    1  0.9373234E-006  0.2987051E+03  0.7546771E-02  0.1085890E+00
         21   -1    0    0  504  503  0.00000000000E+00  0.00000000000E+00  0.61797509223E+03  0.61797509223E+03  0.00000000000E+00 0.  1.
         21   -1    0    0  503  504 -0.00000000000E+00 -0.00000000000E+00 -0.36095597490E+02  0.36095597490E+02  0.00000000000E+00 0.  1.
         25    2    1    2    0    0  0.51719594260E+02 -0.62781047226E+02  0.30873836060E+03  0.34286885604E+03  0.12499320308E+03 0.  0.
         25    2    1    2    0    0 -0.51719594260E+02  0.62781047226E+02  0.27314113414E+03  0.31120183367E+03  0.12499650317E+03 0.  0.
          5    1    3    3  501    0 -0.23836205015E+02 -0.15019716163E+02  0.88430105264E+01  0.29900591605E+02  0.47000000000E+01 0. -1.
         -5    1    3    3    0  501  0.75555799275E+02 -0.47761331063E+02  0.29989535008E+03  0.31296826444E+03  0.47000000000E+01 0. -1.
          5    1    4    4  502    0  0.21416796091E+02  0.71993435477E+02  0.13966029659E+03  0.15864684790E+03  0.47000000000E+01 0.  1.
         -5    1    4    4    0  502 -0.73136390352E+02 -0.92123882509E+01  0.13348083755E+03  0.15255498577E+03  0.47000000000E+01 0.  1.
<mgrwt>
<rscale>  0 0.29870507E+03</rscale>
<asrwt>0</asrwt>
<pdfrwt beam="1">  1       21 0.95073084E-01 0.29870507E+03</pdfrwt>
<pdfrwt beam="2">  1       21 0.55531693E-02 0.29870507E+03</pdfrwt>
<totfact> 0.20167230E+05</totfact>
</mgrwt>
</event>
<event>
 8    1  0.9373234E-006  0.2791565E+03  0.7546771E-02  0.1096151E+00
         21   -1    0    0  504  503  0.00000000000E+00  0.00000000000E+00  0.32788611719E+02  0.32788611719E+02  0.00000000000E+00 0. -1.
         21   -1    0    0  503  504 -0.00000000000E+00 -0.00000000000E+00 -0.59417246680E+03  0.59417246680E+03  0.00000000000E+00 0. -1.
         25    2    1    2    0    0  0.17158499938E+02  0.57534111563E+02 -0.31626479640E+03  0.34533036169E+03  0.12500019659E+03 0.  0.
         25    2    1    2    0    0 -0.17158499938E+02 -0.57534111563E+02 -0.24511905869E+03  0.28163071684E+03  0.12501167794E+03 0.  0.
          5    1    3    3  501    0 -0.76631013550E+01 -0.35803870062E+02 -0.13414844031E+03  0.13913494985E+03  0.47000000000E+01 0. -1.
         -5    1    3    3    0  501  0.24821601293E+02  0.93337981625E+02 -0.18211635609E+03  0.20619541183E+03  0.47000000000E+01 0. -1.
          5    1    4    4  502    0 -0.70097416578E+02 -0.22049523807E+02 -0.11308774822E+03  0.13494724195E+03  0.47000000000E+01 0.  1.
         -5    1    4    4    0  502  0.52938916641E+02 -0.35484587756E+02 -0.13203131046E+03  0.14668347489E+03  0.47000000000E+01 0.  1.
<mgrwt>
<rscale>  0 0.27915652E+03</rscale>
<asrwt>0</asrwt>
<pdfrwt beam="1">  1       21 0.50444020E-02 0.27915652E+03</pdfrwt>
<pdfrwt beam="2">  1       21 0.91411144E-01 0.27915652E+03</pdfrwt>
<totfact> 0.26212762E+05</totfact>
</mgrwt>
</event>
<event>
 8    1  0.9373234E-006  0.3018299E+03  0.7546771E-02  0.1084329E+00
         21   -1    0    0  504  503  0.00000000000E+00  0.00000000000E+00  0.21352601513E+03  0.21352601513E+03  0.00000000000E+00 0. -1.
         21   -1    0    0  503  504 -0.00000000000E+00 -0.00000000000E+00 -0.10666297219E+03  0.10666297219E+03  0.00000000000E+00 0. -1.
         25    2    1    2    0    0 -0.66132817628E+01  0.79351062492E+02  0.83611278961E+02  0.17016462185E+03  0.12499930378E+03 0.  0.
         25    2    1    2    0    0  0.66132817628E+01 -0.79351062492E+02  0.23251763986E+02  0.15002436547E+03  0.12500535626E+03 0.  0.
          5    1    3    3  501    0  0.47077035549E+02  0.81431711376E+02  0.50251800800E+02  0.10674598061E+03  0.47000000000E+01 0. -1.
         -5    1    3    3    0  501 -0.53690317312E+02 -0.20806488838E+01  0.33359478160E+02  0.63418641234E+02  0.47000000000E+01 0. -1.
          5    1    4    4  502    0  0.54941042820E+02 -0.81083208277E+02  0.25724686751E+02  0.10137482113E+03  0.47000000000E+01 0.  1.
         -5    1    4    4    0  502 -0.48327761057E+02  0.17321457845E+01 -0.24729227648E+01  0.48649544343E+02  0.47000000000E+01 0.  1.
<mgrwt>
<rscale>  0 0.30182988E+03</rscale>
<asrwt>0</asrwt>
<pdfrwt beam="1">  1       21 0.32850156E-01 0.30182988E+03</pdfrwt>
<pdfrwt beam="2">  1       21 0.16409688E-01 0.30182988E+03</pdfrwt>
<totfact> 0.28948842E+05</totfact>
</mgrwt>
</event>
<event>
 8    1  0.9373234E-006  0.3013472E+03  0.7546771E-02  0.1084569E+00
         21   -1    0    0  504  503  0.00000000000E+00  0.00000000000E+00  0.68258528985E+03  0.68258528985E+03  0.00000000000E+00 0.  1.
         21   -1    0    0  503  504 -0.00000000000E+00 -0.00000000000E+00 -0.33259623838E+02  0.33259623838E+02  0.00000000000E+00 0.  1.
         25    2    1    2    0    0  0.41073864407E+02 -0.69949819598E+02  0.27173890654E+03  0.30991749837E+03  0.12500713128E+03 0.  0.
         25    2    1    2    0    0 -0.41073864407E+02  0.69949819598E+02  0.37758675947E+03  0.40592741532E+03  0.12500106390E+03 0.  0.
          5    1    3    3  501    0  0.36363472738E+02 -0.78333280202E+02  0.79798138492E+02  0.11767853604E+03  0.47000000000E+01 0. -1.
         -5    1    3    3    0  501  0.47103916688E+01  0.83834606035E+01  0.19194076805E+03  0.19223896234E+03  0.47000000000E+01 0. -1.
          5    1    4    4  502    0  0.20842476645E+02 -0.26601218403E+02  0.92916316364E+02  0.98982652520E+02  0.47000000000E+01 0. -1.
         -5    1    4    4    0  502 -0.61916341052E+02  0.96551038001E+02  0.28467044311E+03  0.30694476280E+03  0.47000000000E+01 0. -1.
<mgrwt>
<rscale>  0 0.30134718E+03</rscale>
<asrwt>0</asrwt>
<pdfrwt beam="1">  1       21 0.10501311E+00 0.30134718E+03</pdfrwt>
<pdfrwt beam="2">  1       21 0.51168657E-02 0.30134718E+03</pdfrwt>
<totfact> 0.18264563E+05</totfact>
</mgrwt>
</event>
<event>
 8    1  0.9373234E-006  0.2734204E+03  0.7546771E-02  0.1099338E+00
         21   -1    0    0  504  503  0.00000000000E+00  0.00000000000E+00  0.40980188276E+03  0.40980188276E+03  0.00000000000E+00 0. -1.
         21   -1    0    0  503  504 -0.00000000000E+00 -0.00000000000E+00 -0.45606627562E+02  0.45606627562E+02  0.00000000000E+00 0. -1.
         25    2    1    2    0    0  0.21762432076E+00 -0.53622504354E+02  0.20502581540E+03  0.24604054138E+03  0.12499977075E+03 0.  0.
         25    2    1    2    0    0 -0.21762432076E+00  0.53622504354E+02  0.15916943980E+03  0.20936796895E+03  0.12499846208E+03 0.  0.
          5    1    3    3  501    0  0.13217793683E+02 -0.63381991221E+02  0.32336189648E+02  0.72523830855E+02  0.47000000000E+01 0.  1.
         -5    1    3    3    0  501 -0.13000169362E+02  0.97594868675E+01  0.17268962575E+03  0.17351671052E+03  0.47000000000E+01 0.  1.
          5    1    4    4  502    0 -0.27846840835E+02  0.56328131811E+02  0.18161222458E+02  0.65576100669E+02  0.47000000000E+01 0. -1.
         -5    1    4    4    0  502  0.27629216514E+02 -0.27056274570E+01  0.14100821735E+03  0.14379186828E+03  0.47000000000E+01 0. -1.
<mgrwt>
<rscale>  0 0.27342042E+03</rscale>
<asrwt>0</asrwt>
<pdfrwt beam="1">  1       21 0.63046441E-01 0.27342042E+03</pdfrwt>
<pdfrwt beam="2">  1       21 0.70164045E-02 0.27342042E+03</pdfrwt>
<totfact> 0.34414605E+05</totfact>
</mgrwt>
</event>
<event>
 8    1  0.9373234E-006  0.3112695E+03  0.7546771E-02  0.1079739E+00
         21   -1    0    0  504  503  0.00000000000E+00  0.00000000000E+00  0.13620198016E+03  0.13620198016E+03  0.00000000000E+00 0. -1.
         21   -1    0    0  503  504 -0.00000000000E+00 -0.00000000000E+00 -0.17784012617E+03  0.17784012617E+03  0.00000000000E+00 0. -1.
         25    2    1    2    0    0 -0.75539487224E+02  0.34451009555E+02 -0.62459116606E+02  0.16253970836E+03  0.12499971743E+03 0.  0.
         25    2    1    2    0    0  0.75539487224E+02 -0.34451009555E+02  0.20820970591E+02  0.15150239797E+03  0.12500551022E+03 0.  0.
          5    1    3    3  501    0 -0.89837354308E+02  0.63196715154E+02 -0.24562258684E+02  0.11264976514E+03  0.47000000000E+01 0. -1.
         -5    1    3    3    0  501  0.14297867084E+02 -0.28745705599E+02 -0.37896857922E+02  0.49889943214E+02  0.47000000000E+01 0. -1.
          5    1    4    4  502    0  0.25461886745E+02  0.47265076074E+02  0.11409788672E+02  0.55086916509E+02  0.47000000000E+01 0. -1.
         -5    1    4    4    0  502  0.50077600480E+02 -0.81716085629E+02  0.94111819187E+01  0.96415481461E+02  0.47000000000E+01 0. -1.
<mgrwt>
<rscale>  0 0.31126951E+03</rscale>
<asrwt>0</asrwt>
<pdfrwt beam="1">  1       21 0.20954151E-01 0.31126951E+03</pdfrwt>
<pdfrwt beam="2">  1       21 0.27360019E-01 0.31126951E+03</pdfrwt>
<totfact> 0.26200547E+05</totfact>
</mgrwt>
</event>
<event>
 8    1  0.9373234E-006  0.2996624E+03  0.7546771E-02  0.1085410E+00
         21   -1    0    0  504  503  0.00000000000E+00  0.00000000000E+00  0.27344064055E+02  0.27344064055E+02  0.00000000000E+00 0. -1.
         21   -1    0    0  503  504 -0.00000000000E+00 -0.00000000000E+00 -0.82099652733E+03  0.82099652733E+03  0.00000000000E+00 0. -1.
         25    2    1    2    0    0  0.36891976685E+01  0.24378679251E+02 -0.17362295323E+03  0.21535683295E+03  0.12500282168E+03 0.  0.
         25    2    1    2    0    0 -0.36891976685E+01 -0.24378679251E+02 -0.62002951004E+03  0.63298375844E+03  0.12499565968E+03 0.  0.
          5    1    3    3  501    0  0.10993141604E+02  0.28041379976E+02  0.95475738056E+01  0.31943924600E+02  0.47000000000E+01 0. -1.
         -5    1    3    3    0  501 -0.73039439355E+01 -0.36627007246E+01 -0.18317052704E+03  0.18341290835E+03  0.47000000000E+01 0. -1.
          5    1    4    4  502    0 -0.19248312051E+02 -0.42706339759E+02 -0.59856552461E+03  0.60041411228E+03  0.47000000000E+01 0.  1.
         -5    1    4    4    0  502  0.15559114383E+02  0.18327660508E+02 -0.21463985431E+02  0.32569646154E+02  0.47000000000E+01 0.  1.
<mgrwt>
<rscale>  0 0.29966235E+03</rscale>
<asrwt>0</asrwt>
<pdfrwt beam="1">  1       21 0.42067789E-02 0.29966235E+03</pdfrwt>
<pdfrwt beam="2">  1       21 0.12630716E+00 0.29966235E+03</pdfrwt>
<totfact> 0.16134393E+05</totfact>
</mgrwt>
</event>
<event>
 8    1  0.9373234E-006  0.2792242E+03  0.7546771E-02  0.1096113E+00
         21   -1    0    0  504  503  0.00000000000E+00  0.00000000000E+00  0.37550785315E+03  0.37550785315E+03  0.00000000000E+00 0.  1.
         21   -1    0    0  503  504 -0.00000000000E+00 -0.00000000000E+00 -0.51907128251E+02  0.51907128251E+02  0.00000000000E+00 0.  1.
         25    2    1    2    0    0  0.18088387898E+02  0.58219133841E+02  0.14301520081E+03  0.19948277989E+03  0.12499349778E+03 0.  0.
         25    2    1    2    0    0 -0.18088387898E+02 -0.58219133841E+02  0.18058552409E+03  0.22793220151E+03  0.12500119861E+03 0.  0.
          5    1    3    3  501    0 -0.43649758512E+02 -0.11375881563E+02  0.55465693095E+02  0.71646669218E+02  0.47000000000E+01 0. -1.
         -5    1    3    3    0  501  0.61738146409E+02  0.69595015403E+02  0.87549507718E+02  0.12783611068E+03  0.47000000000E+01 0. -1.
          5    1    4    4  502    0  0.26853052200E+01  0.26599158485E+02  0.11621838098E+03  0.11934625329E+03  0.47000000000E+01 0. -1.
         -5    1    4    4    0  502 -0.20773693118E+02 -0.84818292326E+02  0.64367143103E+02  0.10858594822E+03  0.47000000000E+01 0. -1.
<mgrwt>
<rscale>  0 0.27922417E+03</rscale>
<asrwt>0</asrwt>
<pdfrwt beam="1">  1       21 0.57770437E-01 0.27922417E+03</pdfrwt>
<pdfrwt beam="2">  1       21 0.79857123E-02 0.27922417E+03</pdfrwt>
<totfact> 0.33138064E+05</totfact>
</mgrwt>
</event>
<event>
 8    1  0.9373234E-006  0.3423446E+03  0.7546771E-02  0.1065802E+00
         21   -1    0    0  504  503  0.00000000000E+00  0.00000000000E+00  0.17433148649E+03  0.17433148649E+03  0.00000000000E+00 0.  1.
         21   -1    0    0  503  504 -0.00000000000E+00 -0.00000000000E+00 -0.16807033825E+03  0.16807033825E+03  0.00000000000E+00 0.  1.
         25    2    1    2    0    0 -0.95481622033E+02 -0.57709630894E+02  0.38191046905E+02  0.17184446258E+03  0.12499928644E+03 0.  0.
         25    2    1    2    0    0  0.95481622033E+02  0.57709630894E+02 -0.31929898663E+02  0.17055736216E+03  0.12499261463E+03 0.  0.
          5    1    3    3  501    0 -0.50352962453E+02 -0.89548265158E+02 -0.28405732348E+01  0.10288086060E+03  0.47000000000E+01 0.  1.
         -5    1    3    3    0  501 -0.45128659581E+02  0.31838634264E+02  0.41031620140E+02  0.68963601984E+02  0.47000000000E+01 0.  1.
          5    1    4    4  502    0  0.87304270658E+02  0.86608420283E+02 -0.52559423553E+02  0.13381941990E+03  0.47000000000E+01 0. -1.
         -5    1    4    4    0  502  0.81773513757E+01 -0.28898789390E+02  0.20629524890E+02  0.36737942252E+02  0.47000000000E+01 0. -1.
<mgrwt>
<rscale>  0 0.34234457E+03</rscale>
<asrwt>0</asrwt>
<pdfrwt beam="1">  1       21 0.26820229E-01 0.34234457E+03</pdfrwt>
<pdfrwt beam="2">  1       21 0.25856975E-01 0.34234457E+03</pdfrwt>
<totfact> 0.18084225E+05</totfact>
</mgrwt>
</event>
<event>
 8    1  0.9373234E-006  0.3035957E+03  0.7546771E-02  0.1083457E+00
         21   -1    0    0  504  503  0.00000000000E+00  0.00000000000E+00  0.42509405151E+02  0.42509405151E+02  0.00000000000E+00 0.  1.
         21   -1    0    0  503  504 -0.00000000000E+00 -0.00000000000E+00 -0.54205859483E+03  0.54205859483E+03  0.00000000000E+00 0.  1.
         25    2    1    2    0    0 -0.44016204176E+02 -0.29447677040E+02 -0.11898078787E+03  0.18051112900E+03  0.12499299139E+03 0.  0.
         25    2    1    2    0    0  0.44016204176E+02  0.29447677040E+02 -0.38056840181E+03  0.40405687098E+03  0.12500021848E+03 0.  0.
          5    1    3    3  501    0 -0.29035367321E+02  0.87289648204E+01 -0.13332576705E+03  0.13681044383E+03  0.47000000000E+01 0.  1.
         -5    1    3    3    0  501 -0.14980836854E+02 -0.38176641860E+02  0.14344979177E+02  0.43700685168E+02  0.47000000000E+01 0.  1.
          5    1    4    4  502    0  0.37905850681E+01  0.49042611028E+02 -0.49487874174E+02  0.69933439225E+02  0.47000000000E+01 0. -1.
         -5    1    4    4    0  502  0.40225619107E+02 -0.19594933988E+02 -0.33108052764E+03  0.33412343176E+03  0.47000000000E+01 0. -1.
<mgrwt>
<rscale>  0 0.30359571E+03</rscale>
<asrwt>0</asrwt>
<pdfrwt beam="1">  1       21 0.65399081E-02 0.30359571E+03</pdfrwt>
<pdfrwt beam="2">  1       21 0.83393635E-01 0.30359571E+03</pdfrwt>
<totfact> 0.20628016E+05</totfact>
</mgrwt>
</event>
<event>
 8    1  0.9373234E-006  0.2846713E+03  0.7546771E-02  0.1093165E+00
         21   -1    0    0  504  503  0.00000000000E+00  0.00000000000E+00  0.71526494202E+03  0.71526494202E+03  0.00000000000E+00 0. -1.
         21   -1    0    0  503  504 -0.00000000000E+00 -0.00000000000E+00 -0.28324376557E+02  0.28324376557E+02  0.00000000000E+00 0. -1.
         25    2    1    2    0    0  0.41205009777E+02 -0.51018328890E+02  0.29574938630E+03  0.32770943073E+03  0.12500019513E+03 0.  0.
         25    2    1    2    0    0 -0.41205009777E+02  0.51018328890E+02  0.39119117916E+03  0.41587988784E+03  0.12499927897E+03 0.  0.
          5    1    3    3  501    0  0.55674146382E+02 -0.59296814014E+02  0.29916107029E+03  0.31005670240E+03  0.47000000000E+01 0.  1.
         -5    1    3    3    0  501 -0.14469136605E+02  0.82784851247E+01 -0.34116839858E+01  0.17652728335E+02  0.47000000000E+01 0.  1.
          5    1    4    4  502    0 -0.70270877776E+02 -0.10139698484E+02  0.23602343771E+03  0.24651564433E+03  0.47000000000E+01 0.  1.
         -5    1    4    4    0  502  0.29065867999E+02  0.61158027373E+02  0.15516774145E+03  0.16936424351E+03  0.47000000000E+01 0.  1.
<mgrwt>
<rscale>  0 0.28467127E+03</rscale>
<asrwt>0</asrwt>
<pdfrwt beam="1">  1       21 0.11004075E+00 0.28467127E+03</pdfrwt>
<pdfrwt beam="2">  1       21 0.43575969E-02 0.28467127E+03</pdfrwt>
<totfact> 0.21521851E+05</totfact>
</mgrwt>
</event>
<event>
 8    1  0.9373234E-006  0.2832993E+03  0.7546771E-02  0.1093900E+00
         21   -1    0    0  504  503  0.00000000000E+00  0.00000000000E+00  0.12742128841E+02  0.12742128841E+02  0.00000000000E+00 0.  1.
         21   -1    0    0  503  504 -0.00000000000E+00 -0.00000000000E+00 -0.15746676492E+04  0.15746676492E+04  0.00000000000E+00 0.  1.
         25    2    1    2    0    0  0.42378838490E+02 -0.48457983435E+02 -0.87745984697E+03  0.88865377316E+03  0.12500241357E+03 0.  0.
         25    2    1    2    0    0 -0.42378838490E+02  0.48457983435E+02 -0.68446567336E+03  0.69875600485E+03  0.12499021640E+03 0.  0.
          5    1    3    3  501    0  0.44913725001E+02 -0.65274653564E+02 -0.86058985817E+03  0.86424245271E+03  0.47000000000E+01 0. -1.
         -5    1    3    3    0  501 -0.25348865109E+01  0.16816670128E+02 -0.16869988804E+02  0.24411320450E+02  0.47000000000E+01 0. -1.
          5    1    4    4  502    0 -0.52267524650E+02  0.57645073493E+02 -0.20882944510E+03  0.22290508243E+03  0.47000000000E+01 0. -1.
         -5    1    4    4    0  502  0.98886861601E+01 -0.91870900574E+01 -0.47563622826E+03  0.47585092242E+03  0.47000000000E+01 0. -1.
<mgrwt>
<rscale>  0 0.28329926E+03</rscale>
<asrwt>0</asrwt>
<pdfrwt beam="1">  1       21 0.19603268E-02 0.28329926E+03</pdfrwt>
<pdfrwt beam="2">  1       21 0.24225665E+00 0.28329926E+03</pdfrwt>
<totfact> 0.89099522E+04</totfact>
</mgrwt>
</event>
<event>
 8    1  0.9373234E-006  0.2542385E+03  0.7546771E-02  0.1110655E+00
         21   -1    0    0  504  503  0.00000000000E+00  0.00000000000E+00  0.16626178339E+03  0.16626178339E+03  0.00000000000E+00 0. -1.
         21   -1    0    0  503  504 -0.00000000000E+00 -0.00000000000E+00 -0.97191950960E+02  0.97191950960E+02  0.00000000000E+00 0. -1.
         25    2    1    2    0    0 -0.40271668436E+01 -0.22289710700E+02  0.29970670022E+02  0.13053778586E+03  0.12501529187E+03 0.  0.
         25    2    1    2    0    0  0.40271668436E+01  0.22289710700E+02  0.39099162411E+02  0.13291594849E+03  0.12499942234E+03 0.  0.
          5    1    3    3  501    0 -0.46766047683E+02 -0.54908057055E+02  0.98762868159E+01  0.72949221975E+02  0.47000000000E+01 0.  1.
         -5    1    3    3    0  501  0.42738880839E+02  0.32618346355E+02  0.20094383206E+02  0.57588563889E+02  0.47000000000E+01 0.  1.
          5    1    4    4  502    0 -0.49313531678E+02 -0.19104880194E+02 -0.30530598831E+01  0.53181124738E+02  0.47000000000E+01 0. -1.
         -5    1    4    4    0  502  0.53340698522E+02  0.41394590894E+02  0.42152222294E+02  0.79734823750E+02  0.47000000000E+01 0. -1.
<mgrwt>
<rscale>  0 0.25423853E+03</rscale>
<asrwt>0</asrwt>
<pdfrwt beam="1">  1       21 0.25578736E-01 0.25423853E+03</pdfrwt>
<pdfrwt beam="2">  1       21 0.14952608E-01 0.25423853E+03</pdfrwt>
<totfact> 0.56567396E+05</totfact>
</mgrwt>
</event>
<event>
 8    1  0.9373234E-006  0.3142394E+03  0.7546771E-02  0.1078331E+00
         21   -1    0    0  504  503  0.00000000000E+00  0.00000000000E+00  0.44880886937E+02  0.44880886937E+02  0.00000000000E+00 0.  1.
         21   -1    0    0  503  504 -0.00000000000E+00 -0.00000000000E+00 -0.55004694373E+03  0.55004694373E+03  0.00000000000E+00 0.  1.
         25    2    1    2    0    0 -0.46511577712E+02  0.79080795625E+02 -0.30064407736E+03  0.33827369060E+03  0.12500051761E+03 0.  0.
         25    2    1    2    0    0  0.46511577712E+02 -0.79080795625E+02 -0.20452197943E+03  0.25665414006E+03  0.12500003378E+03 0.  0.
          5    1    3    3  501    0  0.31607364561E+02  0.65909202915E+02 -0.17439864506E+03  0.18915608878E+03  0.47000000000E+01 0.  1.
         -5    1    3    3    0  501 -0.78118942273E+02  0.13171592710E+02 -0.12624543230E+03  0.14911760182E+03  0.47000000000E+01 0.  1.
          5    1    4    4  502    0 -0.12580209104E+02 -0.91249739897E+02 -0.14446039110E+03  0.17139332335E+03  0.47000000000E+01 0. -1.
         -5    1    4    4    0  502  0.59091786816E+02  0.12168944272E+02 -0.60061588326E+02  0.85260816710E+02  0.47000000000E+01 0. -1.
<mgrwt>
<rscale>  0 0.31423937E+03</rscale>
<asrwt>0</asrwt>
<pdfrwt beam="1">  1       21 0.69047516E-02 0.31423937E+03</pdfrwt>
<pdfrwt beam="2">  1       21 0.84622609E-01 0.31423937E+03</pdfrwt>
<totfact> 0.18098404E+05</totfact>
</mgrwt>
</event>
<event>
 8    1  0.9373234E-006  0.5181882E+03  0.7546771E-02  0.1009138E+00
         21   -1    0    0  504  503  0.00000000000E+00  0.00000000000E+00  0.53161472357E+02  0.53161472357E+02  0.00000000000E+00 0.  1.
         21   -1    0    0  503  504 -0.00000000000E+00 -0.00000000000E+00 -0.12627520173E+04  0.12627520173E+04  0.00000000000E+00 0.  1.
         25    2    1    2    0    0  0.13334783336E+03  0.17644392247E+03 -0.47557903991E+03  0.53918184443E+03  0.12501014246E+03 0.  0.
         25    2    1    2    0    0 -0.13334783336E+03 -0.17644392247E+03 -0.73401150505E+03  0.77673164525E+03  0.12500022699E+03 0.  0.
          5    1    3    3  501    0  0.13590482761E+03  0.19145300537E+03 -0.46195581956E+03  0.51821775795E+03  0.47000000000E+01 0.  1.
         -5    1    3    3    0  501 -0.25569942508E+01 -0.15009082897E+02 -0.13623220357E+02  0.20964086479E+02  0.47000000000E+01 0.  1.
          5    1    4    4  502    0 -0.67619590201E+02 -0.14663174077E+03 -0.34362557593E+03  0.37970238716E+03  0.47000000000E+01 0. -1.
         -5    1    4    4    0  502 -0.65728243155E+02 -0.29812181703E+02 -0.39038592912E+03  0.39702925810E+03  0.47000000000E+01 0. -1.
<mgrwt>
<rscale>  0 0.51818821E+03</rscale>
<asrwt>0</asrwt>
<pdfrwt beam="1">  1       21 0.81786887E-02 0.51818821E+03</pdfrwt>
<pdfrwt beam="2">  1       21 0.19426953E+00 0.51818821E+03</pdfrwt>
<totfact> 0.14527742E+04</totfact>
</mgrwt>
</event>
<event>
 8    1  0.9373234E-006  0.2812059E+03  0.7546771E-02  0.1095032E+00
         21   -1    0    0  504  503  0.00000000000E+00  0.00000000000E+00  0.31085448457E+03  0.31085448457E+03  0.00000000000E+00 0.  1.
         21   -1    0    0  503  504 -0.00000000000E+00 -0.00000000000E+00 -0.63596293138E+02  0.63596293138E+02  0.00000000000E+00 0.  1.
         25    2    1    2    0    0  0.25255221347E+01 -0.49217817431E+02  0.17877889867E+03  0.22364185932E+03  0.12500005927E+03 0.  0.
         25    2    1    2    0    0 -0.25255221347E+01  0.49217817431E+02  0.68479292768E+02  0.15080891839E+03  0.12500057805E+03 0.  0.
          5    1    3    3  501    0  0.52855247612E+02 -0.31522811442E+01  0.32866989127E+02  0.62497544358E+02  0.47000000000E+01 0.  1.
         -5    1    3    3    0  501 -0.50329725477E+02 -0.46065536286E+02  0.14591190954E+03  0.16114431496E+03  0.47000000000E+01 0.  1.
          5    1    4    4  502    0  0.58014269443E+02  0.10308066544E+02  0.47121869391E+02  0.75594128541E+02  0.47000000000E+01 0. -1.
         -5    1    4    4    0  502 -0.60539791578E+02  0.38909750886E+02  0.21357423377E+02  0.75214789846E+02  0.47000000000E+01 0. -1.
<mgrwt>
<rscale>  0 0.28120592E+03</rscale>
<asrwt>0</asrwt>
<pdfrwt beam="1">  1       21 0.47823766E-01 0.28120592E+03</pdfrwt>
<pdfrwt beam="2">  1       21 0.97840453E-02 0.28120592E+03</pdfrwt>
<totfact> 0.34542753E+05</totfact>
</mgrwt>
</event>
<event>
 8    1  0.9373234E-006  0.2771549E+03  0.7546771E-02  0.1097253E+00
         21   -1    0    0  504  503  0.00000000000E+00  0.00000000000E+00  0.11737276787E+02  0.11737276787E+02  0.00000000000E+00 0.  1.
         21   -1    0    0  503  504 -0.00000000000E+00 -0.00000000000E+00 -0.16361301958E+04  0.16361301958E+04  0.00000000000E+00 0.  1.
         25    2    1    2    0    0 -0.51096691992E+02 -0.56583806722E+01 -0.99389365171E+03  0.10030428592E+04  0.12500998862E+03 0.  0.
         25    2    1    2    0    0  0.51096691992E+02  0.56583806722E+01 -0.63049926732E+03  0.64482461341E+03  0.12500626693E+03 0.  0.
          5    1    3    3  501    0 -0.66574006720E+02 -0.12755401910E+02 -0.97428497811E+03  0.97665147685E+03  0.47000000000E+01 0.  1.
         -5    1    3    3    0  501  0.15477314728E+02  0.70970212383E+01 -0.19608673591E+02  0.26391382337E+02  0.47000000000E+01 0.  1.
          5    1    4    4  502    0  0.22538031685E+02 -0.41318601616E+02 -0.91444637378E+02  0.10295339439E+03  0.47000000000E+01 0. -1.
         -5    1    4    4    0  502  0.28558660307E+02  0.46976982289E+02 -0.53905462994E+03  0.54187121902E+03  0.47000000000E+01 0. -1.
<mgrwt>
<rscale>  0 0.27715492E+03</rscale>
<asrwt>0</asrwt>
<pdfrwt beam="1">  1       21 0.18057348E-02 0.27715492E+03</pdfrwt>
<pdfrwt beam="2">  1       21 0.25171235E+00 0.27715492E+03</pdfrwt>
<totfact> 0.89675025E+04</totfact>
</mgrwt>
</event>
<event>
 8    1  0.9373234E-006  0.2797426E+03  0.7546771E-02  0.1095830E+00
         21   -1    0    0  504  503  0.00000000000E+00  0.00000000000E+00  0.21794151096E+02  0.21794151096E+02  0.00000000000E+00 0.  1.
         21   -1    0    0  503  504 -0.00000000000E+00 -0.00000000000E+00 -0.89767109248E+03  0.89767109248E+03  0.00000000000E+00 0.  1.
         25    2    1    2    0    0  0.47362122237E+02  0.33883596023E+02 -0.36102439625E+03  0.38646419466E+03  0.12499876146E+03 0.  0.
         25    2    1    2    0    0 -0.47362122237E+02 -0.33883596023E+02 -0.51485254513E+03  0.53300104891E+03  0.12500282481E+03 0.  0.
          5    1    3    3  501    0  0.16343503189E+02 -0.45693731437E+02 -0.17592221253E+03  0.18255339507E+03  0.47000000000E+01 0.  1.
         -5    1    3    3    0  501  0.31018619049E+02  0.79577327461E+02 -0.18510218372E+03  0.20391079959E+03  0.47000000000E+01 0.  1.
          5    1    4    4  502    0 -0.50070458036E+01 -0.66425119962E+02 -0.14952335063E+03  0.16375802103E+03  0.47000000000E+01 0. -1.
         -5    1    4    4    0  502 -0.42355076434E+02  0.32541523939E+02 -0.36532919450E+03  0.36924302788E+03  0.47000000000E+01 0. -1.
<mgrwt>
<rscale>  0 0.27974259E+03</rscale>
<asrwt>0</asrwt>
<pdfrwt beam="1">  1       21 0.33529466E-02 0.27974259E+03</pdfrwt>
<pdfrwt beam="2">  1       21 0.13810323E+00 0.27974259E+03</pdfrwt>
<totfact> 0.18910933E+05</totfact>
</mgrwt>
</event>
<event>
 8    1  0.9373234E-006  0.2742534E+03  0.7546771E-02  0.1098870E+00
         21   -1    0    0  504  503  0.00000000000E+00  0.00000000000E+00  0.46357085589E+02  0.46357085589E+02  0.00000000000E+00 0. -1.
         21   -1    0    0  503  504 -0.00000000000E+00 -0.00000000000E+00 -0.40562805566E+03  0.40562805566E+03  0.00000000000E+00 0. -1.
         25    2    1    2    0    0 -0.40452733006E+02 -0.18392516129E+02 -0.23683993874E+03  0.27146248070E+03  0.12499605430E+03 0.  0.
         25    2    1    2    0    0  0.40452733006E+02  0.18392516129E+02 -0.12243103133E+03  0.18052266055E+03  0.12499746109E+03 0.  0.
          5    1    3    3  501    0  0.26924441354E+02 -0.22892845097E+02 -0.17872754413E+03  0.18224882148E+03  0.47000000000E+01 0.  1.
         -5    1    3    3    0  501 -0.67377174360E+02  0.45003289679E+01 -0.58112394607E+02  0.89213659226E+02  0.47000000000E+01 0.  1.
          5    1    4    4  502    0  0.38848732689E+02 -0.50297708850E+02 -0.56028416168E+02  0.84854917155E+02  0.47000000000E+01 0.  1.
         -5    1    4    4    0  502  0.16040003171E+01  0.68690224979E+02 -0.66402615165E+02  0.95667743390E+02  0.47000000000E+01 0.  1.
<mgrwt>
<rscale>  0 0.27425342E+03</rscale>
<asrwt>0</asrwt>
<pdfrwt beam="1">  1       21 0.71318593E-02 0.27425342E+03</pdfrwt>
<pdfrwt beam="2">  1       21 0.62404317E-01 0.27425342E+03</pdfrwt>
<totfact> 0.34200051E+05</totfact>
</mgrwt>
</event>
<event>
 8    1  0.9373234E-006  0.4209188E+03  0.7546771E-02  0.1036768E+00
         21   -1    0    0  504  503  0.00000000000E+00  0.00000000000E+00  0.19476053645E+04  0.19476053645E+04  0.00000000000E+00 0. -1.
         21   -1    0    0  503  504 -0.00000000000E+00 -0.00000000000E+00 -0.22742364333E+02  0.22742364333E+02  0.00000000000E+00 0. -1.
         25    2    1    2    0    0 -0.15291525533E+03  0.66647530193E+02  0.10982959423E+04  0.11179017395E+04  0.12500141505E+03 0.  0.
         25    2    1    2    0    0  0.15291525533E+03 -0.66647530193E+02  0.82656705788E+03  0.85244598932E+03  0.12500437971E+03 0.  0.
          5    1    3    3  501    0 -0.15029429462E+03  0.94792990654E+02  0.99260081392E+03  0.10083910709E+04  0.47000000000E+01 0. -1.
         -5    1    3    3    0  501 -0.26209607081E+01 -0.28145460461E+02  0.10569512839E+03  0.10951066864E+03  0.47000000000E+01 0. -1.
          5    1    4    4  502    0  0.10385536174E+03 -0.10348929044E+03  0.56382436232E+03  0.58259417346E+03  0.47000000000E+01 0.  1.
         -5    1    4    4    0  502  0.49059893593E+02  0.36841760247E+02  0.26274269556E+03  0.26985181587E+03  0.47000000000E+01 0.  1.
<mgrwt>
<rscale>  0 0.42091876E+03</rscale>
<asrwt>0</asrwt>
<pdfrwt beam="1">  1       21 0.29963146E+00 0.42091876E+03</pdfrwt>
<pdfrwt beam="2">  1       21 0.34988268E-02 0.42091876E+03</pdfrwt>
<totfact> 0.14415034E+04</totfact>
</mgrwt>
</event>
<event>
 8    1  0.9373234E-006  0.2708616E+03  0.7546771E-02  0.1100787E+00
         21   -1    0    0  504  503  0.00000000000E+00  0.00000000000E+00  0.32509891716E+03  0.32509891716E+03  0.00000000000E+00 0. -1.
         21   -1    0    0  503  504 -0.00000000000E+00 -0.00000000000E+00 -0.56418226615E+02  0.56418226615E+02  0.00000000000E+00 0. -1.
         25    2    1    2    0    0  0.48600338935E+02 -0.15237788126E+01  0.10796089451E+03  0.17217593706E+03  0.12499873484E+03 0.  0.
         25    2    1    2    0    0 -0.48600338935E+02  0.15237788126E+01  0.16071979603E+03  0.20934120672E+03  0.12501429177E+03 0.  0.
          5    1    3    3  501    0  0.20269100494E+02 -0.50040001589E+02  0.10197418313E+03  0.11548013777E+03  0.47000000000E+01 0. -1.
         -5    1    3    3    0  501  0.28331238441E+02  0.48516222776E+02  0.59867113851E+01  0.56695799291E+02  0.47000000000E+01 0. -1.
          5    1    4    4  502    0  0.19163300320E+01 -0.22342268639E+01  0.15831339619E+03  0.15841049682E+03  0.47000000000E+01 0.  1.
         -5    1    4    4    0  502 -0.50516668967E+02  0.37580056765E+01  0.24063998411E+01  0.50930709895E+02  0.47000000000E+01 0.  1.
<mgrwt>
<rscale>  0 0.27086162E+03</rscale>
<asrwt>0</asrwt>
<pdfrwt beam="1">  1       21 0.50015217E-01 0.27086162E+03</pdfrwt>
<pdfrwt beam="2">  1       21 0.86797273E-02 0.27086162E+03</pdfrwt>
<totfact> 0.38954168E+05</totfact>
</mgrwt>
</event>
<event>
 8    1  0.9373234E-006  0.4553928E+03  0.7546771E-02  0.1026126E+00
         21   -1    0    0  504  503  0.00000000000E+00  0.00000000000E+00  0.43929918213E+02  0.43929918213E+02  0.00000000000E+00 0. -1.
         21   -1    0    0  503  504 -0.00000000000E+00 -0.00000000000E+00 -0.11801900704E+04  0.11801900704E+04  0.00000000000E+00 0. -1.
         25    2    1    2    0    0  0.97216508938E+02  0.16280584228E+03 -0.52459350795E+03  0.57164711811E+03  0.12500114868E+03 0.  0.
         25    2    1    2    0    0 -0.97216508938E+02 -0.16280584228E+03 -0.61166664427E+03  0.65247287054E+03  0.12501188418E+03 0.  0.
          5    1    3    3  501    0  0.99268072938E+02  0.14501230994E+03 -0.52444886648E+03  0.55312875887E+03  0.47000000000E+01 0.  1.
         -5    1    3    3    0  501 -0.20515640005E+01  0.17793532334E+02 -0.14464147305E+00  0.18518359240E+02  0.47000000000E+01 0.  1.
          5    1    4    4  502    0 -0.87730971452E+02 -0.38550617986E+02 -0.19148708746E+03  0.21417812251E+03  0.47000000000E+01 0. -1.
         -5    1    4    4    0  502 -0.94855374855E+01 -0.12425522429E+03 -0.42017955681E+03  0.43829474803E+03  0.47000000000E+01 0. -1.
<mgrwt>
<rscale>  0 0.45539281E+03</rscale>
<asrwt>0</asrwt>
<pdfrwt beam="1">  1       21 0.67584494E-02 0.45539281E+03</pdfrwt>
<pdfrwt beam="2">  1       21 0.18156769E+00 0.45539281E+03</pdfrwt>
<totfact> 0.25367948E+04</totfact>
</mgrwt>
</event>
<event>
 8    1  0.9373234E-006  0.3625276E+03  0.7546771E-02  0.1057588E+00
         21   -1    0    0  504  503  0.00000000000E+00  0.00000000000E+00  0.85409916709E+03  0.85409916709E+03  0.00000000000E+00 0. -1.
         21   -1    0    0  503  504 -0.00000000000E+00 -0.00000000000E+00 -0.38469264134E+02  0.38469264134E+02  0.00000000000E+00 0. -1.
         25    2    1    2    0    0 -0.87715158804E+02  0.41578277045E+02  0.19025157795E+03  0.24747523728E+03  0.12500251177E+03 0.  0.
         25    2    1    2    0    0  0.87715158804E+02 -0.41578277045E+02  0.62537832501E+03  0.64509319395E+03  0.12499790910E+03 0.  0.
          5    1    3    3  501    0  0.67223870221E+01  0.50632903761E+02  0.25450860245E+02  0.57260088349E+02  0.47000000000E+01 0. -1.
         -5    1    3    3    0  501 -0.94437545826E+02 -0.90546267162E+01  0.16480071770E+03  0.19021514893E+03  0.47000000000E+01 0. -1.
          5    1    4    4  502    0  0.68476373943E+02 -0.52408214840E+02  0.61357242520E+03  0.61961992039E+03  0.47000000000E+01 0.  1.
         -5    1    4    4    0  502  0.19238784860E+02  0.10829937795E+02  0.11805899805E+02  0.25473273558E+02  0.47000000000E+01 0.  1.
<mgrwt>
<rscale>  0 0.36252761E+03</rscale>
<asrwt>0</asrwt>
<pdfrwt beam="1">  1       21 0.13139986E+00 0.36252761E+03</pdfrwt>
<pdfrwt beam="2">  1       21 0.59183490E-02 0.36252761E+03</pdfrwt>
<totfact> 0.79781111E+04</totfact>
</mgrwt>
</event>
<event>
 8    1  0.9373234E-006  0.2566736E+03  0.7546771E-02  0.1109158E+00
         21   -1    0    0  504  503  0.00000000000E+00  0.00000000000E+00  0.10317294920E+04  0.10317294920E+04  0.00000000000E+00 0.  1.
         21   -1    0    0  503  504 -0.00000000000E+00 -0.00000000000E+00 -0.15963812377E+02  0.15963812377E+02  0.00000000000E+00 0.  1.
         25    2    1    2    0    0  0.18931749306E+01  0.28465718660E+02  0.53056733836E+03  0.54583943090E+03  0.12500041018E+03 0.  0.
         25    2    1    2    0    0 -0.18931749306E+01 -0.28465718660E+02  0.48519834124E+03  0.50185387345E+03  0.12500399475E+03 0.  0.
          5    1    3    3  501    0  0.26445001140E+02  0.71139450784E+02  0.37379771308E+03  0.38145377157E+03  0.47000000000E+01 0.  1.
         -5    1    3    3    0  501 -0.24551826210E+02 -0.42673732124E+02  0.15676962528E+03  0.16438565933E+03  0.47000000000E+01 0.  1.
          5    1    4    4  502    0 -0.51815780300E+02 -0.11886263015E+02  0.10282045108E+03  0.11584599042E+03  0.47000000000E+01 0.  1.
         -5    1    4    4    0  502  0.49922605370E+02 -0.16579455645E+02  0.38237789016E+03  0.38600788303E+03  0.47000000000E+01 0.  1.
<mgrwt>
<rscale>  0 0.25667361E+03</rscale>
<asrwt>0</asrwt>
<pdfrwt beam="1">  1       21 0.15872756E+00 0.25667361E+03</pdfrwt>
<pdfrwt beam="2">  1       21 0.24559719E-02 0.25667361E+03</pdfrwt>
<totfact> 0.22083272E+05</totfact>
</mgrwt>
</event>
<event>
 8    1  0.9373234E-006  0.2989214E+03  0.7546771E-02  0.1085781E+00
         21   -1    0    0  504  503  0.00000000000E+00  0.00000000000E+00  0.54556713715E+02  0.54556713715E+02  0.00000000000E+00 0. -1.
         21   -1    0    0  503  504 -0.00000000000E+00 -0.00000000000E+00 -0.40945476653E+03  0.40945476653E+03  0.00000000000E+00 0. -1.
         25    2    1    2    0    0 -0.33256351279E+02 -0.63993517665E+02 -0.23783417241E+03  0.27819121725E+03  0.12499641829E+03 0.  0.
         25    2    1    2    0    0  0.33256351279E+02  0.63993517665E+02 -0.11706388040E+03  0.18582026299E+03  0.12499625130E+03 0.  0.
          5    1    3    3  501    0 -0.61163855719E+02 -0.57616802008E+02 -0.74799274237E+02  0.11259544638E+03  0.47000000000E+01 0. -1.
         -5    1    3    3    0  501  0.27907504440E+02 -0.63767156566E+01 -0.16303489817E+03  0.16559577087E+03  0.47000000000E+01 0. -1.
          5    1    4    4  502    0  0.66070636834E+02  0.72816000153E+02 -0.49803701734E+02  0.11031771225E+03  0.47000000000E+01 0.  1.
         -5    1    4    4    0  502 -0.32814285555E+02 -0.88224824880E+01 -0.67260178670E+02  0.75502550742E+02  0.47000000000E+01 0.  1.
<mgrwt>
<rscale>  0 0.29892144E+03</rscale>
<asrwt>0</asrwt>
<pdfrwt beam="1">  1       21 0.83933410E-02 0.29892144E+03</pdfrwt>
<pdfrwt beam="2">  1       21 0.62993038E-01 0.29892144E+03</pdfrwt>
<totfact> 0.25054600E+05</totfact>
</mgrwt>
</event>
<event>
 8    1  0.9373234E-006  0.3595409E+03  0.7546771E-02  0.1058766E+00
         21   -1    0    0  504  503  0.00000000000E+00  0.00000000000E+00  0.64498293310E+02  0.64498293310E+02  0.00000000000E+00 0. -1.
         21   -1    0    0  503  504 -0.00000000000E+00 -0.00000000000E+00 -0.50105856677E+03  0.50105856677E+03  0.00000000000E+00 0. -1.
         25    2    1    2    0    0 -0.67582310388E+02 -0.10363235799E+03 -0.15971962593E+03  0.23757586786E+03  0.12499959913E+03 0.  0.
         25    2    1    2    0    0  0.67582310388E+02  0.10363235799E+03 -0.27684064753E+03  0.32798099222E+03  0.12499501122E+03 0.  0.
          5    1    3    3  501    0 -0.48985787232E+02 -0.10674784787E+03 -0.52720513732E+02  0.12882644505E+03  0.47000000000E+01 0. -1.
         -5    1    3    3    0  501 -0.18596523156E+02  0.31154898827E+01 -0.10699911220E+03  0.10874942281E+03  0.47000000000E+01 0. -1.
          5    1    4    4  502    0  0.18868934447E+02 -0.12132105197E+02 -0.14125650735E+03  0.14310386275E+03  0.47000000000E+01 0.  1.
         -5    1    4    4    0  502  0.48713375941E+02  0.11576446319E+03 -0.13558414017E+03  0.18487712947E+03  0.47000000000E+01 0.  1.
<mgrwt>
<rscale>  0 0.35954094E+03</rscale>
<asrwt>0</asrwt>
<pdfrwt beam="1">  1       21 0.99228144E-02 0.35954094E+03</pdfrwt>
<pdfrwt beam="2">  1       21 0.77085933E-01 0.35954094E+03</pdfrwt>
<totfact> 0.11695220E+05</totfact>
</mgrwt>
</event>
<event>
 8    1  0.9373234E-006  0.3185730E+03  0.7546771E-02  0.1076308E+00
         21   -1    0    0  504  503  0.00000000000E+00  0.00000000000E+00  0.15553603807E+03  0.15553603807E+03  0.00000000000E+00 0.  1.
         21   -1    0    0  503  504 -0.00000000000E+00 -0.00000000000E+00 -0.16312735522E+03  0.16312735522E+03  0.00000000000E+00 0.  1.
         25    2    1    2    0    0  0.47425552535E+02  0.50324028289E+02  0.66684246638E+02  0.15765170769E+03  0.12500232531E+03 0.  0.
         25    2    1    2    0    0 -0.47425552535E+02 -0.50324028289E+02 -0.74275563788E+02  0.16101168559E+03  0.12500485057E+03 0.  0.
          5    1    3    3  501    0 -0.37233172085E+02  0.43047768671E+02  0.34168006333E+02  0.66550448142E+02  0.47000000000E+01 0.  1.
         -5    1    3    3    0  501  0.84658724620E+02  0.72762596179E+01  0.32516240305E+02  0.91101259552E+02  0.47000000000E+01 0.  1.
          5    1    4    4  502    0  0.96459959821E+01  0.33252504081E+02  0.74162358213E+00  0.34948737769E+02  0.47000000000E+01 0.  1.
         -5    1    4    4    0  502 -0.57071548517E+02 -0.83576532370E+02 -0.75017187370E+02  0.12606294782E+03  0.47000000000E+01 0.  1.
<mgrwt>
<rscale>  0 0.31857296E+03</rscale>
<asrwt>0</asrwt>
<pdfrwt beam="1">  1       21 0.23928621E-01 0.31857296E+03</pdfrwt>
<pdfrwt beam="2">  1       21 0.25096516E-01 0.31857296E+03</pdfrwt>
<totfact> 0.24009174E+05</totfact>
</mgrwt>
</event>
<event>
 8    1  0.9373234E-006  0.3655402E+03  0.7546771E-02  0.1056411E+00
         21   -1    0    0  504  503  0.00000000000E+00  0.00000000000E+00  0.26733697357E+03  0.26733697357E+03  0.00000000000E+00 0. -1.
         21   -1    0    0  503  504 -0.00000000000E+00 -0.00000000000E+00 -0.12495428553E+03  0.12495428553E+03  0.00000000000E+00 0. -1.
         25    2    1    2    0    0  0.10799156643E+03  0.22960564159E+02  0.15143880873E+03  0.22527176720E+03  0.12499716150E+03 0.  0.
         25    2    1    2    0    0 -0.10799156643E+03 -0.22960564159E+02 -0.90561206897E+01  0.16701949189E+03  0.12499652565E+03 0.  0.
          5    1    3    3  501    0  0.11011648309E+03  0.31573332392E+01  0.16661428984E+03  0.19979494533E+03  0.47000000000E+01 0. -1.
         -5    1    3    3    0  501 -0.21249166614E+01  0.19803230920E+02 -0.15175481109E+02  0.25476821869E+02  0.47000000000E+01 0. -1.
          5    1    4    4  502    0  0.16650745664E+02  0.26840783188E+02 -0.70314578388E+01  0.32698721269E+02  0.47000000000E+01 0. -1.
         -5    1    4    4    0  502 -0.12464231209E+03 -0.49801347346E+02 -0.20246628509E+01  0.13432077062E+03  0.47000000000E+01 0. -1.
<mgrwt>
<rscale>  0 0.36554015E+03</rscale>
<asrwt>0</asrwt>
<pdfrwt beam="1">  1       21 0.41128765E-01 0.36554015E+03</pdfrwt>
<pdfrwt beam="2">  1       21 0.19223736E-01 0.36554015E+03</pdfrwt>
<totfact> 0.13488491E+05</totfact>
</mgrwt>
</event>
<event>
 8    1  0.9373234E-006  0.2609669E+03  0.7546771E-02  0.1106564E+00
         21   -1    0    0  504  503  0.00000000000E+00  0.00000000000E+00  0.12017856384E+04  0.12017856384E+04  0.00000000000E+00 0. -1.
         21   -1    0    0  503  504 -0.00000000000E+00 -0.00000000000E+00 -0.14167196145E+02  0.14167196145E+02  0.00000000000E+00 0. -1.
         25    2    1    2    0    0 -0.12032616452E+02 -0.29460940865E+02  0.50203370157E+03  0.51833930083E+03  0.12500024952E+03 0.  0.
         25    2    1    2    0    0  0.12032616452E+02  0.29460940865E+02  0.68558474068E+03  0.69761353370E+03  0.12500189944E+03 0.  0.
          5    1    3    3  501    0  0.41573769205E+02  0.24526421304E+02  0.13429669444E+03  0.14278520849E+03  0.47000000000E+01 0.  1.
         -5    1    3    3    0  501 -0.53606385658E+02 -0.53987362169E+02  0.36773700713E+03  0.37555409234E+03  0.47000000000E+01 0.  1.
          5    1    4    4  502    0  0.56697111538E+02  0.11346670430E+02  0.56030077701E+03  0.56329597913E+03  0.47000000000E+01 0. -1.
         -5    1    4    4    0  502 -0.44664495086E+02  0.18114270435E+02  0.12528396366E+03  0.13431755457E+03  0.47000000000E+01 0. -1.
<mgrwt>
<rscale>  0 0.26096692E+03</rscale>
<asrwt>0</asrwt>
<pdfrwt beam="1">  1       21 0.18489002E+00 0.26096692E+03</pdfrwt>
<pdfrwt beam="2">  1       21 0.21795696E-02 0.26096692E+03</pdfrwt>
<totfact> 0.17508957E+05</totfact>
</mgrwt>
</event>
<event>
 8    1  0.9373234E-006  0.3499214E+03  0.7546771E-02  0.1062647E+00
         21   -1    0    0  504  503  0.00000000000E+00  0.00000000000E+00  0.21675097824E+03  0.21675097824E+03  0.00000000000E+00 0. -1.
         21   -1    0    0  503  504 -0.00000000000E+00 -0.00000000000E+00 -0.14122771334E+03  0.14122771334E+03  0.00000000000E+00 0. -1.
         25    2    1    2    0    0  0.74016083081E+02 -0.93791963028E+02  0.10488465417E+02  0.17323750583E+03  0.12500365049E+03 0.  0.
         25    2    1    2    0    0 -0.74016083081E+02  0.93791963028E+02  0.65034799484E+02  0.18474118576E+03  0.12499787074E+03 0.  0.
          5    1    3    3  501    0  0.86188995049E+02 -0.10993166049E+02 -0.80674428354E+01  0.87387448763E+02  0.47000000000E+01 0. -1.
         -5    1    3    3    0  501 -0.12172911968E+02 -0.82798796979E+02  0.18555908253E+02  0.85850057065E+02  0.47000000000E+01 0. -1.
          5    1    4    4  502    0 -0.14057621432E+02 -0.93541872115E+01  0.62927753129E+02  0.65323117291E+02  0.47000000000E+01 0. -1.
         -5    1    4    4    0  502 -0.59958461650E+02  0.10314615024E+03  0.21070463555E+01  0.11941806847E+03  0.47000000000E+01 0. -1.
<mgrwt>
<rscale>  0 0.34992139E+03</rscale>
<asrwt>0</asrwt>
<pdfrwt beam="1">  1       21 0.33346304E-01 0.34992139E+03</pdfrwt>
<pdfrwt beam="2">  1       21 0.21727340E-01 0.34992139E+03</pdfrwt>
<totfact> 0.16415432E+05</totfact>
</mgrwt>
</event>
<event>
 8    1  0.9373234E-006  0.5196874E+03  0.7546771E-02  0.1008764E+00
         21   -1    0    0  504  503  0.00000000000E+00  0.00000000000E+00  0.14441881414E+03  0.14441881414E+03  0.00000000000E+00 0. -1.
         21   -1    0    0  503  504 -0.00000000000E+00 -0.00000000000E+00 -0.46752042918E+03  0.46752042918E+03  0.00000000000E+00 0. -1.
         25    2    1    2    0    0 -0.20956944536E+03 -0.85555321787E+02 -0.19171298802E+03  0.32189708676E+03  0.12499919669E+03 0.  0.
         25    2    1    2    0    0  0.20956944536E+03  0.85555321787E+02 -0.13138862702E+03  0.29004215656E+03  0.12498966261E+03 0.  0.
          5    1    3    3  501    0 -0.26784058566E+02 -0.62172311041E+02 -0.85483807349E+02  0.10914372805E+03  0.47000000000E+01 0. -1.
         -5    1    3    3    0  501 -0.18278538679E+03 -0.23383010746E+02 -0.10622918067E+03  0.21275335871E+03  0.47000000000E+01 0. -1.
          5    1    4    4  502    0  0.52211981909E+02  0.78858980063E+02 -0.81001111289E+02  0.12461179648E+03  0.47000000000E+01 0. -1.
         -5    1    4    4    0  502  0.15735746345E+03  0.66963417244E+01 -0.50387515728E+02  0.16543036008E+03  0.47000000000E+01 0. -1.
<mgrwt>
<rscale>  0 0.51968739E+03</rscale>
<asrwt>0</asrwt>
<pdfrwt beam="1">  1       21 0.22218279E-01 0.51968739E+03</pdfrwt>
<pdfrwt beam="2">  1       21 0.71926219E-01 0.51968739E+03</pdfrwt>
<totfact> 0.29649896E+04</totfact>
</mgrwt>
</event>
<event>
 8    1  0.9373234E-006  0.2923547E+03  0.7546771E-02  0.1089126E+00
         21   -1    0    0  504  503  0.00000000000E+00  0.00000000000E+00  0.97805964096E+02  0.97805964096E+02  0.00000000000E+00 0.  1.
         21   -1    0    0  503  504 -0.00000000000E+00 -0.00000000000E+00 -0.21847149018E+03  0.21847149018E+03  0.00000000000E+00 0.  1.
         25    2    1    2    0    0  0.56548691485E+02 -0.94186600941E+01 -0.11394814485E+03  0.17859217285E+03  0.12499807527E+03 0.  0.
         25    2    1    2    0    0 -0.56548691485E+02  0.94186600941E+01 -0.67173812301E+01  0.13768528142E+03  0.12500259135E+03 0.  0.
          5    1    3    3  501    0  0.46522473014E+02  0.53013027105E+02 -0.40144281704E+02  0.81291911601E+02  0.47000000000E+01 0.  1.
         -5    1    3    3    0  501  0.10026218471E+02 -0.62431687199E+02 -0.73803863147E+02  0.97300261248E+02  0.47000000000E+01 0.  1.
          5    1    4    4  502    0  0.23393168620E+02 -0.22195360716E+02  0.29807207100E+02  0.44163717807E+02  0.47000000000E+01 0. -1.
         -5    1    4    4    0  502 -0.79941860104E+02  0.31614020810E+02 -0.36524588330E+02  0.93521563618E+02  0.47000000000E+01 0. -1.
<mgrwt>
<rscale>  0 0.29235468E+03</rscale>
<asrwt>0</asrwt>
<pdfrwt beam="1">  1       21 0.15047072E-01 0.29235468E+03</pdfrwt>
<pdfrwt beam="2">  1       21 0.33610998E-01 0.29235468E+03</pdfrwt>
<totfact> 0.32516862E+05</totfact>
</mgrwt>
</event>
<event>
 8    1  0.9373234E-006  0.4071406E+03  0.7546771E-02  0.1041335E+00
         21   -1    0    0  504  503  0.00000000000E+00  0.00000000000E+00  0.17469872595E+03  0.17469872595E+03  0.00000000000E+00 0.  1.
         21   -1    0    0  503  504 -0.00000000000E+00 -0.00000000000E+00 -0.23721332129E+03  0.23721332129E+03  0.00000000000E+00 0.  1.
         25    2    1    2    0    0  0.13970380451E+03 -0.48884271954E+02  0.31993963718E+02  0.19635863483E+03  0.12500509878E+03 0.  0.
         25    2    1    2    0    0 -0.13970380451E+03  0.48884271954E+02 -0.94508559050E+02  0.21555341241E+03  0.12499832331E+03 0.  0.
          5    1    3    3  501    0  0.12323052568E+03 -0.86751533610E+02  0.15233352636E+02  0.15154450197E+03  0.47000000000E+01 0. -1.
         -5    1    3    3    0  501  0.16473278822E+02  0.37867261657E+02  0.16760611082E+02  0.44814132864E+02  0.47000000000E+01 0. -1.
          5    1    4    4  502    0 -0.15361891924E+03  0.34914242998E+02 -0.10812841238E+03  0.19113246788E+03  0.47000000000E+01 0. -1.
         -5    1    4    4    0  502  0.13915114738E+02  0.13970028955E+02  0.13619853327E+02  0.24420944532E+02  0.47000000000E+01 0. -1.
<mgrwt>
<rscale>  0 0.40714059E+03</rscale>
<asrwt>0</asrwt>
<pdfrwt beam="1">  1       21 0.26876727E-01 0.40714059E+03</pdfrwt>
<pdfrwt beam="2">  1       21 0.36494357E-01 0.40714059E+03</pdfrwt>
<totfact> 0.89675239E+04</totfact>
</mgrwt>
</event>
<event>
 8    1  0.9373234E-006  0.2550501E+03  0.7546771E-02  0.1110154E+00
         21   -1    0    0  504  503  0.00000000000E+00  0.00000000000E+00  0.59586574262E+03  0.59586574262E+03  0.00000000000E+00 0. -1.
         21   -1    0    0  503  504 -0.00000000000E+00 -0.00000000000E+00 -0.27292446445E+02  0.27292446445E+02  0.00000000000E+00 0. -1.
         25    2    1    2    0    0  0.37970717795E+01 -0.63620344957E+01  0.22530861104E+03  0.25776746671E+03  0.12500081380E+03 0.  0.
         25    2    1    2    0    0 -0.37970717795E+01  0.63620344957E+01  0.34326468513E+03  0.36539072235E+03  0.12499937073E+03 0.  0.
          5    1    3    3  501    0 -0.46709753734E+01 -0.41901221748E+02  0.21551785835E+03  0.21965328967E+03  0.47000000000E+01 0.  1.
         -5    1    3    3    0  501  0.84680471529E+01  0.35539187253E+02  0.97907526823E+01  0.38114177038E+02  0.47000000000E+01 0.  1.
          5    1    4    4  502    0 -0.42447692671E+02  0.38060370491E+02  0.86105485353E+02  0.10337622078E+03  0.47000000000E+01 0. -1.
         -5    1    4    4    0  502  0.38650620892E+02 -0.31698335995E+02  0.25715919978E+03  0.26201450157E+03  0.47000000000E+01 0. -1.
<mgrwt>
<rscale>  0 0.25505006E+03</rscale>
<asrwt>0</asrwt>
<pdfrwt beam="1">  1       21 0.91671643E-01 0.25505006E+03</pdfrwt>
<pdfrwt beam="2">  1       21 0.41988384E-02 0.25505006E+03</pdfrwt>
<totfact> 0.35775517E+05</totfact>
</mgrwt>
</event>
<event>
 8    1  0.9373234E-006  0.3239858E+03  0.7546771E-02  0.1073829E+00
         21   -1    0    0  504  503  0.00000000000E+00  0.00000000000E+00  0.14452607436E+03  0.14452607436E+03  0.00000000000E+00 0.  1.
         21   -1    0    0  503  504 -0.00000000000E+00 -0.00000000000E+00 -0.18157070983E+03  0.18157070983E+03  0.00000000000E+00 0.  1.
         25    2    1    2    0    0  0.83305321854E+02 -0.13792229692E+02 -0.77967556983E+02  0.16979821081E+03  0.12498996041E+03 0.  0.
         25    2    1    2    0    0 -0.83305321854E+02  0.13792229692E+02  0.40922921510E+02  0.15629857339E+03  0.12499822514E+03 0.  0.
          5    1    3    3  501    0  0.99910726022E+02  0.43171196705E+01 -0.13968786718E+02  0.10108416146E+03  0.47000000000E+01 0.  1.
         -5    1    3    3    0  501 -0.16605404167E+02 -0.18109349363E+02 -0.63998770265E+02  0.68714049344E+02  0.47000000000E+01 0.  1.
          5    1    4    4  502    0 -0.42519026792E+02  0.64469328624E+02 -0.33947568418E+01  0.77445311973E+02  0.47000000000E+01 0.  1.
         -5    1    4    4    0  502 -0.40786295063E+02 -0.50677098932E+02  0.44317678351E+02  0.78853261413E+02  0.47000000000E+01 0.  1.
<mgrwt>
<rscale>  0 0.32398581E+03</rscale>
<asrwt>0</asrwt>
<pdfrwt beam="1">  1       21 0.22234781E-01 0.32398581E+03</pdfrwt>
<pdfrwt beam="2">  1       21 0.27933955E-01 0.32398581E+03</pdfrwt>
<totfact> 0.22416812E+05</totfact>
</mgrwt>
</event>
<event>
 8    1  0.9373234E-006  0.2913579E+03  0.7546771E-02  0.1089642E+00
         21   -1    0    0  504  503  0.00000000000E+00  0.00000000000E+00  0.12100129875E+04  0.12100129875E+04  0.00000000000E+00 0. -1.
         21   -1    0    0  503  504 -0.00000000000E+00 -0.00000000000E+00 -0.17538952350E+02  0.17538952350E+02  0.00000000000E+00 0. -1.
         25    2    1    2    0    0 -0.57646005355E+02 -0.20092127090E+02  0.41401277075E+03  0.43675870231E+03  0.12499933678E+03 0.  0.
         25    2    1    2    0    0  0.57646005355E+02  0.20092127090E+02  0.77846126441E+03  0.79079323755E+03  0.12500099545E+03 0.  0.
          5    1    3    3  501    0 -0.28454313955E+02  0.21358341738E+02  0.23402052654E+02  0.42843585434E+02  0.47000000000E+01 0. -1.
         -5    1    3    3    0  501 -0.29191691400E+02 -0.41450468827E+02  0.39061071810E+03  0.39391511688E+03  0.47000000000E+01 0. -1.
          5    1    4    4  502    0  0.64434679170E+02  0.62607000772E+02  0.40751294550E+03  0.41732523908E+03  0.47000000000E+01 0.  1.
         -5    1    4    4    0  502 -0.67886738151E+01 -0.42514873682E+02  0.37094831891E+03  0.37346799847E+03  0.47000000000E+01 0.  1.
<mgrwt>
<rscale>  0 0.29135793E+03</rscale>
<asrwt>0</asrwt>
<pdfrwt beam="1">  1       21 0.18615578E+00 0.29135793E+03</pdfrwt>
<pdfrwt beam="2">  1       21 0.26983013E-02 0.29135793E+03</pdfrwt>
<totfact> 0.11924454E+05</totfact>
</mgrwt>
</event>
<event>
 8    1  0.9373234E-006  0.2905723E+03  0.7546771E-02  0.1090051E+00
         21   -1    0    0  504  503  0.00000000000E+00  0.00000000000E+00  0.15578272819E+03  0.15578272819E+03  0.00000000000E+00 0. -1.
         21   -1    0    0  503  504 -0.00000000000E+00 -0.00000000000E+00 -0.13549681452E+03  0.13549681452E+03  0.00000000000E+00 0. -1.
         25    2    1    2    0    0 -0.20062189416E+02 -0.63541359325E+02 -0.22039375300E+02  0.14337536694E+03  0.12502306184E+03 0.  0.
         25    2    1    2    0    0  0.20062189416E+02  0.63541359325E+02  0.42325288969E+02  0.14790417577E+03  0.12507685371E+03 0.  0.
          5    1    3    3  501    0  0.50035448199E+02 -0.39082942445E+02 -0.26254801190E+02  0.68865281907E+02  0.47000000000E+01 0. -1.
         -5    1    3    3    0  501 -0.70097637615E+02 -0.24458416880E+02  0.42154258901E+01  0.74510085028E+02  0.47000000000E+01 0. -1.
          5    1    4    4  502    0 -0.43012535713E+02 -0.97983258287E+01  0.75408291169E+01  0.45000439123E+02  0.47000000000E+01 0. -1.
         -5    1    4    4    0  502  0.63074725129E+02  0.73339685154E+02  0.34784459852E+02  0.10290373665E+03  0.47000000000E+01 0. -1.
<mgrwt>
<rscale>  0 0.29057229E+03</rscale>
<asrwt>0</asrwt>
<pdfrwt beam="1">  1       21 0.23966574E-01 0.29057229E+03</pdfrwt>
<pdfrwt beam="2">  1       21 0.20845664E-01 0.29057229E+03</pdfrwt>
<totfact> 0.34319006E+05</totfact>
</mgrwt>
</event>
<event>
 8    1  0.9373234E-006  0.2949708E+03  0.7546771E-02  0.1087782E+00
         21   -1    0    0  504  503  0.00000000000E+00  0.00000000000E+00  0.40830298727E+03  0.40830298727E+03  0.00000000000E+00 0. -1.
         21   -1    0    0  503  504 -0.00000000000E+00 -0.00000000000E+00 -0.53274007339E+02  0.53274007339E+02  0.00000000000E+00 0. -1.
         25    2    1    2    0    0 -0.71473311793E+02 -0.10208713222E+02  0.13015694228E+03  0.19436758253E+03  0.12500110156E+03 0.  0.
         25    2    1    2    0    0  0.71473311793E+02  0.10208713222E+02  0.22487203765E+03  0.26720941208E+03  0.12498313671E+03 0.  0.
          5    1    3    3  501    0 -0.24613313047E+02 -0.33234063177E+02 -0.11616294975E+02  0.43212804160E+02  0.47000000000E+01 0. -1.
         -5    1    3    3    0  501 -0.46859998746E+02  0.23025349955E+02  0.14177323726E+03  0.15115477837E+03  0.47000000000E+01 0. -1.
          5    1    4    4  502    0  0.77288918292E+01  0.61073582854E+02  0.82147703780E+02  0.10276212107E+03  0.47000000000E+01 0. -1.
         -5    1    4    4    0  502  0.63744419964E+02 -0.50864869632E+02  0.14272433387E+03  0.16444729100E+03  0.47000000000E+01 0. -1.
<mgrwt>
<rscale>  0 0.29497075E+03</rscale>
<asrwt>0</asrwt>
<pdfrwt beam="1">  1       21 0.62815842E-01 0.29497075E+03</pdfrwt>
<pdfrwt beam="2">  1       21 0.81960014E-02 0.29497075E+03</pdfrwt>
<totfact> 0.26310623E+05</totfact>
</mgrwt>
</event>
<event>
 8    1  0.9373234E-006  0.2834191E+03  0.7546771E-02  0.1093836E+00
         21   -1    0    0  504  503  0.00000000000E+00  0.00000000000E+00  0.33453940623E+03  0.33453940623E+03  0.00000000000E+00 0.  1.
         21   -1    0    0  503  504 -0.00000000000E+00 -0.00000000000E+00 -0.60027579836E+02  0.60027579836E+02  0.00000000000E+00 0.  1.
         25    2    1    2    0    0 -0.19215040437E+02 -0.58195230576E+02  0.10040995901E+03  0.17164998558E+03  0.12500262013E+03 0.  0.
         25    2    1    2    0    0  0.19215040437E+02  0.58195230576E+02  0.17410186739E+03  0.22291700049E+03  0.12499850495E+03 0.  0.
          5    1    3    3  501    0 -0.22532930180E+01  0.76808355186E+01  0.10299665375E+03  0.10341408631E+03  0.47000000000E+01 0. -1.
         -5    1    3    3    0  501 -0.16961747419E+02 -0.65876066094E+02 -0.25866947351E+01  0.68235899270E+02  0.47000000000E+01 0. -1.
          5    1    4    4  502    0  0.28050707535E+02 -0.33152332587E+02  0.81441873968E+02  0.92416384828E+02  0.47000000000E+01 0. -1.
         -5    1    4    4    0  502 -0.88356670981E+01  0.91347563163E+02  0.92659993420E+02  0.13050061567E+03  0.47000000000E+01 0. -1.
<mgrwt>
<rscale>  0 0.28341906E+03</rscale>
<asrwt>0</asrwt>
<pdfrwt beam="1">  1       21 0.51467600E-01 0.28341906E+03</pdfrwt>
<pdfrwt beam="2">  1       21 0.92350125E-02 0.28341906E+03</pdfrwt>
<totfact> 0.32783714E+05</totfact>
</mgrwt>
</event>
<event>
 8    1  0.9373234E-006  0.2630221E+03  0.7546771E-02  0.1105341E+00
         21   -1    0    0  504  503  0.00000000000E+00  0.00000000000E+00  0.27023145591E+03  0.27023145591E+03  0.00000000000E+00 0.  1.
         21   -1    0    0  503  504 -0.00000000000E+00 -0.00000000000E+00 -0.64001286763E+02  0.64001286763E+02  0.00000000000E+00 0.  1.
         25    2    1    2    0    0 -0.24366497525E+02  0.26349593855E+02  0.12805847227E+03  0.18250734961E+03  0.12498773157E+03 0.  0.
         25    2    1    2    0    0  0.24366497525E+02 -0.26349593855E+02  0.78171696872E+02  0.15172539306E+03  0.12498701296E+03 0.  0.
          5    1    3    3  501    0  0.21407571899E+02 -0.20847868979E+02 -0.80288763910E+01  0.31296495517E+02  0.47000000000E+01 0.  1.
         -5    1    3    3    0  501 -0.45774069424E+02  0.47197462834E+02  0.13608734866E+03  0.15121085409E+03  0.47000000000E+01 0.  1.
          5    1    4    4  502    0  0.64518618445E+02  0.20758031776E+02  0.39413864561E+02  0.78543559437E+02  0.47000000000E+01 0.  1.
         -5    1    4    4    0  502 -0.40152120920E+02 -0.47107625631E+02  0.38757832310E+02  0.73181833623E+02  0.47000000000E+01 0.  1.
<mgrwt>
<rscale>  0 0.26302214E+03</rscale>
<asrwt>0</asrwt>
<pdfrwt beam="1">  1       21 0.41574070E-01 0.26302214E+03</pdfrwt>
<pdfrwt beam="2">  1       21 0.98463519E-02 0.26302214E+03</pdfrwt>
<totfact> 0.45788479E+05</totfact>
</mgrwt>
</event>
<event>
 8    1  0.9373234E-006  0.2696985E+03  0.7546771E-02  0.1101452E+00
         21   -1    0    0  504  503  0.00000000000E+00  0.00000000000E+00  0.10031405320E+04  0.10031405320E+04  0.00000000000E+00 0. -1.
         21   -1    0    0  503  504 -0.00000000000E+00 -0.00000000000E+00 -0.18127396978E+02  0.18127396978E+02  0.00000000000E+00 0. -1.
         25    2    1    2    0    0 -0.11580943557E+01 -0.50339351110E+02  0.47664866063E+03  0.49534257243E+03  0.12503970139E+03 0.  0.
         25    2    1    2    0    0  0.11580943557E+01  0.50339351110E+02  0.50836447440E+03  0.52592535656E+03  0.12501060111E+03 0.  0.
          5    1    3    3  501    0 -0.18646532890E+01 -0.63633494775E+02  0.47696816663E+03  0.48122076074E+03  0.47000000000E+01 0.  1.
         -5    1    3    3    0  501  0.70655893327E+00  0.13294143665E+02 -0.31950599403E+00  0.14121811690E+02  0.47000000000E+01 0.  1.
          5    1    4    4  502    0  0.83905801164E+01  0.48524264493E+02  0.61284058176E+02  0.78758059053E+02  0.47000000000E+01 0. -1.
         -5    1    4    4    0  502 -0.72324857607E+01  0.18150866163E+01  0.44708041623E+03  0.44716729751E+03  0.47000000000E+01 0. -1.
<mgrwt>
<rscale>  0 0.26969855E+03</rscale>
<asrwt>0</asrwt>
<pdfrwt beam="1">  1       21 0.15432927E+00 0.26969855E+03</pdfrwt>
<pdfrwt beam="2">  1       21 0.27888311E-02 0.26969855E+03</pdfrwt>
<totfact> 0.19223495E+05</totfact>
</mgrwt>
</event>
<event>
 8    1  0.9373234E-006  0.2838006E+03  0.7546771E-02  0.1093631E+00
         21   -1    0    0  504  503  0.00000000000E+00  0.00000000000E+00  0.16438986199E+03  0.16438986199E+03  0.00000000000E+00 0. -1.
         21   -1    0    0  503  504 -0.00000000000E+00 -0.00000000000E+00 -0.12248745775E+03  0.12248745775E+03  0.00000000000E+00 0. -1.
         25    2    1    2    0    0 -0.63059622963E+01  0.48922240661E+02 -0.25124550655E+02  0.13670964475E+03  0.12500053252E+03 0.  0.
         25    2    1    2    0    0  0.63059622963E+01 -0.48922240661E+02  0.67026954897E+02  0.15016767498E+03  0.12499826853E+03 0.  0.
          5    1    3    3  501    0 -0.16397913209E+02 -0.17031537602E+01 -0.67571718609E+02  0.69712405252E+02  0.47000000000E+01 0. -1.
         -5    1    3    3    0  501  0.10091950913E+02  0.50625394422E+02  0.42447167954E+02  0.66997239502E+02  0.47000000000E+01 0. -1.
          5    1    4    4  502    0  0.14779909403E+02 -0.55947848287E+02 -0.20692795460E+02  0.61635129868E+02  0.47000000000E+01 0.  1.
         -5    1    4    4    0  502 -0.84739471071E+01  0.70256076258E+01  0.87719750357E+02  0.88532545116E+02  0.47000000000E+01 0.  1.
<mgrwt>
<rscale>  0 0.28380061E+03</rscale>
<asrwt>0</asrwt>
<pdfrwt beam="1">  1       21 0.25290748E-01 0.28380061E+03</pdfrwt>
<pdfrwt beam="2">  1       21 0.18844224E-01 0.28380061E+03</pdfrwt>
<totfact> 0.37473826E+05</totfact>
</mgrwt>
</event>
<event>
 8    1  0.9373234E-006  0.4070558E+03  0.7546771E-02  0.1041364E+00
         21   -1    0    0  504  503  0.00000000000E+00  0.00000000000E+00  0.64804118474E+02  0.64804118474E+02  0.00000000000E+00 0.  1.
         21   -1    0    0  503  504 -0.00000000000E+00 -0.00000000000E+00 -0.63921250466E+03  0.63921250466E+03  0.00000000000E+00 0.  1.
         25    2    1    2    0    0  0.40470823236E+02  0.13698069476E+03 -0.41426491838E+03  0.45567782859E+03  0.12500105038E+03 0.  0.
         25    2    1    2    0    0 -0.40470823236E+02 -0.13698069476E+03 -0.16014346781E+03  0.24833879454E+03  0.12499851329E+03 0.  0.
          5    1    3    3  501    0 -0.41564723958E+01  0.14402131859E+03 -0.30524905642E+03  0.33757738804E+03  0.47000000000E+01 0. -1.
         -5    1    3    3    0  501  0.44627295632E+02 -0.70406238247E+01 -0.10901586196E+03  0.11810044055E+03  0.47000000000E+01 0. -1.
          5    1    4    4  502    0  0.22315407026E+01 -0.11091845408E+03 -0.39853316703E+02  0.11797567580E+03  0.47000000000E+01 0.  1.
         -5    1    4    4    0  502 -0.42702363938E+02 -0.26062240683E+02 -0.12029015110E+03  0.13036311874E+03  0.47000000000E+01 0.  1.
<mgrwt>
<rscale>  0 0.40705578E+03</rscale>
<asrwt>0</asrwt>
<pdfrwt beam="1">  1       21 0.99698647E-02 0.40705578E+03</pdfrwt>
<pdfrwt beam="2">  1       21 0.98340382E-01 0.40705578E+03</pdfrwt>
<totfact> 0.64817575E+04</totfact>
</mgrwt>
</event>
<event>
 8    1  0.9373234E-006  0.2665826E+03  0.7546771E-02  0.1103252E+00
         21   -1    0    0  504  503  0.00000000000E+00  0.00000000000E+00  0.70285993320E+02  0.70285993320E+02  0.00000000000E+00 0.  1.
         21   -1    0    0  503  504 -0.00000000000E+00 -0.00000000000E+00 -0.25277544868E+03  0.25277544868E+03  0.00000000000E+00 0.  1.
         25    2    1    2    0    0 -0.21961251882E+02 -0.28264708828E+02 -0.12670534213E+03  0.18158778533E+03  0.12505474685E+03 0.  0.
         25    2    1    2    0    0  0.21961251882E+02  0.28264708828E+02 -0.55784113233E+02  0.14147365667E+03  0.12498695089E+03 0.  0.
          5    1    3    3  501    0 -0.29061812015E+02 -0.46412418116E+02 -0.14461462343E+03  0.15470675739E+03  0.47000000000E+01 0.  1.
         -5    1    3    3    0  501  0.71005601337E+01  0.18147709288E+02  0.17909281299E+02  0.26881027943E+02  0.47000000000E+01 0.  1.
          5    1    4    4  502    0 -0.36419782579E+02 -0.64580102874E+01  0.17717562490E+02  0.41280848835E+02  0.47000000000E+01 0.  1.
         -5    1    4    4    0  502  0.58381034461E+02  0.34722719115E+02 -0.73501675722E+02  0.10019280783E+03  0.47000000000E+01 0.  1.
<mgrwt>
<rscale>  0 0.26658262E+03</rscale>
<asrwt>0</asrwt>
<pdfrwt beam="1">  1       21 0.10813229E-01 0.26658262E+03</pdfrwt>
<pdfrwt beam="2">  1       21 0.38888532E-01 0.26658262E+03</pdfrwt>
<totfact> 0.44363378E+05</totfact>
</mgrwt>
</event>
<event>
 8    1  0.9373234E-006  0.3125540E+03  0.7546771E-02  0.1079128E+00
         21   -1    0    0  504  503  0.00000000000E+00  0.00000000000E+00  0.10423406703E+04  0.10423406703E+04  0.00000000000E+00 0. -1.
         21   -1    0    0  503  504 -0.00000000000E+00 -0.00000000000E+00 -0.23430442666E+02  0.23430442666E+02  0.00000000000E+00 0. -1.
         25    2    1    2    0    0 -0.55876368400E+02  0.56971911343E+02  0.34139213630E+03  0.37221286378E+03  0.12500343198E+03 0.  0.
         25    2    1    2    0    0  0.55876368400E+02 -0.56971911343E+02  0.67751809136E+03  0.69355824922E+03  0.12499725479E+03 0.  0.
          5    1    3    3  501    0  0.26248235677E+02  0.37050965092E+02  0.21705339552E+03  0.22180173668E+03  0.47000000000E+01 0.  1.
         -5    1    3    3    0  501 -0.82124604077E+02  0.19920946251E+02  0.12433874078E+03  0.15041112710E+03  0.47000000000E+01 0.  1.
          5    1    4    4  502    0  0.90958475880E+02 -0.14256026125E+02  0.45330152577E+03  0.46258084903E+03  0.47000000000E+01 0.  1.
         -5    1    4    4    0  502 -0.35082107480E+02 -0.42715885218E+02  0.22421656559E+03  0.23097740019E+03  0.47000000000E+01 0.  1.
<mgrwt>
<rscale>  0 0.31255402E+03</rscale>
<asrwt>0</asrwt>
<pdfrwt beam="1">  1       21 0.16036007E+00 0.31255402E+03</pdfrwt>
<pdfrwt beam="2">  1       21 0.36046843E-02 0.31255402E+03</pdfrwt>
<totfact> 0.11115683E+05</totfact>
</mgrwt>
</event>
<event>
 8    1  0.9373234E-006  0.3088815E+03  0.7546771E-02  0.1080883E+00
         21   -1    0    0  504  503  0.00000000000E+00  0.00000000000E+00  0.34576722238E+03  0.34576722238E+03  0.00000000000E+00 0.  1.
         21   -1    0    0  503  504 -0.00000000000E+00 -0.00000000000E+00 -0.68982665278E+02  0.68982665278E+02  0.00000000000E+00 0.  1.
         25    2    1    2    0    0  0.81698996213E+02 -0.33295493541E+02  0.11000794785E+03  0.18842528977E+03  0.12497609916E+03 0.  0.
         25    2    1    2    0    0 -0.81698996213E+02  0.33295493541E+02  0.16677660926E+03  0.22632459789E+03  0.12500028138E+03 0.  0.
          5    1    3    3  501    0  0.99705043663E+02 -0.56131815392E+02  0.57318914939E+02  0.12806023755E+03  0.47000000000E+01 0.  1.
         -5    1    3    3    0  501 -0.18006047450E+02  0.22836321851E+02  0.52689032912E+02  0.60365052221E+02  0.47000000000E+01 0.  1.
          5    1    4    4  502    0 -0.10588118361E+01 -0.12400745217E+02  0.12298947832E+03  0.12370691711E+03  0.47000000000E+01 0.  1.
         -5    1    4    4    0  502 -0.80640184377E+02  0.45696238758E+02  0.43787130937E+02  0.10261768078E+03  0.47000000000E+01 0.  1.
<mgrwt>
<rscale>  0 0.30888150E+03</rscale>
<asrwt>0</asrwt>
<pdfrwt beam="1">  1       21 0.53194956E-01 0.30888150E+03</pdfrwt>
<pdfrwt beam="2">  1       21 0.10612718E-01 0.30888150E+03</pdfrwt>
<totfact> 0.23731596E+05</totfact>
</mgrwt>
</event>
<event>
 8    1  0.9373234E-006  0.4832784E+03  0.7546771E-02  0.1018238E+00
         21   -1    0    0  504  503  0.00000000000E+00  0.00000000000E+00  0.18521861418E+04  0.18521861418E+04  0.00000000000E+00 0.  1.
         21   -1    0    0  503  504 -0.00000000000E+00 -0.00000000000E+00 -0.31524643708E+02  0.31524643708E+02  0.00000000000E+00 0.  1.
         25    2    1    2    0    0 -0.20024434250E+03  0.27661960480E+01  0.11112929058E+04  0.11360911727E+04  0.12500312690E+03 0.  0.
         25    2    1    2    0    0  0.20024434250E+03 -0.27661960480E+01  0.70936859230E+03  0.74761961279E+03  0.12500334847E+03 0.  0.
          5    1    3    3  501    0 -0.16300217425E+03  0.51165160529E+02  0.71821591462E+03  0.73827079888E+03  0.47000000000E+01 0. -1.
         -5    1    3    3    0  501 -0.37242168254E+02 -0.48398964481E+02  0.39307699114E+03  0.39782037382E+03  0.47000000000E+01 0. -1.
          5    1    4    4  502    0  0.92693455372E+02 -0.59603239536E+01  0.53234097714E+03  0.54040411552E+03  0.47000000000E+01 0. -1.
         -5    1    4    4    0  502  0.10755088713E+03  0.31941279056E+01  0.17702761517E+03  0.20721549727E+03  0.47000000000E+01 0. -1.
<mgrwt>
<rscale>  0 0.48327842E+03</rscale>
<asrwt>0</asrwt>
<pdfrwt beam="1">  1       21 0.28495163E+00 0.48327842E+03</pdfrwt>
<pdfrwt beam="2">  1       21 0.48499466E-02 0.48327842E+03</pdfrwt>
<totfact> 0.98481392E+03</totfact>
</mgrwt>
</event>
<event>
 8    1  0.9373234E-006  0.3020954E+03  0.7546771E-02  0.1084198E+00
         21   -1    0    0  504  503  0.00000000000E+00  0.00000000000E+00  0.59186714896E+02  0.59186714896E+02  0.00000000000E+00 0. -1.
         21   -1    0    0  503  504 -0.00000000000E+00 -0.00000000000E+00 -0.38548190728E+03  0.38548190728E+03  0.00000000000E+00 0. -1.
         25    2    1    2    0    0 -0.20075963336E+02  0.77149782336E+02 -0.12060018531E+03  0.19111189742E+03  0.12499687764E+03 0.  0.
         25    2    1    2    0    0  0.20075963336E+02 -0.77149782336E+02 -0.20569500708E+03  0.25355672476E+03  0.12500177406E+03 0.  0.
          5    1    3    3  501    0 -0.48046663968E+02  0.93410268175E+02 -0.11839261849E+03  0.15834412598E+03  0.47000000000E+01 0. -1.
         -5    1    3    3    0  501  0.27970700633E+02 -0.16260485839E+02 -0.22075668163E+01  0.32767771435E+02  0.47000000000E+01 0. -1.
          5    1    4    4  502    0  0.34930006722E+02 -0.98917386056E+02 -0.20043458462E+03  0.22627608655E+03  0.47000000000E+01 0.  1.
         -5    1    4    4    0  502 -0.14854043387E+02  0.21767603720E+02 -0.52604224566E+01  0.27280638208E+02  0.47000000000E+01 0.  1.
<mgrwt>
<rscale>  0 0.30209540E+03</rscale>
<asrwt>0</asrwt>
<pdfrwt beam="1">  1       21 0.91056487E-02 0.30209540E+03</pdfrwt>
<pdfrwt beam="2">  1       21 0.59304907E-01 0.30209540E+03</pdfrwt>
<totfact> 0.24724282E+05</totfact>
</mgrwt>
</event>
<event>
 8    1  0.9373234E-006  0.2724666E+03  0.7546771E-02  0.1099876E+00
         21   -1    0    0  504  503  0.00000000000E+00  0.00000000000E+00  0.13880393163E+03  0.13880393163E+03  0.00000000000E+00 0. -1.
         21   -1    0    0  503  504 -0.00000000000E+00 -0.00000000000E+00 -0.13371027005E+03  0.13371027005E+03  0.00000000000E+00 0. -1.
         25    2    1    2    0    0 -0.20432581804E+02 -0.12427582005E+02  0.51165388718E+02  0.13716765577E+03  0.12500053437E+03 0.  0.
         25    2    1    2    0    0  0.20432581804E+02  0.12427582005E+02 -0.46071727144E+02  0.13534654591E+03  0.12499659297E+03 0.  0.
          5    1    3    3  501    0  0.26011261563E+02  0.41924640344E+02  0.41947250732E+02  0.64930139689E+02  0.47000000000E+01 0. -1.
         -5    1    3    3    0  501 -0.46443843368E+02 -0.54352222349E+02  0.92181379863E+01  0.72237516077E+02  0.47000000000E+01 0. -1.
          5    1    4    4  502    0 -0.24880596485E+02 -0.46188325806E+02 -0.24106848150E+02  0.57927848657E+02  0.47000000000E+01 0. -1.
         -5    1    4    4    0  502  0.45313178290E+02  0.58615907811E+02 -0.21964878994E+02  0.77418697254E+02  0.47000000000E+01 0. -1.
<mgrwt>
<rscale>  0 0.27246659E+03</rscale>
<asrwt>0</asrwt>
<pdfrwt beam="1">  1       21 0.21354451E-01 0.27246659E+03</pdfrwt>
<pdfrwt beam="2">  1       21 0.20570811E-01 0.27246659E+03</pdfrwt>
<totfact> 0.43998214E+05</totfact>
</mgrwt>
</event>
<event>
 8    1  0.9373234E-006  0.3539686E+03  0.7546771E-02  0.1060998E+00
         21   -1    0    0  504  503  0.00000000000E+00  0.00000000000E+00  0.57438670340E+02  0.57438670340E+02  0.00000000000E+00 0. -1.
         21   -1    0    0  503  504 -0.00000000000E+00 -0.00000000000E+00 -0.54533718624E+03  0.54533718624E+03  0.00000000000E+00 0. -1.
         25    2    1    2    0    0  0.18699810228E+02 -0.23770199372E+02 -0.36896474367E+02  0.13379573709E+03  0.12500097664E+03 0.  0.
         25    2    1    2    0    0 -0.18699810228E+02  0.23770199372E+02 -0.45100204153E+03  0.46898011949E+03  0.12499922293E+03 0.  0.
          5    1    3    3  501    0  0.60520947799E+02 -0.14314943828E+02  0.17115600175E+02  0.64674079109E+02  0.47000000000E+01 0.  1.
         -5    1    3    3    0  501 -0.41821137571E+02 -0.94552555442E+01 -0.54012074541E+02  0.69121657976E+02  0.47000000000E+01 0.  1.
          5    1    4    4  502    0 -0.30948785275E+02  0.40706794687E+01 -0.44281035951E+03  0.44393411924E+03  0.47000000000E+01 0.  1.
         -5    1    4    4    0  502  0.12248975047E+02  0.19699519904E+02 -0.81916820236E+01  0.25046000250E+02  0.47000000000E+01 0.  1.
<mgrwt>
<rscale>  0 0.35396860E+03</rscale>
<asrwt>0</asrwt>
<pdfrwt beam="1">  1       21 0.88367184E-02 0.35396860E+03</pdfrwt>
<pdfrwt beam="2">  1       21 0.83898029E-01 0.35396860E+03</pdfrwt>
<totfact> 0.11850786E+05</totfact>
</mgrwt>
</event>
<event>
 8    1  0.9373234E-006  0.2767418E+03  0.7546771E-02  0.1097482E+00
         21   -1    0    0  504  503  0.00000000000E+00  0.00000000000E+00  0.35283599610E+03  0.35283599610E+03  0.00000000000E+00 0. -1.
         21   -1    0    0  503  504 -0.00000000000E+00 -0.00000000000E+00 -0.54264600552E+02  0.54264600552E+02  0.00000000000E+00 0. -1.
         25    2    1    2    0    0  0.51631184508E+02  0.72055270230E+00  0.19227671534E+03  0.23507872177E+03  0.12500148702E+03 0.  0.
         25    2    1    2    0    0 -0.51631184508E+02 -0.72055270230E+00  0.10629468021E+03  0.17202187488E+03  0.12500667177E+03 0.  0.
          5    1    3    3  501    0 -0.28575348243E+02 -0.34383277679E+02  0.88178133711E+02  0.98975924223E+02  0.47000000000E+01 0. -1.
         -5    1    3    3    0  501  0.80206532751E+02  0.35103830381E+02  0.10409858163E+03  0.13610279755E+03  0.47000000000E+01 0. -1.
          5    1    4    4  502    0 -0.36347499762E+02 -0.37586118111E+02 -0.59194130387E+01  0.52829787661E+02  0.47000000000E+01 0. -1.
         -5    1    4    4    0  502 -0.15283684746E+02  0.36865565409E+02  0.11221409325E+03  0.11919208722E+03  0.47000000000E+01 0. -1.
<mgrwt>
<rscale>  0 0.27674179E+03</rscale>
<asrwt>0</asrwt>
<pdfrwt beam="1">  1       21 0.54282459E-01 0.27674179E+03</pdfrwt>
<pdfrwt beam="2">  1       21 0.83484003E-02 0.27674179E+03</pdfrwt>
<totfact> 0.35040093E+05</totfact>
</mgrwt>
</event>
<event>
 8    1  0.9373234E-006  0.3212497E+03  0.7546771E-02  0.1075076E+00
         21   -1    0    0  504  503  0.00000000000E+00  0.00000000000E+00  0.26400946413E+03  0.26400946413E+03  0.00000000000E+00 0.  1.
         21   -1    0    0  503  504 -0.00000000000E+00 -0.00000000000E+00 -0.97725059015E+02  0.97725059015E+02  0.00000000000E+00 0.  1.
         25    2    1    2    0    0  0.15493726814E+02  0.71807368594E+02  0.52873297856E+01  0.14507703718E+03  0.12499214817E+03 0.  0.
         25    2    1    2    0    0 -0.15493726814E+02 -0.71807368594E+02  0.16099707533E+03  0.21665748597E+03  0.12499621677E+03 0.  0.
          5    1    3    3  501    0 -0.21295026345E+02  0.81191455184E+01  0.52586313746E+02  0.57504861224E+02  0.47000000000E+01 0.  1.
         -5    1    3    3    0  501  0.36788753159E+02  0.63688223075E+02 -0.47298983961E+02  0.87572175953E+02  0.47000000000E+01 0.  1.
          5    1    4    4  502    0 -0.51832274332E+02 -0.53177501134E+02  0.15894679172E+03  0.17550100823E+03  0.47000000000E+01 0. -1.
         -5    1    4    4    0  502  0.36338547518E+02 -0.18629867460E+02  0.20502836069E+01  0.41156477742E+02  0.47000000000E+01 0. -1.
<mgrwt>
<rscale>  0 0.32124969E+03</rscale>
<asrwt>0</asrwt>
<pdfrwt beam="1">  1       21 0.40616841E-01 0.32124969E+03</pdfrwt>
<pdfrwt beam="2">  1       21 0.15034625E-01 0.32124969E+03</pdfrwt>
<totfact> 0.22085709E+05</totfact>
</mgrwt>
</event>
<event>
 8    1  0.9373234E-006  0.2710139E+03  0.7546771E-02  0.1100701E+00
         21   -1    0    0  504  503  0.00000000000E+00  0.00000000000E+00  0.93840222303E+02  0.93840222303E+02  0.00000000000E+00 0. -1.
         21   -1    0    0  503  504 -0.00000000000E+00 -0.00000000000E+00 -0.19567446335E+03  0.19567446335E+03  0.00000000000E+00 0. -1.
         25    2    1    2    0    0  0.47630322598E+02  0.89083389023E+01 -0.29931132328E+02  0.13739100381E+03  0.12502963294E+03 0.  0.
         25    2    1    2    0    0 -0.47630322598E+02 -0.89083389023E+01 -0.71903108715E+02  0.15212368184E+03  0.12499420547E+03 0.  0.
          5    1    3    3  501    0  0.30015669953E+02 -0.28262839969E+02 -0.68967725901E+02  0.80488295930E+02  0.47000000000E+01 0. -1.
         -5    1    3    3    0  501  0.17614652646E+02  0.37171178871E+02  0.39036593572E+02  0.56902707881E+02  0.47000000000E+01 0. -1.
          5    1    4    4  502    0  0.15771039429E+02  0.17089422410E+02  0.24271390072E+02  0.33940601335E+02  0.47000000000E+01 0. -1.
         -5    1    4    4    0  502 -0.63401362027E+02 -0.25997761313E+02 -0.96174498786E+02  0.11818308050E+03  0.47000000000E+01 0. -1.
<mgrwt>
<rscale>  0 0.27101391E+03</rscale>
<asrwt>0</asrwt>
<pdfrwt beam="1">  1       21 0.14436957E-01 0.27101391E+03</pdfrwt>
<pdfrwt beam="2">  1       21 0.30103763E-01 0.27101391E+03</pdfrwt>
<totfact> 0.43809573E+05</totfact>
</mgrwt>
</event>
<event>
 8    1  0.9373234E-006  0.3320959E+03  0.7546771E-02  0.1070213E+00
         21   -1    0    0  504  503  0.00000000000E+00  0.00000000000E+00  0.40320580134E+02  0.40320580134E+02  0.00000000000E+00 0. -1.
         21   -1    0    0  503  504 -0.00000000000E+00 -0.00000000000E+00 -0.68381774461E+03  0.68381774461E+03  0.00000000000E+00 0. -1.
         25    2    1    2    0    0 -0.44439033949E+02 -0.51861706567E+02 -0.50782559459E+03  0.52742556974E+03  0.12500573086E+03 0.  0.
         25    2    1    2    0    0  0.44439033949E+02  0.51861706567E+02 -0.13567156988E+03  0.19671275500E+03  0.12499867503E+03 0.  0.
          5    1    3    3  501    0  0.38915749413E+02 -0.28621446492E+01 -0.22715038403E+03  0.23052551787E+03  0.47000000000E+01 0. -1.
         -5    1    3    3    0  501 -0.83354783362E+02 -0.48999561918E+02 -0.28067521056E+03  0.29690005187E+03  0.47000000000E+01 0. -1.
          5    1    4    4  502    0  0.19312706753E+02  0.78566264494E+01 -0.14362299859E+03  0.14520455553E+03  0.47000000000E+01 0. -1.
         -5    1    4    4    0  502  0.25126327195E+02  0.44005080118E+02  0.79514287096E+01  0.51508199474E+02  0.47000000000E+01 0. -1.
<mgrwt>
<rscale>  0 0.33209594E+03</rscale>
<asrwt>0</asrwt>
<pdfrwt beam="1">  1       21 0.62031663E-02 0.33209594E+03</pdfrwt>
<pdfrwt beam="2">  1       21 0.10520273E+00 0.33209594E+03</pdfrwt>
<totfact> 0.12945682E+05</totfact>
</mgrwt>
</event>
<event>
 8    1  0.9373234E-006  0.2812939E+03  0.7546771E-02  0.1094984E+00
         21   -1    0    0  504  503  0.00000000000E+00  0.00000000000E+00  0.99045029356E+02  0.99045029356E+02  0.00000000000E+00 0. -1.
         21   -1    0    0  503  504 -0.00000000000E+00 -0.00000000000E+00 -0.19972297042E+03  0.19972297042E+03  0.00000000000E+00 0. -1.
         25    2    1    2    0    0 -0.37152754319E+02 -0.18886719454E+02 -0.10257912409E+03  0.16699134009E+03  0.12500638240E+03 0.  0.
         25    2    1    2    0    0  0.37152754319E+02  0.18886719454E+02  0.19011830321E+01  0.13177665968E+03  0.12499775284E+03 0.  0.
          5    1    3    3  501    0  0.33443780452E+02 -0.98027554369E+01  0.73689180337E+01  0.35930090705E+02  0.47000000000E+01 0.  1.
         -5    1    3    3    0  501 -0.70596534770E+02 -0.90839640166E+01 -0.10994804213E+03  0.13106124939E+03  0.47000000000E+01 0.  1.
          5    1    4    4  502    0  0.66862415358E+02  0.45187529196E+02  0.26242893601E+02  0.84989851435E+02  0.47000000000E+01 0. -1.
         -5    1    4    4    0  502 -0.29709661040E+02 -0.26300809742E+02 -0.24341710569E+02  0.46786808244E+02  0.47000000000E+01 0. -1.
<mgrwt>
<rscale>  0 0.28129392E+03</rscale>
<asrwt>0</asrwt>
<pdfrwt beam="1">  1       21 0.15237697E-01 0.28129392E+03</pdfrwt>
<pdfrwt beam="2">  1       21 0.30726611E-01 0.28129392E+03</pdfrwt>
<totfact> 0.38040781E+05</totfact>
</mgrwt>
</event>
<event>
 8    1  0.9373234E-006  0.3093089E+03  0.7546771E-02  0.1080678E+00
         21   -1    0    0  504  503  0.00000000000E+00  0.00000000000E+00  0.32795779885E+03  0.32795779885E+03  0.00000000000E+00 0. -1.
         21   -1    0    0  503  504 -0.00000000000E+00 -0.00000000000E+00 -0.72930090010E+02  0.72930090010E+02  0.00000000000E+00 0. -1.
         25    2    1    2    0    0  0.84735859852E+02  0.27712602440E+02  0.10343341680E+03  0.18512659244E+03  0.12500091695E+03 0.  0.
         25    2    1    2    0    0 -0.84735859852E+02 -0.27712602440E+02  0.15159429205E+03  0.21576129642E+03  0.12499581343E+03 0.  0.
          5    1    3    3  501    0  0.44454976045E+02  0.46973064603E+02  0.12070772012E+03  0.13702247039E+03  0.47000000000E+01 0. -1.
         -5    1    3    3    0  501  0.40280883807E+02 -0.19260462163E+02 -0.17274303328E+02  0.48104122053E+02  0.47000000000E+01 0. -1.
          5    1    4    4  502    0 -0.41483509950E+02 -0.62640574395E+02  0.13973520729E+03  0.15872221431E+03  0.47000000000E+01 0. -1.
         -5    1    4    4    0  502 -0.43252349902E+02  0.34927971955E+02  0.11859084753E+02  0.57039082111E+02  0.47000000000E+01 0. -1.
<mgrwt>
<rscale>  0 0.30930885E+03</rscale>
<asrwt>0</asrwt>
<pdfrwt beam="1">  1       21 0.50455045E-01 0.30930885E+03</pdfrwt>
<pdfrwt beam="2">  1       21 0.11220014E-01 0.30930885E+03</pdfrwt>
<totfact> 0.24020756E+05</totfact>
</mgrwt>
</event>
<event>
 8    1  0.9373234E-006  0.2714892E+03  0.7546771E-02  0.1100430E+00
         21   -1    0    0  504  503  0.00000000000E+00  0.00000000000E+00  0.14473702397E+03  0.14473702397E+03  0.00000000000E+00 0.  1.
         21   -1    0    0  503  504 -0.00000000000E+00 -0.00000000000E+00 -0.12731088671E+03  0.12731088671E+03  0.00000000000E+00 0.  1.
         25    2    1    2    0    0  0.15960992510E+02  0.25526563433E+02 -0.34916384475E+02  0.13322773575E+03  0.12499646773E+03 0.  0.
         25    2    1    2    0    0 -0.15960992510E+02 -0.25526563433E+02  0.52342521739E+02  0.13882017493E+03  0.12499977065E+03 0.  0.
          5    1    3    3  501    0  0.24750742997E+02  0.67882449301E+02  0.70826792399E+01  0.72752185859E+02  0.47000000000E+01 0. -1.
         -5    1    3    3    0  501 -0.87897504869E+01 -0.42355885868E+02 -0.41999063715E+02  0.60475549888E+02  0.47000000000E+01 0. -1.
          5    1    4    4  502    0  0.36478998161E+01  0.35192986636E+02  0.64479447586E+02  0.73699000281E+02  0.47000000000E+01 0. -1.
         -5    1    4    4    0  502 -0.19608892326E+02 -0.60719550069E+02 -0.12136925847E+02  0.65121174650E+02  0.47000000000E+01 0. -1.
<mgrwt>
<rscale>  0 0.27148922E+03</rscale>
<asrwt>0</asrwt>
<pdfrwt beam="1">  1       21 0.22267234E-01 0.27148922E+03</pdfrwt>
<pdfrwt beam="2">  1       21 0.19586290E-01 0.27148922E+03</pdfrwt>
<totfact> 0.44577734E+05</totfact>
</mgrwt>
</event>
<event>
 8    1  0.9373234E-006  0.4592476E+03  0.7546771E-02  0.1025000E+00
         21   -1    0    0  504  503  0.00000000000E+00  0.00000000000E+00  0.75442961245E+02  0.75442961245E+02  0.00000000000E+00 0. -1.
         21   -1    0    0  503  504 -0.00000000000E+00 -0.00000000000E+00 -0.69889996238E+03  0.69889996238E+03  0.00000000000E+00 0. -1.
         25    2    1    2    0    0  0.44988718305E+02  0.18143915559E+03 -0.23341666189E+03  0.32411776842E+03  0.12499935119E+03 0.  0.
         25    2    1    2    0    0 -0.44988718305E+02 -0.18143915559E+03 -0.39004033925E+03  0.45022515521E+03  0.12500828849E+03 0.  0.
          5    1    3    3  501    0  0.65329142178E+02  0.31415748661E+02 -0.63436544056E+02  0.96442372448E+02  0.47000000000E+01 0.  1.
         -5    1    3    3    0  501 -0.20340423873E+02  0.15002340693E+03 -0.16998011784E+03  0.22767539597E+03  0.47000000000E+01 0.  1.
          5    1    4    4  502    0 -0.64662073989E+02 -0.15357638662E+03 -0.21618125255E+03  0.27298958642E+03  0.47000000000E+01 0. -1.
         -5    1    4    4    0  502  0.19673355684E+02 -0.27862768971E+02 -0.17385908669E+03  0.17723556879E+03  0.47000000000E+01 0. -1.
<mgrwt>
<rscale>  0 0.45924757E+03</rscale>
<asrwt>0</asrwt>
<pdfrwt beam="1">  1       21 0.11606609E-01 0.45924757E+03</pdfrwt>
<pdfrwt beam="2">  1       21 0.10752308E+00 0.45924757E+03</pdfrwt>
<totfact> 0.39102901E+04</totfact>
</mgrwt>
</event>
<event>
 8    1  0.9373234E-006  0.3800830E+03  0.7546771E-02  0.1050903E+00
         21   -1    0    0  504  503  0.00000000000E+00  0.00000000000E+00  0.20541925832E+03  0.20541925832E+03  0.00000000000E+00 0.  1.
         21   -1    0    0  503  504 -0.00000000000E+00 -0.00000000000E+00 -0.17581489174E+03  0.17581489174E+03  0.00000000000E+00 0.  1.
         25    2    1    2    0    0 -0.42033451333E+02  0.13051582751E+03 -0.26436327273E+02  0.18741322662E+03  0.12499458329E+03 0.  0.
         25    2    1    2    0    0  0.42033451333E+02 -0.13051582751E+03  0.56040693847E+02  0.19382092344E+03  0.12499919494E+03 0.  0.
          5    1    3    3  501    0 -0.41897571769E+02  0.15111949979E+03 -0.40493253690E+02  0.16203179729E+03  0.47000000000E+01 0. -1.
         -5    1    3    3    0  501 -0.13587956430E+00 -0.20603672282E+02  0.14056926417E+02  0.25381429335E+02  0.47000000000E+01 0. -1.
          5    1    4    4  502    0 -0.17985199932E+01  0.18426470511E+02 -0.13747721107E+02  0.23534216055E+02  0.47000000000E+01 0. -1.
         -5    1    4    4    0  502  0.43831971327E+02 -0.14894229802E+03  0.69788414955E+02  0.17028670738E+03  0.47000000000E+01 0. -1.
<mgrwt>
<rscale>  0 0.38008296E+03</rscale>
<asrwt>0</asrwt>
<pdfrwt beam="1">  1       21 0.31602963E-01 0.38008296E+03</pdfrwt>
<pdfrwt beam="2">  1       21 0.27048445E-01 0.38008296E+03</pdfrwt>
<totfact> 0.11895101E+05</totfact>
</mgrwt>
</event>
<event>
 8    1  0.9373234E-006  0.3043298E+03  0.7546771E-02  0.1083096E+00
         21   -1    0    0  504  503  0.00000000000E+00  0.00000000000E+00  0.15394090467E+03  0.15394090467E+03  0.00000000000E+00 0. -1.
         21   -1    0    0  503  504 -0.00000000000E+00 -0.00000000000E+00 -0.15040940231E+03  0.15040940231E+03  0.00000000000E+00 0. -1.
         25    2    1    2    0    0 -0.83620954751E+02 -0.32827482685E+01 -0.21165755818E+02  0.15191718072E+03  0.12501039985E+03 0.  0.
         25    2    1    2    0    0  0.83620954751E+02  0.32827482685E+01  0.24697258175E+02  0.15243312625E+03  0.12499065128E+03 0.  0.
          5    1    3    3  501    0 -0.69064237283E+02 -0.43491458040E+02 -0.53845886102E+02  0.97892008070E+02  0.47000000000E+01 0.  1.
         -5    1    3    3    0  501 -0.14556717468E+02  0.40208709771E+02  0.32680130284E+02  0.54025172654E+02  0.47000000000E+01 0.  1.
          5    1    4    4  502    0 -0.18278895482E+02  0.27359298428E+02 -0.19666094828E+02  0.38619872039E+02  0.47000000000E+01 0.  1.
         -5    1    4    4    0  502  0.10189985023E+03 -0.24076550160E+02  0.44363353002E+02  0.11381325421E+03  0.47000000000E+01 0.  1.
<mgrwt>
<rscale>  0 0.30432982E+03</rscale>
<asrwt>0</asrwt>
<pdfrwt beam="1">  1       21 0.23683216E-01 0.30432982E+03</pdfrwt>
<pdfrwt beam="2">  1       21 0.23139908E-01 0.30432982E+03</pdfrwt>
<totfact> 0.28706594E+05</totfact>
</mgrwt>
</event>
<event>
 8    1  0.9373234E-006  0.3216487E+03  0.7546771E-02  0.1074893E+00
         21   -1    0    0  504  503  0.00000000000E+00  0.00000000000E+00  0.85984966814E+02  0.85984966814E+02  0.00000000000E+00 0.  1.
         21   -1    0    0  503  504 -0.00000000000E+00 -0.00000000000E+00 -0.30080230091E+03  0.30080230091E+03  0.00000000000E+00 0.  1.
         25    2    1    2    0    0  0.96200121024E+02  0.29764602472E+02 -0.11937450896E+03  0.20004317848E+03  0.12500641992E+03 0.  0.
         25    2    1    2    0    0 -0.96200121024E+02 -0.29764602472E+02 -0.95442825130E+02  0.18674408924E+03  0.12499450849E+03 0.  0.
          5    1    3    3  501    0 -0.20591124905E+02  0.60344880283E+01  0.99517826772E+01  0.24115087581E+02  0.47000000000E+01 0.  1.
         -5    1    3    3    0  501  0.11679124593E+03  0.23730114444E+02 -0.12932629164E+03  0.17592809090E+03  0.47000000000E+01 0.  1.
          5    1    4    4  502    0  0.22057870313E+02 -0.24711335352E+02 -0.49375782340E+02  0.59642749931E+02  0.47000000000E+01 0.  1.
         -5    1    4    4    0  502 -0.11825799134E+03 -0.50532671198E+01 -0.46067042790E+02  0.12710133931E+03  0.47000000000E+01 0.  1.
<mgrwt>
<rscale>  0 0.32164873E+03</rscale>
<asrwt>0</asrwt>
<pdfrwt beam="1">  1       21 0.13228456E-01 0.32164873E+03</pdfrwt>
<pdfrwt beam="2">  1       21 0.46277278E-01 0.32164873E+03</pdfrwt>
<totfact> 0.21319185E+05</totfact>
</mgrwt>
</event>
<event>
 8    1  0.9373234E-006  0.5085959E+03  0.7546771E-02  0.1011559E+00
         21   -1    0    0  504  503  0.00000000000E+00  0.00000000000E+00  0.98901452170E+02  0.98901452170E+02  0.00000000000E+00 0. -1.
         21   -1    0    0  503  504 -0.00000000000E+00 -0.00000000000E+00 -0.65385746190E+03  0.65385746190E+03  0.00000000000E+00 0. -1.
         25    2    1    2    0    0 -0.45987825603E+02  0.11085040495E+03 -0.55294518374E+03  0.57946241289E+03  0.12500247735E+03 0.  0.
         25    2    1    2    0    0  0.45987825603E+02 -0.11085040495E+03 -0.20108259857E+01  0.17329650118E+03  0.12499976608E+03 0.  0.
          5    1    3    3  501    0  0.30153800019E+02  0.26563944628E+02 -0.52577569404E+02  0.66342939446E+02  0.47000000000E+01 0.  1.
         -5    1    3    3    0  501 -0.76141625622E+02  0.84286460319E+02 -0.50036761434E+03  0.51311947344E+03  0.47000000000E+01 0.  1.
          5    1    4    4  502    0 -0.59096824917E+01  0.60323504308E+01 -0.38924421494E+02  0.40106286135E+02  0.47000000000E+01 0. -1.
         -5    1    4    4    0  502  0.51897508094E+02 -0.11688275538E+03  0.36913595508E+02  0.13319021505E+03  0.47000000000E+01 0. -1.
<mgrwt>
<rscale>  0 0.50859592E+03</rscale>
<asrwt>0</asrwt>
<pdfrwt beam="1">  1       21 0.15215608E-01 0.50859592E+03</pdfrwt>
<pdfrwt beam="2">  1       21 0.10059345E+00 0.50859592E+03</pdfrwt>
<totfact> 0.27677562E+04</totfact>
</mgrwt>
</event>
<event>
 8    1  0.9373234E-006  0.3437875E+03  0.7546771E-02  0.1065194E+00
         21   -1    0    0  504  503  0.00000000000E+00  0.00000000000E+00  0.15440939149E+03  0.15440939149E+03  0.00000000000E+00 0. -1.
         21   -1    0    0  503  504 -0.00000000000E+00 -0.00000000000E+00 -0.19135794917E+03  0.19135794917E+03  0.00000000000E+00 0. -1.
         25    2    1    2    0    0 -0.10846988325E+03 -0.45366575575E+02 -0.81381007498E+01  0.17176195739E+03  0.12494838762E+03 0.  0.
         25    2    1    2    0    0  0.10846988325E+03  0.45366575575E+02 -0.28810456931E+02  0.17400538328E+03  0.12499595685E+03 0.  0.
          5    1    3    3  501    0  0.10172804281E+02 -0.51858209724E-01 -0.39334903543E+02  0.40900040011E+02  0.47000000000E+01 0. -1.
         -5    1    3    3    0  501 -0.11864268753E+03 -0.45314717366E+02  0.31196802793E+02  0.13086191738E+03  0.47000000000E+01 0. -1.
          5    1    4    4  502    0  0.13623563387E+03  0.43447099481E+02 -0.27879005623E+02  0.14576394391E+03  0.47000000000E+01 0. -1.
         -5    1    4    4    0  502 -0.27765750622E+02  0.19194760948E+01 -0.93145130807E+00  0.28241439368E+02  0.47000000000E+01 0. -1.
<mgrwt>
<rscale>  0 0.34378752E+03</rscale>
<asrwt>0</asrwt>
<pdfrwt beam="1">  1       21 0.23755291E-01 0.34378752E+03</pdfrwt>
<pdfrwt beam="2">  1       21 0.29439684E-01 0.34378752E+03</pdfrwt>
<totfact> 0.17741548E+05</totfact>
</mgrwt>
</event>
<event>
 8    1  0.9373234E-006  0.5253025E+03  0.7546771E-02  0.1007378E+00
         21   -1    0    0  504  503  0.00000000000E+00  0.00000000000E+00  0.13409159659E+04  0.13409159659E+04  0.00000000000E+00 0. -1.
         21   -1    0    0  503  504 -0.00000000000E+00 -0.00000000000E+00 -0.51446690478E+02  0.51446690478E+02  0.00000000000E+00 0. -1.
         25    2    1    2    0    0  0.13264467828E+03 -0.18570987691E+03  0.55001166888E+03  0.60845904762E+03  0.12500723045E+03 0.  0.
         25    2    1    2    0    0 -0.13264467828E+03  0.18570987691E+03  0.73945760659E+03  0.78390360881E+03  0.12499818761E+03 0.  0.
          5    1    3    3  501    0  0.16547753534E+02 -0.12150512137E+03  0.32237208628E+03  0.34493937826E+03  0.47000000000E+01 0.  1.
         -5    1    3    3    0  501  0.11609692474E+03 -0.64204755538E+02  0.22763958261E+03  0.26351966936E+03  0.47000000000E+01 0.  1.
          5    1    4    4  502    0 -0.63668722818E+01 -0.85770621551E+01  0.33054006596E+01  0.12129251064E+02  0.47000000000E+01 0. -1.
         -5    1    4    4    0  502 -0.12627780599E+03  0.19428693906E+03  0.73615220593E+03  0.77177435774E+03  0.47000000000E+01 0. -1.
<mgrwt>
<rscale>  0 0.52530254E+03</rscale>
<asrwt>0</asrwt>
<pdfrwt beam="1">  1       21 0.20629474E+00 0.52530254E+03</pdfrwt>
<pdfrwt beam="2">  1       21 0.79148765E-02 0.52530254E+03</pdfrwt>
<totfact> 0.12763082E+04</totfact>
</mgrwt>
</event>
<event>
 8    1  0.9373234E-006  0.3517306E+03  0.7546771E-02  0.1061907E+00
         21   -1    0    0  504  503  0.00000000000E+00  0.00000000000E+00  0.57866762004E+03  0.57866762004E+03  0.00000000000E+00 0.  1.
         21   -1    0    0  503  504 -0.00000000000E+00 -0.00000000000E+00 -0.53447944959E+02  0.53447944959E+02  0.00000000000E+00 0.  1.
         25    2    1    2    0    0  0.40983963785E+02  0.10943873282E+03  0.33552447480E+03  0.37664442377E+03  0.12501130845E+03 0.  0.
         25    2    1    2    0    0 -0.40983963785E+02 -0.10943873282E+03  0.18969520028E+03  0.25547114123E+03  0.12499885384E+03 0.  0.
          5    1    3    3  501    0  0.14767220417E+02  0.74182538888E+02  0.57494827247E+02  0.95125522521E+02  0.47000000000E+01 0. -1.
         -5    1    3    3    0  501  0.26216743369E+02  0.35256193933E+02  0.27802964755E+03  0.28151890125E+03  0.47000000000E+01 0. -1.
          5    1    4    4  502    0 -0.71602367765E+02 -0.33872085509E+02  0.13686622071E+03  0.15820451833E+03  0.47000000000E+01 0. -1.
         -5    1    4    4    0  502  0.30618403980E+02 -0.75566647312E+02  0.52828979569E+02  0.97266622901E+02  0.47000000000E+01 0. -1.
<mgrwt>
<rscale>  0 0.35173055E+03</rscale>
<asrwt>0</asrwt>
<pdfrwt beam="1">  1       21 0.89025783E-01 0.35173055E+03</pdfrwt>
<pdfrwt beam="2">  1       21 0.82227612E-02 0.35173055E+03</pdfrwt>
<totfact> 0.11728076E+05</totfact>
</mgrwt>
</event>
<event>
 8    1  0.9373234E-006  0.3375935E+03  0.7546771E-02  0.1067826E+00
         21   -1    0    0  504  503  0.00000000000E+00  0.00000000000E+00  0.12333664560E+03  0.12333664560E+03  0.00000000000E+00 0.  1.
         21   -1    0    0  503  504 -0.00000000000E+00 -0.00000000000E+00 -0.23101275556E+03  0.23101275556E+03  0.00000000000E+00 0.  1.
         25    2    1    2    0    0  0.25958499762E+02 -0.36757208050E+02  0.55464996432E+02  0.14396513235E+03  0.12499862979E+03 0.  0.
         25    2    1    2    0    0 -0.25958499762E+02  0.36757208050E+02 -0.16314110639E+03  0.21038426882E+03  0.12498633493E+03 0.  0.
          5    1    3    3  501    0  0.41181972377E+02 -0.77264535430E+02  0.47480603806E+02  0.99710887178E+02  0.47000000000E+01 0. -1.
         -5    1    3    3    0  501 -0.15223472615E+02  0.40507327380E+02  0.79843926256E+01  0.44254245170E+02  0.47000000000E+01 0. -1.
          5    1    4    4  502    0 -0.46677486248E+02  0.14643653789E+02 -0.51161759835E+01  0.49411431627E+02  0.47000000000E+01 0. -1.
         -5    1    4    4    0  502  0.20718986486E+02  0.22113554261E+02 -0.15802493041E+03  0.16097283719E+03  0.47000000000E+01 0. -1.
<mgrwt>
<rscale>  0 0.33759347E+03</rscale>
<asrwt>0</asrwt>
<pdfrwt beam="1">  1       21 0.18974869E-01 0.33759347E+03</pdfrwt>
<pdfrwt beam="2">  1       21 0.35540424E-01 0.33759347E+03</pdfrwt>
<totfact> 0.18719289E+05</totfact>
</mgrwt>
</event>
<event>
 8    1  0.9373234E-006  0.3146450E+03  0.7546771E-02  0.1078141E+00
         21   -1    0    0  504  503  0.00000000000E+00  0.00000000000E+00  0.12369426527E+04  0.12369426527E+04  0.00000000000E+00 0.  1.
         21   -1    0    0  503  504 -0.00000000000E+00 -0.00000000000E+00 -0.20009313758E+02  0.20009313758E+02  0.00000000000E+00 0.  1.
         25    2    1    2    0    0  0.53442956912E+02 -0.58382367025E+02  0.39483510261E+03  0.42164501738E+03  0.12500044804E+03 0.  0.
         25    2    1    2    0    0 -0.53442956912E+02  0.58382367025E+02  0.82209823634E+03  0.83530694908E+03  0.12501015385E+03 0.  0.
          5    1    3    3  501    0 -0.28017345390E+02  0.18466707377E+02  0.12365065576E+03  0.12820906986E+03  0.47000000000E+01 0. -1.
         -5    1    3    3    0  501  0.81460302302E+02 -0.76849074402E+02  0.27118444684E+03  0.29343594752E+03  0.47000000000E+01 0. -1.
          5    1    4    4  502    0 -0.13701276100E+02  0.71720863781E+02  0.73391933917E+03  0.73755765448E+03  0.47000000000E+01 0.  1.
         -5    1    4    4    0  502 -0.39741680812E+02 -0.13338496756E+02  0.88178897162E+02  0.97749294597E+02  0.47000000000E+01 0.  1.
<mgrwt>
<rscale>  0 0.31464503E+03</rscale>
<asrwt>0</asrwt>
<pdfrwt beam="1">  1       21 0.19029881E+00 0.31464503E+03</pdfrwt>
<pdfrwt beam="2">  1       21 0.30783569E-02 0.31464503E+03</pdfrwt>
<totfact> 0.88977441E+04</totfact>
</mgrwt>
</event>
<event>
 8    1  0.9373234E-006  0.3532763E+03  0.7546771E-02  0.1061278E+00
         21   -1    0    0  504  503  0.00000000000E+00  0.00000000000E+00  0.49421625001E+02  0.49421625001E+02  0.00000000000E+00 0. -1.
         21   -1    0    0  503  504 -0.00000000000E+00 -0.00000000000E+00 -0.63132358013E+03  0.63132358013E+03  0.00000000000E+00 0. -1.
         25    2    1    2    0    0  0.94572901326E+02 -0.59054091842E+02 -0.39901043732E+03  0.43274206218E+03  0.12499977545E+03 0.  0.
         25    2    1    2    0    0 -0.94572901326E+02  0.59054091842E+02 -0.18289151781E+03  0.24800314295E+03  0.12499932879E+03 0.  0.
          5    1    3    3  501    0  0.43337482769E+02 -0.94672583574E+02 -0.26801082490E+03  0.28756378033E+03  0.47000000000E+01 0.  1.
         -5    1    3    3    0  501  0.51235418557E+02  0.35618491732E+02 -0.13099961241E+03  0.14517828185E+03  0.47000000000E+01 0.  1.
          5    1    4    4  502    0 -0.92950332890E+02  0.22979788759E+02 -0.45959641617E+02  0.10631187014E+03  0.47000000000E+01 0. -1.
         -5    1    4    4    0  502 -0.16225684362E+01  0.36074303083E+02 -0.13693187620E+03  0.14169127281E+03  0.47000000000E+01 0. -1.
<mgrwt>
<rscale>  0 0.35327631E+03</rscale>
<asrwt>0</asrwt>
<pdfrwt beam="1">  1       21 0.76033267E-02 0.35327631E+03</pdfrwt>
<pdfrwt beam="2">  1       21 0.97126707E-01 0.35327631E+03</pdfrwt>
<totfact> 0.10948591E+05</totfact>
</mgrwt>
</event>
<event>
 8    1  0.9373234E-006  0.3492996E+03  0.7546771E-02  0.1062903E+00
         21   -1    0    0  504  503  0.00000000000E+00  0.00000000000E+00  0.12573227879E+04  0.12573227879E+04  0.00000000000E+00 0. -1.
         21   -1    0    0  503  504 -0.00000000000E+00 -0.00000000000E+00 -0.24259921337E+02  0.24259921337E+02  0.00000000000E+00 0. -1.
         25    2    1    2    0    0  0.69681761601E+02 -0.72639351563E+02  0.86920305170E+03  0.88389523328E+03  0.12499926012E+03 0.  0.
         25    2    1    2    0    0 -0.69681761601E+02  0.72639351563E+02  0.36385981491E+03  0.39768747601E+03  0.12501736028E+03 0.  0.
          5    1    3    3  501    0  0.65178514671E+02 -0.82002695574E+01  0.69375985719E+03  0.69687897991E+03  0.47000000000E+01 0. -1.
         -5    1    3    3    0  501  0.45032469295E+01 -0.64439082006E+02  0.17544319451E+03  0.18701625337E+03  0.47000000000E+01 0. -1.
          5    1    4    4  502    0 -0.50881336593E+02 -0.17067502345E+02  0.22412542111E+03  0.23050922853E+03  0.47000000000E+01 0.  1.
         -5    1    4    4    0  502 -0.18800425008E+02  0.89706853908E+02  0.13973439380E+03  0.16717824747E+03  0.47000000000E+01 0.  1.
<mgrwt>
<rscale>  0 0.34929960E+03</rscale>
<asrwt>0</asrwt>
<pdfrwt beam="1">  1       21 0.19343422E+00 0.34929960E+03</pdfrwt>
<pdfrwt beam="2">  1       21 0.37322966E-02 0.34929960E+03</pdfrwt>
<totfact> 0.60528407E+04</totfact>
</mgrwt>
</event>
<event>
 8    1  0.9373234E-006  0.2902338E+03  0.7546771E-02  0.1090227E+00
         21   -1    0    0  504  503  0.00000000000E+00  0.00000000000E+00  0.31910137480E+02  0.31910137480E+02  0.00000000000E+00 0. -1.
         21   -1    0    0  503  504 -0.00000000000E+00 -0.00000000000E+00 -0.65994447191E+03  0.65994447191E+03  0.00000000000E+00 0. -1.
         25    2    1    2    0    0 -0.32865802126E+02 -0.33980332696E+02 -0.44885189245E+03  0.46832580359E+03  0.12500485190E+03 0.  0.
         25    2    1    2    0    0  0.32865802126E+02  0.33980332696E+02 -0.17918244199E+03  0.22352880580E+03  0.12499582212E+03 0.  0.
          5    1    3    3  501    0  0.91902169505E+01 -0.69214209552E+02 -0.16573324278E+03  0.17990181948E+03  0.47000000000E+01 0.  1.
         -5    1    3    3    0  501 -0.42056019077E+02  0.35233876856E+02 -0.28311864967E+03  0.28842398411E+03  0.47000000000E+01 0.  1.
          5    1    4    4  502    0 -0.25776424899E+02  0.17464667170E+02 -0.15441939276E+03  0.15759720029E+03  0.47000000000E+01 0. -1.
         -5    1    4    4    0  502  0.58642227025E+02  0.16515665526E+02 -0.24763049231E+02  0.65931605512E+02  0.47000000000E+01 0. -1.
<mgrwt>
<rscale>  0 0.29023383E+03</rscale>
<asrwt>0</asrwt>
<pdfrwt beam="1">  1       21 0.49092520E-02 0.29023383E+03</pdfrwt>
<pdfrwt beam="2">  1       21 0.10152992E+00 0.29023383E+03</pdfrwt>
<totfact> 0.21336855E+05</totfact>
</mgrwt>
</event>
<event>
 8    1  0.9373234E-006  0.2894171E+03  0.7546771E-02  0.1090654E+00
         21   -1    0    0  504  503  0.00000000000E+00  0.00000000000E+00  0.16374088981E+02  0.16374088981E+02  0.00000000000E+00 0. -1.
         21   -1    0    0  503  504 -0.00000000000E+00 -0.00000000000E+00 -0.12788838475E+04  0.12788838475E+04  0.00000000000E+00 0. -1.
         25    2    1    2    0    0  0.29059375294E+02 -0.66271147798E+02 -0.67095461046E+03  0.68632520346E+03  0.12500353312E+03 0.  0.
         25    2    1    2    0    0 -0.29059375294E+02  0.66271147798E+02 -0.59155514805E+03  0.60893273301E+03  0.12500107127E+03 0.  0.
          5    1    3    3  501    0 -0.46521435165E+02 -0.12111775580E+02 -0.16708225560E+03  0.17392386028E+03  0.47000000000E+01 0.  1.
         -5    1    3    3    0  501  0.75580810458E+02 -0.54159372219E+02 -0.50387235486E+03  0.51240134319E+03  0.47000000000E+01 0.  1.
          5    1    4    4  502    0  0.30551288690E+02 -0.17432471075E+02 -0.86289705387E+02  0.93302066130E+02  0.47000000000E+01 0. -1.
         -5    1    4    4    0  502 -0.59610663984E+02  0.83703618873E+02 -0.50526544266E+03  0.51563066688E+03  0.47000000000E+01 0. -1.
<mgrwt>
<rscale>  0 0.28941705E+03</rscale>
<asrwt>0</asrwt>
<pdfrwt beam="1">  1       21 0.25190912E-02 0.28941705E+03</pdfrwt>
<pdfrwt beam="2">  1       21 0.19675132E+00 0.28941705E+03</pdfrwt>
<totfact> 0.11359529E+05</totfact>
</mgrwt>
</event>
<event>
 8    1  0.9373234E-006  0.4870811E+03  0.7546771E-02  0.1017207E+00
         21   -1    0    0  504  503  0.00000000000E+00  0.00000000000E+00  0.54766417823E+03  0.54766417823E+03  0.00000000000E+00 0.  1.
         21   -1    0    0  503  504 -0.00000000000E+00 -0.00000000000E+00 -0.10829995482E+03  0.10829995482E+03  0.00000000000E+00 0.  1.
         25    2    1    2    0    0 -0.69932745672E+02 -0.19539405277E+03  0.18622280803E+03  0.30557053534E+03  0.12499997225E+03 0.  0.
         25    2    1    2    0    0  0.69932745672E+02  0.19539405277E+03  0.25314141538E+03  0.35039359771E+03  0.12500268941E+03 0.  0.
          5    1    3    3  501    0 -0.36431658421E+00 -0.10951162688E+03  0.29097934676E+02  0.11340947469E+03  0.47000000000E+01 0. -1.
         -5    1    3    3    0  501 -0.69568429087E+02 -0.85882425894E+02  0.15712487335E+03  0.19216106065E+03  0.47000000000E+01 0. -1.
          5    1    4    4  502    0  0.32744453348E+02  0.20015992926E+03  0.22700293199E+03  0.30444805409E+03  0.47000000000E+01 0.  1.
         -5    1    4    4    0  502  0.37188292323E+02 -0.47658764884E+01  0.26138483389E+02  0.45945543620E+02  0.47000000000E+01 0.  1.
<mgrwt>
<rscale>  0 0.48708113E+03</rscale>
<asrwt>0</asrwt>
<pdfrwt beam="1">  1       21 0.84256026E-01 0.48708113E+03</pdfrwt>
<pdfrwt beam="2">  1       21 0.16661532E-01 0.48708113E+03</pdfrwt>
<totfact> 0.35834794E+04</totfact>
</mgrwt>
</event>
<event>
 8    1  0.9373234E-006  0.2666946E+03  0.7546771E-02  0.1103186E+00
         21   -1    0    0  504  503  0.00000000000E+00  0.00000000000E+00  0.36463227968E+02  0.36463227968E+02  0.00000000000E+00 0. -1.
         21   -1    0    0  503  504 -0.00000000000E+00 -0.00000000000E+00 -0.48765556454E+03  0.48765556454E+03  0.00000000000E+00 0. -1.
         25    2    1    2    0    0 -0.40006517887E+02 -0.23632686710E+02 -0.22255619966E+03  0.25943357062E+03  0.12496195502E+03 0.  0.
         25    2    1    2    0    0  0.40006517887E+02  0.23632686710E+02 -0.22863613690E+03  0.26468522188E+03  0.12499903291E+03 0.  0.
          5    1    3    3  501    0 -0.41488899964E+01 -0.49883051969E+02 -0.20556740215E+03  0.21162603570E+03  0.47000000000E+01 0. -1.
         -5    1    3    3    0  501 -0.35857627891E+02  0.26250365259E+02 -0.16988797518E+02  0.47807534921E+02  0.47000000000E+01 0. -1.
          5    1    4    4  502    0  0.61553551111E+02  0.22431435065E+02 -0.23307867081E+03  0.24215649014E+03  0.47000000000E+01 0.  1.
         -5    1    4    4    0  502 -0.21547033224E+02  0.12012516455E+01  0.44425339026E+01  0.22528731738E+02  0.47000000000E+01 0.  1.
<mgrwt>
<rscale>  0 0.26669455E+03</rscale>
<asrwt>0</asrwt>
<pdfrwt beam="1">  1       21 0.56097278E-02 0.26669455E+03</pdfrwt>
<pdfrwt beam="2">  1       21 0.75023928E-01 0.26669455E+03</pdfrwt>
<totfact> 0.34503771E+05</totfact>
</mgrwt>
</event>
<event>
 8    1  0.9373234E-006  0.4568514E+03  0.7546771E-02  0.1025698E+00
         21   -1    0    0  504  503  0.00000000000E+00  0.00000000000E+00  0.28975733095E+02  0.28975733095E+02  0.00000000000E+00 0. -1.
         21   -1    0    0  503  504 -0.00000000000E+00 -0.00000000000E+00 -0.18007585949E+04  0.18007585949E+04  0.00000000000E+00 0. -1.
         25    2    1    2    0    0 -0.10385383175E+03  0.60290473347E+02 -0.14817395890E+04  0.14918430815E+04  0.12499204211E+03 0.  0.
         25    2    1    2    0    0  0.10385383175E+03 -0.60290473347E+02 -0.29004327279E+03  0.33789124650E+03  0.12499933931E+03 0.  0.
          5    1    3    3  501    0 -0.14468999386E+02  0.10653264235E+02 -0.95889197678E+03  0.95907182062E+03  0.47000000000E+01 0.  1.
         -5    1    3    3    0  501 -0.89384832359E+02  0.49637209112E+02 -0.52284761220E+03  0.53277126083E+03  0.47000000000E+01 0.  1.
          5    1    4    4  502    0  0.31037932595E+02  0.19052690192E+02 -0.10360738447E+02  0.38154857679E+02  0.47000000000E+01 0.  1.
         -5    1    4    4    0  502  0.72815899151E+02 -0.79343163539E+02 -0.27968253434E+03  0.29973638882E+03  0.47000000000E+01 0.  1.
<mgrwt>
<rscale>  0 0.45685140E+03</rscale>
<asrwt>0</asrwt>
<pdfrwt beam="1">  1       21 0.44578045E-02 0.45685140E+03</pdfrwt>
<pdfrwt beam="2">  1       21 0.27703982E+00 0.45685140E+03</pdfrwt>
<totfact> 0.12845389E+04</totfact>
</mgrwt>
</event>
<event>
 8    1  0.9373234E-006  0.2968336E+03  0.7546771E-02  0.1086834E+00
         21   -1    0    0  504  503  0.00000000000E+00  0.00000000000E+00  0.48047446169E+02  0.48047446169E+02  0.00000000000E+00 0.  1.
         21   -1    0    0  503  504 -0.00000000000E+00 -0.00000000000E+00 -0.45845414452E+03  0.45845414452E+03  0.00000000000E+00 0.  1.
         25    2    1    2    0    0 -0.61146572854E+02  0.32083833869E+02 -0.27419494547E+03  0.30915355766E+03  0.12499911331E+03 0.  0.
         25    2    1    2    0    0  0.61146572854E+02 -0.32083833869E+02 -0.13621175288E+03  0.19734803302E+03  0.12499731496E+03 0.  0.
          5    1    3    3  501    0 -0.38836905968E+02 -0.24717405268E+02 -0.22752817270E+03  0.23218616402E+03  0.47000000000E+01 0.  1.
         -5    1    3    3    0  501 -0.22309666886E+02  0.56801239136E+02 -0.46666772765E+02  0.76967393643E+02  0.47000000000E+01 0.  1.
          5    1    4    4  502    0 -0.25320906873E+02 -0.48086827253E+02 -0.47167299188E+02  0.72113351002E+02  0.47000000000E+01 0. -1.
         -5    1    4    4    0  502  0.86467479727E+02  0.16002993384E+02 -0.89044453692E+02  0.12523468202E+03  0.47000000000E+01 0. -1.
<mgrwt>
<rscale>  0 0.29683363E+03</rscale>
<asrwt>0</asrwt>
<pdfrwt beam="1">  1       21 0.73919150E-02 0.29683363E+03</pdfrwt>
<pdfrwt beam="2">  1       21 0.70531405E-01 0.29683363E+03</pdfrwt>
<totfact> 0.24403948E+05</totfact>
</mgrwt>
</event>
<event>
 8    1  0.9373234E-006  0.2616133E+03  0.7546771E-02  0.1106178E+00
         21   -1    0    0  504  503  0.00000000000E+00  0.00000000000E+00  0.10201334849E+03  0.10201334849E+03  0.00000000000E+00 0. -1.
         21   -1    0    0  503  504 -0.00000000000E+00 -0.00000000000E+00 -0.16772685138E+03  0.16772685138E+03  0.00000000000E+00 0. -1.
         25    2    1    2    0    0  0.85294056130E+01  0.25557620656E+02 -0.61263373145E+02  0.14179068187E+03  0.12500181536E+03 0.  0.
         25    2    1    2    0    0 -0.85294056130E+01 -0.25557620656E+02 -0.44501297388E+01  0.12794951800E+03  0.12500133106E+03 0.  0.
          5    1    3    3  501    0  0.35835640772E+02 -0.10761157653E+01  0.27260925766E+02  0.45283542798E+02  0.47000000000E+01 0. -1.
         -5    1    3    3    0  501 -0.27306235159E+02  0.26633736421E+02 -0.88524298911E+02  0.96507139073E+02  0.47000000000E+01 0. -1.
          5    1    4    4  502    0  0.34776220257E+02 -0.51757431014E+01 -0.50269280396E+02  0.61524502140E+02  0.47000000000E+01 0.  1.
         -5    1    4    4    0  502 -0.43305625870E+02 -0.20381877554E+02  0.45819150657E+02  0.66425015857E+02  0.47000000000E+01 0.  1.
<mgrwt>
<rscale>  0 0.26161329E+03</rscale>
<asrwt>0</asrwt>
<pdfrwt beam="1">  1       21 0.15694361E-01 0.26161329E+03</pdfrwt>
<pdfrwt beam="2">  1       21 0.25804131E-01 0.26161329E+03</pdfrwt>
<totfact> 0.50824261E+05</totfact>
</mgrwt>
</event>
<event>
 8    1  0.9373234E-006  0.5200660E+03  0.7546771E-02  0.1008670E+00
         21   -1    0    0  504  503  0.00000000000E+00  0.00000000000E+00  0.66422083297E+03  0.66422083297E+03  0.00000000000E+00 0. -1.
         21   -1    0    0  503  504 -0.00000000000E+00 -0.00000000000E+00 -0.10179920310E+03  0.10179920310E+03  0.00000000000E+00 0. -1.
         25    2    1    2    0    0  0.18760194334E+03  0.40017905591E+02  0.99618992559E+02  0.24968952609E+03  0.12499997538E+03 0.  0.
         25    2    1    2    0    0 -0.18760194334E+03 -0.40017905591E+02  0.46280263731E+03  0.51633050999E+03  0.12495996371E+03 0.  0.
          5    1    3    3  501    0  0.59177933347E+02 -0.30137797102E+02  0.76582886298E+02  0.10147582512E+03  0.47000000000E+01 0. -1.
         -5    1    3    3    0  501  0.12842401000E+03  0.70155702693E+02  0.23036106261E+02  0.14821370097E+03  0.47000000000E+01 0. -1.
          5    1    4    4  502    0 -0.58841867699E+02 -0.64521694623E+02  0.26447968582E+03  0.27856239639E+03  0.47000000000E+01 0.  1.
         -5    1    4    4    0  502 -0.12876007565E+03  0.24503789032E+02  0.19832295149E+03  0.23776811360E+03  0.47000000000E+01 0.  1.
<mgrwt>
<rscale>  0 0.52006596E+03</rscale>
<asrwt>0</asrwt>
<pdfrwt beam="1">  1       21 0.10218782E+00 0.52006596E+03</pdfrwt>
<pdfrwt beam="2">  1       21 0.15661416E-01 0.52006596E+03</pdfrwt>
<totfact> 0.25170123E+04</totfact>
</mgrwt>
</event>
<event>
 8    1  0.9373234E-006  0.3017466E+03  0.7546771E-02  0.1084371E+00
         21   -1    0    0  504  503  0.00000000000E+00  0.00000000000E+00  0.87672832672E+02  0.87672832672E+02  0.00000000000E+00 0.  1.
         21   -1    0    0  503  504 -0.00000000000E+00 -0.00000000000E+00 -0.25963285359E+03  0.25963285359E+03  0.00000000000E+00 0.  1.
         25    2    1    2    0    0 -0.19811647495E+02  0.29182327221E+02 -0.17434302502E+03  0.21740269629E+03  0.12499732950E+03 0.  0.
         25    2    1    2    0    0  0.19811647495E+02 -0.29182327221E+02  0.23830041007E+01  0.12990298998E+03  0.12499999399E+03 0.  0.
          5    1    3    3  501    0  0.53145228649E+02  0.12470749265E+02 -0.77706318418E+02  0.95080475585E+02  0.47000000000E+01 0.  1.
         -5    1    3    3    0  501 -0.72956876144E+02  0.16711577956E+02 -0.96636706606E+02  0.12232222070E+03  0.47000000000E+01 0.  1.
          5    1    4    4  502    0  0.40185966851E+02  0.23476901514E+01  0.52993589178E+02  0.66714571683E+02  0.47000000000E+01 0. -1.
         -5    1    4    4    0  502 -0.20374319356E+02 -0.31530017372E+02 -0.50610585078E+02  0.63188418295E+02  0.47000000000E+01 0. -1.
<mgrwt>
<rscale>  0 0.30174657E+03</rscale>
<asrwt>0</asrwt>
<pdfrwt beam="1">  1       21 0.13488128E-01 0.30174657E+03</pdfrwt>
<pdfrwt beam="2">  1       21 0.39943516E-01 0.30174657E+03</pdfrwt>
<totfact> 0.27995352E+05</totfact>
</mgrwt>
</event>
<event>
 8    1  0.9373234E-006  0.4215982E+03  0.7546771E-02  0.1036547E+00
         21   -1    0    0  504  503  0.00000000000E+00  0.00000000000E+00  0.20602728917E+03  0.20602728917E+03  0.00000000000E+00 0.  1.
         21   -1    0    0  503  504 -0.00000000000E+00 -0.00000000000E+00 -0.21568142308E+03  0.21568142308E+03  0.00000000000E+00 0.  1.
         25    2    1    2    0    0 -0.15333741635E+03 -0.68158278057E+02  0.20734247062E+02  0.21026896534E+03  0.12500085865E+03 0.  0.
         25    2    1    2    0    0  0.15333741635E+03  0.68158278057E+02 -0.30388380972E+02  0.21143974691E+03  0.12500159501E+03 0.  0.
          5    1    3    3  501    0 -0.68255205402E+02 -0.26094394907E+02 -0.52663393904E+02  0.90195418772E+02  0.47000000000E+01 0.  1.
         -5    1    3    3    0  501 -0.85082210948E+02 -0.42063883150E+02  0.73397640967E+02  0.12007354657E+03  0.47000000000E+01 0.  1.
          5    1    4    4  502    0 -0.16511803653E+02 -0.11066468498E+02  0.40592224544E+01  0.20824833056E+02  0.47000000000E+01 0. -1.
         -5    1    4    4    0  502  0.16984922000E+03  0.79224746555E+02 -0.34447603426E+02  0.19061491385E+03  0.47000000000E+01 0. -1.
<mgrwt>
<rscale>  0 0.42159819E+03</rscale>
<asrwt>0</asrwt>
<pdfrwt beam="1">  1       21 0.31696506E-01 0.42159819E+03</pdfrwt>
<pdfrwt beam="2">  1       21 0.33181757E-01 0.42159819E+03</pdfrwt>
<totfact> 0.78190276E+04</totfact>
</mgrwt>
</event>
<event>
 8    1  0.9373234E-006  0.2798233E+03  0.7546771E-02  0.1095785E+00
         21   -1    0    0  504  503  0.00000000000E+00  0.00000000000E+00  0.15388877312E+03  0.15388877312E+03  0.00000000000E+00 0.  1.
         21   -1    0    0  503  504 -0.00000000000E+00 -0.00000000000E+00 -0.12720402742E+03  0.12720402742E+03  0.00000000000E+00 0.  1.
         25    2    1    2    0    0  0.22702927499E+02  0.26549334339E+02  0.65832220084E+02  0.14552917776E+03  0.12499828122E+03 0.  0.
         25    2    1    2    0    0 -0.22702927499E+02 -0.26549334339E+02 -0.39147474385E+02  0.13556362279E+03  0.12499872400E+03 0.  0.
          5    1    3    3  501    0  0.66869967026E+02  0.31918156909E+02  0.68078682415E+02  0.10073310394E+03  0.47000000000E+01 0.  1.
         -5    1    3    3    0  501 -0.44167039528E+02 -0.53688225701E+01 -0.22464623311E+01  0.44796073817E+02  0.47000000000E+01 0.  1.
          5    1    4    4  502    0  0.15988189002E+02  0.29265759472E+02  0.25064767090E+02  0.41981417488E+02  0.47000000000E+01 0.  1.
         -5    1    4    4    0  502 -0.38691116501E+02 -0.55815093811E+02 -0.64212241475E+02  0.93582205298E+02  0.47000000000E+01 0.  1.
<mgrwt>
<rscale>  0 0.27982331E+03</rscale>
<asrwt>0</asrwt>
<pdfrwt beam="1">  1       21 0.23675196E-01 0.27982331E+03</pdfrwt>
<pdfrwt beam="2">  1       21 0.19569850E-01 0.27982331E+03</pdfrwt>
<totfact> 0.39658636E+05</totfact>
</mgrwt>
</event>
<event>
 8    1  0.9373234E-006  0.3328755E+03  0.7546771E-02  0.1069872E+00
         21   -1    0    0  504  503  0.00000000000E+00  0.00000000000E+00  0.30524980290E+02  0.30524980290E+02  0.00000000000E+00 0. -1.
         21   -1    0    0  503  504 -0.00000000000E+00 -0.00000000000E+00 -0.90750359609E+03  0.90750359609E+03  0.00000000000E+00 0. -1.
         25    2    1    2    0    0  0.72534951554E+02 -0.70567321067E+02 -0.55939638157E+03  0.58204455054E+03  0.12494191088E+03 0.  0.
         25    2    1    2    0    0 -0.72534951554E+02  0.70567321067E+02 -0.31758223423E+03  0.35598402584E+03  0.12500034064E+03 0.  0.
          5    1    3    3  501    0  0.50069975118E+02 -0.89873939075E+02 -0.23896680011E+03  0.26021442867E+03  0.47000000000E+01 0. -1.
         -5    1    3    3    0  501  0.22464976436E+02  0.19306618007E+02 -0.32042958146E+03  0.32183012187E+03  0.47000000000E+01 0. -1.
          5    1    4    4  502    0 -0.10443775784E+03  0.60607432405E+02 -0.20017202873E+03  0.23381924047E+03  0.47000000000E+01 0. -1.
         -5    1    4    4    0  502  0.31902806291E+02  0.99598886622E+01 -0.11741020549E+03  0.12216478537E+03  0.47000000000E+01 0. -1.
<mgrwt>
<rscale>  0 0.33287553E+03</rscale>
<asrwt>0</asrwt>
<pdfrwt beam="1">  1       21 0.46961509E-02 0.33287553E+03</pdfrwt>
<pdfrwt beam="2">  1       21 0.13961593E+00 0.33287553E+03</pdfrwt>
<totfact> 0.10229389E+05</totfact>
</mgrwt>
</event>
<event>
 8    1  0.9373234E-006  0.2641222E+03  0.7546771E-02  0.1104692E+00
         21   -1    0    0  504  503  0.00000000000E+00  0.00000000000E+00  0.20269800508E+02  0.20269800508E+02  0.00000000000E+00 0.  1.
         21   -1    0    0  503  504 -0.00000000000E+00 -0.00000000000E+00 -0.86039992920E+03  0.86039992920E+03  0.00000000000E+00 0.  1.
         25    2    1    2    0    0 -0.16789033191E+02  0.35768936635E+02 -0.47332097428E+03  0.49113802615E+03  0.12499010994E+03 0.  0.
         25    2    1    2    0    0  0.16789033191E+02 -0.35768936635E+02 -0.36680915442E+03  0.38953170356E+03  0.12499881538E+03 0.  0.
          5    1    3    3  501    0  0.48268152640E+02 -0.68116967369E+00 -0.11007541886E+03  0.12028701671E+03  0.47000000000E+01 0. -1.
         -5    1    3    3    0  501 -0.65057185831E+02  0.36450106309E+02 -0.36324555542E+03  0.37085100945E+03  0.47000000000E+01 0. -1.
          5    1    4    4  502    0  0.34098359894E+02  0.35157828138E+02 -0.83398325887E+02  0.96830479641E+02  0.47000000000E+01 0. -1.
         -5    1    4    4    0  502 -0.17309326703E+02 -0.70926764773E+02 -0.28341082853E+03  0.29270122392E+03  0.47000000000E+01 0. -1.
<mgrwt>
<rscale>  0 0.26412221E+03</rscale>
<asrwt>0</asrwt>
<pdfrwt beam="1">  1       21 0.31184311E-02 0.26412221E+03</pdfrwt>
<pdfrwt beam="2">  1       21 0.13236921E+00 0.26412221E+03</pdfrwt>
<totfact> 0.23929288E+05</totfact>
</mgrwt>
</event>
<event>
 8    1  0.9373234E-006  0.2549847E+03  0.7546771E-02  0.1110194E+00
         21   -1    0    0  504  503  0.00000000000E+00  0.00000000000E+00  0.56295490894E+02  0.56295490894E+02  0.00000000000E+00 0. -1.
         21   -1    0    0  503  504 -0.00000000000E+00 -0.00000000000E+00 -0.28873187508E+03  0.28873187508E+03  0.00000000000E+00 0. -1.
         25    2    1    2    0    0 -0.15206560847E+02  0.81423276849E+01 -0.14090123557E+03  0.18915553433E+03  0.12501648287E+03 0.  0.
         25    2    1    2    0    0  0.15206560847E+02 -0.81423276849E+01 -0.91535148619E+02  0.15587183165E+03  0.12497922817E+03 0.  0.
          5    1    3    3  501    0 -0.54276364958E+02  0.15784169565E+01 -0.14200143362E+02  0.56321836482E+02  0.47000000000E+01 0. -1.
         -5    1    3    3    0  501  0.39069804111E+02  0.65639107284E+01 -0.12670109220E+03  0.13283369784E+03  0.47000000000E+01 0. -1.
          5    1    4    4  502    0 -0.47265312039E+02 -0.13331798431E+02 -0.76840353181E+02  0.91314163461E+02  0.47000000000E+01 0.  1.
         -5    1    4    4    0  502  0.62471872887E+02  0.51894707458E+01 -0.14694795438E+02  0.64557668185E+02  0.47000000000E+01 0.  1.
<mgrwt>
<rscale>  0 0.25498473E+03</rscale>
<asrwt>0</asrwt>
<pdfrwt beam="1">  1       21 0.86608450E-02 0.25498473E+03</pdfrwt>
<pdfrwt beam="2">  1       21 0.44420287E-01 0.25498473E+03</pdfrwt>
<totfact> 0.50215714E+05</totfact>
</mgrwt>
</event>
<event>
 8    1  0.9373234E-006  0.2624112E+03  0.7546771E-02  0.1105703E+00
         21   -1    0    0  504  503  0.00000000000E+00  0.00000000000E+00  0.18803199315E+03  0.18803199315E+03  0.00000000000E+00 0.  1.
         21   -1    0    0  503  504 -0.00000000000E+00 -0.00000000000E+00 -0.91553093766E+02  0.91553093766E+02  0.00000000000E+00 0.  1.
         25    2    1    2    0    0 -0.22160813333E+02 -0.32123046718E+02  0.56988463125E+02  0.14281210167E+03  0.12499847870E+03 0.  0.
         25    2    1    2    0    0  0.22160813333E+02  0.32123046718E+02  0.39490436264E+02  0.13677298525E+03  0.12499745261E+03 0.  0.
          5    1    3    3  501    0  0.24800056626E+02 -0.24149452069E+02  0.81765332043E+02  0.88915118894E+02  0.47000000000E+01 0. -1.
         -5    1    3    3    0  501 -0.46960869959E+02 -0.79735946483E+01 -0.24776868918E+02  0.53896982776E+02  0.47000000000E+01 0. -1.
          5    1    4    4  502    0  0.41491890925E+02  0.30331240381E+02 -0.33214068672E+02  0.61374469556E+02  0.47000000000E+01 0.  1.
         -5    1    4    4    0  502 -0.19331077592E+02  0.17918063368E+01  0.72704504936E+02  0.75398515694E+02  0.47000000000E+01 0.  1.
<mgrwt>
<rscale>  0 0.26241121E+03</rscale>
<asrwt>0</asrwt>
<pdfrwt beam="1">  1       21 0.28927999E-01 0.26241121E+03</pdfrwt>
<pdfrwt beam="2">  1       21 0.14085091E-01 0.26241121E+03</pdfrwt>
<totfact> 0.49627714E+05</totfact>
</mgrwt>
</event>
<event>
 8    1  0.9373234E-006  0.2983156E+03  0.7546771E-02  0.1086086E+00
         21   -1    0    0  504  503  0.00000000000E+00  0.00000000000E+00  0.56495886085E+03  0.56495886085E+03  0.00000000000E+00 0. -1.
         21   -1    0    0  503  504 -0.00000000000E+00 -0.00000000000E+00 -0.39379948167E+02  0.39379948167E+02  0.00000000000E+00 0. -1.
         25    2    1    2    0    0  0.78325354831E+02 -0.46683080369E+01  0.30649170462E+03  0.34017681152E+03  0.12500577501E+03 0.  0.
         25    2    1    2    0    0 -0.78325354831E+02  0.46683080369E+01  0.21908720806E+03  0.26416199749E+03  0.12500280747E+03 0.  0.
          5    1    3    3  501    0  0.52259476292E+01  0.21480503931E+02  0.22993286250E+03  0.23104097869E+03  0.47000000000E+01 0. -1.
         -5    1    3    3    0  501  0.73099407202E+02 -0.26148811968E+02  0.76558842123E+02  0.10913583283E+03  0.47000000000E+01 0. -1.
          5    1    4    4  502    0 -0.52552645861E+01  0.26371002778E+01  0.18182312354E+03  0.18197887338E+03  0.47000000000E+01 0. -1.
         -5    1    4    4    0  502 -0.73070090245E+02  0.20312077591E+01  0.37264084519E+02  0.82183124110E+02  0.47000000000E+01 0. -1.
<mgrwt>
<rscale>  0 0.29831561E+03</rscale>
<asrwt>0</asrwt>
<pdfrwt beam="1">  1       21 0.86916742E-01 0.29831561E+03</pdfrwt>
<pdfrwt beam="2">  1       21 0.60584540E-02 0.29831561E+03</pdfrwt>
<totfact> 0.21425493E+05</totfact>
</mgrwt>
</event>
<event>
 8    1  0.9373234E-006  0.2636369E+03  0.7546771E-02  0.1104978E+00
         21   -1    0    0  504  503  0.00000000000E+00  0.00000000000E+00  0.20343821398E+04  0.20343821398E+04  0.00000000000E+00 0.  1.
         21   -1    0    0  503  504 -0.00000000000E+00 -0.00000000000E+00 -0.85412164442E+01  0.85412164442E+01  0.00000000000E+00 0.  1.
         25    2    1    2    0    0 -0.32483725017E+02 -0.26255861565E+02  0.98902892341E+03  0.99777268152E+03  0.12501019953E+03 0.  0.
         25    2    1    2    0    0  0.32483725017E+02  0.26255861565E+02  0.10368119999E+04  0.10451506747E+04  0.12496498306E+03 0.  0.
          5    1    3    3  501    0 -0.94178137138E+01 -0.73917924965E+02  0.69282748192E+03  0.69683898036E+03  0.47000000000E+01 0. -1.
         -5    1    3    3    0  501 -0.23065911304E+02  0.47662063400E+02  0.29620144149E+03  0.30093370116E+03  0.47000000000E+01 0. -1.
          5    1    4    4  502    0  0.31140381422E+02  0.74056615556E+02  0.75440462327E+03  0.75868473774E+03  0.47000000000E+01 0. -1.
         -5    1    4    4    0  502  0.13433435954E+01 -0.47800753991E+02  0.28240737663E+03  0.28646593695E+03  0.47000000000E+01 0. -1.
<mgrwt>
<rscale>  0 0.26363686E+03</rscale>
<asrwt>0</asrwt>
<pdfrwt beam="1">  1       21 0.31298148E+00 0.26363686E+03</pdfrwt>
<pdfrwt beam="2">  1       21 0.13140349E-02 0.26363686E+03</pdfrwt>
<totfact> 0.65967106E+04</totfact>
</mgrwt>
</event>
<event>
 8    1  0.9373234E-006  0.2610565E+03  0.7546771E-02  0.1106510E+00
         21   -1    0    0  504  503  0.00000000000E+00  0.00000000000E+00  0.22734566327E+03  0.22734566327E+03  0.00000000000E+00 0.  1.
         21   -1    0    0  503  504 -0.00000000000E+00 -0.00000000000E+00 -0.74941472241E+02  0.74941472241E+02  0.00000000000E+00 0.  1.
         25    2    1    2    0    0 -0.13228790591E+02 -0.10698825452E+02  0.11500756010E+03  0.17071138470E+03  0.12500468879E+03 0.  0.
         25    2    1    2    0    0  0.13228790591E+02  0.10698825452E+02  0.37396630927E+02  0.13157575081E+03  0.12499681768E+03 0.  0.
          5    1    3    3  501    0 -0.44205582078E+02  0.43202539694E+02  0.71797455448E+02  0.94855455993E+02  0.47000000000E+01 0.  1.
         -5    1    3    3    0  501  0.30976791487E+02 -0.53901365146E+02  0.43210104653E+02  0.75855928704E+02  0.47000000000E+01 0.  1.
          5    1    4    4  502    0  0.55550978046E+02  0.85336187260E+01 -0.20206568145E+02  0.59909341564E+02  0.47000000000E+01 0.  1.
         -5    1    4    4    0  502 -0.42322187455E+02  0.21652067257E+01  0.57603199072E+02  0.71666409248E+02  0.47000000000E+01 0.  1.
<mgrwt>
<rscale>  0 0.26105646E+03</rscale>
<asrwt>0</asrwt>
<pdfrwt beam="1">  1       21 0.34976255E-01 0.26105646E+03</pdfrwt>
<pdfrwt beam="2">  1       21 0.11529457E-01 0.26105646E+03</pdfrwt>
<totfact> 0.49002754E+05</totfact>
</mgrwt>
</event>
<event>
 8    1  0.9373234E-006  0.2786491E+03  0.7546771E-02  0.1096429E+00
         21   -1    0    0  504  503  0.00000000000E+00  0.00000000000E+00  0.43111804379E+03  0.43111804379E+03  0.00000000000E+00 0.  1.
         21   -1    0    0  503  504 -0.00000000000E+00 -0.00000000000E+00 -0.45025557708E+02  0.45025557708E+02  0.00000000000E+00 0.  1.
         25    2    1    2    0    0  0.24704756908E+01 -0.51386826335E+02  0.25074205363E+03  0.28485311608E+03  0.12499204420E+03 0.  0.
         25    2    1    2    0    0 -0.24704756908E+01  0.51386826335E+02  0.13535043245E+03  0.19129048542E+03  0.12500240428E+03 0.  0.
          5    1    3    3  501    0  0.40554829465E+02 -0.17123124231E+02  0.20238049483E+02  0.48678169884E+02  0.47000000000E+01 0.  1.
         -5    1    3    3    0  501 -0.38084353774E+02 -0.34263702104E+02  0.23050400414E+03  0.23617494620E+03  0.47000000000E+01 0.  1.
          5    1    4    4  502    0 -0.15713583463E+02  0.29630782423E+02 -0.16200349522E+02  0.37542526512E+02  0.47000000000E+01 0. -1.
         -5    1    4    4    0  502  0.13243107772E+02  0.21756043912E+02  0.15155078198E+03  0.15374795891E+03  0.47000000000E+01 0. -1.
<mgrwt>
<rscale>  0 0.27864910E+03</rscale>
<asrwt>0</asrwt>
<pdfrwt beam="1">  1       21 0.66325850E-01 0.27864910E+03</pdfrwt>
<pdfrwt beam="2">  1       21 0.69270092E-02 0.27864910E+03</pdfrwt>
<totfact> 0.31450585E+05</totfact>
</mgrwt>
</event>
<event>
 8    1  0.9373234E-006  0.2766850E+03  0.7546771E-02  0.1097513E+00
         21   -1    0    0  504  503  0.00000000000E+00  0.00000000000E+00  0.52309073707E+03  0.52309073707E+03  0.00000000000E+00 0.  1.
         21   -1    0    0  503  504 -0.00000000000E+00 -0.00000000000E+00 -0.36587619597E+02  0.36587619597E+02  0.00000000000E+00 0.  1.
         25    2    1    2    0    0 -0.35947964346E+02  0.20501479386E+01  0.33838637203E+03  0.36253521927E+03  0.12501995516E+03 0.  0.
         25    2    1    2    0    0  0.35947964346E+02 -0.20501479386E+01  0.14811674545E+03  0.19714313740E+03  0.12502154653E+03 0.  0.
          5    1    3    3  501    0 -0.49357475452E+02 -0.52375246284E+02  0.21881040358E+03  0.23038969057E+03  0.47000000000E+01 0. -1.
         -5    1    3    3    0  501  0.13409511105E+02  0.54425394223E+02  0.11957596845E+03  0.13214552870E+03  0.47000000000E+01 0. -1.
          5    1    4    4  502    0  0.69414217606E+02  0.12619102344E+01  0.14760272479E+03  0.16318265958E+03  0.47000000000E+01 0. -1.
         -5    1    4    4    0  502 -0.33466253259E+02 -0.33120581730E+01  0.51402065929E+00  0.33960477821E+02  0.47000000000E+01 0. -1.
<mgrwt>
<rscale>  0 0.27668498E+03</rscale>
<asrwt>0</asrwt>
<pdfrwt beam="1">  1       21 0.80475493E-01 0.27668498E+03</pdfrwt>
<pdfrwt beam="2">  1       21 0.56288649E-02 0.27668498E+03</pdfrwt>
<totfact> 0.29191616E+05</totfact>
</mgrwt>
</event>
<event>
 8    1  0.9373234E-006  0.2668325E+03  0.7546771E-02  0.1103106E+00
         21   -1    0    0  504  503  0.00000000000E+00  0.00000000000E+00  0.53654977715E+03  0.53654977715E+03  0.00000000000E+00 0.  1.
         21   -1    0    0  503  504 -0.00000000000E+00 -0.00000000000E+00 -0.33174739118E+02  0.33174739118E+02  0.00000000000E+00 0.  1.
         25    2    1    2    0    0 -0.31719239080E+02 -0.71393895814E+01  0.32305921706E+03  0.34792184535E+03  0.12500108691E+03 0.  0.
         25    2    1    2    0    0  0.31719239080E+02  0.71393895814E+01  0.18031582097E+03  0.22180267093E+03  0.12500219408E+03 0.  0.
          5    1    3    3  501    0 -0.30973690392E+02 -0.32223899023E+02  0.31890248911E+03  0.32205377924E+03  0.47000000000E+01 0.  1.
         -5    1    3    3    0  501 -0.74554868799E+00  0.25084509441E+02  0.41567279565E+01  0.25868066106E+02  0.47000000000E+01 0.  1.
          5    1    4    4  502    0  0.26855955913E+02  0.43867153900E+02  0.17157030243E+02  0.54424472860E+02  0.47000000000E+01 0.  1.
         -5    1    4    4    0  502  0.48632831666E+01 -0.36727764319E+02  0.16315879073E+03  0.16737819807E+03  0.47000000000E+01 0.  1.
<mgrwt>
<rscale>  0 0.26683252E+03</rscale>
<asrwt>0</asrwt>
<pdfrwt beam="1">  1       21 0.82546113E-01 0.26683252E+03</pdfrwt>
<pdfrwt beam="2">  1       21 0.51038064E-02 0.26683252E+03</pdfrwt>
<totfact> 0.32648677E+05</totfact>
</mgrwt>
</event>
<event>
 8    1  0.9373234E-006  0.4609207E+03  0.7546771E-02  0.1024515E+00
         21   -1    0    0  504  503  0.00000000000E+00  0.00000000000E+00  0.89888961805E+02  0.89888961805E+02  0.00000000000E+00 0.  1.
         21   -1    0    0  503  504 -0.00000000000E+00 -0.00000000000E+00 -0.59086191522E+03  0.59086191522E+03  0.00000000000E+00 0.  1.
         25    2    1    2    0    0 -0.23480951434E+02  0.18538070425E+03 -0.17573004162E+03  0.28536392832E+03  0.12503664850E+03 0.  0.
         25    2    1    2    0    0  0.23480951434E+02 -0.18538070425E+03 -0.32524291179E+03  0.39538694870E+03  0.12502210583E+03 0.  0.
          5    1    3    3  501    0  0.32061773426E+02  0.42727168171E+02 -0.18599912711E+01  0.53657411256E+02  0.47000000000E+01 0.  1.
         -5    1    3    3    0  501 -0.55542724859E+02  0.14265353608E+03 -0.17387005035E+03  0.23170651706E+03  0.47000000000E+01 0.  1.
          5    1    4    4  502    0  0.22649885506E+02 -0.14712656439E+03 -0.13414730166E+03  0.20044159200E+03  0.47000000000E+01 0. -1.
         -5    1    4    4    0  502  0.83106592743E+00 -0.38254139860E+02 -0.19109561013E+03  0.19494535670E+03  0.47000000000E+01 0. -1.
<mgrwt>
<rscale>  0 0.46092066E+03</rscale>
<asrwt>0</asrwt>
<pdfrwt beam="1">  1       21 0.13829071E-01 0.46092066E+03</pdfrwt>
<pdfrwt beam="2">  1       21 0.90901837E-01 0.46092066E+03</pdfrwt>
<totfact> 0.42613744E+04</totfact>
</mgrwt>
</event>
<event>
 8    1  0.9373234E-006  0.5069768E+03  0.7546771E-02  0.1011974E+00
         21   -1    0    0  504  503  0.00000000000E+00  0.00000000000E+00  0.11267529612E+03  0.11267529612E+03  0.00000000000E+00 0.  1.
         21   -1    0    0  503  504 -0.00000000000E+00 -0.00000000000E+00 -0.57027916573E+03  0.57027916573E+03  0.00000000000E+00 0.  1.
         25    2    1    2    0    0 -0.14953029375E+03 -0.16122945759E+03 -0.20646615035E+03  0.32651437842E+03  0.12501648424E+03 0.  0.
         25    2    1    2    0    0  0.14953029375E+03  0.16122945759E+03 -0.25113771926E+03  0.35644008343E+03  0.12500052918E+03 0.  0.
          5    1    3    3  501    0 -0.16234818399E+02  0.15507611871E+02  0.11746220357E+01  0.22967914388E+02  0.47000000000E+01 0. -1.
         -5    1    3    3    0  501 -0.13329547535E+03 -0.17673706946E+03 -0.20764077239E+03  0.30354646403E+03  0.47000000000E+01 0. -1.
          5    1    4    4  502    0 -0.21719017807E+02  0.10083058960E+02 -0.21654353268E+02  0.32624911156E+02  0.47000000000E+01 0. -1.
         -5    1    4    4    0  502  0.17124931156E+03  0.15114639863E+03 -0.22948336600E+03  0.32381517228E+03  0.47000000000E+01 0. -1.
<mgrwt>
<rscale>  0 0.50697682E+03</rscale>
<asrwt>0</asrwt>
<pdfrwt beam="1">  1       21 0.17334661E-01 0.50697682E+03</pdfrwt>
<pdfrwt beam="2">  1       21 0.87735257E-01 0.50697682E+03</pdfrwt>
<totfact> 0.30115460E+04</totfact>
</mgrwt>
</event>
<event>
 8    1  0.9373234E-006  0.4335292E+03  0.7546771E-02  0.1032751E+00
         21   -1    0    0  504  503  0.00000000000E+00  0.00000000000E+00  0.72248910248E+02  0.72248910248E+02  0.00000000000E+00 0. -1.
         21   -1    0    0  503  504 -0.00000000000E+00 -0.00000000000E+00 -0.65034755152E+03  0.65034755152E+03  0.00000000000E+00 0. -1.
         25    2    1    2    0    0 -0.17523040354E+03  0.13939136216E+02 -0.32495945444E+03  0.39002099518E+03  0.12497093985E+03 0.  0.
         25    2    1    2    0    0  0.17523040354E+03 -0.13939136216E+02 -0.25313918683E+03  0.33257546659E+03  0.12500799664E+03 0.  0.
          5    1    3    3  501    0 -0.16292098459E+03  0.53144742049E+02 -0.23380106370E+03  0.28991833025E+03  0.47000000000E+01 0. -1.
         -5    1    3    3    0  501 -0.12309418947E+02 -0.39205605833E+02 -0.91158390735E+02  0.10010266492E+03  0.47000000000E+01 0. -1.
          5    1    4    4  502    0  0.69570469436E+02 -0.28066911137E+02 -0.19941328561E+03  0.21310924475E+03  0.47000000000E+01 0. -1.
         -5    1    4    4    0  502  0.10565993411E+03  0.14127774921E+02 -0.53725901222E+02  0.11946622184E+03  0.47000000000E+01 0. -1.
<mgrwt>
<rscale>  0 0.43352925E+03</rscale>
<asrwt>0</asrwt>
<pdfrwt beam="1">  1       21 0.11115217E-01 0.43352925E+03</pdfrwt>
<pdfrwt beam="2">  1       21 0.10005347E+00 0.43352925E+03</pdfrwt>
<totfact> 0.50780101E+04</totfact>
</mgrwt>
</event>
<event>
 8    1  0.9373234E-006  0.2791291E+03  0.7546771E-02  0.1096166E+00
         21   -1    0    0  504  503  0.00000000000E+00  0.00000000000E+00  0.10592331421E+04  0.10592331421E+04  0.00000000000E+00 0. -1.
         21   -1    0    0  503  504 -0.00000000000E+00 -0.00000000000E+00 -0.18389021604E+02  0.18389021604E+02  0.00000000000E+00 0. -1.
         25    2    1    2    0    0  0.58667152359E+02 -0.88221556254E+01  0.59013597081E+03  0.60614809511E+03  0.12504152895E+03 0.  0.
         25    2    1    2    0    0 -0.58667152359E+02  0.88221556254E+01  0.45070814964E+03  0.47147406855E+03  0.12502118208E+03 0.  0.
          5    1    3    3  501    0  0.10809213315E+01 -0.45199018994E+02  0.42543332163E+03  0.42785478945E+03  0.47000000000E+01 0.  1.
         -5    1    3    3    0  501  0.57586231028E+02  0.36376863369E+02  0.16470264918E+03  0.17829330565E+03  0.47000000000E+01 0.  1.
          5    1    4    4  502    0 -0.71381535661E+02 -0.46143648402E+01  0.44612191689E+03  0.45184452052E+03  0.47000000000E+01 0. -1.
         -5    1    4    4    0  502  0.12714383302E+02  0.13436520466E+02  0.45862327493E+01  0.19629548028E+02  0.47000000000E+01 0. -1.
<mgrwt>
<rscale>  0 0.27912908E+03</rscale>
<asrwt>0</asrwt>
<pdfrwt beam="1">  1       21 0.16295890E+00 0.27912908E+03</pdfrwt>
<pdfrwt beam="2">  1       21 0.28290811E-02 0.27912908E+03</pdfrwt>
<totfact> 0.16131663E+05</totfact>
</mgrwt>
</event>
<event>
 8    1  0.9373234E-006  0.2770608E+03  0.7546771E-02  0.1097305E+00
         21   -1    0    0  504  503  0.00000000000E+00  0.00000000000E+00  0.25490112104E+03  0.25490112104E+03  0.00000000000E+00 0. -1.
         21   -1    0    0  503  504 -0.00000000000E+00 -0.00000000000E+00 -0.75286720244E+02  0.75286720244E+02  0.00000000000E+00 0. -1.
         25    2    1    2    0    0 -0.17750738206E+02  0.24421753555E+02  0.28418486207E+02  0.13169840684E+03  0.12500139700E+03 0.  0.
         25    2    1    2    0    0  0.17750738206E+02 -0.24421753555E+02  0.15119591458E+03  0.19848943444E+03  0.12500536086E+03 0.  0.
          5    1    3    3  501    0  0.10638449814E+02 -0.31121449974E+02  0.54577406152E+02  0.63894479614E+02  0.47000000000E+01 0. -1.
         -5    1    3    3    0  501 -0.28389188020E+02  0.55543203529E+02 -0.26158919945E+02  0.67803927227E+02  0.47000000000E+01 0. -1.
          5    1    4    4  502    0 -0.28869216633E+02 -0.36342921285E+02  0.79751937987E+01  0.47327933746E+02  0.47000000000E+01 0. -1.
         -5    1    4    4    0  502  0.46619954839E+02  0.11921167730E+02  0.14322072079E+03  0.15116150069E+03  0.47000000000E+01 0. -1.
<mgrwt>
<rscale>  0 0.27706078E+03</rscale>
<asrwt>0</asrwt>
<pdfrwt beam="1">  1       21 0.39215557E-01 0.27706078E+03</pdfrwt>
<pdfrwt beam="2">  1       21 0.11582572E-01 0.27706078E+03</pdfrwt>
<totfact> 0.38481425E+05</totfact>
</mgrwt>
</event>
<event>
 8    1  0.9373234E-006  0.2658898E+03  0.7546771E-02  0.1103655E+00
         21   -1    0    0  504  503  0.00000000000E+00  0.00000000000E+00  0.11647622932E+03  0.11647622932E+03  0.00000000000E+00 0.  1.
         21   -1    0    0  503  504 -0.00000000000E+00 -0.00000000000E+00 -0.15174207021E+03  0.15174207021E+03  0.00000000000E+00 0.  1.
         25    2    1    2    0    0 -0.65195059193E+01 -0.44627442586E+02 -0.21806245657E+02  0.13465128992E+03  0.12498537889E+03 0.  0.
         25    2    1    2    0    0  0.65195059193E+01  0.44627442586E+02 -0.13459595229E+02  0.13356700961E+03  0.12499949105E+03 0.  0.
          5    1    3    3  501    0 -0.34405426719E+02 -0.23818633174E+02  0.43476708906E+02  0.60525820039E+02  0.47000000000E+01 0.  1.
         -5    1    3    3    0  501  0.27885920800E+02 -0.20808809412E+02 -0.65282954563E+02  0.74125469877E+02  0.47000000000E+01 0.  1.
          5    1    4    4  502    0 -0.52197543091E+02 -0.89637435448E+01 -0.76886011722E+01  0.53722777209E+02  0.47000000000E+01 0.  1.
         -5    1    4    4    0  502  0.58717049010E+02  0.53591186131E+02 -0.57709940572E+01  0.79844232401E+02  0.47000000000E+01 0.  1.
<mgrwt>
<rscale>  0 0.26588978E+03</rscale>
<asrwt>0</asrwt>
<pdfrwt beam="1">  1       21 0.17919420E-01 0.26588978E+03</pdfrwt>
<pdfrwt beam="2">  1       21 0.23344934E-01 0.26588978E+03</pdfrwt>
<totfact> 0.48157675E+05</totfact>
</mgrwt>
</event>
<event>
 8    1  0.9373234E-006  0.2883530E+03  0.7546771E-02  0.1091212E+00
         21   -1    0    0  504  503  0.00000000000E+00  0.00000000000E+00  0.13648751764E+04  0.13648751764E+04  0.00000000000E+00 0. -1.
         21   -1    0    0  503  504 -0.00000000000E+00 -0.00000000000E+00 -0.15229862723E+02  0.15229862723E+02  0.00000000000E+00 0. -1.
         25    2    1    2    0    0  0.22687078191E+02 -0.42864657790E+02  0.42113272173E+03  0.44196160281E+03  0.12500082656E+03 0.  0.
         25    2    1    2    0    0 -0.22687078191E+02  0.42864657790E+02  0.92851259190E+03  0.93814343627E+03  0.12500156516E+03 0.  0.
          5    1    3    3  501    0 -0.22265092590E+01  0.30396840696E+02  0.29316778603E+02  0.42549838724E+02  0.47000000000E+01 0.  1.
         -5    1    3    3    0  501  0.24913587450E+02 -0.73261498486E+02  0.39181594313E+03  0.39941176408E+03  0.47000000000E+01 0.  1.
          5    1    4    4  502    0  0.13359773938E+02  0.50395296730E+02  0.84653258979E+03  0.84814956528E+03  0.47000000000E+01 0.  1.
         -5    1    4    4    0  502 -0.36046852129E+02 -0.75306389401E+01  0.81980002109E+02  0.89993870997E+02  0.47000000000E+01 0.  1.
<mgrwt>
<rscale>  0 0.28835299E+03</rscale>
<asrwt>0</asrwt>
<pdfrwt beam="1">  1       21 0.20998070E+00 0.28835299E+03</pdfrwt>
<pdfrwt beam="2">  1       21 0.23430569E-02 0.28835299E+03</pdfrwt>
<totfact> 0.10513411E+05</totfact>
</mgrwt>
</event>
<event>
 8    1  0.9373234E-006  0.4673080E+03  0.7546771E-02  0.1022683E+00
         21   -1    0    0  504  503  0.00000000000E+00  0.00000000000E+00  0.10992431393E+04  0.10992431393E+04  0.00000000000E+00 0. -1.
         21   -1    0    0  503  504 -0.00000000000E+00 -0.00000000000E+00 -0.49665262259E+02  0.49665262259E+02  0.00000000000E+00 0. -1.
         25    2    1    2    0    0 -0.86965236021E+01  0.18360568506E+03  0.70177222847E+03  0.73613730481E+03  0.12500877475E+03 0.  0.
         25    2    1    2    0    0  0.86965236021E+01 -0.18360568506E+03  0.34780564856E+03  0.41277109674E+03  0.12499812810E+03 0.  0.
          5    1    3    3  501    0 -0.75685505617E+01  0.18062361173E+03  0.45961029632E+03  0.49390878364E+03  0.47000000000E+01 0.  1.
         -5    1    3    3    0  501 -0.11279730404E+01  0.29820733329E+01  0.24216193216E+03  0.24222852117E+03  0.47000000000E+01 0.  1.
          5    1    4    4  502    0 -0.55824462833E+02 -0.75169269837E+02  0.11962071532E+03  0.15198024645E+03  0.47000000000E+01 0. -1.
         -5    1    4    4    0  502  0.64520986435E+02 -0.10843641522E+03  0.22818493325E+03  0.26079085029E+03  0.47000000000E+01 0. -1.
<mgrwt>
<rscale>  0 0.46730803E+03</rscale>
<asrwt>0</asrwt>
<pdfrwt beam="1">  1       21 0.16911431E+00 0.46730803E+03</pdfrwt>
<pdfrwt beam="2">  1       21 0.76408104E-02 0.46730803E+03</pdfrwt>
<totfact> 0.25007547E+04</totfact>
</mgrwt>
</event>
<event>
 8    1  0.9373234E-006  0.3387164E+03  0.7546771E-02  0.1067344E+00
         21   -1    0    0  504  503  0.00000000000E+00  0.00000000000E+00  0.23649822396E+02  0.23649822396E+02  0.00000000000E+00 0. -1.
         21   -1    0    0  503  504 -0.00000000000E+00 -0.00000000000E+00 -0.12127874665E+04  0.12127874665E+04  0.00000000000E+00 0. -1.
         25    2    1    2    0    0  0.10048055716E+03  0.52254405677E+02 -0.53900892677E+03  0.56478477224E+03  0.12499740210E+03 0.  0.
         25    2    1    2    0    0 -0.10048055716E+03 -0.52254405677E+02 -0.65012871730E+03  0.67165251662E+03  0.12499155472E+03 0.  0.
          5    1    3    3  501    0  0.93105457350E+02 -0.15539433038E+02 -0.38243806075E+03  0.39394296602E+03  0.47000000000E+01 0. -1.
         -5    1    3    3    0  501  0.73750998138E+01  0.67793838714E+02 -0.15657086602E+03  0.17084180622E+03  0.47000000000E+01 0. -1.
          5    1    4    4  502    0  0.20417749467E+02 -0.14973967455E+02 -0.26500196191E+03  0.26625032209E+03  0.47000000000E+01 0. -1.
         -5    1    4    4    0  502 -0.12089830663E+03 -0.37280438222E+02 -0.38512675539E+03  0.40540219454E+03  0.47000000000E+01 0. -1.
<mgrwt>
<rscale>  0 0.33871645E+03</rscale>
<asrwt>0</asrwt>
<pdfrwt beam="1">  1       21 0.36384330E-02 0.33871645E+03</pdfrwt>
<pdfrwt beam="2">  1       21 0.18658275E+00 0.33871645E+03</pdfrwt>
<totfact> 0.70567216E+04</totfact>
</mgrwt>
</event>
<event>
 8    1  0.9373234E-006  0.3531240E+03  0.7546771E-02  0.1061340E+00
         21   -1    0    0  504  503  0.00000000000E+00  0.00000000000E+00  0.57080555424E+03  0.57080555424E+03  0.00000000000E+00 0.  1.
         21   -1    0    0  503  504 -0.00000000000E+00 -0.00000000000E+00 -0.54614279083E+02  0.54614279083E+02  0.00000000000E+00 0.  1.
         25    2    1    2    0    0  0.96959361206E+02  0.31134729193E+02  0.13064913752E+03  0.20751935166E+03  0.12499838035E+03 0.  0.
         25    2    1    2    0    0 -0.96959361206E+02 -0.31134729193E+02  0.38554213764E+03  0.41790048167E+03  0.12501033395E+03 0.  0.
          5    1    3    3  501    0 -0.26152669968E+02 -0.12001140780E+02  0.13520979183E+02  0.32138705707E+02  0.47000000000E+01 0.  1.
         -5    1    3    3    0  501  0.12311203117E+03  0.43135869974E+02  0.11712815833E+03  0.17538064595E+03  0.47000000000E+01 0.  1.
          5    1    4    4  502    0 -0.21422314516E+02  0.41106285637E+02  0.60042752566E+02  0.75999107980E+02  0.47000000000E+01 0. -1.
         -5    1    4    4    0  502 -0.75537046690E+02 -0.72241014830E+02  0.32549938507E+03  0.34190137369E+03  0.47000000000E+01 0. -1.
<mgrwt>
<rscale>  0 0.35312397E+03</rscale>
<asrwt>0</asrwt>
<pdfrwt beam="1">  1       21 0.87816235E-01 0.35312397E+03</pdfrwt>
<pdfrwt beam="2">  1       21 0.84021972E-02 0.35312397E+03</pdfrwt>
<totfact> 0.11653046E+05</totfact>
</mgrwt>
</event>
<event>
 8    1  0.9373234E-006  0.2949875E+03  0.7546771E-02  0.1087773E+00
         21   -1    0    0  504  503  0.00000000000E+00  0.00000000000E+00  0.30823577511E+03  0.30823577511E+03  0.00000000000E+00 0.  1.
         21   -1    0    0  503  504 -0.00000000000E+00 -0.00000000000E+00 -0.70577162103E+02  0.70577162103E+02  0.00000000000E+00 0.  1.
         25    2    1    2    0    0 -0.31128799562E+02 -0.17004779576E+02  0.29226862813E+02  0.13319986735E+03  0.12501932035E+03 0.  0.
         25    2    1    2    0    0  0.31128799562E+02  0.17004779576E+02  0.20843175020E+03  0.24561306987E+03  0.12499528355E+03 0.  0.
          5    1    3    3  501    0 -0.14973061974E+02 -0.50541594628E+02 -0.31668244664E+02  0.61673439117E+02  0.47000000000E+01 0. -1.
         -5    1    3    3    0  501 -0.16155737588E+02  0.33536815053E+02  0.60895107477E+02  0.71526428231E+02  0.47000000000E+01 0. -1.
          5    1    4    4  502    0 -0.24040540665E+02 -0.40376330088E+02  0.10399084601E+03  0.11421200323E+03  0.47000000000E+01 0.  1.
         -5    1    4    4    0  502  0.55169340227E+02  0.57381109664E+02  0.10444090419E+03  0.13140106664E+03  0.47000000000E+01 0.  1.
<mgrwt>
<rscale>  0 0.29498750E+03</rscale>
<asrwt>0</asrwt>
<pdfrwt beam="1">  1       21 0.47420888E-01 0.29498750E+03</pdfrwt>
<pdfrwt beam="2">  1       21 0.10858025E-01 0.29498750E+03</pdfrwt>
<totfact> 0.29110075E+05</totfact>
</mgrwt>
</event>
<event>
 8    1  0.9373234E-006  0.2833343E+03  0.7546771E-02  0.1093882E+00
         21   -1    0    0  504  503  0.00000000000E+00  0.00000000000E+00  0.12379490390E+03  0.12379490390E+03  0.00000000000E+00 0.  1.
         21   -1    0    0  503  504 -0.00000000000E+00 -0.00000000000E+00 -0.16211965695E+03  0.16211965695E+03  0.00000000000E+00 0.  1.
         25    2    1    2    0    0 -0.44785284511E+02 -0.49238963222E+02 -0.15286465595E+02  0.14243847529E+03  0.12499938402E+03 0.  0.
         25    2    1    2    0    0  0.44785284511E+02  0.49238963222E+02 -0.23038287462E+02  0.14347608556E+03  0.12499770890E+03 0.  0.
          5    1    3    3  501    0 -0.22164365676E+02  0.39696200866E+02  0.10709066986E+02  0.46944878152E+02  0.47000000000E+01 0.  1.
         -5    1    3    3    0  501 -0.22620918835E+02 -0.88935164088E+02 -0.25995532580E+02  0.95493597139E+02  0.47000000000E+01 0.  1.
          5    1    4    4  502    0  0.56366728614E+02 -0.13344436742E+02 -0.47572500525E+02  0.75103361395E+02  0.47000000000E+01 0. -1.
         -5    1    4    4    0  502 -0.11581444103E+02  0.62583399964E+02  0.24534213063E+02  0.68372724161E+02  0.47000000000E+01 0. -1.
<mgrwt>
<rscale>  0 0.28333434E+03</rscale>
<asrwt>0</asrwt>
<pdfrwt beam="1">  1       21 0.19045370E-01 0.28333434E+03</pdfrwt>
<pdfrwt beam="2">  1       21 0.24941486E-01 0.28333434E+03</pdfrwt>
<totfact> 0.37736231E+05</totfact>
</mgrwt>
</event>
<event>
 8    1  0.9373234E-006  0.4000783E+03  0.7546771E-02  0.1043753E+00
         21   -1    0    0  504  503  0.00000000000E+00  0.00000000000E+00  0.68345853841E+03  0.68345853841E+03  0.00000000000E+00 0. -1.
         21   -1    0    0  503  504 -0.00000000000E+00 -0.00000000000E+00 -0.58548766601E+02  0.58548766601E+02  0.00000000000E+00 0. -1.
         25    2    1    2    0    0 -0.12351063965E+03  0.31563911661E+02  0.47979530584E+03  0.51193702293E+03  0.12499928529E+03 0.  0.
         25    2    1    2    0    0  0.12351063965E+03 -0.31563911661E+02  0.14511446598E+03  0.23007028208E+03  0.12499187108E+03 0.  0.
          5    1    3    3  501    0 -0.34968629043E+02  0.24377578346E+02  0.27428783342E+02  0.50906772622E+02  0.47000000000E+01 0. -1.
         -5    1    3    3    0  501 -0.88542010602E+02  0.71863333150E+01  0.45236652249E+03  0.46103025031E+03  0.47000000000E+01 0. -1.
          5    1    4    4  502    0  0.78886114876E+02  0.41591768685E+02  0.51574404643E+02  0.10312566876E+03  0.47000000000E+01 0.  1.
         -5    1    4    4    0  502  0.44624524769E+02 -0.73155680346E+02  0.93540061333E+02  0.12694461332E+03  0.47000000000E+01 0.  1.
<mgrwt>
<rscale>  0 0.40007826E+03</rscale>
<asrwt>0</asrwt>
<pdfrwt beam="1">  1       21 0.10514746E+00 0.40007826E+03</pdfrwt>
<pdfrwt beam="2">  1       21 0.90075031E-02 0.40007826E+03</pdfrwt>
<totfact> 0.66146804E+04</totfact>
</mgrwt>
</event>
<event>
 8    1  0.9373234E-006  0.3525021E+03  0.7546771E-02  0.1061593E+00
         21   -1    0    0  504  503  0.00000000000E+00  0.00000000000E+00  0.97389893981E+03  0.97389893981E+03  0.00000000000E+00 0. -1.
         21   -1    0    0  503  504 -0.00000000000E+00 -0.00000000000E+00 -0.31896975048E+02  0.31896975048E+02  0.00000000000E+00 0. -1.
         25    2    1    2    0    0 -0.33123591235E+02 -0.11528770250E+03  0.37853715030E+03  0.41629678897E+03  0.12499686276E+03 0.  0.
         25    2    1    2    0    0  0.33123591235E+02  0.11528770250E+03  0.56346481446E+03  0.58949912589E+03  0.12501278195E+03 0.  0.
          5    1    3    3  501    0 -0.22559623394E+02  0.10472811849E+02  0.17457911750E+03  0.17640457665E+03  0.47000000000E+01 0. -1.
         -5    1    3    3    0  501 -0.10563967841E+02 -0.12576051435E+03  0.20395803281E+03  0.23989221232E+03  0.47000000000E+01 0. -1.
          5    1    4    4  502    0 -0.22874806799E+02  0.64900039514E+02  0.11028889264E+03  0.13008075090E+03  0.47000000000E+01 0.  1.
         -5    1    4    4    0  502  0.55998398034E+02  0.50387662985E+02  0.45317592182E+03  0.45941837499E+03  0.47000000000E+01 0.  1.
<mgrwt>
<rscale>  0 0.35250209E+03</rscale>
<asrwt>0</asrwt>
<pdfrwt beam="1">  1       21 0.14983058E+00 0.35250209E+03</pdfrwt>
<pdfrwt beam="2">  1       21 0.49072277E-02 0.35250209E+03</pdfrwt>
<totfact> 0.78164183E+04</totfact>
</mgrwt>
</event>
<event>
 8    1  0.9373234E-006  0.3230599E+03  0.7546771E-02  0.1074250E+00
         21   -1    0    0  504  503  0.00000000000E+00  0.00000000000E+00  0.71809871384E+02  0.71809871384E+02  0.00000000000E+00 0. -1.
         21   -1    0    0  503  504 -0.00000000000E+00 -0.00000000000E+00 -0.36334731239E+03  0.36334731239E+03  0.00000000000E+00 0. -1.
         25    2    1    2    0    0  0.75074819137E+02 -0.40023560607E+02 -0.69242465842E+02  0.16631166025E+03  0.12500774131E+03 0.  0.
         25    2    1    2    0    0 -0.75074819137E+02  0.40023560607E+02 -0.22229497516E+03  0.26884552351E+03  0.12499898264E+03 0.  0.
          5    1    3    3  501    0  0.19191529331E+01 -0.68783088433E+02 -0.14695122292E+02  0.70518316922E+02  0.47000000000E+01 0. -1.
         -5    1    3    3    0  501  0.73155666204E+02  0.28759527825E+02 -0.54547343550E+02  0.95793343333E+02  0.47000000000E+01 0. -1.
          5    1    4    4  502    0 -0.59259713379E+02  0.56734222644E+02 -0.22991369533E+03  0.24415749620E+03  0.47000000000E+01 0.  1.
         -5    1    4    4    0  502 -0.15815105758E+02 -0.16710662037E+02  0.76187201696E+01  0.24688027318E+02  0.47000000000E+01 0.  1.
<mgrwt>
<rscale>  0 0.32305989E+03</rscale>
<asrwt>0</asrwt>
<pdfrwt beam="1">  1       21 0.11047673E-01 0.32305989E+03</pdfrwt>
<pdfrwt beam="2">  1       21 0.55899587E-01 0.32305989E+03</pdfrwt>
<totfact> 0.19798954E+05</totfact>
</mgrwt>
</event>
<event>
 8    1  0.9373234E-006  0.4519573E+03  0.7546771E-02  0.1027140E+00
         21   -1    0    0  504  503  0.00000000000E+00  0.00000000000E+00  0.10540607486E+04  0.10540607486E+04  0.00000000000E+00 0.  1.
         21   -1    0    0  503  504 -0.00000000000E+00 -0.00000000000E+00 -0.48447252335E+02  0.48447252335E+02  0.00000000000E+00 0.  1.
         25    2    1    2    0    0  0.58825340765E+02  0.17772531995E+03  0.45431350501E+03  0.50702382104E+03  0.12500273680E+03 0.  0.
         25    2    1    2    0    0 -0.58825340765E+02 -0.17772531995E+03  0.55129999128E+03  0.59548417991E+03  0.12499207204E+03 0.  0.
          5    1    3    3  501    0  0.14985250223E+02  0.15186700802E+03  0.22384669920E+03  0.27095678731E+03  0.47000000000E+01 0.  1.
         -5    1    3    3    0  501  0.43840090542E+02  0.25858311929E+02  0.23046680581E+03  0.23606703373E+03  0.47000000000E+01 0.  1.
          5    1    4    4  502    0  0.36376910090E+02 -0.37394259422E+02  0.92137946731E+02  0.10598632673E+03  0.47000000000E+01 0. -1.
         -5    1    4    4    0  502 -0.95202250855E+02 -0.14033106053E+03  0.45916204455E+03  0.48949785318E+03  0.47000000000E+01 0. -1.
<mgrwt>
<rscale>  0 0.45195729E+03</rscale>
<asrwt>0</asrwt>
<pdfrwt beam="1">  1       21 0.16216317E+00 0.45195729E+03</pdfrwt>
<pdfrwt beam="2">  1       21 0.74534242E-02 0.45195729E+03</pdfrwt>
<totfact> 0.29542850E+04</totfact>
</mgrwt>
</event>
<event>
 8    1  0.9373234E-006  0.2901200E+03  0.7546771E-02  0.1090287E+00
         21   -1    0    0  504  503  0.00000000000E+00  0.00000000000E+00  0.23982982048E+03  0.23982982048E+03  0.00000000000E+00 0. -1.
         21   -1    0    0  503  504 -0.00000000000E+00 -0.00000000000E+00 -0.87738901015E+02  0.87738901015E+02  0.00000000000E+00 0. -1.
         25    2    1    2    0    0  0.92814638392E+01 -0.69224928608E+02  0.49907390171E+02  0.15164216783E+03  0.12500545251E+03 0.  0.
         25    2    1    2    0    0 -0.92814638392E+01  0.69224928608E+02  0.10218352929E+03  0.17592655367E+03  0.12502176736E+03 0.  0.
          5    1    3    3  501    0  0.18568139975E+02 -0.50019154058E+01 -0.37662721286E+02  0.42548390739E+02  0.47000000000E+01 0. -1.
         -5    1    3    3    0  501 -0.92866761354E+01 -0.64223013202E+02  0.87570111457E+02  0.10909377709E+03  0.47000000000E+01 0. -1.
          5    1    4    4  502    0  0.55065536827E+02  0.38825223241E+02  0.71283423685E+02  0.98198919536E+02  0.47000000000E+01 0.  1.
         -5    1    4    4    0  502 -0.64347000666E+02  0.30399705367E+02  0.30900105608E+02  0.77727634132E+02  0.47000000000E+01 0.  1.
<mgrwt>
<rscale>  0 0.29012001E+03</rscale>
<asrwt>0</asrwt>
<pdfrwt beam="1">  1       21 0.36896895E-01 0.29012001E+03</pdfrwt>
<pdfrwt beam="2">  1       21 0.13498293E-01 0.29012001E+03</pdfrwt>
<totfact> 0.32915066E+05</totfact>
</mgrwt>
</event>
<event>
 8    1  0.9373234E-006  0.2615039E+03  0.7546771E-02  0.1106243E+00
         21   -1    0    0  504  503  0.00000000000E+00  0.00000000000E+00  0.43381415348E+03  0.43381415348E+03  0.00000000000E+00 0. -1.
         21   -1    0    0  503  504 -0.00000000000E+00 -0.00000000000E+00 -0.39408733748E+02  0.39408733748E+02  0.00000000000E+00 0. -1.
         25    2    1    2    0    0  0.54825293010E+01  0.15045902254E+02  0.26019559521E+03  0.28910815921E+03  0.12500137061E+03 0.  0.
         25    2    1    2    0    0 -0.54825293010E+01 -0.15045902254E+02  0.13420982453E+03  0.18411472802E+03  0.12501807378E+03 0.  0.
          5    1    3    3  501    0  0.32310524467E+01 -0.28412717166E+02  0.40634172722E+01  0.29263006623E+02  0.47000000000E+01 0.  1.
         -5    1    3    3    0  501  0.22514768543E+01  0.43458619420E+02  0.25613217793E+03  0.25984515259E+03  0.47000000000E+01 0.  1.
          5    1    4    4  502    0 -0.46527173838E+02 -0.14459599936E+02  0.13414627073E+03  0.14279765365E+03  0.47000000000E+01 0. -1.
         -5    1    4    4    0  502  0.41044644537E+02 -0.58630231801E+00  0.63553795114E-01  0.41317074372E+02  0.47000000000E+01 0. -1.
<mgrwt>
<rscale>  0 0.26150385E+03</rscale>
<asrwt>0</asrwt>
<pdfrwt beam="1">  1       21 0.66740636E-01 0.26150385E+03</pdfrwt>
<pdfrwt beam="2">  1       21 0.60628824E-02 0.26150385E+03</pdfrwt>
<totfact> 0.39216626E+05</totfact>
</mgrwt>
</event>
<event>
 8    1  0.9373234E-006  0.2906377E+03  0.7546771E-02  0.1090017E+00
         21   -1    0    0  504  503  0.00000000000E+00  0.00000000000E+00  0.15038912661E+03  0.15038912661E+03  0.00000000000E+00 0. -1.
         21   -1    0    0  503  504 -0.00000000000E+00 -0.00000000000E+00 -0.14041948366E+03  0.14041948366E+03  0.00000000000E+00 0. -1.
         25    2    1    2    0    0  0.63402232039E+02  0.12283426595E+02 -0.31387304387E+02  0.14415719413E+03  0.12500163258E+03 0.  0.
         25    2    1    2    0    0 -0.63402232039E+02 -0.12283426595E+02  0.41356947335E+02  0.14665141613E+03  0.12500206064E+03 0.  0.
          5    1    3    3  501    0  0.98521758618E+02 -0.84784735180E+01 -0.28354032691E+02  0.10297797145E+03  0.47000000000E+01 0.  1.
         -5    1    3    3    0  501 -0.35119526579E+02  0.20761900113E+02 -0.30332716960E+01  0.41179222681E+02  0.47000000000E+01 0.  1.
          5    1    4    4  502    0 -0.71930883702E+02 -0.21786015389E+02 -0.24665808783E+02  0.79241243173E+02  0.47000000000E+01 0.  1.
         -5    1    4    4    0  502  0.85286516626E+01  0.95025887946E+01  0.66022756118E+02  0.67410172959E+02  0.47000000000E+01 0.  1.
<mgrwt>
<rscale>  0 0.29063767E+03</rscale>
<asrwt>0</asrwt>
<pdfrwt beam="1">  1       21 0.23136789E-01 0.29063767E+03</pdfrwt>
<pdfrwt beam="2">  1       21 0.21602998E-01 0.29063767E+03</pdfrwt>
<totfact> 0.34312779E+05</totfact>
</mgrwt>
</event>
<event>
 8    1  0.9373234E-006  0.3221456E+03  0.7546771E-02  0.1074666E+00
         21   -1    0    0  504  503  0.00000000000E+00  0.00000000000E+00  0.15548383961E+03  0.15548383961E+03  0.00000000000E+00 0.  1.
         21   -1    0    0  503  504 -0.00000000000E+00 -0.00000000000E+00 -0.16686261479E+03  0.16686261479E+03  0.00000000000E+00 0.  1.
         25    2    1    2    0    0  0.55009041675E+02 -0.35842353111E+02 -0.83253960887E+02  0.16391144430E+03  0.12500028250E+03 0.  0.
         25    2    1    2    0    0 -0.55009041675E+02  0.35842353111E+02  0.71875185707E+02  0.15843501010E+03  0.12499976464E+03 0.  0.
          5    1    3    3  501    0  0.62965071871E+02  0.29443318053E+02 -0.65507513223E+02  0.95628623029E+02  0.47000000000E+01 0.  1.
         -5    1    3    3    0  501 -0.79560301962E+01 -0.65285671164E+02 -0.17746447664E+02  0.68282821270E+02  0.47000000000E+01 0.  1.
          5    1    4    4  502    0 -0.85377534112E+01 -0.23234217961E+02  0.78873281418E+02  0.82799798545E+02  0.47000000000E+01 0. -1.
         -5    1    4    4    0  502 -0.46471288264E+02  0.59076571072E+02 -0.69980957102E+01  0.75635211550E+02  0.47000000000E+01 0. -1.
<mgrwt>
<rscale>  0 0.32214556E+03</rscale>
<asrwt>0</asrwt>
<pdfrwt beam="1">  1       21 0.23920591E-01 0.32214556E+03</pdfrwt>
<pdfrwt beam="2">  1       21 0.25671171E-01 0.32214556E+03</pdfrwt>
<totfact> 0.22978852E+05</totfact>
</mgrwt>
</event>
<event>
 8    1  0.9373234E-006  0.2783046E+03  0.7546771E-02  0.1096619E+00
         21   -1    0    0  504  503  0.00000000000E+00  0.00000000000E+00  0.32335783185E+03  0.32335783185E+03  0.00000000000E+00 0.  1.
         21   -1    0    0  503  504 -0.00000000000E+00 -0.00000000000E+00 -0.59882162920E+02  0.59882162920E+02  0.00000000000E+00 0.  1.
         25    2    1    2    0    0 -0.30323178192E+02  0.48708110042E+02  0.16080074657E+03  0.21160196575E+03  0.12500614662E+03 0.  0.
         25    2    1    2    0    0  0.30323178192E+02 -0.48708110042E+02  0.10267492236E+03  0.17163802902E+03  0.12500199280E+03 0.  0.
          5    1    3    3  501    0  0.41849704754E+02 -0.10038103982E+02  0.39170777370E+02  0.58383226352E+02  0.47000000000E+01 0. -1.
         -5    1    3    3    0  501 -0.72172882946E+02  0.58746214024E+02  0.12162996920E+03  0.15321873940E+03  0.47000000000E+01 0. -1.
          5    1    4    4  502    0 -0.33699868476E+02  0.25322721165E+01  0.79160357247E+02  0.86200613089E+02  0.47000000000E+01 0. -1.
         -5    1    4    4    0  502  0.64023046668E+02 -0.51240382159E+02  0.23514565112E+02  0.85437415930E+02  0.47000000000E+01 0. -1.
<mgrwt>
<rscale>  0 0.27830463E+03</rscale>
<asrwt>0</asrwt>
<pdfrwt beam="1">  1       21 0.49747358E-01 0.27830463E+03</pdfrwt>
<pdfrwt beam="2">  1       21 0.92126407E-02 0.27830463E+03</pdfrwt>
<totfact> 0.35407356E+05</totfact>
</mgrwt>
</event>
<event>
 8    1  0.9373234E-006  0.2711213E+03  0.7546771E-02  0.1100640E+00
         21   -1    0    0  504  503  0.00000000000E+00  0.00000000000E+00  0.24568514084E+03  0.24568514084E+03  0.00000000000E+00 0.  1.
         21   -1    0    0  503  504 -0.00000000000E+00 -0.00000000000E+00 -0.74797701000E+02  0.74797701000E+02  0.00000000000E+00 0.  1.
         25    2    1    2    0    0  0.39380229082E+02  0.24809286565E+02  0.11408251827E+03  0.17553128697E+03  0.12502043268E+03 0.  0.
         25    2    1    2    0    0 -0.39380229082E+02 -0.24809286565E+02  0.56804921568E+02  0.14495155487E+03  0.12497140074E+03 0.  0.
          5    1    3    3  501    0  0.56551127425E+02  0.54354760078E+02  0.29063248437E+02  0.83780859186E+02  0.47000000000E+01 0. -1.
         -5    1    3    3    0  501 -0.17170898343E+02 -0.29545473513E+02  0.85019269833E+02  0.91750427781E+02  0.47000000000E+01 0. -1.
          5    1    4    4  502    0 -0.11950716329E+02 -0.59811358072E+02  0.74904101516E+02  0.96710560950E+02  0.47000000000E+01 0.  1.
         -5    1    4    4    0  502 -0.27429512753E+02  0.35002071507E+02 -0.18099179948E+02  0.48240993921E+02  0.47000000000E+01 0.  1.
<mgrwt>
<rscale>  0 0.27112125E+03</rscale>
<asrwt>0</asrwt>
<pdfrwt beam="1">  1       21 0.37797713E-01 0.27112125E+03</pdfrwt>
<pdfrwt beam="2">  1       21 0.11507339E-01 0.27112125E+03</pdfrwt>
<totfact> 0.41997041E+05</totfact>
</mgrwt>
</event>
<event>
 8    1  0.9373234E-006  0.2813986E+03  0.7546771E-02  0.1094927E+00
         21   -1    0    0  504  503  0.00000000000E+00  0.00000000000E+00  0.29765880828E+02  0.29765880828E+02  0.00000000000E+00 0.  1.
         21   -1    0    0  503  504 -0.00000000000E+00 -0.00000000000E+00 -0.66506671050E+03  0.66506671050E+03  0.00000000000E+00 0.  1.
         25    2    1    2    0    0 -0.23946212218E+02 -0.27582375518E+02 -0.44913733995E+03  0.46763537562E+03  0.12499714348E+03 0.  0.
         25    2    1    2    0    0  0.23946212218E+02  0.27582375518E+02 -0.18616348972E+03  0.22719721571E+03  0.12501008519E+03 0.  0.
          5    1    3    3  501    0  0.35277263351E+02  0.18939930891E+02 -0.67606339081E+02  0.78714124372E+02  0.47000000000E+01 0. -1.
         -5    1    3    3    0  501 -0.59223475569E+02 -0.46522306409E+02 -0.38153100087E+03  0.38892125125E+03  0.47000000000E+01 0. -1.
          5    1    4    4  502    0  0.37656653580E+02  0.64345801190E+02 -0.16768666571E+03  0.18357372782E+03  0.47000000000E+01 0. -1.
         -5    1    4    4    0  502 -0.13710441362E+02 -0.36763425672E+02 -0.18476824013E+02  0.43623487883E+02  0.47000000000E+01 0. -1.
<mgrwt>
<rscale>  0 0.28139862E+03</rscale>
<asrwt>0</asrwt>
<pdfrwt beam="1">  1       21 0.45793666E-02 0.28139862E+03</pdfrwt>
<pdfrwt beam="2">  1       21 0.10231795E+00 0.28139862E+03</pdfrwt>
<totfact> 0.23631784E+05</totfact>
</mgrwt>
</event>
<event>
 8    1  0.9373234E-006  0.3544939E+03  0.7546771E-02  0.1060786E+00
         21   -1    0    0  504  503  0.00000000000E+00  0.00000000000E+00  0.18789095508E+03  0.18789095508E+03  0.00000000000E+00 0.  1.
         21   -1    0    0  503  504 -0.00000000000E+00 -0.00000000000E+00 -0.16720593867E+03  0.16720593867E+03  0.00000000000E+00 0.  1.
         25    2    1    2    0    0 -0.16689662922E+02 -0.12392126830E+03  0.22896583828E+02  0.17828053578E+03  0.12499868120E+03 0.  0.
         25    2    1    2    0    0  0.16689662922E+02  0.12392126830E+03 -0.22115674193E+01  0.17681635798E+03  0.12499643129E+03 0.  0.
          5    1    3    3  501    0  0.40159571287E+02 -0.99000079148E+02  0.39257677630E+02  0.11391690871E+03  0.47000000000E+01 0. -1.
         -5    1    3    3    0  501 -0.56849234209E+02 -0.24921189151E+02 -0.16361093802E+02  0.64363627067E+02  0.47000000000E+01 0. -1.
          5    1    4    4  502    0  0.19597436116E+01  0.51638040791E+02  0.60625349657E+02  0.79798814983E+02  0.47000000000E+01 0. -1.
         -5    1    4    4    0  502  0.14729919310E+02  0.72283227507E+02 -0.62836917076E+02  0.97017542998E+02  0.47000000000E+01 0. -1.
<mgrwt>
<rscale>  0 0.35449391E+03</rscale>
<asrwt>0</asrwt>
<pdfrwt beam="1">  1       21 0.28906301E-01 0.35449391E+03</pdfrwt>
<pdfrwt beam="2">  1       21 0.25723990E-01 0.35449391E+03</pdfrwt>
<totfact> 0.15734003E+05</totfact>
</mgrwt>
</event>
<event>
 8    1  0.9373234E-006  0.2957344E+03  0.7546771E-02  0.1087393E+00
         21   -1    0    0  504  503  0.00000000000E+00  0.00000000000E+00  0.36863763704E+03  0.36863763704E+03  0.00000000000E+00 0. -1.
         21   -1    0    0  503  504 -0.00000000000E+00 -0.00000000000E+00 -0.59312215758E+02  0.59312215758E+02  0.00000000000E+00 0. -1.
         25    2    1    2    0    0 -0.18508333265E+02 -0.49155050192E+02  0.24003333697E+03  0.27568620901E+03  0.12501242186E+03 0.  0.
         25    2    1    2    0    0  0.18508333265E+02  0.49155050192E+02  0.69292084316E+02  0.15226364379E+03  0.12499618759E+03 0.  0.
          5    1    3    3  501    0 -0.48392290582E+02  0.14254224966E+02  0.16627348331E+03  0.17382162688E+03  0.47000000000E+01 0. -1.
         -5    1    3    3    0  501  0.29883957317E+02 -0.63409275158E+02  0.73759853657E+02  0.10186458213E+03  0.47000000000E+01 0. -1.
          5    1    4    4  502    0 -0.10188412316E+02  0.95176098365E+01 -0.34451543443E+02  0.37461813733E+02  0.47000000000E+01 0. -1.
         -5    1    4    4    0  502  0.28696745581E+02  0.39637440356E+02  0.10374362776E+03  0.11480183006E+03  0.47000000000E+01 0. -1.
<mgrwt>
<rscale>  0 0.29573444E+03</rscale>
<asrwt>0</asrwt>
<pdfrwt beam="1">  1       21 0.56713481E-01 0.29573444E+03</pdfrwt>
<pdfrwt beam="2">  1       21 0.91249566E-02 0.29573444E+03</pdfrwt>
<totfact> 0.27161738E+05</totfact>
</mgrwt>
</event>
<event>
 8    1  0.9373234E-006  0.3799056E+03  0.7546771E-02  0.1050969E+00
         21   -1    0    0  504  503  0.00000000000E+00  0.00000000000E+00  0.99350642293E+02  0.99350642293E+02  0.00000000000E+00 0.  1.
         21   -1    0    0  503  504 -0.00000000000E+00 -0.00000000000E+00 -0.36317903653E+03  0.36317903653E+03  0.00000000000E+00 0.  1.
         25    2    1    2    0    0  0.10549031168E+03 -0.40045060453E+02 -0.24896057150E+02  0.17022020533E+03  0.12499316748E+03 0.  0.
         25    2    1    2    0    0 -0.10549031168E+03  0.40045060453E+02 -0.23893233709E+03  0.29230947350E+03  0.12499741543E+03 0.  0.
          5    1    3    3  501    0  0.10993725023E+03 -0.82261977899E+01  0.22649387573E+02  0.11264525767E+03  0.47000000000E+01 0. -1.
         -5    1    3    3    0  501 -0.44469385537E+01 -0.31818862663E+02 -0.47545444723E+02  0.57574947656E+02  0.47000000000E+01 0. -1.
          5    1    4    4  502    0 -0.60381840456E+02 -0.90537757407E+01 -0.21606599104E+02  0.64937451727E+02  0.47000000000E+01 0.  1.
         -5    1    4    4    0  502 -0.45108471224E+02  0.49098836194E+02 -0.21732573799E+03  0.22737202177E+03  0.47000000000E+01 0.  1.
<mgrwt>
<rscale>  0 0.37990562E+03</rscale>
<asrwt>0</asrwt>
<pdfrwt beam="1">  1       21 0.15284714E-01 0.37990562E+03</pdfrwt>
<pdfrwt beam="2">  1       21 0.55873698E-01 0.37990562E+03</pdfrwt>
<totfact> 0.10827341E+05</totfact>
</mgrwt>
</event>
<event>
 8    1  0.9373234E-006  0.3320367E+03  0.7546771E-02  0.1070239E+00
         21   -1    0    0  504  503  0.00000000000E+00  0.00000000000E+00  0.98967164510E+03  0.98967164510E+03  0.00000000000E+00 0.  1.
         21   -1    0    0  503  504 -0.00000000000E+00 -0.00000000000E+00 -0.27849734450E+02  0.27849734450E+02  0.00000000000E+00 0.  1.
         25    2    1    2    0    0 -0.31958959561E+02  0.83406872707E+02  0.28809542455E+03  0.32650005489E+03  0.12500092275E+03 0.  0.
         25    2    1    2    0    0  0.31958959561E+02 -0.83406872707E+02  0.67372648610E+03  0.69102132466E+03  0.12500004618E+03 0.  0.
          5    1    3    3  501    0  0.38557362472E+02  0.41658215394E+02  0.19123696257E+03  0.19953882570E+03  0.47000000000E+01 0. -1.
         -5    1    3    3    0  501 -0.70516322033E+02  0.41748657313E+02  0.96858461979E+02  0.12696122919E+03  0.47000000000E+01 0. -1.
          5    1    4    4  502    0  0.70024036948E+02 -0.84896090953E+02  0.56706370024E+03  0.57766256771E+03  0.47000000000E+01 0. -1.
         -5    1    4    4    0  502 -0.38065077387E+02  0.14892182464E+01  0.10666278586E+03  0.11335875694E+03  0.47000000000E+01 0. -1.
<mgrwt>
<rscale>  0 0.33203670E+03</rscale>
<asrwt>0</asrwt>
<pdfrwt beam="1">  1       21 0.15225715E+00 0.33203670E+03</pdfrwt>
<pdfrwt beam="2">  1       21 0.42845753E-02 0.33203670E+03</pdfrwt>
<totfact> 0.94967997E+04</totfact>
</mgrwt>
</event>
<event>
 8    1  0.9373234E-006  0.4111847E+03  0.7546771E-02  0.1039974E+00
         21   -1    0    0  504  503  0.00000000000E+00  0.00000000000E+00  0.38174218641E+03  0.38174218641E+03  0.00000000000E+00 0.  1.
         21   -1    0    0  503  504 -0.00000000000E+00 -0.00000000000E+00 -0.11072450883E+03  0.11072450883E+03  0.00000000000E+00 0.  1.
         25    2    1    2    0    0 -0.10318513454E+03 -0.80934049033E+02  0.25190832299E+03  0.31029105729E+03  0.12500097904E+03 0.  0.
         25    2    1    2    0    0  0.10318513454E+03  0.80934049033E+02  0.19109354592E+02  0.18217563795E+03  0.12500121337E+03 0.  0.
          5    1    3    3  501    0  0.10057523192E+02 -0.43876491875E+02  0.13858232920E+03  0.14578563811E+03  0.47000000000E+01 0. -1.
         -5    1    3    3    0  501 -0.11324265773E+03 -0.37057557158E+02  0.11332599379E+03  0.16450541918E+03  0.47000000000E+01 0. -1.
          5    1    4    4  502    0  0.63990243127E+02  0.43116565312E+02  0.72340940398E+02  0.10587299503E+03  0.47000000000E+01 0.  1.
         -5    1    4    4    0  502  0.39194891415E+02  0.37817483721E+02 -0.53231585806E+02  0.76302642913E+02  0.47000000000E+01 0.  1.
<mgrwt>
<rscale>  0 0.41118471E+03</rscale>
<asrwt>0</asrwt>
<pdfrwt beam="1">  1       21 0.58729566E-01 0.41118471E+03</pdfrwt>
<pdfrwt beam="2">  1       21 0.17034540E-01 0.41118471E+03</pdfrwt>
<totfact> 0.78892739E+04</totfact>
</mgrwt>
</event>
<event>
 8    1  0.9373234E-006  0.2679692E+03  0.7546771E-02  0.1102448E+00
         21   -1    0    0  504  503  0.00000000000E+00  0.00000000000E+00  0.11182010849E+04  0.11182010849E+04  0.00000000000E+00 0.  1.
         21   -1    0    0  503  504 -0.00000000000E+00 -0.00000000000E+00 -0.16054240330E+02  0.16054240330E+02  0.00000000000E+00 0.  1.
         25    2    1    2    0    0  0.10003136568E+02 -0.18073548604E+02  0.73533604824E+03  0.74617051111E+03  0.12499844764E+03 0.  0.
         25    2    1    2    0    0 -0.10003136568E+02  0.18073548604E+02  0.36681079632E+03  0.38808481411E+03  0.12503178293E+03 0.  0.
          5    1    3    3  501    0 -0.35715511338E+02 -0.28329955438E+01  0.62039979294E+03  0.62145121827E+03  0.47000000000E+01 0. -1.
         -5    1    3    3    0  501  0.45718647906E+02 -0.15240553060E+02  0.11493625530E+03  0.12471929284E+03  0.47000000000E+01 0. -1.
          5    1    4    4  502    0  0.27616443365E+02 -0.27763966221E+02  0.28051225688E+03  0.28327146348E+03  0.47000000000E+01 0. -1.
         -5    1    4    4    0  502 -0.37619579934E+02  0.45837514825E+02  0.86298539448E+02  0.10481335063E+03  0.47000000000E+01 0. -1.
<mgrwt>
<rscale>  0 0.26796917E+03</rscale>
<asrwt>0</asrwt>
<pdfrwt beam="1">  1       21 0.17203087E+00 0.26796917E+03</pdfrwt>
<pdfrwt beam="2">  1       21 0.24698840E-02 0.26796917E+03</pdfrwt>
<totfact> 0.17450248E+05</totfact>
</mgrwt>
</event>
<event>
 8    1  0.9373234E-006  0.3682982E+03  0.7546771E-02  0.1055346E+00
         21   -1    0    0  504  503  0.00000000000E+00  0.00000000000E+00  0.61685223909E+02  0.61685223909E+02  0.00000000000E+00 0. -1.
         21   -1    0    0  503  504 -0.00000000000E+00 -0.00000000000E+00 -0.54974077172E+03  0.54974077172E+03  0.00000000000E+00 0. -1.
         25    2    1    2    0    0 -0.86676405864E+02  0.10245109899E+03 -0.21644188181E+03  0.28369278402E+03  0.12500192191E+03 0.  0.
         25    2    1    2    0    0  0.86676405864E+02 -0.10245109899E+03 -0.27161366600E+03  0.32773321161E+03  0.12500418961E+03 0.  0.
          5    1    3    3  501    0 -0.68388553935E+02  0.13023161807E+03 -0.15546684327E+03  0.21407778495E+03  0.47000000000E+01 0.  1.
         -5    1    3    3    0  501 -0.18287851929E+02 -0.27780519082E+02 -0.60975038548E+02  0.69614999063E+02  0.47000000000E+01 0.  1.
          5    1    4    4  502    0 -0.26837454830E+02 -0.43999801086E+02 -0.50194720213E+02  0.72095987507E+02  0.47000000000E+01 0. -1.
         -5    1    4    4    0  502  0.11351386069E+03 -0.58451297905E+02 -0.22141894578E+03  0.25563722410E+03  0.47000000000E+01 0. -1.
<mgrwt>
<rscale>  0 0.36829815E+03</rscale>
<asrwt>0</asrwt>
<pdfrwt beam="1">  1       21 0.94900343E-02 0.36829815E+03</pdfrwt>
<pdfrwt beam="2">  1       21 0.84575504E-01 0.36829815E+03</pdfrwt>
<totfact> 0.10209980E+05</totfact>
</mgrwt>
</event>
<event>
 8    1  0.9373234E-006  0.2636315E+03  0.7546771E-02  0.1104981E+00
         21   -1    0    0  504  503  0.00000000000E+00  0.00000000000E+00  0.23022809977E+03  0.23022809977E+03  0.00000000000E+00 0. -1.
         21   -1    0    0  503  504 -0.00000000000E+00 -0.00000000000E+00 -0.75470311536E+02  0.75470311536E+02  0.00000000000E+00 0. -1.
         25    2    1    2    0    0  0.29746164848E+02  0.29404584509E+02  0.78876168163E+02  0.15360242659E+03  0.12499116623E+03 0.  0.
         25    2    1    2    0    0 -0.29746164848E+02 -0.29404584509E+02  0.75881620067E+02  0.15209598472E+03  0.12500281753E+03 0.  0.
          5    1    3    3  501    0 -0.19850028783E+02  0.52880935489E+01 -0.26929237405E+02  0.34194464512E+02  0.47000000000E+01 0.  1.
         -5    1    3    3    0  501  0.49596193631E+02  0.24116490960E+02  0.10580540557E+03  0.11940796207E+03  0.47000000000E+01 0.  1.
          5    1    4    4  502    0 -0.23242706184E+02 -0.40639797552E+02  0.10763552795E+03  0.11747047890E+03  0.47000000000E+01 0. -1.
         -5    1    4    4    0  502 -0.65034586642E+01  0.11235213043E+02 -0.31753907887E+02  0.34625505813E+02  0.47000000000E+01 0. -1.
<mgrwt>
<rscale>  0 0.26363146E+03</rscale>
<asrwt>0</asrwt>
<pdfrwt beam="1">  1       21 0.35419708E-01 0.26363146E+03</pdfrwt>
<pdfrwt beam="2">  1       21 0.11610817E-01 0.26363146E+03</pdfrwt>
<totfact> 0.47161350E+05</totfact>
</mgrwt>
</event>
<event>
 8    1  0.9373234E-006  0.3593834E+03  0.7546771E-02  0.1058828E+00
         21   -1    0    0  504  503  0.00000000000E+00  0.00000000000E+00  0.56354057313E+03  0.56354057313E+03  0.00000000000E+00 0. -1.
         21   -1    0    0  503  504 -0.00000000000E+00 -0.00000000000E+00 -0.57296865933E+02  0.57296865933E+02  0.00000000000E+00 0. -1.
         25    2    1    2    0    0  0.54712205198E+02 -0.37364211604E+02  0.44453445467E+03  0.46650340370E+03  0.12500013827E+03 0.  0.
         25    2    1    2    0    0 -0.54712205198E+02  0.37364211604E+02  0.61709252533E+02  0.15433403537E+03  0.12498581087E+03 0.  0.
          5    1    3    3  501    0 -0.28929800333E+02  0.18716574571E+02  0.63955729889E+02  0.72798824830E+02  0.47000000000E+01 0. -1.
         -5    1    3    3    0  501  0.83642005531E+02 -0.56080786175E+02  0.38057872478E+03  0.39370457887E+03  0.47000000000E+01 0. -1.
          5    1    4    4  502    0 -0.75464651268E+02 -0.13513654696E+02  0.77835398079E+01  0.77202370082E+02  0.47000000000E+01 0. -1.
         -5    1    4    4    0  502  0.20752446071E+02  0.50877866300E+02  0.53925712725E+02  0.77131665288E+02  0.47000000000E+01 0. -1.
<mgrwt>
<rscale>  0 0.35938341E+03</rscale>
<asrwt>0</asrwt>
<pdfrwt beam="1">  1       21 0.86698546E-01 0.35938341E+03</pdfrwt>
<pdfrwt beam="2">  1       21 0.88149028E-02 0.35938341E+03</pdfrwt>
<totfact> 0.11013013E+05</totfact>
</mgrwt>
</event>
<event>
 8    1  0.9373234E-006  0.3602090E+03  0.7546771E-02  0.1058501E+00
         21   -1    0    0  504  503  0.00000000000E+00  0.00000000000E+00  0.84090492781E+03  0.84090492781E+03  0.00000000000E+00 0.  1.
         21   -1    0    0  503  504 -0.00000000000E+00 -0.00000000000E+00 -0.38574679729E+02  0.38574679729E+02  0.00000000000E+00 0.  1.
         25    2    1    2    0    0 -0.12847321645E+03  0.15997232759E+02  0.41860519307E+03  0.45565137743E+03  0.12500636499E+03 0.  0.
         25    2    1    2    0    0  0.12847321645E+03 -0.15997232759E+02  0.38372505501E+03  0.42382823011E+03  0.12499668792E+03 0.  0.
          5    1    3    3  501    0 -0.70856198720E+02  0.73036224136E+01  0.62807418989E+02  0.95083151386E+02  0.47000000000E+01 0. -1.
         -5    1    3    3    0  501 -0.57617017731E+02  0.86936103449E+01  0.35579777408E+03  0.36056822605E+03  0.47000000000E+01 0. -1.
          5    1    4    4  502    0  0.96973687245E+02 -0.60304687557E+02  0.18248561545E+03  0.21532218001E+03  0.47000000000E+01 0. -1.
         -5    1    4    4    0  502  0.31499529206E+02  0.44307454798E+02  0.20123943956E+03  0.20850605010E+03  0.47000000000E+01 0. -1.
<mgrwt>
<rscale>  0 0.36020904E+03</rscale>
<asrwt>0</asrwt>
<pdfrwt beam="1">  1       21 0.12936998E+00 0.36020904E+03</pdfrwt>
<pdfrwt beam="2">  1       21 0.59345667E-02 0.36020904E+03</pdfrwt>
<totfact> 0.82708275E+04</totfact>
</mgrwt>
</event>
<event>
 8    1  0.9373234E-006  0.2848495E+03  0.7546771E-02  0.1093069E+00
         21   -1    0    0  504  503  0.00000000000E+00  0.00000000000E+00  0.79461020059E+02  0.79461020059E+02  0.00000000000E+00 0.  1.
         21   -1    0    0  503  504 -0.00000000000E+00 -0.00000000000E+00 -0.25528002934E+03  0.25528002934E+03  0.00000000000E+00 0.  1.
         25    2    1    2    0    0  0.62829369105E+01 -0.60492964312E+02 -0.51313458136E+02  0.14812968059E+03  0.12494181549E+03 0.  0.
         25    2    1    2    0    0 -0.62829369105E+01  0.60492964312E+02 -0.12450555115E+03  0.18661136881E+03  0.12499318652E+03 0.  0.
          5    1    3    3  501    0  0.52567455764E+02 -0.71130744253E+02 -0.19262285857E+02  0.90642406411E+02  0.47000000000E+01 0.  1.
         -5    1    3    3    0  501 -0.46284518854E+02  0.10637779941E+02 -0.32051172279E+02  0.57487274175E+02  0.47000000000E+01 0.  1.
          5    1    4    4  502    0  0.37122125693E+02  0.73573825761E+01  0.64688657581E+01  0.38679704220E+02  0.47000000000E+01 0. -1.
         -5    1    4    4    0  502 -0.43405062603E+02  0.53135581736E+02 -0.13097441690E+03  0.14793166459E+03  0.47000000000E+01 0. -1.
<mgrwt>
<rscale>  0 0.28484951E+03</rscale>
<asrwt>0</asrwt>
<pdfrwt beam="1">  1       21 0.12224772E-01 0.28484951E+03</pdfrwt>
<pdfrwt beam="2">  1       21 0.39273850E-01 0.28484951E+03</pdfrwt>
<totfact> 0.34756510E+05</totfact>
</mgrwt>
</event>
<event>
 8    1  0.9373234E-006  0.2924156E+03  0.7546771E-02  0.1089095E+00
         21   -1    0    0  504  503  0.00000000000E+00  0.00000000000E+00  0.57039063100E+02  0.57039063100E+02  0.00000000000E+00 0. -1.
         21   -1    0    0  503  504 -0.00000000000E+00 -0.00000000000E+00 -0.37477336045E+03  0.37477336045E+03  0.00000000000E+00 0. -1.
         25    2    1    2    0    0 -0.39760662943E+02 -0.43747890768E+01 -0.25402497093E+03  0.28592648694E+03  0.12500088392E+03 0.  0.
         25    2    1    2    0    0  0.39760662943E+02  0.43747890768E+01 -0.63709326416E+02  0.14588593661E+03  0.12499511642E+03 0.  0.
          5    1    3    3  501    0 -0.47108078197E+02 -0.54194508810E+02 -0.19685372489E+03  0.20959411924E+03  0.47000000000E+01 0. -1.
         -5    1    3    3    0  501  0.73474152538E+01  0.49819719733E+02 -0.57171246039E+02  0.76332367701E+02  0.47000000000E+01 0. -1.
          5    1    4    4  502    0 -0.17475291971E+02 -0.15441528183E+02  0.27458927114E+02  0.36330556015E+02  0.47000000000E+01 0. -1.
         -5    1    4    4    0  502  0.57235954914E+02  0.19816317260E+02 -0.91168253531E+02  0.10955538059E+03  0.47000000000E+01 0. -1.
<mgrwt>
<rscale>  0 0.29241560E+03</rscale>
<asrwt>0</asrwt>
<pdfrwt beam="1">  1       21 0.87752407E-02 0.29241560E+03</pdfrwt>
<pdfrwt beam="2">  1       21 0.57657438E-01 0.29241560E+03</pdfrwt>
<totfact> 0.28110679E+05</totfact>
</mgrwt>
</event>
<event>
 8    1  0.9373234E-006  0.4128978E+03  0.7546771E-02  0.1039403E+00
         21   -1    0    0  504  503  0.00000000000E+00  0.00000000000E+00  0.13779834809E+04  0.13779834809E+04  0.00000000000E+00 0. -1.
         21   -1    0    0  503  504 -0.00000000000E+00 -0.00000000000E+00 -0.30930082378E+02  0.30930082378E+02  0.00000000000E+00 0. -1.
         25    2    1    2    0    0 -0.11259756280E+03  0.12606222853E+02  0.10794975146E+04  0.10926005346E+04  0.12499566395E+03 0.  0.
         25    2    1    2    0    0  0.11259756280E+03 -0.12606222853E+02  0.26755588384E+03  0.31631302868E+03  0.12502261047E+03 0.  0.
          5    1    3    3  501    0 -0.69153831160E+02 -0.33607049153E+02  0.87636497679E+03  0.87974391084E+03  0.47000000000E+01 0.  1.
         -5    1    3    3    0  501 -0.43443731645E+02  0.46213272005E+02  0.20313253785E+03  0.21285662372E+03  0.47000000000E+01 0.  1.
          5    1    4    4  502    0  0.23618148686E+02 -0.26728094129E+02  0.20102371689E+03  0.20421761118E+03  0.47000000000E+01 0. -1.
         -5    1    4    4    0  502  0.88979414118E+02  0.14121871276E+02  0.66532166956E+02  0.11209541750E+03  0.47000000000E+01 0. -1.
<mgrwt>
<rscale>  0 0.41289777E+03</rscale>
<asrwt>0</asrwt>
<pdfrwt beam="1">  1       21 0.21199741E+00 0.41289777E+03</pdfrwt>
<pdfrwt beam="2">  1       21 0.47584753E-02 0.41289777E+03</pdfrwt>
<totfact> 0.29523588E+04</totfact>
</mgrwt>
</event>
<event>
 8    1  0.9373234E-006  0.3104662E+03  0.7546771E-02  0.1080123E+00
         21   -1    0    0  504  503  0.00000000000E+00  0.00000000000E+00  0.52994797779E+02  0.52994797779E+02  0.00000000000E+00 0. -1.
         21   -1    0    0  503  504 -0.00000000000E+00 -0.00000000000E+00 -0.45471098455E+03  0.45471098455E+03  0.00000000000E+00 0. -1.
         25    2    1    2    0    0 -0.80805112368E+02 -0.87742666400E+01 -0.13024692186E+03  0.19798000486E+03  0.12500147091E+03 0.  0.
         25    2    1    2    0    0  0.80805112368E+02  0.87742666400E+01 -0.27146926491E+03  0.30972577747E+03  0.12501216541E+03 0.  0.
          5    1    3    3  501    0 -0.32006133172E+02 -0.32401044446E+02 -0.13576725387E+03  0.14327964777E+03  0.47000000000E+01 0. -1.
         -5    1    3    3    0  501 -0.48798979196E+02  0.23626777806E+02  0.55203320069E+01  0.54700357088E+02  0.47000000000E+01 0. -1.
          5    1    4    4  502    0 -0.31179942672E+02  0.10321110072E+02 -0.36122205069E+02  0.49047098153E+02  0.47000000000E+01 0.  1.
         -5    1    4    4    0  502  0.11198505504E+03 -0.15468434317E+01 -0.23534705984E+03  0.26067867932E+03  0.47000000000E+01 0.  1.
<mgrwt>
<rscale>  0 0.31046621E+03</rscale>
<asrwt>0</asrwt>
<pdfrwt beam="1">  1       21 0.81530457E-02 0.31046621E+03</pdfrwt>
<pdfrwt beam="2">  1       21 0.69955537E-01 0.31046621E+03</pdfrwt>
<totfact> 0.20863898E+05</totfact>
</mgrwt>
</event>
<event>
 8    1  0.9373234E-006  0.2966910E+03  0.7546771E-02  0.1086907E+00
         21   -1    0    0  504  503  0.00000000000E+00  0.00000000000E+00  0.15842314865E+03  0.15842314865E+03  0.00000000000E+00 0.  1.
         21   -1    0    0  503  504 -0.00000000000E+00 -0.00000000000E+00 -0.13890890031E+03  0.13890890031E+03  0.00000000000E+00 0.  1.
         25    2    1    2    0    0  0.25934987564E+02  0.29768015693E+02 -0.59841910553E+02  0.14409780002E+03  0.12499745346E+03 0.  0.
         25    2    1    2    0    0 -0.25934987564E+02 -0.29768015693E+02  0.79356158889E+02  0.15323424895E+03  0.12499830702E+03 0.  0.
          5    1    3    3  501    0 -0.50107065793E+02  0.16749691514E+02 -0.16844579618E+02  0.55651595401E+02  0.47000000000E+01 0. -1.
         -5    1    3    3    0  501  0.76042053356E+02  0.13018324180E+02 -0.42997330935E+02  0.88446204614E+02  0.47000000000E+01 0. -1.
          5    1    4    4  502    0 -0.41846206629E+02  0.36610176005E+02  0.60415715185E+02  0.82240857472E+02  0.47000000000E+01 0.  1.
         -5    1    4    4    0  502  0.15911219066E+02 -0.66378191698E+02  0.18940443704E+02  0.70993391474E+02  0.47000000000E+01 0.  1.
<mgrwt>
<rscale>  0 0.29669099E+03</rscale>
<asrwt>0</asrwt>
<pdfrwt beam="1">  1       21 0.24372792E-01 0.29669099E+03</pdfrwt>
<pdfrwt beam="2">  1       21 0.21370600E-01 0.29669099E+03</pdfrwt>
<totfact> 0.31661365E+05</totfact>
</mgrwt>
</event>
<event>
 8    1  0.9373234E-006  0.3529345E+03  0.7546771E-02  0.1061417E+00
         21   -1    0    0  504  503  0.00000000000E+00  0.00000000000E+00  0.40277097254E+03  0.40277097254E+03  0.00000000000E+00 0. -1.
         21   -1    0    0  503  504 -0.00000000000E+00 -0.00000000000E+00 -0.77316102022E+02  0.77316102022E+02  0.00000000000E+00 0. -1.
         25    2    1    2    0    0 -0.54889011658E+02 -0.67237709862E+02  0.41189475600E+02  0.15765063456E+03  0.12499374564E+03 0.  0.
         25    2    1    2    0    0  0.54889011658E+02  0.67237709862E+02  0.28426539492E+03  0.32243644000E+03  0.12499891946E+03 0.  0.
          5    1    3    3  501    0 -0.14403144901E+02  0.20060528502E+02 -0.29052779395E+02  0.38419127754E+02  0.47000000000E+01 0.  1.
         -5    1    3    3    0  501 -0.40485866757E+02 -0.87298238364E+02  0.70242254995E+02  0.11923150681E+03  0.47000000000E+01 0.  1.
          5    1    4    4  502    0  0.77430227306E+02  0.68267619937E+02  0.12811834294E+03  0.16459741137E+03  0.47000000000E+01 0. -1.
         -5    1    4    4    0  502 -0.22541215648E+02 -0.10299100749E+01  0.15614705198E+03  0.15783902863E+03  0.47000000000E+01 0. -1.
<mgrwt>
<rscale>  0 0.35293445E+03</rscale>
<asrwt>0</asrwt>
<pdfrwt beam="1">  1       21 0.61964764E-01 0.35293445E+03</pdfrwt>
<pdfrwt beam="2">  1       21 0.11894785E-01 0.35293445E+03</pdfrwt>
<totfact> 0.13766531E+05</totfact>
</mgrwt>
</event>
<event>
 8    1  0.9373234E-006  0.3531085E+03  0.7546771E-02  0.1061346E+00
         21   -1    0    0  504  503  0.00000000000E+00  0.00000000000E+00  0.10545321061E+03  0.10545321061E+03  0.00000000000E+00 0.  1.
         21   -1    0    0  503  504 -0.00000000000E+00 -0.00000000000E+00 -0.29559456650E+03  0.29559456650E+03  0.00000000000E+00 0.  1.
         25    2    1    2    0    0 -0.11610478913E+03 -0.20952640050E+02 -0.14084627635E+03  0.22221815042E+03  0.12499559044E+03 0.  0.
         25    2    1    2    0    0  0.11610478913E+03  0.20952640050E+02 -0.49295079542E+02  0.17882962669E+03  0.12502277924E+03 0.  0.
          5    1    3    3  501    0 -0.64893304037E+02 -0.48757725165E+02 -0.13937742211E+02  0.82491256083E+02  0.47000000000E+01 0. -1.
         -5    1    3    3    0  501 -0.51211485093E+02  0.27805085115E+02 -0.12690853414E+03  0.13972689434E+03  0.47000000000E+01 0. -1.
          5    1    4    4  502    0  0.46294458438E+02  0.68773366367E+02 -0.43855929514E+02  0.93906258349E+02  0.47000000000E+01 0.  1.
         -5    1    4    4    0  502  0.69810330693E+02 -0.47820726317E+02 -0.54391500278E+01  0.84923368339E+02  0.47000000000E+01 0.  1.
<mgrwt>
<rscale>  0 0.35310846E+03</rscale>
<asrwt>0</asrwt>
<pdfrwt beam="1">  1       21 0.16223571E-01 0.35310846E+03</pdfrwt>
<pdfrwt beam="2">  1       21 0.45476086E-01 0.35310846E+03</pdfrwt>
<totfact> 0.15087152E+05</totfact>
</mgrwt>
</event>
<event>
 8    1  0.9373234E-006  0.2870065E+03  0.7546771E-02  0.1091922E+00
         21   -1    0    0  504  503  0.00000000000E+00  0.00000000000E+00  0.38927297993E+03  0.38927297993E+03  0.00000000000E+00 0.  1.
         21   -1    0    0  503  504 -0.00000000000E+00 -0.00000000000E+00 -0.52901662781E+02  0.52901662781E+02  0.00000000000E+00 0.  1.
         25    2    1    2    0    0  0.63661758314E+02  0.10735745236E+02  0.21174848282E+03  0.25422514079E+03  0.12499970615E+03 0.  0.
         25    2    1    2    0    0 -0.63661758314E+02 -0.10735745236E+02  0.12462283433E+03  0.18794950192E+03  0.12500435487E+03 0.  0.
          5    1    3    3  501    0 -0.44829326129E+01  0.54810408755E+02  0.11711959361E+03  0.12947342121E+03  0.47000000000E+01 0.  1.
         -5    1    3    3    0  501  0.68144690927E+02 -0.44074663519E+02  0.94628889206E+02  0.12475171958E+03  0.47000000000E+01 0.  1.
          5    1    4    4  502    0 -0.63683648710E+02 -0.46563319782E+02  0.26452469985E+02  0.83340104574E+02  0.47000000000E+01 0.  1.
         -5    1    4    4    0  502  0.21890395774E-01  0.35827574546E+02  0.98170364348E+02  0.10460939735E+03  0.47000000000E+01 0.  1.
<mgrwt>
<rscale>  0 0.28700654E+03</rscale>
<asrwt>0</asrwt>
<pdfrwt beam="1">  1       21 0.59888149E-01 0.28700654E+03</pdfrwt>
<pdfrwt beam="2">  1       21 0.81387176E-02 0.28700654E+03</pdfrwt>
<totfact> 0.29604679E+05</totfact>
</mgrwt>
</event>
<event>
 8    1  0.9373234E-006  0.2710413E+03  0.7546771E-02  0.1100685E+00
         21   -1    0    0  504  503  0.00000000000E+00  0.00000000000E+00  0.69581865396E+03  0.69581865396E+03  0.00000000000E+00 0.  1.
         21   -1    0    0  503  504 -0.00000000000E+00 -0.00000000000E+00 -0.26394585362E+02  0.26394585362E+02  0.00000000000E+00 0.  1.
         25    2    1    2    0    0  0.31057611048E+02 -0.38427782990E+02  0.28849459857E+03  0.31826741130E+03  0.12499496783E+03 0.  0.
         25    2    1    2    0    0 -0.31057611048E+02  0.38427782990E+02  0.38092947004E+03  0.40394582803E+03  0.12499480441E+03 0.  0.
          5    1    3    3  501    0  0.35074380967E+02  0.28080679930E+01  0.10296971857E+02  0.36962346726E+02  0.47000000000E+01 0. -1.
         -5    1    3    3    0  501 -0.40167699189E+01 -0.41235850983E+02  0.27819762671E+03  0.28130506457E+03  0.47000000000E+01 0. -1.
          5    1    4    4  502    0 -0.25624646007E+01  0.68397328673E+01 -0.85110563642E+01  0.12160437943E+02  0.47000000000E+01 0.  1.
         -5    1    4    4    0  502 -0.28495146447E+02  0.31588050123E+02  0.38944052640E+03  0.39178539008E+03  0.47000000000E+01 0.  1.
<mgrwt>
<rscale>  0 0.27104129E+03</rscale>
<asrwt>0</asrwt>
<pdfrwt beam="1">  1       21 0.10704901E+00 0.27104129E+03</pdfrwt>
<pdfrwt beam="2">  1       21 0.40607060E-02 0.27104129E+03</pdfrwt>
<totfact> 0.26035285E+05</totfact>
</mgrwt>
</event>
<event>
 8    1  0.9373234E-006  0.3570870E+03  0.7546771E-02  0.1059743E+00
         21   -1    0    0  504  503  0.00000000000E+00  0.00000000000E+00  0.11738205358E+02  0.11738205358E+02  0.00000000000E+00 0.  1.
         21   -1    0    0  503  504 -0.00000000000E+00 -0.00000000000E+00 -0.27157282753E+04  0.27157282753E+04  0.00000000000E+00 0.  1.
         25    2    1    2    0    0  0.10338595648E+02 -0.10945170693E+03 -0.85894575477E+03  0.87492828421E+03  0.12500052066E+03 0.  0.
         25    2    1    2    0    0 -0.10338595648E+02  0.10945170693E+03 -0.18450443152E+04  0.18525381964E+04  0.12499072620E+03 0.  0.
          5    1    3    3  501    0 -0.31595408679E+02  0.35154573117E+00 -0.66222446864E+02  0.73524797875E+02  0.47000000000E+01 0. -1.
         -5    1    3    3    0  501  0.41934004326E+02 -0.10980325266E+03 -0.79272330790E+03  0.80140348633E+03  0.47000000000E+01 0. -1.
          5    1    4    4  502    0 -0.43055494186E+02  0.80502914276E+02 -0.16532525715E+04  0.16557779591E+04  0.47000000000E+01 0. -1.
         -5    1    4    4    0  502  0.32716898538E+02  0.28948792652E+02 -0.19179174366E+03  0.19676023730E+03  0.47000000000E+01 0. -1.
<mgrwt>
<rscale>  0 0.35708697E+03</rscale>
<asrwt>0</asrwt>
<pdfrwt beam="1">  1       21 0.18058751E-02 0.35708697E+03</pdfrwt>
<pdfrwt beam="2">  1       21 0.41780496E+00 0.35708697E+03</pdfrwt>
<totfact> 0.83846063E+03</totfact>
</mgrwt>
</event>
<event>
 8    1  0.9373234E-006  0.2751949E+03  0.7546771E-02  0.1098343E+00
         21   -1    0    0  504  503  0.00000000000E+00  0.00000000000E+00  0.62759681698E+02  0.62759681698E+02  0.00000000000E+00 0.  1.
         21   -1    0    0  503  504 -0.00000000000E+00 -0.00000000000E+00 -0.30167555384E+03  0.30167555384E+03  0.00000000000E+00 0.  1.
         25    2    1    2    0    0 -0.30467122744E+02 -0.42061324965E+02 -0.15217520347E+03  0.20366588804E+03  0.12500040309E+03 0.  0.
         25    2    1    2    0    0  0.30467122744E+02  0.42061324965E+02 -0.86740668669E+02  0.16076934750E+03  0.12500175546E+03 0.  0.
          5    1    3    3  501    0  0.48031149115E+02 -0.53930507499E+01 -0.52492296258E+02  0.71509492014E+02  0.47000000000E+01 0. -1.
         -5    1    3    3    0  501 -0.78498271859E+02 -0.36668274215E+02 -0.99682907216E+02  0.13215639602E+03  0.47000000000E+01 0. -1.
          5    1    4    4  502    0  0.60718865189E+02  0.66126395411E+02 -0.81750447885E+02  0.12151010859E+03  0.47000000000E+01 0. -1.
         -5    1    4    4    0  502 -0.30251742445E+02 -0.24065070446E+02 -0.49902207844E+01  0.39259238913E+02  0.47000000000E+01 0. -1.
<mgrwt>
<rscale>  0 0.27519493E+03</rscale>
<asrwt>0</asrwt>
<pdfrwt beam="1">  1       21 0.96553358E-02 0.27519493E+03</pdfrwt>
<pdfrwt beam="2">  1       21 0.46411623E-01 0.27519493E+03</pdfrwt>
<totfact> 0.37691057E+05</totfact>
</mgrwt>
</event>
<event>
 8    1  0.9373234E-006  0.4501864E+03  0.7546771E-02  0.1027666E+00
         21   -1    0    0  504  503  0.00000000000E+00  0.00000000000E+00  0.24453119097E+03  0.24453119097E+03  0.00000000000E+00 0. -1.
         21   -1    0    0  503  504 -0.00000000000E+00 -0.00000000000E+00 -0.20720035008E+03  0.20720035008E+03  0.00000000000E+00 0. -1.
         25    2    1    2    0    0 -0.15071793323E+02  0.89960942644E+02  0.18270039215E+03  0.23941963191E+03  0.12498878629E+03 0.  0.
         25    2    1    2    0    0  0.15071793323E+02 -0.89960942644E+02 -0.14536955126E+03  0.21231190914E+03  0.12499564062E+03 0.  0.
          5    1    3    3  501    0  0.13361346769E+02  0.11523390778E+03  0.14362727361E+03  0.18468422459E+03  0.47000000000E+01 0. -1.
         -5    1    3    3    0  501 -0.28433140092E+02 -0.25272965131E+02  0.39073118541E+02  0.54735407321E+02  0.47000000000E+01 0. -1.
          5    1    4    4  502    0  0.29288621463E+02 -0.93522047862E+02 -0.40212686553E+02  0.10603464973E+03  0.47000000000E+01 0.  1.
         -5    1    4    4    0  502 -0.14216828140E+02  0.35611052172E+01 -0.10515686471E+03  0.10627725941E+03  0.47000000000E+01 0.  1.
<mgrwt>
<rscale>  0 0.45018640E+03</rscale>
<asrwt>0</asrwt>
<pdfrwt beam="1">  1       21 0.37620183E-01 0.45018640E+03</pdfrwt>
<pdfrwt beam="2">  1       21 0.31876977E-01 0.45018640E+03</pdfrwt>
<totfact> 0.59600219E+04</totfact>
</mgrwt>
</event>
<event>
 8    1  0.9373234E-006  0.4840508E+03  0.7546771E-02  0.1018028E+00
         21   -1    0    0  504  503  0.00000000000E+00  0.00000000000E+00  0.11828191444E+03  0.11828191444E+03  0.00000000000E+00 0. -1.
         21   -1    0    0  503  504 -0.00000000000E+00 -0.00000000000E+00 -0.49522614772E+03  0.49522614772E+03  0.00000000000E+00 0. -1.
         25    2    1    2    0    0 -0.52103610708E+02 -0.19091538533E+03 -0.26650293095E+03  0.35469097931E+03  0.12497362920E+03 0.  0.
         25    2    1    2    0    0  0.52103610708E+02  0.19091538533E+03 -0.11044130233E+03  0.25881708285E+03  0.12500212202E+03 0.  0.
          5    1    3    3  501    0 -0.65073022634E+01 -0.43986868445E+02 -0.16347087267E+03  0.16947567905E+03  0.47000000000E+01 0.  1.
         -5    1    3    3    0  501 -0.45596308445E+02 -0.14692851688E+03 -0.10303205828E+03  0.18521530026E+03  0.47000000000E+01 0.  1.
          5    1    4    4  502    0  0.75032193657E+02  0.82208331780E+02 -0.95281625904E+02  0.14659030709E+03  0.47000000000E+01 0.  1.
         -5    1    4    4    0  502 -0.22928582948E+02  0.10870705355E+03 -0.15159676427E+02  0.11222677575E+03  0.47000000000E+01 0.  1.
<mgrwt>
<rscale>  0 0.48405081E+03</rscale>
<asrwt>0</asrwt>
<pdfrwt beam="1">  1       21 0.18197217E-01 0.48405081E+03</pdfrwt>
<pdfrwt beam="2">  1       21 0.76188639E-01 0.48405081E+03</pdfrwt>
<totfact> 0.38350268E+04</totfact>
</mgrwt>
</event>
<event>
 8    1  0.9373234E-006  0.3441048E+03  0.7546771E-02  0.1065061E+00
         21   -1    0    0  504  503  0.00000000000E+00  0.00000000000E+00  0.13717275003E+04  0.13717275003E+04  0.00000000000E+00 0.  1.
         21   -1    0    0  503  504 -0.00000000000E+00 -0.00000000000E+00 -0.21580104313E+02  0.21580104313E+02  0.00000000000E+00 0.  1.
         25    2    1    2    0    0  0.22822687273E+02  0.11370210458E+03  0.58208703910E+03  0.60654763764E+03  0.12500268799E+03 0.  0.
         25    2    1    2    0    0 -0.22822687273E+02 -0.11370210458E+03  0.76806035689E+03  0.78675996697E+03  0.12500196064E+03 0.  0.
          5    1    3    3  501    0 -0.50417519577E+02  0.46919032618E+02  0.19182171893E+03  0.20386511167E+03  0.47000000000E+01 0. -1.
         -5    1    3    3    0  501  0.73240206851E+02  0.66783071958E+02  0.39026532017E+03  0.40268252598E+03  0.47000000000E+01 0. -1.
          5    1    4    4  502    0  0.37814504213E+02 -0.86205268275E+02  0.31464839195E+03  0.32846154351E+03  0.47000000000E+01 0.  1.
         -5    1    4    4    0  502 -0.60637191486E+02 -0.27496836301E+02  0.45341196493E+03  0.45829842346E+03  0.47000000000E+01 0.  1.
<mgrwt>
<rscale>  0 0.34410477E+03</rscale>
<asrwt>0</asrwt>
<pdfrwt beam="1">  1       21 0.21103493E+00 0.34410477E+03</pdfrwt>
<pdfrwt beam="2">  1       21 0.33200171E-02 0.34410477E+03</pdfrwt>
<totfact> 0.56627634E+04</totfact>
</mgrwt>
</event>
<event>
 8    1  0.9373234E-006  0.3689827E+03  0.7546771E-02  0.1055083E+00
         21   -1    0    0  504  503  0.00000000000E+00  0.00000000000E+00  0.20071773198E+03  0.20071773198E+03  0.00000000000E+00 0. -1.
         21   -1    0    0  503  504 -0.00000000000E+00 -0.00000000000E+00 -0.16957671871E+03  0.16957671871E+03  0.00000000000E+00 0. -1.
         25    2    1    2    0    0  0.10566956095E+02  0.18659209078E+02  0.15002682578E+03  0.19645537137E+03  0.12500735116E+03 0.  0.
         25    2    1    2    0    0 -0.10566956095E+02 -0.18659209078E+02 -0.11888581250E+03  0.17383907932E+03  0.12500544964E+03 0.  0.
          5    1    3    3  501    0  0.66915590772E+01  0.72342181127E+02  0.85466453558E+02  0.11227097941E+03  0.47000000000E+01 0.  1.
         -5    1    3    3    0  501  0.38753970176E+01 -0.53682972048E+02  0.64560372218E+02  0.84184391967E+02  0.47000000000E+01 0.  1.
          5    1    4    4  502    0 -0.30532023472E+02  0.42218425287E+01 -0.13540743362E+03  0.13895068006E+03  0.47000000000E+01 0.  1.
         -5    1    4    4    0  502  0.19965067377E+02 -0.22881051607E+02  0.16521621119E+02  0.34888399253E+02  0.47000000000E+01 0.  1.
<mgrwt>
<rscale>  0 0.36898268E+03</rscale>
<asrwt>0</asrwt>
<pdfrwt beam="1">  1       21 0.30879651E-01 0.36898268E+03</pdfrwt>
<pdfrwt beam="2">  1       21 0.26088726E-01 0.36898268E+03</pdfrwt>
<totfact> 0.13395707E+05</totfact>
</mgrwt>
</event>
<event>
 8    1  0.9373234E-006  0.3081155E+03  0.7546771E-02  0.1081253E+00
         21   -1    0    0  504  503  0.00000000000E+00  0.00000000000E+00  0.20747843107E+02  0.20747843107E+02  0.00000000000E+00 0. -1.
         21   -1    0    0  503  504 -0.00000000000E+00 -0.00000000000E+00 -0.11439163076E+04  0.11439163076E+04  0.00000000000E+00 0. -1.
         25    2    1    2    0    0  0.47055866161E+02 -0.41828744531E+02 -0.31823936783E+03  0.34765666666E+03  0.12499985690E+03 0.  0.
         25    2    1    2    0    0 -0.47055866161E+02  0.41828744531E+02 -0.80492909664E+03  0.81700748402E+03  0.12500591959E+03 0.  0.
          5    1    3    3  501    0  0.48424269197E+02 -0.65390405692E+02 -0.31244981386E+03  0.32290523561E+03  0.47000000000E+01 0. -1.
         -5    1    3    3    0  501 -0.13684030358E+01  0.23561661161E+02 -0.57895539695E+01  0.24751431044E+02  0.47000000000E+01 0. -1.
          5    1    4    4  502    0 -0.57241631705E+02  0.60417370591E+02 -0.77782820593E+03  0.78228234737E+03  0.47000000000E+01 0. -1.
         -5    1    4    4    0  502  0.10185765544E+02 -0.18588626060E+02 -0.27100890708E+02  0.34725136655E+02  0.47000000000E+01 0. -1.
<mgrwt>
<rscale>  0 0.30811554E+03</rscale>
<asrwt>0</asrwt>
<pdfrwt beam="1">  1       21 0.31919748E-02 0.30811554E+03</pdfrwt>
<pdfrwt beam="2">  1       21 0.17598718E+00 0.30811554E+03</pdfrwt>
<totfact> 0.10528860E+05</totfact>
</mgrwt>
</event>
<event>
 8    1  0.9373234E-006  0.3376527E+03  0.7546771E-02  0.1067800E+00
         21   -1    0    0  504  503  0.00000000000E+00  0.00000000000E+00  0.16628700092E+03  0.16628700092E+03  0.00000000000E+00 0. -1.
         21   -1    0    0  503  504 -0.00000000000E+00 -0.00000000000E+00 -0.17140444158E+03  0.17140444158E+03  0.00000000000E+00 0. -1.
         25    2    1    2    0    0  0.64851430985E+02 -0.95845815733E+01 -0.95179541564E+02  0.17024203224E+03  0.12500252839E+03 0.  0.
         25    2    1    2    0    0 -0.64851430985E+02  0.95845815733E+01  0.90062100898E+02  0.16744941026E+03  0.12502220072E+03 0.  0.
          5    1    3    3  501    0  0.34865545869E+02  0.25793154353E+02 -0.11238501738E+03  0.12055444924E+03  0.47000000000E+01 0.  1.
         -5    1    3    3    0  501  0.29985885116E+02 -0.35377735927E+02  0.17205475821E+02  0.49687582993E+02  0.47000000000E+01 0.  1.
          5    1    4    4  502    0  0.44950000221E+01  0.42333341998E+02  0.78945221526E+02  0.89815114940E+02  0.47000000000E+01 0.  1.
         -5    1    4    4    0  502 -0.69346431007E+02 -0.32748760425E+02  0.11116879372E+02  0.77634295320E+02  0.47000000000E+01 0.  1.
<mgrwt>
<rscale>  0 0.33765266E+03</rscale>
<asrwt>0</asrwt>
<pdfrwt beam="1">  1       21 0.25582616E-01 0.33765266E+03</pdfrwt>
<pdfrwt beam="2">  1       21 0.26369914E-01 0.33765266E+03</pdfrwt>
<totfact> 0.19099279E+05</totfact>
</mgrwt>
</event>
<event>
 8    1  0.9373234E-006  0.3231980E+03  0.7546771E-02  0.1074187E+00
         21   -1    0    0  504  503  0.00000000000E+00  0.00000000000E+00  0.20587242240E+03  0.20587242240E+03  0.00000000000E+00 0. -1.
         21   -1    0    0  503  504 -0.00000000000E+00 -0.00000000000E+00 -0.12684671512E+03  0.12684671512E+03  0.00000000000E+00 0. -1.
         25    2    1    2    0    0  0.33892316566E+02  0.71866843342E+02  0.10603500192E+03  0.18216321241E+03  0.12500592797E+03 0.  0.
         25    2    1    2    0    0 -0.33892316566E+02 -0.71866843342E+02 -0.27009294639E+02  0.15055592511E+03  0.12499620913E+03 0.  0.
          5    1    3    3  501    0 -0.71049335418E+01  0.98586306421E+02  0.71675611472E+02  0.12218520031E+03  0.47000000000E+01 0.  1.
         -5    1    3    3    0  501  0.40997250108E+02 -0.26719463079E+02  0.34359390451E+02  0.59978012102E+02  0.47000000000E+01 0.  1.
          5    1    4    4  502    0 -0.19492805792E+02 -0.94576929433E+02 -0.55188877753E+02  0.11132235753E+03  0.47000000000E+01 0.  1.
         -5    1    4    4    0  502 -0.14399510774E+02  0.22710086091E+02  0.28179583114E+02  0.39233567583E+02  0.47000000000E+01 0.  1.
<mgrwt>
<rscale>  0 0.32319802E+03</rscale>
<asrwt>0</asrwt>
<pdfrwt beam="1">  1       21 0.31672680E-01 0.32319802E+03</pdfrwt>
<pdfrwt beam="2">  1       21 0.19514879E-01 0.32319802E+03</pdfrwt>
<totfact> 0.22420959E+05</totfact>
</mgrwt>
</event>
<event>
 8    1  0.9373234E-006  0.3287828E+03  0.7546771E-02  0.1071677E+00
         21   -1    0    0  504  503  0.00000000000E+00  0.00000000000E+00  0.14951203982E+03  0.14951203982E+03  0.00000000000E+00 0.  1.
         21   -1    0    0  503  504 -0.00000000000E+00 -0.00000000000E+00 -0.18075155727E+03  0.18075155727E+03  0.00000000000E+00 0.  1.
         25    2    1    2    0    0  0.77190045624E+02 -0.52809816627E+01  0.58274233142E+02  0.15814862809E+03  0.12501564065E+03 0.  0.
         25    2    1    2    0    0 -0.77190045624E+02  0.52809816627E+01 -0.89513750596E+02  0.17211496900E+03  0.12499863638E+03 0.  0.
          5    1    3    3  501    0 -0.14759457978E+02  0.39977010437E+02  0.27911568919E+02  0.51158075049E+02  0.47000000000E+01 0.  1.
         -5    1    3    3    0  501  0.91949503602E+02 -0.45257992099E+02  0.30362664223E+02  0.10699055304E+03  0.47000000000E+01 0.  1.
          5    1    4    4  502    0 -0.79767868137E+02  0.54131694352E+02 -0.48044802645E+02  0.10781255113E+03  0.47000000000E+01 0.  1.
         -5    1    4    4    0  502  0.25778225127E+01 -0.48850712690E+02 -0.41468947951E+02  0.64302417865E+02  0.47000000000E+01 0.  1.
<mgrwt>
<rscale>  0 0.32878281E+03</rscale>
<asrwt>0</asrwt>
<pdfrwt beam="1">  1       21 0.23001852E-01 0.32878281E+03</pdfrwt>
<pdfrwt beam="2">  1       21 0.27807932E-01 0.32878281E+03</pdfrwt>
<totfact> 0.21174970E+05</totfact>
</mgrwt>
</event>
<event>
 8    1  0.9373234E-006  0.2632548E+03  0.7546771E-02  0.1105203E+00
         21   -1    0    0  504  503  0.00000000000E+00  0.00000000000E+00  0.13423259581E+03  0.13423259581E+03  0.00000000000E+00 0.  1.
         21   -1    0    0  503  504 -0.00000000000E+00 -0.00000000000E+00 -0.12907278787E+03  0.12907278787E+03  0.00000000000E+00 0.  1.
         25    2    1    2    0    0 -0.73739662919E+01 -0.10668569002E+01  0.43147877984E+02  0.13245291257E+03  0.12500608430E+03 0.  0.
         25    2    1    2    0    0  0.73739662919E+01  0.10668569002E+01 -0.37988070045E+02  0.13085247110E+03  0.12499504857E+03 0.  0.
          5    1    3    3  501    0 -0.15369054988E+02 -0.56279411611E+02  0.48770130800E+02  0.76185272072E+02  0.47000000000E+01 0. -1.
         -5    1    3    3    0  501  0.79950886957E+01  0.55212554710E+02 -0.56222528162E+01  0.56267640502E+02  0.47000000000E+01 0. -1.
          5    1    4    4  502    0 -0.56193690472E+02  0.18513309802E+01 -0.36290461221E+02  0.67083871764E+02  0.47000000000E+01 0.  1.
         -5    1    4    4    0  502  0.63567656764E+02 -0.78447407996E+00 -0.16976088247E+01  0.63768599340E+02  0.47000000000E+01 0.  1.
<mgrwt>
<rscale>  0 0.26325482E+03</rscale>
<asrwt>0</asrwt>
<pdfrwt beam="1">  1       21 0.20651169E-01 0.26325482E+03</pdfrwt>
<pdfrwt beam="2">  1       21 0.19857352E-01 0.26325482E+03</pdfrwt>
<totfact> 0.50177980E+05</totfact>
</mgrwt>
</event>
<event>
 8    1  0.9373234E-006  0.3069602E+03  0.7546771E-02  0.1081812E+00
         21   -1    0    0  504  503  0.00000000000E+00  0.00000000000E+00  0.21129554363E+04  0.21129554363E+04  0.00000000000E+00 0. -1.
         21   -1    0    0  503  504 -0.00000000000E+00 -0.00000000000E+00 -0.11148430687E+02  0.11148430687E+02  0.00000000000E+00 0. -1.
         25    2    1    2    0    0  0.38317532350E+02  0.76685734259E+02  0.88382141481E+03  0.89672410590E+03  0.12499957482E+03 0.  0.
         25    2    1    2    0    0 -0.38317532350E+02 -0.76685734259E+02  0.12179855908E+04  0.12273797611E+04  0.12499297337E+03 0.  0.
          5    1    3    3  501    0 -0.12389298932E+02  0.48562725330E+02  0.11293254855E+03  0.12364337241E+03  0.47000000000E+01 0. -1.
         -5    1    3    3    0  501  0.50706831283E+02  0.28123008929E+02  0.77088886627E+03  0.77308073350E+03  0.47000000000E+01 0. -1.
          5    1    4    4  502    0 -0.19664388568E+01 -0.97465752227E+02  0.10356783969E+04  0.10402669232E+04  0.47000000000E+01 0.  1.
         -5    1    4    4    0  502 -0.36351093493E+02  0.20780017969E+02  0.18230719387E+03  0.18711283783E+03  0.47000000000E+01 0.  1.
<mgrwt>
<rscale>  0 0.30696017E+03</rscale>
<asrwt>0</asrwt>
<pdfrwt beam="1">  1       21 0.32506975E+00 0.30696017E+03</pdfrwt>
<pdfrwt beam="2">  1       21 0.17151449E-02 0.30696017E+03</pdfrwt>
<totfact> 0.35320803E+04</totfact>
</mgrwt>
</event>
<event>
 8    1  0.9373234E-006  0.3394881E+03  0.7546771E-02  0.1067014E+00
         21   -1    0    0  504  503  0.00000000000E+00  0.00000000000E+00  0.11865883296E+04  0.11865883296E+04  0.00000000000E+00 0.  1.
         21   -1    0    0  503  504 -0.00000000000E+00 -0.00000000000E+00 -0.24282261136E+02  0.24282261136E+02  0.00000000000E+00 0.  1.
         25    2    1    2    0    0 -0.97607598447E+02 -0.54689689927E+02  0.48882392041E+03  0.51681186359E+03  0.12500988651E+03 0.  0.
         25    2    1    2    0    0  0.97607598447E+02  0.54689689927E+02  0.67348214803E+03  0.69405872712E+03  0.12498442910E+03 0.  0.
          5    1    3    3  501    0 -0.11433888124E+03 -0.59540567279E+01  0.36645948976E+03  0.38395765156E+03  0.47000000000E+01 0.  1.
         -5    1    3    3    0  501  0.16731282791E+02 -0.48735633199E+02  0.12236443064E+03  0.13285421203E+03  0.47000000000E+01 0.  1.
          5    1    4    4  502    0 -0.17967709929E+02 -0.53163102852E+01  0.20369379538E+02  0.28073178977E+02  0.47000000000E+01 0. -1.
         -5    1    4    4    0  502  0.11557530838E+03  0.60006000212E+02  0.65311276849E+03  0.66598554815E+03  0.47000000000E+01 0. -1.
<mgrwt>
<rscale>  0 0.33948813E+03</rscale>
<asrwt>0</asrwt>
<pdfrwt beam="1">  1       21 0.18255201E+00 0.33948813E+03</pdfrwt>
<pdfrwt beam="2">  1       21 0.37357334E-02 0.33948813E+03</pdfrwt>
<totfact> 0.71913041E+04</totfact>
</mgrwt>
</event>
<event>
 8    1  0.9373234E-006  0.3299970E+03  0.7546771E-02  0.1071138E+00
         21   -1    0    0  504  503  0.00000000000E+00  0.00000000000E+00  0.81382298280E+02  0.81382298280E+02  0.00000000000E+00 0. -1.
         21   -1    0    0  503  504 -0.00000000000E+00 -0.00000000000E+00 -0.33452604624E+03  0.33452604624E+03  0.00000000000E+00 0. -1.
         25    2    1    2    0    0  0.88837943004E+02  0.33021265799E+02 -0.19102984785E+03  0.24718784767E+03  0.12500738038E+03 0.  0.
         25    2    1    2    0    0 -0.88837943004E+02 -0.33021265799E+02 -0.62113900105E+02  0.16872049685E+03  0.12500354139E+03 0.  0.
          5    1    3    3  501    0  0.60364432717E+02  0.49601314786E+02 -0.31744998802E+02  0.84462951136E+02  0.47000000000E+01 0.  1.
         -5    1    3    3    0  501  0.28473510287E+02 -0.16580048986E+02 -0.15928484905E+03  0.16272489653E+03  0.47000000000E+01 0.  1.
          5    1    4    4  502    0 -0.81284278357E+02 -0.16625986273E+02  0.19204191221E+02  0.85290376292E+02  0.47000000000E+01 0.  1.
         -5    1    4    4    0  502 -0.75536646473E+01 -0.16395279526E+02 -0.81318091326E+02  0.83430120563E+02  0.47000000000E+01 0.  1.
<mgrwt>
<rscale>  0 0.32999696E+03</rscale>
<asrwt>0</asrwt>
<pdfrwt beam="1">  1       21 0.12520354E-01 0.32999696E+03</pdfrwt>
<pdfrwt beam="2">  1       21 0.51465545E-01 0.32999696E+03</pdfrwt>
<totfact> 0.18809893E+05</totfact>
</mgrwt>
</event>
<event>
 8    1  0.9373234E-006  0.2822669E+03  0.7546771E-02  0.1094457E+00
         21   -1    0    0  504  503  0.00000000000E+00  0.00000000000E+00  0.55115920186E+02  0.55115920186E+02  0.00000000000E+00 0. -1.
         21   -1    0    0  503  504 -0.00000000000E+00 -0.00000000000E+00 -0.36139563640E+03  0.36139563640E+03  0.00000000000E+00 0. -1.
         25    2    1    2    0    0  0.44822861749E+01 -0.21873570547E+02 -0.24405408065E+03  0.27510868143E+03  0.12499539326E+03 0.  0.
         25    2    1    2    0    0 -0.44822861749E+01  0.21873570547E+02 -0.62225635561E+02  0.14140287516E+03  0.12499679757E+03 0.  0.
          5    1    3    3  501    0  0.22482267527E+02 -0.67484685889E+02 -0.18468280841E+03  0.19796329181E+03  0.47000000000E+01 0.  1.
         -5    1    3    3    0  501 -0.17999981353E+02  0.45611115343E+02 -0.59371272242E+02  0.77145389617E+02  0.47000000000E+01 0.  1.
          5    1    4    4  502    0 -0.11257496191E+02 -0.44663214983E+02  0.48648908347E+01  0.46554174420E+02  0.47000000000E+01 0.  1.
         -5    1    4    4    0  502  0.67752100158E+01  0.66536785530E+02 -0.67090526395E+02  0.94848700737E+02  0.47000000000E+01 0.  1.
<mgrwt>
<rscale>  0 0.28226692E+03</rscale>
<asrwt>0</asrwt>
<pdfrwt beam="1">  1       21 0.84793722E-02 0.28226692E+03</pdfrwt>
<pdfrwt beam="2">  1       21 0.55599330E-01 0.28226692E+03</pdfrwt>
<totfact> 0.32356011E+05</totfact>
</mgrwt>
</event>
<event>
 8    1  0.9373234E-006  0.2715470E+03  0.7546771E-02  0.1100397E+00
         21   -1    0    0  504  503  0.00000000000E+00  0.00000000000E+00  0.58325442947E+03  0.58325442947E+03  0.00000000000E+00 0.  1.
         21   -1    0    0  503  504 -0.00000000000E+00 -0.00000000000E+00 -0.31606177313E+02  0.31606177313E+02  0.00000000000E+00 0.  1.
         25    2    1    2    0    0  0.24325947148E+02  0.28938783410E+02  0.35990722604E+03  0.38286695608E+03  0.12499875922E+03 0.  0.
         25    2    1    2    0    0 -0.24325947148E+02 -0.28938783410E+02  0.19174102612E+03  0.23199365071E+03  0.12500891161E+03 0.  0.
          5    1    3    3  501    0 -0.43326558346E+02 -0.64443358577E+01  0.21001217349E+03  0.21458313806E+03  0.47000000000E+01 0.  1.
         -5    1    3    3    0  501  0.67652505494E+02  0.35383119268E+02  0.14989505255E+03  0.16828381802E+03  0.47000000000E+01 0.  1.
          5    1    4    4  502    0 -0.51068071256E+02  0.33915232406E+02  0.10229666063E+03  0.11935194874E+03  0.47000000000E+01 0. -1.
         -5    1    4    4    0  502  0.26742124108E+02 -0.62854015816E+02  0.89444365488E+02  0.11264170197E+03  0.47000000000E+01 0. -1.
<mgrwt>
<rscale>  0 0.27154700E+03</rscale>
<asrwt>0</asrwt>
<pdfrwt beam="1">  1       21 0.89731443E-01 0.27154700E+03</pdfrwt>
<pdfrwt beam="2">  1       21 0.48624892E-02 0.27154700E+03</pdfrwt>
<totfact> 0.29200927E+05</totfact>
</mgrwt>
</event>
<event>
 8    1  0.9373234E-006  0.3019675E+03  0.7546771E-02  0.1084261E+00
         21   -1    0    0  504  503  0.00000000000E+00  0.00000000000E+00  0.90184452232E+02  0.90184452232E+02  0.00000000000E+00 0. -1.
         21   -1    0    0  503  504 -0.00000000000E+00 -0.00000000000E+00 -0.25277186913E+03  0.25277186913E+03  0.00000000000E+00 0. -1.
         25    2    1    2    0    0 -0.36626975616E+02 -0.73551828790E+02 -0.58063128193E+02  0.16046255014E+03  0.12500198511E+03 0.  0.
         25    2    1    2    0    0  0.36626975616E+02  0.73551828790E+02 -0.10452428870E+03  0.18249377122E+03  0.12500897065E+03 0.  0.
          5    1    3    3  501    0 -0.59404836594E+02 -0.58676095883E+02 -0.86855391694E+02  0.12057266649E+03  0.47000000000E+01 0.  1.
         -5    1    3    3    0  501  0.22777860977E+02 -0.14875732907E+02  0.28792263501E+02  0.39889883652E+02  0.47000000000E+01 0.  1.
          5    1    4    4  502    0 -0.28791384313E+02  0.74845453686E+02 -0.77259755194E+02  0.11145378199E+03  0.47000000000E+01 0.  1.
         -5    1    4    4    0  502  0.65418359929E+02 -0.12936248953E+01 -0.27264533509E+02  0.71039989222E+02  0.47000000000E+01 0.  1.
<mgrwt>
<rscale>  0 0.30196750E+03</rscale>
<asrwt>0</asrwt>
<pdfrwt beam="1">  1       21 0.13874531E-01 0.30196750E+03</pdfrwt>
<pdfrwt beam="2">  1       21 0.38887979E-01 0.30196750E+03</pdfrwt>
<totfact> 0.28077855E+05</totfact>
</mgrwt>
</event>
<event>
 8    1  0.9373234E-006  0.3994975E+03  0.7546771E-02  0.1043954E+00
         21   -1    0    0  504  503  0.00000000000E+00  0.00000000000E+00  0.44495577625E+03  0.44495577625E+03  0.00000000000E+00 0. -1.
         21   -1    0    0  503  504 -0.00000000000E+00 -0.00000000000E+00 -0.89670829586E+02  0.89670829586E+02  0.00000000000E+00 0. -1.
         25    2    1    2    0    0  0.37366723666E+01 -0.11697224460E+03  0.31528400616E+03  0.35878132392E+03  0.12499426036E+03 0.  0.
         25    2    1    2    0    0 -0.37366723666E+01  0.11697224460E+03  0.40000940496E+02  0.17584528191E+03  0.12500007682E+03 0.  0.
          5    1    3    3  501    0  0.52744684630E+02 -0.99747644454E+02  0.16707855204E+03  0.20166538345E+03  0.47000000000E+01 0. -1.
         -5    1    3    3    0  501 -0.49008012264E+02 -0.17224600145E+02  0.14820545413E+03  0.15711594047E+03  0.47000000000E+01 0. -1.
          5    1    4    4  502    0 -0.30995434149E+02  0.13343868253E+03  0.21591835357E+02  0.13876201313E+03  0.47000000000E+01 0.  1.
         -5    1    4    4    0  502  0.27258761782E+02 -0.16466437929E+02  0.18409105139E+02  0.37083268788E+02  0.47000000000E+01 0.  1.
<mgrwt>
<rscale>  0 0.39949745E+03</rscale>
<asrwt>0</asrwt>
<pdfrwt beam="1">  1       21 0.68454734E-01 0.39949745E+03</pdfrwt>
<pdfrwt beam="2">  1       21 0.13795513E-01 0.39949745E+03</pdfrwt>
<totfact> 0.83388264E+04</totfact>
</mgrwt>
</event>
<event>
 8    1  0.9373234E-006  0.2869017E+03  0.7546771E-02  0.1091978E+00
         21   -1    0    0  504  503  0.00000000000E+00  0.00000000000E+00  0.24604121089E+03  0.24604121089E+03  0.00000000000E+00 0.  1.
         21   -1    0    0  503  504 -0.00000000000E+00 -0.00000000000E+00 -0.83636984685E+02  0.83636984685E+02  0.00000000000E+00 0.  1.
         25    2    1    2    0    0  0.35491277231E+02 -0.54293414605E+02  0.49887083714E+02  0.14942526034E+03  0.12502712377E+03 0.  0.
         25    2    1    2    0    0 -0.35491277231E+02  0.54293414605E+02  0.11251714249E+03  0.18025293523E+03  0.12499443058E+03 0.  0.
          5    1    3    3  501    0 -0.14348730738E+02 -0.70390391979E+02  0.62513391782E+02  0.95345201814E+02  0.47000000000E+01 0. -1.
         -5    1    3    3    0  501  0.49840007969E+02  0.16096977374E+02 -0.12626308068E+02  0.54080058528E+02  0.47000000000E+01 0. -1.
          5    1    4    4  502    0  0.23520718449E+02  0.43762192249E+02 -0.30310158402E+01  0.49996307101E+02  0.47000000000E+01 0.  1.
         -5    1    4    4    0  502 -0.59011995680E+02  0.10531222356E+02  0.11554815833E+03  0.13025662813E+03  0.47000000000E+01 0.  1.
<mgrwt>
<rscale>  0 0.28690169E+03</rscale>
<asrwt>0</asrwt>
<pdfrwt beam="1">  1       21 0.37852494E-01 0.28690169E+03</pdfrwt>
<pdfrwt beam="2">  1       21 0.12867229E-01 0.28690169E+03</pdfrwt>
<totfact> 0.34123447E+05</totfact>
</mgrwt>
</event>
<event>
 8    1  0.9373234E-006  0.2957967E+03  0.7546771E-02  0.1087361E+00
         21   -1    0    0  504  503  0.00000000000E+00  0.00000000000E+00  0.17632805143E+02  0.17632805143E+02  0.00000000000E+00 0.  1.
         21   -1    0    0  503  504 -0.00000000000E+00 -0.00000000000E+00 -0.12405244038E+04  0.12405244038E+04  0.00000000000E+00 0.  1.
         25    2    1    2    0    0  0.51381552939E+02 -0.60039968937E+02 -0.60225671688E+03  0.62014685848E+03  0.12499644476E+03 0.  0.
         25    2    1    2    0    0 -0.51381552939E+02  0.60039968937E+02 -0.62063488181E+03  0.63801035050E+03  0.12499875587E+03 0.  0.
          5    1    3    3  501    0 -0.22717970630E+02  0.25462335122E+02 -0.12742639727E+03  0.13200005083E+03  0.47000000000E+01 0. -1.
         -5    1    3    3    0  501  0.74099523570E+02 -0.85502304059E+02 -0.47483031961E+03  0.48814680764E+03  0.47000000000E+01 0. -1.
          5    1    4    4  502    0 -0.20198845592E+02 -0.38876319384E+02 -0.18547089439E+03  0.19063290439E+03  0.47000000000E+01 0.  1.
         -5    1    4    4    0  502 -0.31182707347E+02  0.98916288321E+02 -0.43516398743E+03  0.44737744611E+03  0.47000000000E+01 0.  1.
<mgrwt>
<rscale>  0 0.29579672E+03</rscale>
<asrwt>0</asrwt>
<pdfrwt beam="1">  1       21 0.27127397E-02 0.29579672E+03</pdfrwt>
<pdfrwt beam="2">  1       21 0.19084987E+00 0.29579672E+03</pdfrwt>
<totfact> 0.10970163E+05</totfact>
</mgrwt>
</event>
<event>
 8    1  0.9373234E-006  0.2929169E+03  0.7546771E-02  0.1088836E+00
         21   -1    0    0  504  503  0.00000000000E+00  0.00000000000E+00  0.12768983592E+03  0.12768983592E+03  0.00000000000E+00 0. -1.
         21   -1    0    0  503  504 -0.00000000000E+00 -0.00000000000E+00 -0.16798584083E+03  0.16798584083E+03  0.00000000000E+00 0. -1.
         25    2    1    2    0    0  0.12293557108E+02 -0.70912184302E+02  0.54635496782E+01  0.14435624214E+03  0.12501681823E+03 0.  0.
         25    2    1    2    0    0 -0.12293557108E+02  0.70912184302E+02 -0.45759554588E+02  0.15131943461E+03  0.12499586003E+03 0.  0.
          5    1    3    3  501    0  0.57916596358E+02 -0.21131114455E+01 -0.13122453509E+02  0.59607769290E+02  0.47000000000E+01 0.  1.
         -5    1    3    3    0  501 -0.45623039250E+02 -0.68799072856E+02  0.18586003187E+02  0.84748472852E+02  0.47000000000E+01 0.  1.
          5    1    4    4  502    0 -0.41691535603E+02 -0.61721522938E+01 -0.53562996765E+02  0.68318110537E+02  0.47000000000E+01 0.  1.
         -5    1    4    4    0  502  0.29397978496E+02  0.77084336596E+02  0.78034421764E+01  0.83001324073E+02  0.47000000000E+01 0.  1.
<mgrwt>
<rscale>  0 0.29291695E+03</rscale>
<asrwt>0</asrwt>
<pdfrwt beam="1">  1       21 0.19644590E-01 0.29291695E+03</pdfrwt>
<pdfrwt beam="2">  1       21 0.25843976E-01 0.29291695E+03</pdfrwt>
<totfact> 0.33181223E+05</totfact>
</mgrwt>
</event>
<event>
 8    1  0.9373234E-006  0.2514143E+03  0.7546771E-02  0.1112414E+00
         21   -1    0    0  504  503  0.00000000000E+00  0.00000000000E+00  0.68350758471E+02  0.68350758471E+02  0.00000000000E+00 0. -1.
         21   -1    0    0  503  504 -0.00000000000E+00 -0.00000000000E+00 -0.23119399791E+03  0.23119399791E+03  0.00000000000E+00 0. -1.
         25    2    1    2    0    0  0.60770746816E+01 -0.60962725301E+01 -0.93813278828E+02  0.15648796280E+03  0.12495381484E+03 0.  0.
         25    2    1    2    0    0 -0.60770746816E+01  0.60962725301E+01 -0.69029960610E+02  0.14305679358E+03  0.12500406134E+03 0.  0.
          5    1    3    3  501    0  0.19183726037E+02 -0.97656886782E+01 -0.12245976019E+03  0.12442615033E+03  0.47000000000E+01 0. -1.
         -5    1    3    3    0  501 -0.13106651355E+02  0.36694161481E+01  0.28646481363E+02  0.32061812474E+02  0.47000000000E+01 0. -1.
          5    1    4    4  502    0  0.46664677616E+02  0.23890875336E+02  0.20236624016E+01  0.52674009444E+02  0.47000000000E+01 0.  1.
         -5    1    4    4    0  502 -0.52741752298E+02 -0.17794602806E+02 -0.71053623011E+02  0.90382784132E+02  0.47000000000E+01 0.  1.
<mgrwt>
<rscale>  0 0.25141428E+03</rscale>
<asrwt>0</asrwt>
<pdfrwt beam="1">  1       21 0.10515501E-01 0.25141428E+03</pdfrwt>
<pdfrwt beam="2">  1       21 0.35568307E-01 0.25141428E+03</pdfrwt>
<totfact> 0.55965175E+05</totfact>
</mgrwt>
</event>
<event>
 8    1  0.9373234E-006  0.3997735E+03  0.7546771E-02  0.1043858E+00
         21   -1    0    0  504  503  0.00000000000E+00  0.00000000000E+00  0.91661031255E+03  0.91661031255E+03  0.00000000000E+00 0.  1.
         21   -1    0    0  503  504 -0.00000000000E+00 -0.00000000000E+00 -0.43589630348E+02  0.43589630348E+02  0.00000000000E+00 0.  1.
         25    2    1    2    0    0 -0.11713214358E+02 -0.35460539078E+01  0.81000264262E+03  0.81968063491E+03  0.12498915278E+03 0.  0.
         25    2    1    2    0    0  0.11713214358E+02  0.35460539078E+01  0.63018039585E+02  0.14051930799E+03  0.12499851485E+03 0.  0.
          5    1    3    3  501    0 -0.85731232234E+01 -0.27810376800E+02  0.78053905721E+03  0.78109552894E+03  0.47000000000E+01 0.  1.
         -5    1    3    3    0  501 -0.31400911341E+01  0.24264322892E+02  0.29463585406E+02  0.38585105970E+02  0.47000000000E+01 0.  1.
          5    1    4    4  502    0  0.46614951124E+02 -0.44652773366E+02  0.23155510629E+02  0.68739301059E+02  0.47000000000E+01 0.  1.
         -5    1    4    4    0  502 -0.34901736767E+02  0.48198827274E+02  0.39862528956E+02  0.71780006929E+02  0.47000000000E+01 0.  1.
<mgrwt>
<rscale>  0 0.39977346E+03</rscale>
<asrwt>0</asrwt>
<pdfrwt beam="1">  1       21 0.14101696E+00 0.39977346E+03</pdfrwt>
<pdfrwt beam="2">  1       21 0.67060977E-02 0.39977346E+03</pdfrwt>
<totfact> 0.52795520E+04</totfact>
</mgrwt>
</event>
<event>
 8    1  0.9373234E-006  0.2684204E+03  0.7546771E-02  0.1102187E+00
         21   -1    0    0  504  503  0.00000000000E+00  0.00000000000E+00  0.13057443022E+03  0.13057443022E+03  0.00000000000E+00 0.  1.
         21   -1    0    0  503  504 -0.00000000000E+00 -0.00000000000E+00 -0.13794723822E+03  0.13794723822E+03  0.00000000000E+00 0.  1.
         25    2    1    2    0    0  0.34104448426E+02  0.31153106608E+02  0.12234905943E+02  0.13382598971E+03  0.12500429251E+03 0.  0.
         25    2    1    2    0    0 -0.34104448426E+02 -0.31153106608E+02 -0.19607713937E+02  0.13469567873E+03  0.12499933587E+03 0.  0.
          5    1    3    3  501    0 -0.12572610514E+01  0.58481229305E+02  0.48459953910E+02  0.76105794913E+02  0.47000000000E+01 0. -1.
         -5    1    3    3    0  501  0.35361709477E+02 -0.27328122696E+02 -0.36225047967E+02  0.57720194798E+02  0.47000000000E+01 0. -1.
          5    1    4    4  502    0  0.25100556871E+02  0.19559357922E+02  0.28495637360E+02  0.42973221733E+02  0.47000000000E+01 0.  1.
         -5    1    4    4    0  502 -0.59205005297E+02 -0.50712464530E+02 -0.48103351297E+02  0.91722456993E+02  0.47000000000E+01 0.  1.
<mgrwt>
<rscale>  0 0.26842043E+03</rscale>
<asrwt>0</asrwt>
<pdfrwt beam="1">  1       21 0.20088374E-01 0.26842043E+03</pdfrwt>
<pdfrwt beam="2">  1       21 0.21222652E-01 0.26842043E+03</pdfrwt>
<totfact> 0.46587330E+05</totfact>
</mgrwt>
</event>
<event>
 8    1  0.9373234E-006  0.2866920E+03  0.7546771E-02  0.1092089E+00
         21   -1    0    0  504  503  0.00000000000E+00  0.00000000000E+00  0.28144460441E+03  0.28144460441E+03  0.00000000000E+00 0.  1.
         21   -1    0    0  503  504 -0.00000000000E+00 -0.00000000000E+00 -0.73009291853E+02  0.73009291853E+02  0.00000000000E+00 0.  1.
         25    2    1    2    0    0 -0.26940611888E+02  0.15389750601E+02  0.18203717169E+03  0.22299030267E+03  0.12499800885E+03 0.  0.
         25    2    1    2    0    0  0.26940611888E+02 -0.15389750601E+02  0.26398140860E+02  0.13146359359E+03  0.12499269421E+03 0.  0.
          5    1    3    3  501    0 -0.46535147586E+02 -0.41660467364E+02  0.12511953694E+03  0.13992177467E+03  0.47000000000E+01 0.  1.
         -5    1    3    3    0  501  0.19594535698E+02  0.57050217966E+02  0.56917634750E+02  0.83068528004E+02  0.47000000000E+01 0.  1.
          5    1    4    4  502    0 -0.36357329116E+02  0.10743001041E+02  0.46271282925E+02  0.60003242207E+02  0.47000000000E+01 0. -1.
         -5    1    4    4    0  502  0.63297941004E+02 -0.26132751643E+02 -0.19873142065E+02  0.71460351380E+02  0.47000000000E+01 0. -1.
<mgrwt>
<rscale>  0 0.28669197E+03</rscale>
<asrwt>0</asrwt>
<pdfrwt beam="1">  1       21 0.43299169E-01 0.28669197E+03</pdfrwt>
<pdfrwt beam="2">  1       21 0.11232199E-01 0.28669197E+03</pdfrwt>
<totfact> 0.33139411E+05</totfact>
</mgrwt>
</event>
<event>
 8    1  0.9373234E-006  0.4258788E+03  0.7546771E-02  0.1035170E+00
         21   -1    0    0  504  503  0.00000000000E+00  0.00000000000E+00  0.79206315737E+03  0.79206315737E+03  0.00000000000E+00 0.  1.
         21   -1    0    0  503  504 -0.00000000000E+00 -0.00000000000E+00 -0.57246924551E+02  0.57246924551E+02  0.00000000000E+00 0.  1.
         25    2    1    2    0    0  0.12163026965E+03 -0.39587652242E+02  0.13690582588E+03  0.22522531440E+03  0.12498852900E+03 0.  0.
         25    2    1    2    0    0 -0.12163026965E+03  0.39587652242E+02  0.59791040694E+03  0.62408476752E+03  0.12499535037E+03 0.  0.
          5    1    3    3  501    0 -0.72200513613E+01  0.29605309565E+02  0.12915179138E+02  0.33428959725E+02  0.47000000000E+01 0.  1.
         -5    1    3    3    0  501  0.12885032101E+03 -0.69192961807E+02  0.12399064674E+03  0.19179635468E+03  0.47000000000E+01 0.  1.
          5    1    4    4  502    0 -0.13200669828E+03  0.61447603760E+02  0.56166910052E+03  0.58025498264E+03  0.47000000000E+01 0.  1.
         -5    1    4    4    0  502  0.10376428630E+02 -0.21859951517E+02  0.36241306422E+02  0.43829784880E+02  0.47000000000E+01 0.  1.
<mgrwt>
<rscale>  0 0.42587876E+03</rscale>
<asrwt>0</asrwt>
<pdfrwt beam="1">  1       21 0.12185586E+00 0.42587876E+03</pdfrwt>
<pdfrwt beam="2">  1       21 0.88072197E-02 0.42587876E+03</pdfrwt>
<totfact> 0.47360063E+04</totfact>
</mgrwt>
</event>
<event>
 8    1  0.9373234E-006  0.4849471E+03  0.7546771E-02  0.1017784E+00
         21   -1    0    0  504  503  0.00000000000E+00  0.00000000000E+00  0.28380647332E+03  0.28380647332E+03  0.00000000000E+00 0.  1.
         21   -1    0    0  503  504 -0.00000000000E+00 -0.00000000000E+00 -0.20716022243E+03  0.20716022243E+03  0.00000000000E+00 0.  1.
         25    2    1    2    0    0  0.12636391216E+03 -0.15364961425E+03 -0.22335371172E+02  0.23601678830E+03  0.12501605217E+03 0.  0.
         25    2    1    2    0    0 -0.12636391216E+03  0.15364961425E+03  0.98981622064E+02  0.25494990745E+03  0.12500420611E+03 0.  0.
          5    1    3    3  501    0 -0.57818262171E+01 -0.76792878210E+02 -0.30243849740E+02  0.82869512520E+02  0.47000000000E+01 0.  1.
         -5    1    3    3    0  501  0.13214573838E+03 -0.76856736036E+02  0.79084785676E+01  0.15314727578E+03  0.47000000000E+01 0.  1.
          5    1    4    4  502    0 -0.52013848861E+02  0.79576385212E+02  0.11434348272E+03  0.14877621986E+03  0.47000000000E+01 0. -1.
         -5    1    4    4    0  502 -0.74350063299E+02  0.74073229033E+02 -0.15361860654E+02  0.10617368758E+03  0.47000000000E+01 0. -1.
<mgrwt>
<rscale>  0 0.48494706E+03</rscale>
<asrwt>0</asrwt>
<pdfrwt beam="1">  1       21 0.43662535E-01 0.48494706E+03</pdfrwt>
<pdfrwt beam="2">  1       21 0.31870803E-01 0.48494706E+03</pdfrwt>
<totfact> 0.43516806E+04</totfact>
</mgrwt>
</event>
<event>
 8    1  0.9373234E-006  0.3382068E+03  0.7546771E-02  0.1067562E+00
         21   -1    0    0  504  503  0.00000000000E+00  0.00000000000E+00  0.43455124864E+03  0.43455124864E+03  0.00000000000E+00 0.  1.
         21   -1    0    0  503  504 -0.00000000000E+00 -0.00000000000E+00 -0.65805723028E+02  0.65805723028E+02  0.00000000000E+00 0.  1.
         25    2    1    2    0    0  0.68481307327E+01 -0.94647063859E+02  0.91181981681E+02  0.18148974257E+03  0.12497763513E+03 0.  0.
         25    2    1    2    0    0 -0.68481307327E+01  0.94647063859E+02  0.27756354393E+03  0.31886722910E+03  0.12501929965E+03 0.  0.
          5    1    3    3  501    0  0.46307442881E+02 -0.74514686719E+02  0.93954766186E+01  0.88358263812E+02  0.47000000000E+01 0.  1.
         -5    1    3    3    0  501 -0.39459312148E+02 -0.20132377140E+02  0.81786505063E+02  0.93131478753E+02  0.47000000000E+01 0.  1.
          5    1    4    4  502    0  0.22603324673E+01  0.12360009899E+03  0.19671294163E+03  0.23237935574E+03  0.47000000000E+01 0.  1.
         -5    1    4    4    0  502 -0.91084632000E+01 -0.28953035129E+02  0.80850602302E+02  0.86487873356E+02  0.47000000000E+01 0.  1.
<mgrwt>
<rscale>  0 0.33820680E+03</rscale>
<asrwt>0</asrwt>
<pdfrwt beam="1">  1       21 0.66854037E-01 0.33820680E+03</pdfrwt>
<pdfrwt beam="2">  1       21 0.10123958E-01 0.33820680E+03</pdfrwt>
<totfact> 0.15616671E+05</totfact>
</mgrwt>
</event>
<event>
 8    1  0.9373234E-006  0.2695879E+03  0.7546771E-02  0.1101516E+00
         21   -1    0    0  504  503  0.00000000000E+00  0.00000000000E+00  0.43390973734E+03  0.43390973734E+03  0.00000000000E+00 0. -1.
         21   -1    0    0  503  504 -0.00000000000E+00 -0.00000000000E+00 -0.41873719104E+02  0.41873719104E+02  0.00000000000E+00 0. -1.
         25    2    1    2    0    0 -0.43886599746E+01 -0.22578364400E+02  0.27521169424E+03  0.30314186863E+03  0.12499789197E+03 0.  0.
         25    2    1    2    0    0  0.43886599746E+01  0.22578364400E+02  0.11682432399E+03  0.17264158781E+03  0.12501260852E+03 0.  0.
          5    1    3    3  501    0  0.47494975875E+02  0.78735895570E+00  0.43776493589E+02  0.64767770213E+02  0.47000000000E+01 0.  1.
         -5    1    3    3    0  501 -0.51883635850E+02 -0.23365723355E+02  0.23143520065E+03  0.23837409842E+03  0.47000000000E+01 0.  1.
          5    1    4    4  502    0 -0.59654882389E+01  0.70120266791E+02  0.38606519686E+02  0.80405175374E+02  0.47000000000E+01 0. -1.
         -5    1    4    4    0  502  0.10354148213E+02 -0.47541902391E+02  0.78217804308E+02  0.92236412436E+02  0.47000000000E+01 0. -1.
<mgrwt>
<rscale>  0 0.26958794E+03</rscale>
<asrwt>0</asrwt>
<pdfrwt beam="1">  1       21 0.66755341E-01 0.26958794E+03</pdfrwt>
<pdfrwt beam="2">  1       21 0.64421109E-02 0.26958794E+03</pdfrwt>
<totfact> 0.35236482E+05</totfact>
</mgrwt>
</event>
<event>
 8    1  0.9373234E-006  0.3000631E+03  0.7546771E-02  0.1085209E+00
         21   -1    0    0  504  503  0.00000000000E+00  0.00000000000E+00  0.78765901783E+03  0.78765901783E+03  0.00000000000E+00 0.  1.
         21   -1    0    0  503  504 -0.00000000000E+00 -0.00000000000E+00 -0.28577687547E+02  0.28577687547E+02  0.00000000000E+00 0.  1.
         25    2    1    2    0    0  0.16712926415E+02  0.22532404256E+01  0.15855343656E+03  0.20260627678E+03  0.12500284854E+03 0.  0.
         25    2    1    2    0    0 -0.16712926415E+02 -0.22532404256E+01  0.60052789372E+03  0.61363042859E+03  0.12499661099E+03 0.  0.
          5    1    3    3  501    0  0.60025324300E+02 -0.19037627287E+02  0.40595638867E+02  0.75070411648E+02  0.47000000000E+01 0. -1.
         -5    1    3    3    0  501 -0.43312397885E+02  0.21290867712E+02  0.11795779769E+03  0.12753586513E+03  0.47000000000E+01 0. -1.
          5    1    4    4  502    0 -0.36923358881E+02 -0.41554247653E+02  0.50722556015E+03  0.51028418435E+03  0.47000000000E+01 0. -1.
         -5    1    4    4    0  502  0.20210432466E+02  0.39301007227E+02  0.93302333570E+02  0.10334624424E+03  0.47000000000E+01 0. -1.
<mgrwt>
<rscale>  0 0.30006315E+03</rscale>
<asrwt>0</asrwt>
<pdfrwt beam="1">  1       21 0.12117829E+00 0.30006315E+03</pdfrwt>
<pdfrwt beam="2">  1       21 0.43965679E-02 0.30006315E+03</pdfrwt>
<totfact> 0.16625209E+05</totfact>
</mgrwt>
</event>
<event>
 8    1  0.9373234E-006  0.2636369E+03  0.7546771E-02  0.1104978E+00
         21   -1    0    0  504  503  0.00000000000E+00  0.00000000000E+00  0.37266279208E+02  0.37266279208E+02  0.00000000000E+00 0. -1.
         21   -1    0    0  503  504 -0.00000000000E+00 -0.00000000000E+00 -0.46626868682E+03  0.46626868682E+03  0.00000000000E+00 0. -1.
         25    2    1    2    0    0  0.83217542684E+01  0.16310691539E+02 -0.14263463470E+03  0.19053650738E+03  0.12499692546E+03 0.  0.
         25    2    1    2    0    0 -0.83217542684E+01 -0.16310691539E+02 -0.28636777291E+03  0.31299845864E+03  0.12500497391E+03 0.  0.
          5    1    3    3  501    0 -0.57190828005E+02  0.19407079183E+02 -0.68108913843E+02  0.91150094214E+02  0.47000000000E+01 0.  1.
         -5    1    3    3    0  501  0.65512582273E+02 -0.30963876447E+01 -0.74525720859E+02  0.99386413167E+02  0.47000000000E+01 0.  1.
          5    1    4    4  502    0  0.24312386735E+02 -0.56371772164E+02 -0.84392615497E+02  0.10446565175E+03  0.47000000000E+01 0. -1.
         -5    1    4    4    0  502 -0.32634141003E+02  0.40061080625E+02 -0.20197515741E+03  0.20853280689E+03  0.47000000000E+01 0. -1.
<mgrwt>
<rscale>  0 0.26363686E+03</rscale>
<asrwt>0</asrwt>
<pdfrwt beam="1">  1       21 0.57332732E-02 0.26363686E+03</pdfrwt>
<pdfrwt beam="2">  1       21 0.71733650E-01 0.26363686E+03</pdfrwt>
<totfact> 0.36776497E+05</totfact>
</mgrwt>
</event>
<event>
 8    1  0.9373234E-006  0.2765897E+03  0.7546771E-02  0.1097566E+00
         21   -1    0    0  504  503  0.00000000000E+00  0.00000000000E+00  0.76789986274E+03  0.76789986274E+03  0.00000000000E+00 0. -1.
         21   -1    0    0  503  504 -0.00000000000E+00 -0.00000000000E+00 -0.24906203399E+02  0.24906203399E+02  0.00000000000E+00 0. -1.
         25    2    1    2    0    0  0.47193325667E+02 -0.31540368265E+02  0.41894541535E+03  0.44087371964E+03  0.12502947974E+03 0.  0.
         25    2    1    2    0    0 -0.47193325667E+02  0.31540368265E+02  0.32404824399E+03  0.35193234651E+03  0.12500842877E+03 0.  0.
          5    1    3    3  501    0  0.51270009259E+02  0.11386022771E+01  0.39852857929E+03  0.40184204456E+03  0.47000000000E+01 0. -1.
         -5    1    3    3    0  501 -0.40766835920E+01 -0.32678970542E+02  0.20416836065E+02  0.39031675082E+02  0.47000000000E+01 0. -1.
          5    1    4    4  502    0 -0.87894063576E+02  0.26785525365E+02  0.25953887331E+03  0.27536402732E+03  0.47000000000E+01 0. -1.
         -5    1    4    4    0  502  0.40700737908E+02  0.47548428997E+01  0.64509370679E+02  0.76568319185E+02  0.47000000000E+01 0. -1.
<mgrwt>
<rscale>  0 0.27658973E+03</rscale>
<asrwt>0</asrwt>
<pdfrwt beam="1">  1       21 0.11813842E+00 0.27658973E+03</pdfrwt>
<pdfrwt beam="2">  1       21 0.38317242E-02 0.27658973E+03</pdfrwt>
<totfact> 0.22508329E+05</totfact>
</mgrwt>
</event>
<event>
 8    1  0.9373234E-006  0.3075532E+03  0.7546771E-02  0.1081525E+00
         21   -1    0    0  504  503  0.00000000000E+00  0.00000000000E+00  0.24058753898E+02  0.24058753898E+02  0.00000000000E+00 0.  1.
         21   -1    0    0  503  504 -0.00000000000E+00 -0.00000000000E+00 -0.98289551607E+03  0.98289551607E+03  0.00000000000E+00 0.  1.
         25    2    1    2    0    0  0.71979421807E+02 -0.11187762855E+02 -0.30872399788E+03  0.34093800601E+03  0.12498805492E+03 0.  0.
         25    2    1    2    0    0 -0.71979421807E+02  0.11187762855E+02 -0.65011276429E+03  0.66601626396E+03  0.12499941746E+03 0.  0.
          5    1    3    3  501    0  0.48058073056E+02 -0.55275017294E+02 -0.88255890843E+02  0.11478718653E+03  0.47000000000E+01 0. -1.
         -5    1    3    3    0  501  0.23921348750E+02  0.44087254439E+02 -0.22046810704E+03  0.22615081948E+03  0.47000000000E+01 0. -1.
          5    1    4    4  502    0 -0.56417143015E+02  0.65496318444E+02 -0.43698366614E+03  0.44547668427E+03  0.47000000000E+01 0.  1.
         -5    1    4    4    0  502 -0.15562278791E+02 -0.54308555588E+02 -0.21312909814E+03  0.22053957968E+03  0.47000000000E+01 0.  1.
<mgrwt>
<rscale>  0 0.30755319E+03</rscale>
<asrwt>0</asrwt>
<pdfrwt beam="1">  1       21 0.37013459E-02 0.30755319E+03</pdfrwt>
<pdfrwt beam="2">  1       21 0.15121473E+00 0.30755319E+03</pdfrwt>
<totfact> 0.12490335E+05</totfact>
</mgrwt>
</event>
<event>
 8    1  0.9373234E-006  0.3595717E+03  0.7546771E-02  0.1058754E+00
         21   -1    0    0  504  503  0.00000000000E+00  0.00000000000E+00  0.19822434955E+03  0.19822434955E+03  0.00000000000E+00 0. -1.
         21   -1    0    0  503  504 -0.00000000000E+00 -0.00000000000E+00 -0.16306248586E+03  0.16306248586E+03  0.00000000000E+00 0. -1.
         25    2    1    2    0    0  0.80039429120E+02 -0.11532338982E+02  0.11887194982E+03  0.19051339006E+03  0.12500202511E+03 0.  0.
         25    2    1    2    0    0 -0.80039429120E+02  0.11532338982E+02 -0.83710086134E+02  0.17077344535E+03  0.12496754002E+03 0.  0.
          5    1    3    3  501    0 -0.81590788202E+01 -0.36869266811E+02  0.84028082113E+02  0.92242734055E+02  0.47000000000E+01 0.  1.
         -5    1    3    3    0  501  0.88198507941E+02  0.25336927830E+02  0.34843867706E+02  0.98270656004E+02  0.47000000000E+01 0.  1.
          5    1    4    4  502    0 -0.51648867750E+02 -0.17217912531E+02 -0.10966130955E+03  0.12252246677E+03  0.47000000000E+01 0.  1.
         -5    1    4    4    0  502 -0.28390561370E+02  0.28750251512E+02  0.25951223415E+02  0.48250978577E+02  0.47000000000E+01 0.  1.
<mgrwt>
<rscale>  0 0.35957172E+03</rscale>
<asrwt>0</asrwt>
<pdfrwt beam="1">  1       21 0.30496054E-01 0.35957172E+03</pdfrwt>
<pdfrwt beam="2">  1       21 0.25086536E-01 0.35957172E+03</pdfrwt>
<totfact> 0.14845929E+05</totfact>
</mgrwt>
</event>
<event>
 8    1  0.9373234E-006  0.2656063E+03  0.7546771E-02  0.1103821E+00
         21   -1    0    0  504  503  0.00000000000E+00  0.00000000000E+00  0.30635666191E+03  0.30635666191E+03  0.00000000000E+00 0. -1.
         21   -1    0    0  503  504 -0.00000000000E+00 -0.00000000000E+00 -0.57569090367E+02  0.57569090367E+02  0.00000000000E+00 0. -1.
         25    2    1    2    0    0 -0.13431341846E+02 -0.42715490459E+02  0.12097148642E+03  0.17962346125E+03  0.12500189293E+03 0.  0.
         25    2    1    2    0    0  0.13431341846E+02  0.42715490459E+02  0.12781608512E+03  0.18430229103E+03  0.12500147516E+03 0.  0.
          5    1    3    3  501    0 -0.11501449748E+02 -0.30233154614E+02  0.14685120935E+03  0.15044498886E+03  0.47000000000E+01 0. -1.
         -5    1    3    3    0  501 -0.19298920978E+01 -0.12482335845E+02 -0.25879722938E+02  0.29178472389E+02  0.47000000000E+01 0. -1.
          5    1    4    4  502    0 -0.51774907190E+02  0.42394490298E+02  0.58323554473E+02  0.88891286573E+02  0.47000000000E+01 0.  1.
         -5    1    4    4    0  502  0.65206249036E+02  0.32100016149E+00  0.69492530651E+02  0.95411004453E+02  0.47000000000E+01 0.  1.
<mgrwt>
<rscale>  0 0.26560628E+03</rscale>
<asrwt>0</asrwt>
<pdfrwt beam="1">  1       21 0.47131793E-01 0.26560628E+03</pdfrwt>
<pdfrwt beam="2">  1       21 0.88567833E-02 0.26560628E+03</pdfrwt>
<totfact> 0.42608996E+05</totfact>
</mgrwt>
</event>
<event>
 8    1  0.9373234E-006  0.2679387E+03  0.7546771E-02  0.1102465E+00
         21   -1    0    0  504  503  0.00000000000E+00  0.00000000000E+00  0.16385897532E+02  0.16385897532E+02  0.00000000000E+00 0. -1.
         21   -1    0    0  503  504 -0.00000000000E+00 -0.00000000000E+00 -0.10953193320E+04  0.10953193320E+04  0.00000000000E+00 0. -1.
         25    2    1    2    0    0  0.22287881841E+02 -0.32116573573E+02 -0.42253058033E+03  0.44236336683E+03  0.12500013210E+03 0.  0.
         25    2    1    2    0    0 -0.22287881841E+02  0.32116573573E+02 -0.65640285418E+03  0.66934186275E+03  0.12500239305E+03 0.  0.
          5    1    3    3  501    0  0.24753924032E+02 -0.70210375309E+02 -0.36890322368E+03  0.37636940896E+03  0.47000000000E+01 0. -1.
         -5    1    3    3    0  501 -0.24660421917E+01  0.38093801735E+02 -0.53627356641E+02  0.65993957868E+02  0.47000000000E+01 0. -1.
          5    1    4    4  502    0 -0.31643006964E+02  0.61566362059E+02 -0.19670085035E+03  0.20857854961E+03  0.47000000000E+01 0.  1.
         -5    1    4    4    0  502  0.93551251239E+01 -0.29449788486E+02 -0.45970200383E+03  0.46076331314E+03  0.47000000000E+01 0.  1.
<mgrwt>
<rscale>  0 0.26793873E+03</rscale>
<asrwt>0</asrwt>
<pdfrwt beam="1">  1       21 0.25209062E-02 0.26793873E+03</pdfrwt>
<pdfrwt beam="2">  1       21 0.16851074E+00 0.26793873E+03</pdfrwt>
<totfact> 0.17872581E+05</totfact>
</mgrwt>
</event>
<event>
 8    1  0.9373234E-006  0.3635112E+03  0.7546771E-02  0.1057202E+00
         21   -1    0    0  504  503  0.00000000000E+00  0.00000000000E+00  0.12589908212E+02  0.12589908212E+02  0.00000000000E+00 0. -1.
         21   -1    0    0  503  504 -0.00000000000E+00 -0.00000000000E+00 -0.26239346222E+04  0.26239346222E+04  0.00000000000E+00 0. -1.
         25    2    1    2    0    0  0.83137507939E+01 -0.13111810253E+03 -0.13941534318E+04  0.14058982215E+04  0.12499976976E+03 0.  0.
         25    2    1    2    0    0 -0.83137507939E+01  0.13111810253E+03 -0.12171912822E+04  0.12306263090E+04  0.12500167835E+03 0.  0.
          5    1    3    3  501    0 -0.28424284364E+02  0.91985436201E+01 -0.13152973160E+03  0.13496189626E+03  0.47000000000E+01 0.  1.
         -5    1    3    3    0  501  0.36738035158E+02 -0.14031664615E+03 -0.12626237002E+04  0.12709363252E+04  0.47000000000E+01 0.  1.
          5    1    4    4  502    0 -0.44685763334E+02  0.12113789182E+01 -0.37534812597E+03  0.37802988050E+03  0.47000000000E+01 0. -1.
         -5    1    4    4    0  502  0.36372012540E+02  0.12990672361E+03 -0.84184315625E+03  0.85259642848E+03  0.47000000000E+01 0. -1.
<mgrwt>
<rscale>  0 0.36351119E+03</rscale>
<asrwt>0</asrwt>
<pdfrwt beam="1">  1       21 0.19369071E-02 0.36351119E+03</pdfrwt>
<pdfrwt beam="2">  1       21 0.40368263E+00 0.36351119E+03</pdfrwt>
<totfact> 0.91758666E+03</totfact>
</mgrwt>
</event>
<event>
 8    1  0.9373234E-006  0.3139543E+03  0.7546771E-02  0.1078466E+00
         21   -1    0    0  504  503  0.00000000000E+00  0.00000000000E+00  0.80768844026E+02  0.80768844026E+02  0.00000000000E+00 0.  1.
         21   -1    0    0  503  504 -0.00000000000E+00 -0.00000000000E+00 -0.30509080413E+03  0.30509080413E+03  0.00000000000E+00 0.  1.
         25    2    1    2    0    0  0.22266089095E+02 -0.91544634637E+02 -0.12666604304E+03  0.20136547653E+03  0.12501027888E+03 0.  0.
         25    2    1    2    0    0 -0.22266089095E+02  0.91544634637E+02 -0.97655917063E+02  0.18449417162E+03  0.12500088948E+03 0.  0.
          5    1    3    3  501    0  0.71295562389E+02 -0.76388473001E+02 -0.91574455092E+02  0.13901880034E+03  0.47000000000E+01 0.  1.
         -5    1    3    3    0  501 -0.49029473293E+02 -0.15156161636E+02 -0.35091587952E+02  0.62346676190E+02  0.47000000000E+01 0.  1.
          5    1    4    4  502    0 -0.10256783249E+02  0.71941112886E+02  0.10721608853E+02  0.73605490436E+02  0.47000000000E+01 0. -1.
         -5    1    4    4    0  502 -0.12009305846E+02  0.19603521751E+02 -0.10837752592E+03  0.11088868119E+03  0.47000000000E+01 0. -1.
<mgrwt>
<rscale>  0 0.31395434E+03</rscale>
<asrwt>0</asrwt>
<pdfrwt beam="1">  1       21 0.12425976E-01 0.31395434E+03</pdfrwt>
<pdfrwt beam="2">  1       21 0.46937047E-01 0.31395434E+03</pdfrwt>
<totfact> 0.23229462E+05</totfact>
</mgrwt>
</event>
<event>
 8    1  0.9373234E-006  0.2950851E+03  0.7546771E-02  0.1087724E+00
         21   -1    0    0  504  503  0.00000000000E+00  0.00000000000E+00  0.75966847643E+02  0.75966847643E+02  0.00000000000E+00 0. -1.
         21   -1    0    0  503  504 -0.00000000000E+00 -0.00000000000E+00 -0.28655661093E+03  0.28655661093E+03  0.00000000000E+00 0. -1.
         25    2    1    2    0    0 -0.13582901152E+02  0.76878766755E+02 -0.11419640993E+03  0.18643963068E+03  0.12499630341E+03 0.  0.
         25    2    1    2    0    0  0.13582901152E+02 -0.76878766755E+02 -0.96393353365E+02  0.17608382790E+03  0.12497598126E+03 0.  0.
          5    1    3    3  501    0 -0.40804959598E+02  0.90436796273E+02 -0.41781090492E+02  0.10775717317E+03  0.47000000000E+01 0. -1.
         -5    1    3    3    0  501  0.27222058446E+02 -0.13558029518E+02 -0.72415319433E+02  0.78682457505E+02  0.47000000000E+01 0. -1.
          5    1    4    4  502    0  0.13021955408E+02 -0.40127198111E+02  0.24930161065E+02  0.49227698317E+02  0.47000000000E+01 0.  1.
         -5    1    4    4    0  502  0.56094574348E+00 -0.36751568644E+02 -0.12132351443E+03  0.12685612958E+03  0.47000000000E+01 0.  1.
<mgrwt>
<rscale>  0 0.29508509E+03</rscale>
<asrwt>0</asrwt>
<pdfrwt beam="1">  1       21 0.11687207E-01 0.29508509E+03</pdfrwt>
<pdfrwt beam="2">  1       21 0.44085633E-01 0.29508509E+03</pdfrwt>
<totfact> 0.29678058E+05</totfact>
</mgrwt>
</event>
<event>
 8    1  0.9373234E-006  0.2982957E+03  0.7546771E-02  0.1086096E+00
         21   -1    0    0  504  503  0.00000000000E+00  0.00000000000E+00  0.10605438574E+02  0.10605438574E+02  0.00000000000E+00 0.  1.
         21   -1    0    0  503  504 -0.00000000000E+00 -0.00000000000E+00 -0.20975159466E+04  0.20975159466E+04  0.00000000000E+00 0.  1.
         25    2    1    2    0    0 -0.44536713220E+02 -0.49180258868E+02 -0.71033708593E+03  0.72429256134E+03  0.12497488582E+03 0.  0.
         25    2    1    2    0    0  0.44536713220E+02  0.49180258868E+02 -0.13765734221E+04  0.13838288238E+04  0.12500244217E+03 0.  0.
          5    1    3    3  501    0  0.26220558477E+01 -0.69243273039E+02 -0.20719781153E+03  0.21852809691E+03  0.47000000000E+01 0.  1.
         -5    1    3    3    0  501 -0.47158769068E+02  0.20063014171E+02 -0.50313927440E+03  0.50576446443E+03  0.47000000000E+01 0.  1.
          5    1    4    4  502    0  0.22779992625E+02 -0.41681772372E+02 -0.42783701112E+03  0.43049145902E+03  0.47000000000E+01 0.  1.
         -5    1    4    4    0  502  0.21756720595E+02  0.90862031240E+02 -0.94873641095E+03  0.95333736477E+03  0.47000000000E+01 0.  1.
<mgrwt>
<rscale>  0 0.29829567E+03</rscale>
<asrwt>0</asrwt>
<pdfrwt beam="1">  1       21 0.16316067E-02 0.29829567E+03</pdfrwt>
<pdfrwt beam="2">  1       21 0.32269461E+00 0.29829567E+03</pdfrwt>
<totfact> 0.39796287E+04</totfact>
</mgrwt>
</event>
<event>
 8    1  0.9373234E-006  0.2593455E+03  0.7546771E-02  0.1107537E+00
         21   -1    0    0  504  503  0.00000000000E+00  0.00000000000E+00  0.91078052064E+03  0.91078052064E+03  0.00000000000E+00 0. -1.
         21   -1    0    0  503  504 -0.00000000000E+00 -0.00000000000E+00 -0.18462205507E+02  0.18462205507E+02  0.00000000000E+00 0. -1.
         25    2    1    2    0    0 -0.14669782160E+02  0.22870865189E+00  0.33418801576E+03  0.35709816865E+03  0.12498886892E+03 0.  0.
         25    2    1    2    0    0  0.14669782160E+02 -0.22870865189E+00  0.55813029937E+03  0.57214455751E+03  0.12499883515E+03 0.  0.
          5    1    3    3  501    0  0.13607753355E+02 -0.23098577870E+01  0.32714688106E+03  0.32747164485E+03  0.47000000000E+01 0. -1.
         -5    1    3    3    0  501 -0.28277535515E+02  0.25385664389E+01  0.70411347059E+01  0.29626523798E+02  0.47000000000E+01 0. -1.
          5    1    4    4  502    0 -0.46050655718E+02 -0.27184881040E+02  0.33543439617E+03  0.33970281833E+03  0.47000000000E+01 0. -1.
         -5    1    4    4    0  502  0.60720437878E+02  0.26956172388E+02  0.22269590321E+03  0.23244173918E+03  0.47000000000E+01 0. -1.
<mgrwt>
<rscale>  0 0.25934546E+03</rscale>
<asrwt>0</asrwt>
<pdfrwt beam="1">  1       21 0.14012005E+00 0.25934546E+03</pdfrwt>
<pdfrwt beam="2">  1       21 0.28403400E-02 0.25934546E+03</pdfrwt>
<totfact> 0.24166626E+05</totfact>
</mgrwt>
</event>
<event>
 8    1  0.9373234E-006  0.2683686E+03  0.7546771E-02  0.1102217E+00
         21   -1    0    0  504  503  0.00000000000E+00  0.00000000000E+00  0.73608936514E+03  0.73608936514E+03  0.00000000000E+00 0. -1.
         21   -1    0    0  503  504 -0.00000000000E+00 -0.00000000000E+00 -0.24460923533E+02  0.24460923533E+02  0.00000000000E+00 0. -1.
         25    2    1    2    0    0  0.41130369767E+02  0.25839233145E+02  0.34463368836E+03  0.36980830744E+03  0.12500572713E+03 0.  0.
         25    2    1    2    0    0 -0.41130369767E+02 -0.25839233145E+02  0.36699475325E+03  0.39074198123E+03  0.12503908868E+03 0.  0.
          5    1    3    3  501    0 -0.14413440731E+02  0.22124611335E+02  0.29142972525E+03  0.29266127256E+03  0.47000000000E+01 0. -1.
         -5    1    3    3    0  501  0.55543810498E+02  0.37146218102E+01  0.53203963110E+02  0.77147034878E+02  0.47000000000E+01 0. -1.
          5    1    4    4  502    0 -0.50461772737E+02  0.41803821212E+02  0.17921993554E+03  0.19088170491E+03  0.47000000000E+01 0. -1.
         -5    1    4    4    0  502  0.93314029700E+01 -0.67643054358E+02  0.18777481771E+03  0.19986027632E+03  0.47000000000E+01 0. -1.
<mgrwt>
<rscale>  0 0.26836859E+03</rscale>
<asrwt>0</asrwt>
<pdfrwt beam="1">  1       21 0.11324450E+00 0.26836859E+03</pdfrwt>
<pdfrwt beam="2">  1       21 0.37632196E-02 0.26836859E+03</pdfrwt>
<totfact> 0.25813228E+05</totfact>
</mgrwt>
</event>
<event>
 8    1  0.9373234E-006  0.3166409E+03  0.7546771E-02  0.1077206E+00
         21   -1    0    0  504  503  0.00000000000E+00  0.00000000000E+00  0.56794584438E+02  0.56794584438E+02  0.00000000000E+00 0. -1.
         21   -1    0    0  503  504 -0.00000000000E+00 -0.00000000000E+00 -0.44133385025E+03  0.44133385025E+03  0.00000000000E+00 0. -1.
         25    2    1    2    0    0 -0.67312143668E+02 -0.65547777972E+02 -0.23138447143E+03  0.27926818640E+03  0.12499804173E+03 0.  0.
         25    2    1    2    0    0  0.67312143668E+02  0.65547777972E+02 -0.15315479438E+03  0.21886024829E+03  0.12496392021E+03 0.  0.
          5    1    3    3  501    0  0.17905580874E+02 -0.66122248538E+02 -0.12755024967E+03  0.14485826787E+03  0.47000000000E+01 0. -1.
         -5    1    3    3    0  501 -0.85217724542E+02  0.57447056566E+00 -0.10383422175E+03  0.13440991853E+03  0.47000000000E+01 0. -1.
          5    1    4    4  502    0  0.56731284338E+02 -0.27049645319E+02 -0.61726413386E+02  0.88217696886E+02  0.47000000000E+01 0.  1.
         -5    1    4    4    0  502  0.10580859331E+02  0.92597423291E+02 -0.91428380999E+02  0.13064255140E+03  0.47000000000E+01 0.  1.
<mgrwt>
<rscale>  0 0.31664095E+03</rscale>
<asrwt>0</asrwt>
<pdfrwt beam="1">  1       21 0.87376282E-02 0.31664095E+03</pdfrwt>
<pdfrwt beam="2">  1       21 0.67897517E-01 0.31664095E+03</pdfrwt>
<totfact> 0.19705369E+05</totfact>
</mgrwt>
</event>
<event>
 8    1  0.9373234E-006  0.2664020E+03  0.7546771E-02  0.1103357E+00
         21   -1    0    0  504  503  0.00000000000E+00  0.00000000000E+00  0.98732084872E+02  0.98732084872E+02  0.00000000000E+00 0. -1.
         21   -1    0    0  503  504 -0.00000000000E+00 -0.00000000000E+00 -0.17970352213E+03  0.17970352213E+03  0.00000000000E+00 0. -1.
         25    2    1    2    0    0 -0.41922383032E+02 -0.96217505767E+01 -0.23253024046E+02  0.13422090468E+03  0.12499793535E+03 0.  0.
         25    2    1    2    0    0  0.41922383032E+02  0.96217505767E+01 -0.57718413211E+02  0.14421470233E+03  0.12496559871E+03 0.  0.
          5    1    3    3  501    0  0.20416460910E+02  0.10025060764E+02 -0.56246775011E+02  0.60853294229E+02  0.47000000000E+01 0.  1.
         -5    1    3    3    0  501 -0.62338843943E+02 -0.19646811341E+02  0.32993750964E+02  0.73367610447E+02  0.47000000000E+01 0.  1.
          5    1    4    4  502    0 -0.31244183527E+02  0.20364435831E+02  0.14926598157E+02  0.40445056355E+02  0.47000000000E+01 0.  1.
         -5    1    4    4    0  502  0.73166566559E+02 -0.10742685255E+02 -0.72645011369E+02  0.10376964597E+03  0.47000000000E+01 0.  1.
<mgrwt>
<rscale>  0 0.26640198E+03</rscale>
<asrwt>0</asrwt>
<pdfrwt beam="1">  1       21 0.15189552E-01 0.26640198E+03</pdfrwt>
<pdfrwt beam="2">  1       21 0.27646696E-01 0.26640198E+03</pdfrwt>
<totfact> 0.47183406E+05</totfact>
</mgrwt>
</event>
<event>
 8    1  0.9373234E-006  0.2742045E+03  0.7546771E-02  0.1098897E+00
         21   -1    0    0  504  503  0.00000000000E+00  0.00000000000E+00  0.90649506870E+02  0.90649506870E+02  0.00000000000E+00 0. -1.
         21   -1    0    0  503  504 -0.00000000000E+00 -0.00000000000E+00 -0.20735940646E+03  0.20735940646E+03  0.00000000000E+00 0. -1.
         25    2    1    2    0    0  0.40115055586E+02  0.38168087135E+02 -0.47204917738E+02  0.14463740250E+03  0.12500261351E+03 0.  0.
         25    2    1    2    0    0 -0.40115055586E+02 -0.38168087135E+02 -0.69504981847E+02  0.15337151083E+03  0.12500342904E+03 0.  0.
          5    1    3    3  501    0 -0.21927692925E+01  0.18623739860E+02  0.40685213153E+02  0.45044738792E+02  0.47000000000E+01 0.  1.
         -5    1    3    3    0  501  0.42307824878E+02  0.19544347274E+02 -0.87890130891E+02  0.99592663708E+02  0.47000000000E+01 0.  1.
          5    1    4    4  502    0  0.15615338677E+02  0.35466083681E+02 -0.41001944009E+02  0.56612112717E+02  0.47000000000E+01 0. -1.
         -5    1    4    4    0  502 -0.55730394263E+02 -0.73634170816E+02 -0.28503037838E+02  0.96759398109E+02  0.47000000000E+01 0. -1.
<mgrwt>
<rscale>  0 0.27420451E+03</rscale>
<asrwt>0</asrwt>
<pdfrwt beam="1">  1       21 0.13946078E-01 0.27420451E+03</pdfrwt>
<pdfrwt beam="2">  1       21 0.31901447E-01 0.27420451E+03</pdfrwt>
<totfact> 0.41599423E+05</totfact>
</mgrwt>
</event>
<event>
 8    1  0.9373234E-006  0.4187915E+03  0.7546771E-02  0.1037460E+00
         21   -1    0    0  504  503  0.00000000000E+00  0.00000000000E+00  0.21883847760E+03  0.21883847760E+03  0.00000000000E+00 0. -1.
         21   -1    0    0  503  504 -0.00000000000E+00 -0.00000000000E+00 -0.20036049819E+03  0.20036049819E+03  0.00000000000E+00 0. -1.
         25    2    1    2    0    0 -0.10598613968E+03  0.31001313601E+02 -0.11748589236E+03  0.20401301835E+03  0.12499693397E+03 0.  0.
         25    2    1    2    0    0  0.10598613968E+03 -0.31001313601E+02  0.13596387177E+03  0.21518595744E+03  0.12499871441E+03 0.  0.
          5    1    3    3  501    0 -0.13304697863E+03  0.37289289555E+02 -0.10244874186E+03  0.17207505440E+03  0.47000000000E+01 0.  1.
         -5    1    3    3    0  501  0.27060838946E+02 -0.62879759536E+01 -0.15037150497E+02  0.31937963947E+02  0.47000000000E+01 0.  1.
          5    1    4    4  502    0  0.38534196341E+02  0.47881536009E+02  0.38155387027E+02  0.72494477979E+02  0.47000000000E+01 0. -1.
         -5    1    4    4    0  502  0.67451943342E+02 -0.78882849611E+02  0.97808484743E+02  0.14269147946E+03  0.47000000000E+01 0. -1.
<mgrwt>
<rscale>  0 0.41879153E+03</rscale>
<asrwt>0</asrwt>
<pdfrwt beam="1">  1       21 0.33667458E-01 0.41879153E+03</pdfrwt>
<pdfrwt beam="2">  1       21 0.30824692E-01 0.41879153E+03</pdfrwt>
<totfact> 0.80328877E+04</totfact>
</mgrwt>
</event>
<event>
 8    1  0.9373234E-006  0.2702793E+03  0.7546771E-02  0.1101120E+00
         21   -1    0    0  504  503  0.00000000000E+00  0.00000000000E+00  0.68557399438E+03  0.68557399438E+03  0.00000000000E+00 0.  1.
         21   -1    0    0  503  504 -0.00000000000E+00 -0.00000000000E+00 -0.26638586789E+02  0.26638586789E+02  0.00000000000E+00 0.  1.
         25    2    1    2    0    0  0.51087821869E+02  0.45432402403E+01  0.32302999023E+03  0.35014860188E+03  0.12500024894E+03 0.  0.
         25    2    1    2    0    0 -0.51087821869E+02 -0.45432402403E+01  0.33590541737E+03  0.36206397930E+03  0.12500907611E+03 0.  0.
          5    1    3    3  501    0  0.30055937133E+02 -0.29093620121E+02  0.23985902039E+02  0.48448029736E+02  0.47000000000E+01 0. -1.
         -5    1    3    3    0  501  0.21031884736E+02  0.33636860362E+02  0.29904408819E+03  0.30170057214E+03  0.47000000000E+01 0. -1.
          5    1    4    4  502    0  0.27325034653E+00  0.15017416087E+02 -0.51634031240E+01  0.16563459285E+02  0.47000000000E+01 0.  1.
         -5    1    4    4    0  502 -0.51361072216E+02 -0.19560656327E+02  0.34106882049E+03  0.34550052001E+03  0.47000000000E+01 0.  1.
<mgrwt>
<rscale>  0 0.27027928E+03</rscale>
<asrwt>0</asrwt>
<pdfrwt beam="1">  1       21 0.10547291E+00 0.27027928E+03</pdfrwt>
<pdfrwt beam="2">  1       21 0.40982447E-02 0.27027928E+03</pdfrwt>
<totfact> 0.26579886E+05</totfact>
</mgrwt>
</event>
<event>
 8    1  0.9373234E-006  0.3246558E+03  0.7546771E-02  0.1073526E+00
         21   -1    0    0  504  503  0.00000000000E+00  0.00000000000E+00  0.16919174144E+03  0.16919174144E+03  0.00000000000E+00 0.  1.
         21   -1    0    0  503  504 -0.00000000000E+00 -0.00000000000E+00 -0.15574249819E+03  0.15574249819E+03  0.00000000000E+00 0.  1.
         25    2    1    2    0    0  0.58521282732E+02 -0.85355729997E+02  0.10888313971E+02  0.16265451361E+03  0.12501037653E+03 0.  0.
         25    2    1    2    0    0 -0.58521282732E+02  0.85355729997E+02  0.25609292805E+01  0.16227972603E+03  0.12497123647E+03 0.  0.
          5    1    3    3  501    0  0.92283128882E+01 -0.84843803008E+02  0.50468277844E+02  0.99261118954E+02  0.47000000000E+01 0.  1.
         -5    1    3    3    0  501  0.49292969844E+02 -0.51192698962E+00 -0.39579963873E+02  0.63393394652E+02  0.47000000000E+01 0.  1.
          5    1    4    4  502    0 -0.75230983746E+02  0.12274435841E+02 -0.27783910139E+02  0.81267449530E+02  0.47000000000E+01 0. -1.
         -5    1    4    4    0  502  0.16709701014E+02  0.73081294156E+02  0.30344839419E+02  0.81012276495E+02  0.47000000000E+01 0. -1.
<mgrwt>
<rscale>  0 0.32465578E+03</rscale>
<asrwt>0</asrwt>
<pdfrwt beam="1">  1       21 0.26029498E-01 0.32465578E+03</pdfrwt>
<pdfrwt beam="2">  1       21 0.23960385E-01 0.32465578E+03</pdfrwt>
<totfact> 0.22286998E+05</totfact>
</mgrwt>
</event>
<event>
 8    1  0.9373234E-006  0.2954997E+03  0.7546771E-02  0.1087512E+00
         21   -1    0    0  504  503  0.00000000000E+00  0.00000000000E+00  0.18441742022E+03  0.18441742022E+03  0.00000000000E+00 0. -1.
         21   -1    0    0  503  504 -0.00000000000E+00 -0.00000000000E+00 -0.11837284299E+03  0.11837284299E+03  0.00000000000E+00 0. -1.
         25    2    1    2    0    0  0.27186027809E+02  0.71286439853E+02  0.53118669182E+02  0.15578050804E+03  0.12500054822E+03 0.  0.
         25    2    1    2    0    0 -0.27186027809E+02 -0.71286439853E+02  0.12925908056E+02  0.14700975517E+03  0.12499580954E+03 0.  0.
          5    1    3    3  501    0 -0.23774674275E+02  0.30567190444E+02 -0.30576172470E+02  0.49563904118E+02  0.47000000000E+01 0. -1.
         -5    1    3    3    0  501  0.50960702084E+02  0.40719249409E+02  0.83694841651E+02  0.10621660392E+03  0.47000000000E+01 0. -1.
          5    1    4    4  502    0 -0.70738993776E+02 -0.16023887431E+02  0.21927231672E+02  0.75918796734E+02  0.47000000000E+01 0. -1.
         -5    1    4    4    0  502  0.43552965967E+02 -0.55262552422E+02 -0.90013236154E+01  0.71090958437E+02  0.47000000000E+01 0. -1.
<mgrwt>
<rscale>  0 0.29549967E+03</rscale>
<asrwt>0</asrwt>
<pdfrwt beam="1">  1       21 0.28371911E-01 0.29549967E+03</pdfrwt>
<pdfrwt beam="2">  1       21 0.18211207E-01 0.29549967E+03</pdfrwt>
<totfact> 0.31883862E+05</totfact>
</mgrwt>
</event>
<event>
 8    1  0.9373234E-006  0.2918773E+03  0.7546771E-02  0.1089373E+00
         21   -1    0    0  504  503  0.00000000000E+00  0.00000000000E+00  0.60372343374E+02  0.60372343374E+02  0.00000000000E+00 0.  1.
         21   -1    0    0  503  504 -0.00000000000E+00 -0.00000000000E+00 -0.35277884679E+03  0.35277884679E+03  0.00000000000E+00 0.  1.
         25    2    1    2    0    0  0.13749987430E+01  0.28745080250E+01 -0.25262271693E+03  0.28187414655E+03  0.12499857586E+03 0.  0.
         25    2    1    2    0    0 -0.13749987430E+01 -0.28745080250E+01 -0.39783786486E+02  0.13127704362E+03  0.12506302049E+03 0.  0.
          5    1    3    3  501    0 -0.54142785774E+02  0.31049725237E+02 -0.12850795063E+03  0.14294023249E+03  0.47000000000E+01 0. -1.
         -5    1    3    3    0  501  0.55517784517E+02 -0.28175217212E+02 -0.12411476630E+03  0.13893391406E+03  0.47000000000E+01 0. -1.
          5    1    4    4  502    0  0.25715664311E+02  0.51002137984E+02 -0.41510564377E+02  0.70765319365E+02  0.47000000000E+01 0.  1.
         -5    1    4    4    0  502 -0.27090663054E+02 -0.53876646009E+02  0.17267778908E+01  0.60511724251E+02  0.47000000000E+01 0.  1.
<mgrwt>
<rscale>  0 0.29187727E+03</rscale>
<asrwt>0</asrwt>
<pdfrwt beam="1">  1       21 0.92880530E-02 0.29187727E+03</pdfrwt>
<pdfrwt beam="2">  1       21 0.54273668E-01 0.29187727E+03</pdfrwt>
<totfact> 0.28942768E+05</totfact>
</mgrwt>
</event>
<event>
 8    1  0.9373234E-006  0.3641421E+03  0.7546771E-02  0.1056956E+00
         21   -1    0    0  504  503  0.00000000000E+00  0.00000000000E+00  0.76952915628E+02  0.76952915628E+02  0.00000000000E+00 0. -1.
         21   -1    0    0  503  504 -0.00000000000E+00 -0.00000000000E+00 -0.43078114940E+03  0.43078114940E+03  0.00000000000E+00 0. -1.
         25    2    1    2    0    0 -0.19604637994E+02 -0.12933041788E+03 -0.14856042549E+03  0.23410970501E+03  0.12500582042E+03 0.  0.
         25    2    1    2    0    0  0.19604637994E+02  0.12933041788E+03 -0.20526780828E+03  0.27362436002E+03  0.12499887384E+03 0.  0.
          5    1    3    3  501    0 -0.32771448083E+02 -0.14652160991E+03 -0.99229951824E+02  0.18003117319E+03  0.47000000000E+01 0.  1.
         -5    1    3    3    0  501  0.13166810089E+02  0.17191192036E+02 -0.49330473668E+02  0.54078531820E+02  0.47000000000E+01 0.  1.
          5    1    4    4  502    0  0.53761118127E+02  0.12470515449E+03 -0.19439530563E+03  0.23717769336E+03  0.47000000000E+01 0. -1.
         -5    1    4    4    0  502 -0.34156480133E+02  0.46252633922E+01 -0.10872502649E+02  0.36446666656E+02  0.47000000000E+01 0. -1.
<mgrwt>
<rscale>  0 0.36414209E+03</rscale>
<asrwt>0</asrwt>
<pdfrwt beam="1">  1       21 0.11838910E-01 0.36414209E+03</pdfrwt>
<pdfrwt beam="2">  1       21 0.66274022E-01 0.36414209E+03</pdfrwt>
<totfact> 0.11941912E+05</totfact>
</mgrwt>
</event>
<event>
 8    1  0.9373234E-006  0.2900865E+03  0.7546771E-02  0.1090304E+00
         21   -1    0    0  504  503  0.00000000000E+00  0.00000000000E+00  0.39236659925E+03  0.39236659925E+03  0.00000000000E+00 0. -1.
         21   -1    0    0  503  504 -0.00000000000E+00 -0.00000000000E+00 -0.53617072399E+02  0.53617072399E+02  0.00000000000E+00 0. -1.
         25    2    1    2    0    0 -0.31344442434E+02 -0.61216672389E+02  0.12914358689E+03  0.19242957737E+03  0.12498448369E+03 0.  0.
         25    2    1    2    0    0  0.31344442434E+02  0.61216672389E+02  0.20960593996E+03  0.25355409428E+03  0.12500029443E+03 0.  0.
          5    1    3    3  501    0 -0.78298235245E+02 -0.30616673077E+02  0.60477509516E+02  0.10367069726E+03  0.47000000000E+01 0.  1.
         -5    1    3    3    0  501  0.46953792811E+02 -0.30599999311E+02  0.68666077373E+02  0.88758880113E+02  0.47000000000E+01 0.  1.
          5    1    4    4  502    0  0.52022901634E+02  0.44243519878E+01  0.22813880901E+02  0.57170974687E+02  0.47000000000E+01 0. -1.
         -5    1    4    4    0  502 -0.20678459200E+02  0.56792320401E+02  0.18679205906E+03  0.19638311959E+03  0.47000000000E+01 0. -1.
<mgrwt>
<rscale>  0 0.29008653E+03</rscale>
<asrwt>0</asrwt>
<pdfrwt beam="1">  1       21 0.60364090E-01 0.29008653E+03</pdfrwt>
<pdfrwt beam="2">  1       21 0.82487806E-02 0.29008653E+03</pdfrwt>
<totfact> 0.28402616E+05</totfact>
</mgrwt>
</event>
<event>
 8    1  0.9373234E-006  0.3517138E+03  0.7546771E-02  0.1061914E+00
         21   -1    0    0  504  503  0.00000000000E+00  0.00000000000E+00  0.17279689252E+04  0.17279689252E+04  0.00000000000E+00 0.  1.
         21   -1    0    0  503  504 -0.00000000000E+00 -0.00000000000E+00 -0.17897107951E+02  0.17897107951E+02  0.00000000000E+00 0.  1.
         25    2    1    2    0    0 -0.12067559888E+03  0.49183298196E+01  0.72250026440E+03  0.74311376755E+03  0.12499859733E+03 0.  0.
         25    2    1    2    0    0  0.12067559888E+03 -0.49183298196E+01  0.98757155288E+03  0.10027522656E+04  0.12501097567E+03 0.  0.
          5    1    3    3  501    0 -0.68695778486E+02  0.43841528513E+02  0.19198312629E+03  0.20861639529E+03  0.47000000000E+01 0.  1.
         -5    1    3    3    0  501 -0.51979820392E+02 -0.38923198694E+02  0.53051713812E+03  0.53449737227E+03  0.47000000000E+01 0.  1.
          5    1    4    4  502    0  0.33165304141E+02 -0.47069064896E+02  0.61468019341E+03  0.61738907055E+03  0.47000000000E+01 0. -1.
         -5    1    4    4    0  502  0.87510294737E+02  0.42150735077E+02  0.37289135947E+03  0.38536319508E+03  0.47000000000E+01 0. -1.
<mgrwt>
<rscale>  0 0.35171378E+03</rscale>
<asrwt>0</asrwt>
<pdfrwt beam="1">  1       21 0.26584124E+00 0.35171378E+03</pdfrwt>
<pdfrwt beam="2">  1       21 0.27534026E-02 0.35171378E+03</pdfrwt>
<totfact> 0.35466216E+04</totfact>
</mgrwt>
</event>
<event>
 8    1  0.9373234E-006  0.2621664E+03  0.7546771E-02  0.1105849E+00
         21   -1    0    0  504  503  0.00000000000E+00  0.00000000000E+00  0.51056157838E+02  0.51056157838E+02  0.00000000000E+00 0. -1.
         21   -1    0    0  503  504 -0.00000000000E+00 -0.00000000000E+00 -0.33654728472E+03  0.33654728472E+03  0.00000000000E+00 0. -1.
         25    2    1    2    0    0  0.70035002061E+01  0.16336506594E+02 -0.19485871503E+03  0.23218664369E+03  0.12499915289E+03 0.  0.
         25    2    1    2    0    0 -0.70035002061E+01 -0.16336506594E+02 -0.90632411846E+02  0.15541679886E+03  0.12499686728E+03 0.  0.
          5    1    3    3  501    0  0.49946047224E+02  0.36401975158E+02 -0.49806587653E+02  0.79514134607E+02  0.47000000000E+01 0. -1.
         -5    1    3    3    0  501 -0.42942547018E+02 -0.20065468564E+02 -0.14505212738E+03  0.15267250908E+03  0.47000000000E+01 0. -1.
          5    1    4    4  502    0 -0.46425176071E+02  0.76770494404E+00 -0.10073768348E+03  0.11102277792E+03  0.47000000000E+01 0. -1.
         -5    1    4    4    0  502  0.39421675865E+02 -0.17104211538E+02  0.10105271637E+02  0.44394020940E+02  0.47000000000E+01 0. -1.
<mgrwt>
<rscale>  0 0.26216645E+03</rscale>
<asrwt>0</asrwt>
<pdfrwt beam="1">  1       21 0.78547934E-02 0.26216645E+03</pdfrwt>
<pdfrwt beam="2">  1       21 0.51776506E-01 0.26216645E+03</pdfrwt>
<totfact> 0.43231455E+05</totfact>
</mgrwt>
</event>
<event>
 8    1  0.9373234E-006  0.3108284E+03  0.7546771E-02  0.1079950E+00
         21   -1    0    0  504  503  0.00000000000E+00  0.00000000000E+00  0.81391748676E+02  0.81391748676E+02  0.00000000000E+00 0. -1.
         21   -1    0    0  503  504 -0.00000000000E+00 -0.00000000000E+00 -0.29675695490E+03  0.29675695490E+03  0.00000000000E+00 0. -1.
         25    2    1    2    0    0  0.50517956595E+02 -0.32608518857E+02 -0.22371472424E+02  0.14048064715E+03  0.12497579768E+03 0.  0.
         25    2    1    2    0    0 -0.50517956595E+02  0.32608518857E+02 -0.19299373380E+03  0.23766805642E+03  0.12499657722E+03 0.  0.
          5    1    3    3  501    0  0.84211444149E+02 -0.44254254928E+02 -0.36284826872E+02  0.10192489915E+03  0.47000000000E+01 0.  1.
         -5    1    3    3    0  501 -0.33693487554E+02  0.11645736071E+02  0.13913354448E+02  0.38555748005E+02  0.47000000000E+01 0.  1.
          5    1    4    4  502    0 -0.61917830397E+02 -0.10159215528E+02 -0.31914678481E+02  0.70552562560E+02  0.47000000000E+01 0. -1.
         -5    1    4    4    0  502  0.11399873802E+02  0.42767734385E+02 -0.16107905531E+03  0.16711549386E+03  0.47000000000E+01 0. -1.
<mgrwt>
<rscale>  0 0.31082836E+03</rscale>
<asrwt>0</asrwt>
<pdfrwt beam="1">  1       21 0.12521808E-01 0.31082836E+03</pdfrwt>
<pdfrwt beam="2">  1       21 0.45654916E-01 0.31082836E+03</pdfrwt>
<totfact> 0.24286119E+05</totfact>
</mgrwt>
</event>
<event>
 8    1  0.9373234E-006  0.5059441E+03  0.7546771E-02  0.1012239E+00
         21   -1    0    0  504  503  0.00000000000E+00  0.00000000000E+00  0.35995860726E+03  0.35995860726E+03  0.00000000000E+00 0. -1.
         21   -1    0    0  503  504 -0.00000000000E+00 -0.00000000000E+00 -0.17778391649E+03  0.17778391649E+03  0.00000000000E+00 0. -1.
         25    2    1    2    0    0 -0.65354766035E+02 -0.54922836767E+02 -0.12433862354E+03  0.19589039436E+03  0.12500075942E+03 0.  0.
         25    2    1    2    0    0  0.65354766035E+02  0.54922836767E+02  0.30651331431E+03  0.34185212939E+03  0.12499881229E+03 0.  0.
          5    1    3    3  501    0 -0.94092238200E+02 -0.17899111096E+02 -0.11150859807E+03  0.14707135993E+03  0.47000000000E+01 0. -1.
         -5    1    3    3    0  501  0.28737472166E+02 -0.37023725671E+02 -0.12830025475E+02  0.48819034430E+02  0.47000000000E+01 0. -1.
          5    1    4    4  502    0  0.84189757731E+02  0.81500249841E+02  0.25573136331E+03  0.28133756630E+03  0.47000000000E+01 0. -1.
         -5    1    4    4    0  502 -0.18834991697E+02 -0.26577413075E+02  0.50781951005E+02  0.60514563089E+02  0.47000000000E+01 0. -1.
<mgrwt>
<rscale>  0 0.50594407E+03</rscale>
<asrwt>0</asrwt>
<pdfrwt beam="1">  1       21 0.55378247E-01 0.50594407E+03</pdfrwt>
<pdfrwt beam="2">  1       21 0.27351372E-01 0.50594407E+03</pdfrwt>
<totfact> 0.35416752E+04</totfact>
</mgrwt>
</event>
<event>
 8    1  0.9373234E-006  0.4557085E+03  0.7546771E-02  0.1026033E+00
         21   -1    0    0  504  503  0.00000000000E+00  0.00000000000E+00  0.26614153790E+02  0.26614153790E+02  0.00000000000E+00 0. -1.
         21   -1    0    0  503  504 -0.00000000000E+00 -0.00000000000E+00 -0.19507496398E+04  0.19507496398E+04  0.00000000000E+00 0. -1.
         25    2    1    2    0    0 -0.13488040218E+03 -0.25908833454E+02 -0.38922385196E+03  0.43125767452E+03  0.12499593734E+03 0.  0.
         25    2    1    2    0    0  0.13488040218E+03  0.25908833454E+02 -0.15349116341E+04  0.15461061191E+04  0.12500566610E+03 0.  0.
          5    1    3    3  501    0 -0.14996952120E+03  0.11526255863E+01 -0.28054306882E+03  0.31814884770E+03  0.47000000000E+01 0.  1.
         -5    1    3    3    0  501  0.15089119018E+02 -0.27061459041E+02 -0.10868078315E+03  0.11310882681E+03  0.47000000000E+01 0.  1.
          5    1    4    4  502    0  0.51174778880E+02  0.73199013809E+02 -0.72705846848E+03  0.73253877727E+03  0.47000000000E+01 0.  1.
         -5    1    4    4    0  502  0.83705623299E+02 -0.47290180354E+02 -0.80785316559E+03  0.81356734182E+03  0.47000000000E+01 0.  1.
<mgrwt>
<rscale>  0 0.45570846E+03</rscale>
<asrwt>0</asrwt>
<pdfrwt beam="1">  1       21 0.40944833E-02 0.45570846E+03</pdfrwt>
<pdfrwt beam="2">  1       21 0.30011547E+00 0.45570846E+03</pdfrwt>
<totfact> 0.10794527E+04</totfact>
</mgrwt>
</event>
<event>
 8    1  0.9373234E-006  0.3599889E+03  0.7546771E-02  0.1058588E+00
         21   -1    0    0  504  503  0.00000000000E+00  0.00000000000E+00  0.79719485713E+02  0.79719485713E+02  0.00000000000E+00 0.  1.
         21   -1    0    0  503  504 -0.00000000000E+00 -0.00000000000E+00 -0.40640012445E+03  0.40640012445E+03  0.00000000000E+00 0.  1.
         25    2    1    2    0    0  0.43801919317E+02  0.12186323801E+03 -0.16124920931E+03  0.24165169064E+03  0.12499990068E+03 0.  0.
         25    2    1    2    0    0 -0.43801919317E+02 -0.12186323801E+03 -0.16543142942E+03  0.24446791952E+03  0.12501099520E+03 0.  0.
          5    1    3    3  501    0 -0.53578416431E+01  0.36065534360E+02  0.14838370142E+02  0.39644627180E+02  0.47000000000E+01 0. -1.
         -5    1    3    3    0  501  0.49159760960E+02  0.85797703650E+02 -0.17608757946E+03  0.20200706346E+03  0.47000000000E+01 0. -1.
          5    1    4    4  502    0 -0.90077499457E+01 -0.11997939026E+03 -0.17072126860E+03  0.20891154874E+03  0.47000000000E+01 0.  1.
         -5    1    4    4    0  502 -0.34794169371E+02 -0.18838477542E+01  0.52898391765E+01  0.35556370781E+02  0.47000000000E+01 0.  1.
<mgrwt>
<rscale>  0 0.35998894E+03</rscale>
<asrwt>0</asrwt>
<pdfrwt beam="1">  1       21 0.12264536E-01 0.35998894E+03</pdfrwt>
<pdfrwt beam="2">  1       21 0.62523096E-01 0.35998894E+03</pdfrwt>
<totfact> 0.12749293E+05</totfact>
</mgrwt>
</event>
<event>
 8    1  0.9373234E-006  0.2986499E+03  0.7546771E-02  0.1085917E+00
         21   -1    0    0  504  503  0.00000000000E+00  0.00000000000E+00  0.43808714467E+03  0.43808714467E+03  0.00000000000E+00 0.  1.
         21   -1    0    0  503  504 -0.00000000000E+00 -0.00000000000E+00 -0.50898400971E+02  0.50898400971E+02  0.00000000000E+00 0.  1.
         25    2    1    2    0    0  0.32277343294E+02  0.77739829431E+01  0.71396255984E+02  0.14773314624E+03  0.12500158171E+03 0.  0.
         25    2    1    2    0    0 -0.32277343294E+02 -0.77739829431E+01  0.31579248771E+03  0.34125239940E+03  0.12500417232E+03 0.  0.
          5    1    3    3  501    0  0.27646931861E+02 -0.25874020997E+02 -0.24867803626E+02  0.45544653485E+02  0.47000000000E+01 0.  1.
         -5    1    3    3    0  501  0.46304114328E+01  0.33648003940E+02  0.96264059611E+02  0.10218849276E+03  0.47000000000E+01 0.  1.
          5    1    4    4  502    0 -0.80500661038E+02 -0.54191386202E+01  0.19535640934E+03  0.21141414371E+03  0.47000000000E+01 0.  1.
         -5    1    4    4    0  502  0.48223317744E+02 -0.23548443229E+01  0.12043607837E+03  0.12983825569E+03  0.47000000000E+01 0.  1.
<mgrwt>
<rscale>  0 0.29864986E+03</rscale>
<asrwt>0</asrwt>
<pdfrwt beam="1">  1       21 0.67398020E-01 0.29864986E+03</pdfrwt>
<pdfrwt beam="2">  1       21 0.78305235E-02 0.29864986E+03</pdfrwt>
<totfact> 0.24395323E+05</totfact>
</mgrwt>
</event>
<event>
 8    1  0.9373234E-006  0.2696091E+03  0.7546771E-02  0.1101504E+00
         21   -1    0    0  504  503  0.00000000000E+00  0.00000000000E+00  0.25451566295E+03  0.25451566295E+03  0.00000000000E+00 0. -1.
         21   -1    0    0  503  504 -0.00000000000E+00 -0.00000000000E+00 -0.71399395481E+02  0.71399395481E+02  0.00000000000E+00 0. -1.
         25    2    1    2    0    0  0.20632561194E+01 -0.77532680531E+01  0.31322745923E+02  0.12911537451E+03  0.12500118132E+03 0.  0.
         25    2    1    2    0    0 -0.20632561194E+01  0.77532680531E+01  0.15179352155E+03  0.19679968392E+03  0.12499788885E+03 0.  0.
          5    1    3    3  501    0  0.62291424470E+02 -0.15468514159E+02  0.16385769284E+02  0.66408432656E+02  0.47000000000E+01 0.  1.
         -5    1    3    3    0  501 -0.60228168350E+02  0.77152461058E+01  0.14936976639E+02  0.62706941852E+02  0.47000000000E+01 0.  1.
          5    1    4    4  502    0  0.44521868896E+02  0.32176742061E+02  0.12701916463E+03  0.13846839973E+03  0.47000000000E+01 0.  1.
         -5    1    4    4    0  502 -0.46585125015E+02 -0.24423474008E+02  0.24774356917E+02  0.58331284196E+02  0.47000000000E+01 0.  1.
<mgrwt>
<rscale>  0 0.26960908E+03</rscale>
<asrwt>0</asrwt>
<pdfrwt beam="1">  1       21 0.39156255E-01 0.26960908E+03</pdfrwt>
<pdfrwt beam="2">  1       21 0.10984523E-01 0.26960908E+03</pdfrwt>
<totfact> 0.42512875E+05</totfact>
</mgrwt>
</event>
<event>
 8    1  0.9373234E-006  0.3406948E+03  0.7546771E-02  0.1066500E+00
         21   -1    0    0  504  503  0.00000000000E+00  0.00000000000E+00  0.41763298369E+03  0.41763298369E+03  0.00000000000E+00 0. -1.
         21   -1    0    0  503  504 -0.00000000000E+00 -0.00000000000E+00 -0.69482645225E+02  0.69482645225E+02  0.00000000000E+00 0. -1.
         25    2    1    2    0    0 -0.24352663644E+02 -0.10129080841E+03  0.24605499537E+03  0.29501707606E+03  0.12505652453E+03 0.  0.
         25    2    1    2    0    0  0.24352663644E+02  0.10129080841E+03  0.10209534310E+03  0.19209855285E+03  0.12500205931E+03 0.  0.
          5    1    3    3  501    0 -0.20212515940E+02  0.26765155071E+02  0.40985810888E+02  0.53168092130E+02  0.47000000000E+01 0.  1.
         -5    1    3    3    0  501 -0.41401477041E+01 -0.12805596348E+03  0.20506918448E+03  0.24184898393E+03  0.47000000000E+01 0.  1.
          5    1    4    4  502    0  0.69601478080E+02  0.57033661806E+02  0.90254650153E+02  0.12753507833E+03  0.47000000000E+01 0. -1.
         -5    1    4    4    0  502 -0.45248814437E+02  0.44257146604E+02  0.11840692946E+02  0.64563474526E+02  0.47000000000E+01 0. -1.
<mgrwt>
<rscale>  0 0.34069485E+03</rscale>
<asrwt>0</asrwt>
<pdfrwt beam="1">  1       21 0.64251227E-01 0.34069485E+03</pdfrwt>
<pdfrwt beam="2">  1       21 0.10689638E-01 0.34069485E+03</pdfrwt>
<totfact> 0.15457041E+05</totfact>
</mgrwt>
</event>
<event>
 8    1  0.9373234E-006  0.2807686E+03  0.7546771E-02  0.1095270E+00
         21   -1    0    0  504  503  0.00000000000E+00  0.00000000000E+00  0.11915677884E+03  0.11915677884E+03  0.00000000000E+00 0. -1.
         21   -1    0    0  503  504 -0.00000000000E+00 -0.00000000000E+00 -0.16539351369E+03  0.16539351369E+03  0.00000000000E+00 0. -1.
         25    2    1    2    0    0 -0.16446727643E+02  0.53599193019E+02  0.79360984092E+01  0.13722926170E+03  0.12500208105E+03 0.  0.
         25    2    1    2    0    0  0.16446727643E+02 -0.53599193019E+02 -0.54172833253E+02  0.14732103084E+03  0.12500168767E+03 0.  0.
          5    1    3    3  501    0  0.20447164378E+02  0.83636401792E+02 -0.85715470097E+01  0.86652730216E+02  0.47000000000E+01 0.  1.
         -5    1    3    3    0  501 -0.36893892021E+02 -0.30037208773E+02  0.16507645419E+02  0.50576531481E+02  0.47000000000E+01 0.  1.
          5    1    4    4  502    0  0.70665764572E+02 -0.37966358485E+02 -0.33001805788E+02  0.86869464396E+02  0.47000000000E+01 0.  1.
         -5    1    4    4    0  502 -0.54219036929E+02 -0.15632834533E+02 -0.21171027465E+02  0.60451566439E+02  0.47000000000E+01 0.  1.
<mgrwt>
<rscale>  0 0.28076865E+03</rscale>
<asrwt>0</asrwt>
<pdfrwt beam="1">  1       21 0.18331812E-01 0.28076865E+03</pdfrwt>
<pdfrwt beam="2">  1       21 0.25445156E-01 0.28076865E+03</pdfrwt>
<totfact> 0.39018549E+05</totfact>
</mgrwt>
</event>
<event>
 8    1  0.9373234E-006  0.2973937E+03  0.7546771E-02  0.1086551E+00
         21   -1    0    0  504  503  0.00000000000E+00  0.00000000000E+00  0.17285455477E+03  0.17285455477E+03  0.00000000000E+00 0.  1.
         21   -1    0    0  503  504 -0.00000000000E+00 -0.00000000000E+00 -0.12791537581E+03  0.12791537581E+03  0.00000000000E+00 0.  1.
         25    2    1    2    0    0 -0.42147961598E+02 -0.43496283861E+02  0.76148030138E+02  0.15840718002E+03  0.12500373919E+03 0.  0.
         25    2    1    2    0    0  0.42147961598E+02  0.43496283861E+02 -0.31208851171E+02  0.14236275056E+03  0.12499913192E+03 0.  0.
          5    1    3    3  501    0  0.60631134096E+01  0.40386088587E+02  0.14505865888E+02  0.43592518174E+02  0.47000000000E+01 0.  1.
         -5    1    3    3    0  501 -0.48211075007E+02 -0.83882372449E+02  0.61642164250E+02  0.11481466184E+03  0.47000000000E+01 0.  1.
          5    1    4    4  502    0  0.77372021891E+02  0.98536538144E+01 -0.46704783297E+02  0.91032692192E+02  0.47000000000E+01 0.  1.
         -5    1    4    4    0  502 -0.35224060293E+02  0.33642630047E+02  0.15495932126E+02  0.51330058372E+02  0.47000000000E+01 0.  1.
<mgrwt>
<rscale>  0 0.29739371E+03</rscale>
<asrwt>0</asrwt>
<pdfrwt beam="1">  1       21 0.26593008E-01 0.29739371E+03</pdfrwt>
<pdfrwt beam="2">  1       21 0.19679289E-01 0.29739371E+03</pdfrwt>
<totfact> 0.31263227E+05</totfact>
</mgrwt>
</event>
<event>
 8    1  0.9373234E-006  0.2761385E+03  0.7546771E-02  0.1097817E+00
         21   -1    0    0  504  503  0.00000000000E+00  0.00000000000E+00  0.50317853573E+02  0.50317853573E+02  0.00000000000E+00 0. -1.
         21   -1    0    0  503  504 -0.00000000000E+00 -0.00000000000E+00 -0.37885392471E+03  0.37885392471E+03  0.00000000000E+00 0. -1.
         25    2    1    2    0    0  0.56078578693E+02  0.16362328344E+02 -0.17154917929E+03  0.22015098323E+03  0.12499920690E+03 0.  0.
         25    2    1    2    0    0 -0.56078578693E+02 -0.16362328344E+02 -0.15698689184E+03  0.20902079505E+03  0.12502909971E+03 0.  0.
          5    1    3    3  501    0  0.15740633106E+02  0.57085877951E+02 -0.14521777776E+03  0.15689760345E+03  0.47000000000E+01 0.  1.
         -5    1    3    3    0  501  0.40337945587E+02 -0.40723549608E+02 -0.26331401534E+02  0.63253379780E+02  0.47000000000E+01 0.  1.
          5    1    4    4  502    0 -0.43815434178E+02  0.22379793072E+02 -0.16052422435E+03  0.16796060257E+03  0.47000000000E+01 0.  1.
         -5    1    4    4    0  502 -0.12263144516E+02 -0.38742121416E+02  0.35373325125E+01  0.41060192480E+02  0.47000000000E+01 0.  1.
<mgrwt>
<rscale>  0 0.27613849E+03</rscale>
<asrwt>0</asrwt>
<pdfrwt beam="1">  1       21 0.77412083E-02 0.27613849E+03</pdfrwt>
<pdfrwt beam="2">  1       21 0.58285219E-01 0.27613849E+03</pdfrwt>
<totfact> 0.34353571E+05</totfact>
</mgrwt>
</event>
<event>
 8    1  0.9373234E-006  0.3211628E+03  0.7546771E-02  0.1075115E+00
         21   -1    0    0  504  503  0.00000000000E+00  0.00000000000E+00  0.95719366864E+03  0.95719366864E+03  0.00000000000E+00 0. -1.
         21   -1    0    0  503  504 -0.00000000000E+00 -0.00000000000E+00 -0.26939563971E+02  0.26939563971E+02  0.00000000000E+00 0. -1.
         25    2    1    2    0    0 -0.68694771787E+02 -0.41129567274E+02  0.65280224309E+03  0.66946723060E+03  0.12499996514E+03 0.  0.
         25    2    1    2    0    0  0.68694771787E+02  0.41129567274E+02  0.27745186158E+03  0.31466600201E+03  0.12499817741E+03 0.  0.
          5    1    3    3  501    0 -0.86049952590E+01  0.32833621056E+02  0.35739372907E+03  0.35903267288E+03  0.47000000000E+01 0.  1.
         -5    1    3    3    0  501 -0.60089776528E+02 -0.73963188330E+02  0.29540851402E+03  0.31043455772E+03  0.47000000000E+01 0.  1.
          5    1    4    4  502    0  0.98675115962E+02  0.52629268103E+02  0.18011280059E+03  0.21205973052E+03  0.47000000000E+01 0.  1.
         -5    1    4    4    0  502 -0.29980344175E+02 -0.11499700830E+02  0.97339060992E+02  0.10260627150E+03  0.47000000000E+01 0.  1.
<mgrwt>
<rscale>  0 0.32116276E+03</rscale>
<asrwt>0</asrwt>
<pdfrwt beam="1">  1       21 0.14726054E+00 0.32116276E+03</pdfrwt>
<pdfrwt beam="2">  1       21 0.41445490E-02 0.32116276E+03</pdfrwt>
<totfact> 0.11026680E+05</totfact>
</mgrwt>
</event>
<event>
 8    1  0.9373234E-006  0.3004228E+03  0.7546771E-02  0.1085029E+00
         21   -1    0    0  504  503  0.00000000000E+00  0.00000000000E+00  0.59926463650E+02  0.59926463650E+02  0.00000000000E+00 0. -1.
         21   -1    0    0  503  504 -0.00000000000E+00 -0.00000000000E+00 -0.37651922958E+03  0.37651922958E+03  0.00000000000E+00 0. -1.
         25    2    1    2    0    0  0.66120305363E+02 -0.43449359539E+00 -0.84719756584E+02  0.16484842329E+03  0.12500192774E+03 0.  0.
         25    2    1    2    0    0 -0.66120305363E+02  0.43449359539E+00 -0.23187300934E+03  0.27159726994E+03  0.12501160351E+03 0.  0.
          5    1    3    3  501    0  0.56454638573E+02 -0.53761113370E+02 -0.77406384197E+02  0.10996009204E+03  0.47000000000E+01 0.  1.
         -5    1    3    3    0  501  0.96656667906E+01  0.53326619775E+02 -0.73133723871E+01  0.54888331244E+02  0.47000000000E+01 0.  1.
          5    1    4    4  502    0 -0.19181920082E+02 -0.60346658785E+02 -0.89057875491E+02  0.10937577644E+03  0.47000000000E+01 0.  1.
         -5    1    4    4    0  502 -0.46938385281E+02  0.60781152380E+02 -0.14281513385E+03  0.16222149350E+03  0.47000000000E+01 0.  1.
<mgrwt>
<rscale>  0 0.30042281E+03</rscale>
<asrwt>0</asrwt>
<pdfrwt beam="1">  1       21 0.92194561E-02 0.30042281E+03</pdfrwt>
<pdfrwt beam="2">  1       21 0.57926034E-01 0.30042281E+03</pdfrwt>
<totfact> 0.25456965E+05</totfact>
</mgrwt>
</event>
<event>
 8    1  0.9373234E-006  0.2921705E+03  0.7546771E-02  0.1089221E+00
         21   -1    0    0  504  503  0.00000000000E+00  0.00000000000E+00  0.26454519795E+03  0.26454519795E+03  0.00000000000E+00 0. -1.
         21   -1    0    0  503  504 -0.00000000000E+00 -0.00000000000E+00 -0.80670150474E+02  0.80670150474E+02  0.00000000000E+00 0. -1.
         25    2    1    2    0    0  0.79058180135E+01 -0.49476488594E+02  0.25037058709E+02  0.13697205593E+03  0.12499625960E+03 0.  0.
         25    2    1    2    0    0 -0.79058180135E+01  0.49476488594E+02  0.15883798877E+03  0.20824329250E+03  0.12500134924E+03 0.  0.
          5    1    3    3  501    0 -0.36957444237E+02  0.49425842410E+01  0.49521814097E+02  0.62167370018E+02  0.47000000000E+01 0.  1.
         -5    1    3    3    0  501  0.44863262251E+02 -0.54419072835E+02 -0.24484755388E+02  0.74804685912E+02  0.47000000000E+01 0.  1.
          5    1    4    4  502    0 -0.12505359235E+02  0.69996748485E+02  0.29504047482E+02  0.77126568871E+02  0.47000000000E+01 0.  1.
         -5    1    4    4    0  502  0.45995412219E+01 -0.20520259890E+02  0.12933394129E+03  0.13111672362E+03  0.47000000000E+01 0.  1.
<mgrwt>
<rscale>  0 0.29217050E+03</rscale>
<asrwt>0</asrwt>
<pdfrwt beam="1">  1       21 0.40699261E-01 0.29217050E+03</pdfrwt>
<pdfrwt beam="2">  1       21 0.12410792E-01 0.29217050E+03</pdfrwt>
<totfact> 0.31402595E+05</totfact>
</mgrwt>
</event>
<event>
 8    1  0.9373234E-006  0.3026545E+03  0.7546771E-02  0.1083921E+00
         21   -1    0    0  504  503  0.00000000000E+00  0.00000000000E+00  0.23851279595E+03  0.23851279595E+03  0.00000000000E+00 0. -1.
         21   -1    0    0  503  504 -0.00000000000E+00 -0.00000000000E+00 -0.96011330407E+02  0.96011330407E+02  0.00000000000E+00 0. -1.
         25    2    1    2    0    0  0.14380516087E+02  0.67308839707E+02  0.12695168972E+03  0.19099050569E+03  0.12499345020E+03 0.  0.
         25    2    1    2    0    0 -0.14380516087E+02 -0.67308839707E+02  0.15549775821E+02  0.14353362067E+03  0.12499130206E+03 0.  0.
          5    1    3    3  501    0  0.87316640323E+01  0.45592990257E+02 -0.13584882502E+02  0.48596314161E+02  0.47000000000E+01 0. -1.
         -5    1    3    3    0  501  0.56488520549E+01  0.21715849450E+02  0.14053657223E+03  0.14239419152E+03  0.47000000000E+01 0. -1.
          5    1    4    4  502    0 -0.14305178817E+02 -0.10396786268E+03  0.53308634698E+01  0.10518774984E+03  0.47000000000E+01 0. -1.
         -5    1    4    4    0  502 -0.75337270087E-01  0.36659022968E+02  0.10218912352E+02  0.38345870838E+02  0.47000000000E+01 0. -1.
<mgrwt>
<rscale>  0 0.30265446E+03</rscale>
<asrwt>0</asrwt>
<pdfrwt beam="1">  1       21 0.36694276E-01 0.30265446E+03</pdfrwt>
<pdfrwt beam="2">  1       21 0.14770974E-01 0.30265446E+03</pdfrwt>
<totfact> 0.28154457E+05</totfact>
</mgrwt>
</event>
<event>
 8    1  0.9373234E-006  0.3311866E+03  0.7546771E-02  0.1070613E+00
         21   -1    0    0  504  503  0.00000000000E+00  0.00000000000E+00  0.77149708903E+03  0.77149708903E+03  0.00000000000E+00 0.  1.
         21   -1    0    0  503  504 -0.00000000000E+00 -0.00000000000E+00 -0.35542756732E+02  0.35542756732E+02  0.00000000000E+00 0.  1.
         25    2    1    2    0    0 -0.74750749387E+02 -0.78735827553E+02  0.36058379626E+03  0.39677920863E+03  0.12500424474E+03 0.  0.
         25    2    1    2    0    0  0.74750749387E+02  0.78735827553E+02  0.37537053604E+03  0.41026063713E+03  0.12499498381E+03 0.  0.
          5    1    3    3  501    0 -0.17863991476E+02 -0.95540243881E+02  0.15730151462E+03  0.18496734007E+03  0.47000000000E+01 0. -1.
         -5    1    3    3    0  501 -0.56886757911E+02  0.16804416328E+02  0.20328228164E+03  0.21181186856E+03  0.47000000000E+01 0. -1.
          5    1    4    4  502    0  0.47078626922E+02 -0.28072975766E+02  0.11778407281E+03  0.12999871880E+03  0.47000000000E+01 0.  1.
         -5    1    4    4    0  502  0.27672122465E+02  0.10680880332E+03  0.25758646323E+03  0.28026191833E+03  0.47000000000E+01 0.  1.
<mgrwt>
<rscale>  0 0.33118655E+03</rscale>
<asrwt>0</asrwt>
<pdfrwt beam="1">  1       21 0.11869185E+00 0.33118655E+03</pdfrwt>
<pdfrwt beam="2">  1       21 0.54681170E-02 0.33118655E+03</pdfrwt>
<totfact> 0.11957603E+05</totfact>
</mgrwt>
</event>
<event>
 8    1  0.9373234E-006  0.3385922E+03  0.7546771E-02  0.1067397E+00
         21   -1    0    0  504  503  0.00000000000E+00  0.00000000000E+00  0.13656965361E+03  0.13656965361E+03  0.00000000000E+00 0.  1.
         21   -1    0    0  503  504 -0.00000000000E+00 -0.00000000000E+00 -0.20986488691E+03  0.20986488691E+03  0.00000000000E+00 0.  1.
         25    2    1    2    0    0  0.11012246461E+03 -0.30085154131E+02 -0.37711894210E+02  0.17343169812E+03  0.12499717291E+03 0.  0.
         25    2    1    2    0    0 -0.11012246461E+03  0.30085154131E+02 -0.35583339091E+02  0.17300284241E+03  0.12502694010E+03 0.  0.
          5    1    3    3  501    0  0.72890281009E+02 -0.19520187698E+01 -0.81365303437E+02  0.10935815491E+03  0.47000000000E+01 0.  1.
         -5    1    3    3    0  501  0.37232183603E+02 -0.28133135361E+02  0.43653409228E+02  0.64073543201E+02  0.47000000000E+01 0.  1.
          5    1    4    4  502    0 -0.12806519803E+03  0.46309601984E+02 -0.49170751322E+02  0.14486244153E+03  0.47000000000E+01 0. -1.
         -5    1    4    4    0  502  0.17942733415E+02 -0.16224447853E+02  0.13587412231E+02  0.28140400880E+02  0.47000000000E+01 0. -1.
<mgrwt>
<rscale>  0 0.33859223E+03</rscale>
<asrwt>0</asrwt>
<pdfrwt beam="1">  1       21 0.21010716E-01 0.33859223E+03</pdfrwt>
<pdfrwt beam="2">  1       21 0.32286906E-01 0.33859223E+03</pdfrwt>
<totfact> 0.18706524E+05</totfact>
</mgrwt>
</event>
<event>
 8    1  0.9373234E-006  0.2763056E+03  0.7546771E-02  0.1097724E+00
         21   -1    0    0  504  503  0.00000000000E+00  0.00000000000E+00  0.57927747170E+02  0.57927747170E+02  0.00000000000E+00 0. -1.
         21   -1    0    0  503  504 -0.00000000000E+00 -0.00000000000E+00 -0.32948273943E+03  0.32948273943E+03  0.00000000000E+00 0. -1.
         25    2    1    2    0    0  0.41795242425E+02 -0.12635518656E+02 -0.19114689355E+03  0.23252210044E+03  0.12499157434E+03 0.  0.
         25    2    1    2    0    0 -0.41795242425E+02  0.12635518656E+02 -0.80408098709E+02  0.15488838617E+03  0.12497380209E+03 0.  0.
          5    1    3    3  501    0 -0.34192227597E+02 -0.31075929078E+02 -0.36144703880E+02  0.58850245664E+02  0.47000000000E+01 0. -1.
         -5    1    3    3    0  501  0.75987470022E+02  0.18440410422E+02 -0.15500218967E+03  0.17367185477E+03  0.47000000000E+01 0. -1.
          5    1    4    4  502    0 -0.46430434525E+02  0.36776942045E+02  0.10728149042E+02  0.60378074648E+02  0.47000000000E+01 0. -1.
         -5    1    4    4    0  502  0.46351920996E+01 -0.24141423388E+02 -0.91136247752E+02  0.94510311518E+02  0.47000000000E+01 0. -1.
<mgrwt>
<rscale>  0 0.27630558E+03</rscale>
<asrwt>0</asrwt>
<pdfrwt beam="1">  1       21 0.89119610E-02 0.27630558E+03</pdfrwt>
<pdfrwt beam="2">  1       21 0.50689653E-01 0.27630558E+03</pdfrwt>
<totfact> 0.36108434E+05</totfact>
</mgrwt>
</event>
<event>
 8    1  0.9373234E-006  0.2660737E+03  0.7546771E-02  0.1103548E+00
         21   -1    0    0  504  503  0.00000000000E+00  0.00000000000E+00  0.58204557579E+02  0.58204557579E+02  0.00000000000E+00 0. -1.
         21   -1    0    0  503  504 -0.00000000000E+00 -0.00000000000E+00 -0.30407922765E+03  0.30407922765E+03  0.00000000000E+00 0. -1.
         25    2    1    2    0    0  0.36981883601E+02 -0.21702656061E+02 -0.14382509508E+03  0.19531968886E+03  0.12500183154E+03 0.  0.
         25    2    1    2    0    0 -0.36981883601E+02  0.21702656061E+02 -0.10204957499E+03  0.16696409637E+03  0.12499691486E+03 0.  0.
          5    1    3    3  501    0 -0.16744231643E+02 -0.38859182078E+02 -0.20007621468E+01  0.42620398570E+02  0.47000000000E+01 0. -1.
         -5    1    3    3    0  501  0.53726115244E+02  0.17156526017E+02 -0.14182433293E+03  0.15269929029E+03  0.47000000000E+01 0. -1.
          5    1    4    4  502    0  0.30681908298E+02  0.95711446828E+01 -0.91706329730E+02  0.97288885388E+02  0.47000000000E+01 0. -1.
         -5    1    4    4    0  502 -0.67663791899E+02  0.12131511379E+02 -0.10343245263E+02  0.69675210980E+02  0.47000000000E+01 0. -1.
<mgrwt>
<rscale>  0 0.26607365E+03</rscale>
<asrwt>0</asrwt>
<pdfrwt beam="1">  1       21 0.89545476E-02 0.26607365E+03</pdfrwt>
<pdfrwt beam="2">  1       21 0.46781418E-01 0.26607365E+03</pdfrwt>
<totfact> 0.42441832E+05</totfact>
</mgrwt>
</event>
<event>
 8    1  0.9373234E-006  0.2622880E+03  0.7546771E-02  0.1105776E+00
         21   -1    0    0  504  503  0.00000000000E+00  0.00000000000E+00  0.17551917756E+04  0.17551917756E+04  0.00000000000E+00 0.  1.
         21   -1    0    0  503  504 -0.00000000000E+00 -0.00000000000E+00 -0.97987854439E+01  0.97987854439E+01  0.00000000000E+00 0.  1.
         25    2    1    2    0    0  0.40043066775E+00  0.33402573436E+02  0.10166864227E+04  0.10248856308E+04  0.12499352722E+03 0.  0.
         25    2    1    2    0    0 -0.40043066775E+00 -0.33402573436E+02  0.72870656751E+03  0.74010493030E+03  0.12500461620E+03 0.  0.
          5    1    3    3  501    0  0.56526669239E+02 -0.93773450529E+01  0.38866044400E+03  0.39288958966E+03  0.47000000000E+01 0. -1.
         -5    1    3    3    0  501 -0.56126238571E+02  0.42779918489E+02  0.62802597869E+03  0.63199604112E+03  0.47000000000E+01 0. -1.
          5    1    4    4  502    0 -0.40415639385E+02 -0.20818026304E+02  0.64245669485E+03  0.64408035902E+03  0.47000000000E+01 0.  1.
         -5    1    4    4    0  502  0.40015208718E+02 -0.12584547132E+02  0.86249872659E+02  0.96024571277E+02  0.47000000000E+01 0.  1.
<mgrwt>
<rscale>  0 0.26228799E+03</rscale>
<asrwt>0</asrwt>
<pdfrwt beam="1">  1       21 0.27002925E+00 0.26228799E+03</pdfrwt>
<pdfrwt beam="2">  1       21 0.15075068E-02 0.26228799E+03</pdfrwt>
<totfact> 0.94422219E+04</totfact>
</mgrwt>
</event>
<event>
 8    1  0.9373234E-006  0.2675280E+03  0.7546771E-02  0.1102703E+00
         21   -1    0    0  504  503  0.00000000000E+00  0.00000000000E+00  0.13655943057E+04  0.13655943057E+04  0.00000000000E+00 0. -1.
         21   -1    0    0  503  504 -0.00000000000E+00 -0.00000000000E+00 -0.13102574601E+02  0.13102574601E+02  0.00000000000E+00 0. -1.
         25    2    1    2    0    0  0.13872488772E+02  0.30994597445E+02  0.50441650428E+03  0.52078558040E+03  0.12501399903E+03 0.  0.
         25    2    1    2    0    0 -0.13872488772E+02 -0.30994597445E+02  0.84807522682E+03  0.85791129990E+03  0.12500838823E+03 0.  0.
          5    1    3    3  501    0  0.10776402480E+02  0.24898610695E+02  0.51002709865E+03  0.51076981413E+03  0.47000000000E+01 0. -1.
         -5    1    3    3    0  501  0.30960862917E+01  0.60959867507E+01 -0.56105943766E+01  0.10015766274E+02  0.47000000000E+01 0. -1.
          5    1    4    4  502    0  0.32133638929E+02 -0.64515533624E+02  0.49671522787E+03  0.50193917204E+03  0.47000000000E+01 0.  1.
         -5    1    4    4    0  502 -0.46006127701E+02  0.33520936179E+02  0.35135999896E+03  0.35597212786E+03  0.47000000000E+01 0.  1.
<mgrwt>
<rscale>  0 0.26752795E+03</rscale>
<asrwt>0</asrwt>
<pdfrwt beam="1">  1       21 0.21009132E+00 0.26752795E+03</pdfrwt>
<pdfrwt beam="2">  1       21 0.20157818E-02 0.26752795E+03</pdfrwt>
<totfact> 0.13564808E+05</totfact>
</mgrwt>
</event>
<event>
 8    1  0.9373234E-006  0.2918672E+03  0.7546771E-02  0.1089378E+00
         21   -1    0    0  504  503  0.00000000000E+00  0.00000000000E+00  0.94476592536E+02  0.94476592536E+02  0.00000000000E+00 0. -1.
         21   -1    0    0  503  504 -0.00000000000E+00 -0.00000000000E+00 -0.22541686411E+03  0.22541686411E+03  0.00000000000E+00 0. -1.
         25    2    1    2    0    0  0.30969968354E+02  0.38448185794E+02 -0.31205444015E+01  0.13442694188E+03  0.12499385174E+03 0.  0.
         25    2    1    2    0    0 -0.30969968354E+02 -0.38448185794E+02 -0.12781972717E+03  0.18546651477E+03  0.12499017368E+03 0.  0.
          5    1    3    3  501    0  0.60294216186E+02  0.67249615832E+02  0.10075413902E+02  0.91002787322E+02  0.47000000000E+01 0.  1.
         -5    1    3    3    0  501 -0.29324247832E+02 -0.28801430038E+02 -0.13195958303E+02  0.43424154553E+02  0.47000000000E+01 0.  1.
          5    1    4    4  502    0 -0.15954171962E+02  0.44966430324E+02 -0.60082308544E+02  0.76866697985E+02  0.47000000000E+01 0. -1.
         -5    1    4    4    0  502 -0.15015796391E+02 -0.83414616119E+02 -0.67737418629E+02  0.10859981679E+03  0.47000000000E+01 0. -1.
<mgrwt>
<rscale>  0 0.29186721E+03</rscale>
<asrwt>0</asrwt>
<pdfrwt beam="1">  1       21 0.14534861E-01 0.29186721E+03</pdfrwt>
<pdfrwt beam="2">  1       21 0.34679517E-01 0.29186721E+03</pdfrwt>
<totfact> 0.32554025E+05</totfact>
</mgrwt>
</event>
<event>
 8    1  0.9373234E-006  0.4097114E+03  0.7546771E-02  0.1040468E+00
         21   -1    0    0  504  503  0.00000000000E+00  0.00000000000E+00  0.72199403918E+03  0.72199403918E+03  0.00000000000E+00 0. -1.
         21   -1    0    0  503  504 -0.00000000000E+00 -0.00000000000E+00 -0.58124936049E+02  0.58124936049E+02  0.00000000000E+00 0. -1.
         25    2    1    2    0    0 -0.85996780627E+02 -0.93273987316E+02  0.52468699122E+03  0.55408269987E+03  0.12496286068E+03 0.  0.
         25    2    1    2    0    0  0.85996780627E+02  0.93273987316E+02  0.13918211191E+03  0.22603627535E+03  0.12500101805E+03 0.  0.
          5    1    3    3  501    0  0.23751503852E+02 -0.18160445522E+02  0.21352008551E+03  0.21565447510E+03  0.47000000000E+01 0.  1.
         -5    1    3    3    0  501 -0.10974828448E+03 -0.75113541794E+02  0.31116690572E+03  0.33842822477E+03  0.47000000000E+01 0.  1.
          5    1    4    4  502    0  0.75345971451E+02  0.11836027704E+03  0.82158366248E+02  0.16265994510E+03  0.47000000000E+01 0. -1.
         -5    1    4    4    0  502  0.10650809176E+02 -0.25086289723E+02  0.57023745657E+02  0.63376330258E+02  0.47000000000E+01 0. -1.
<mgrwt>
<rscale>  0 0.40971140E+03</rscale>
<asrwt>0</asrwt>
<pdfrwt beam="1">  1       21 0.11107600E+00 0.40971140E+03</pdfrwt>
<pdfrwt beam="2">  1       21 0.89422984E-02 0.40971140E+03</pdfrwt>
<totfact> 0.58389198E+04</totfact>
</mgrwt>
</event>
<event>
 8    1  0.9373234E-006  0.8507097E+03  0.7546771E-02  0.9489385E-01
         21   -1    0    0  504  503  0.00000000000E+00  0.00000000000E+00  0.11065606435E+04  0.11065606435E+04  0.00000000000E+00 0. -1.
         21   -1    0    0  503  504 -0.00000000000E+00 -0.00000000000E+00 -0.16350368590E+03  0.16350368590E+03  0.00000000000E+00 0. -1.
         25    2    1    2    0    0  0.29621316010E+03  0.25313061736E+03  0.64488257218E+03  0.76375623602E+03  0.12503083820E+03 0.  0.
         25    2    1    2    0    0 -0.29621316010E+03 -0.25313061736E+03  0.29817438539E+03  0.50630809335E+03  0.12499030214E+03 0.  0.
          5    1    3    3  501    0  0.25990159703E+03  0.26404909119E+03  0.59465884081E+03  0.70065111835E+03  0.47000000000E+01 0.  1.
         -5    1    3    3    0  501  0.36311563073E+02 -0.10918473827E+02  0.50223731368E+02  0.63105117669E+02  0.47000000000E+01 0.  1.
          5    1    4    4  502    0 -0.11074623361E+03 -0.80783164001E+02  0.35990639670E+02  0.14180290543E+03  0.47000000000E+01 0. -1.
         -5    1    4    4    0  502 -0.18546692649E+03 -0.17234745336E+03  0.26218374572E+03  0.36450518792E+03  0.47000000000E+01 0. -1.
<mgrwt>
<rscale>  0 0.85070969E+03</rscale>
<asrwt>0</asrwt>
<pdfrwt beam="1">  1       21 0.17024009E+00 0.85070969E+03</pdfrwt>
<pdfrwt beam="2">  1       21 0.25154414E-01 0.85070969E+03</pdfrwt>
<totfact> 0.24421867E+03</totfact>
</mgrwt>
</event>
<event>
 8    1  0.9373234E-006  0.2863202E+03  0.7546771E-02  0.1092286E+00
         21   -1    0    0  504  503  0.00000000000E+00  0.00000000000E+00  0.30111294080E+03  0.30111294080E+03  0.00000000000E+00 0. -1.
         21   -1    0    0  503  504 -0.00000000000E+00 -0.00000000000E+00 -0.68063551562E+02  0.68063551562E+02  0.00000000000E+00 0. -1.
         25    2    1    2    0    0 -0.28805941809E+02 -0.63283075006E+02  0.12432609593E+03  0.18950883975E+03  0.12498836885E+03 0.  0.
         25    2    1    2    0    0  0.28805941809E+02  0.63283075006E+02  0.10872329332E+03  0.17966765262E+03  0.12500072409E+03 0.  0.
          5    1    3    3  501    0 -0.68906241225E+02 -0.11899691526E+02  0.94561296603E+02  0.11770132350E+03  0.47000000000E+01 0. -1.
         -5    1    3    3    0  501  0.40100299417E+02 -0.51383383480E+02  0.29764799323E+02  0.71807516249E+02  0.47000000000E+01 0. -1.
          5    1    4    4  502    0  0.24995606380E+02  0.93092218091E+02  0.11338750556E+03  0.14889512358E+03  0.47000000000E+01 0. -1.
         -5    1    4    4    0  502  0.38103354291E+01 -0.29809143085E+02 -0.46642122482E+01  0.30772529039E+02  0.47000000000E+01 0. -1.
<mgrwt>
<rscale>  0 0.28632021E+03</rscale>
<asrwt>0</asrwt>
<pdfrwt beam="1">  1       21 0.46325067E-01 0.28632021E+03</pdfrwt>
<pdfrwt beam="2">  1       21 0.10471316E-01 0.28632021E+03</pdfrwt>
<totfact> 0.32672676E+05</totfact>
</mgrwt>
</event>
<event>
 8    1  0.9373234E-006  0.2606417E+03  0.7546771E-02  0.1106758E+00
         21   -1    0    0  504  503  0.00000000000E+00  0.00000000000E+00  0.64440902869E+03  0.64440902869E+03  0.00000000000E+00 0.  1.
         21   -1    0    0  503  504 -0.00000000000E+00 -0.00000000000E+00 -0.26355190387E+02  0.26355190387E+02  0.00000000000E+00 0.  1.
         25    2    1    2    0    0  0.35147182110E+02 -0.75181172056E+01  0.33046068689E+03  0.35513618070E+03  0.12500237906E+03 0.  0.
         25    2    1    2    0    0 -0.35147182110E+02  0.75181172056E+01  0.28759315141E+03  0.31562803837E+03  0.12497756347E+03 0.  0.
          5    1    3    3  501    0 -0.11057993373E+02 -0.27612286584E+02  0.28657577895E+03  0.28815357827E+03  0.47000000000E+01 0.  1.
         -5    1    3    3    0  501  0.46205175483E+02  0.20094169379E+02  0.43884907941E+02  0.66982602438E+02  0.47000000000E+01 0.  1.
          5    1    4    4  502    0 -0.43857632818E+02  0.56060910971E+02  0.10880997030E+03  0.13010771434E+03  0.47000000000E+01 0. -1.
         -5    1    4    4    0  502  0.87104507076E+01 -0.48542793765E+02  0.17878318111E+03  0.18552032403E+03  0.47000000000E+01 0. -1.
<mgrwt>
<rscale>  0 0.26064169E+03</rscale>
<asrwt>0</asrwt>
<pdfrwt beam="1">  1       21 0.99139838E-01 0.26064169E+03</pdfrwt>
<pdfrwt beam="2">  1       21 0.40546452E-02 0.26064169E+03</pdfrwt>
<totfact> 0.31497356E+05</totfact>
</mgrwt>
</event>
<event>
 8    1  0.9373234E-006  0.2866167E+03  0.7546771E-02  0.1092129E+00
         21   -1    0    0  504  503  0.00000000000E+00  0.00000000000E+00  0.26887692700E+03  0.26887692700E+03  0.00000000000E+00 0.  1.
         21   -1    0    0  503  504 -0.00000000000E+00 -0.00000000000E+00 -0.76381733110E+02  0.76381733110E+02  0.00000000000E+00 0.  1.
         25    2    1    2    0    0  0.51139254833E+02  0.31193569525E+02  0.14008592863E+03  0.19706706041E+03  0.12499238671E+03 0.  0.
         25    2    1    2    0    0 -0.51139254833E+02 -0.31193569525E+02  0.52409265263E+02  0.14819159970E+03  0.12500302785E+03 0.  0.
          5    1    3    3  501    0  0.23917493925E+02 -0.26824858041E+02 -0.66749840947E+01  0.36854646074E+02  0.47000000000E+01 0.  1.
         -5    1    3    3    0  501  0.27221760908E+02  0.58018427566E+02  0.14676091272E+03  0.16021241434E+03  0.47000000000E+01 0.  1.
          5    1    4    4  502    0 -0.31766338447E+02  0.40755781410E+02 -0.75532146470E+01  0.52433529618E+02  0.47000000000E+01 0. -1.
         -5    1    4    4    0  502 -0.19372916385E+02 -0.71949350934E+02  0.59962479910E+02  0.95758070084E+02  0.47000000000E+01 0. -1.
<mgrwt>
<rscale>  0 0.28661672E+03</rscale>
<asrwt>0</asrwt>
<pdfrwt beam="1">  1       21 0.41365681E-01 0.28661672E+03</pdfrwt>
<pdfrwt beam="2">  1       21 0.11751036E-01 0.28661672E+03</pdfrwt>
<totfact> 0.33561993E+05</totfact>
</mgrwt>
</event>
<event>
 8    1  0.9373234E-006  0.3136072E+03  0.7546771E-02  0.1078630E+00
         21   -1    0    0  504  503  0.00000000000E+00  0.00000000000E+00  0.47270385859E+03  0.47270385859E+03  0.00000000000E+00 0. -1.
         21   -1    0    0  503  504 -0.00000000000E+00 -0.00000000000E+00 -0.52014316833E+02  0.52014316833E+02  0.00000000000E+00 0. -1.
         25    2    1    2    0    0 -0.18678299506E+02 -0.91333790242E+02  0.18276695720E+03  0.24024682864E+03  0.12499615161E+03 0.  0.
         25    2    1    2    0    0  0.18678299506E+02  0.91333790242E+02  0.23792258456E+03  0.28447134678E+03  0.12500420306E+03 0.  0.
          5    1    3    3  501    0  0.40434378454E+02 -0.27535210003E+02  0.12861415067E+03  0.13768375541E+03  0.47000000000E+01 0.  1.
         -5    1    3    3    0  501 -0.59112677960E+02 -0.63798580239E+02  0.54152806524E+02  0.10256307323E+03  0.47000000000E+01 0.  1.
          5    1    4    4  502    0 -0.33987874018E+02  0.70374746661E+02  0.20337131477E+03  0.21792145884E+03  0.47000000000E+01 0. -1.
         -5    1    4    4    0  502  0.52666173525E+02  0.20959043581E+02  0.34551269781E+02  0.66549887942E+02  0.47000000000E+01 0. -1.
<mgrwt>
<rscale>  0 0.31360720E+03</rscale>
<asrwt>0</asrwt>
<pdfrwt beam="1">  1       21 0.72723668E-01 0.31360720E+03</pdfrwt>
<pdfrwt beam="2">  1       21 0.80022029E-02 0.31360720E+03</pdfrwt>
<totfact> 0.19752210E+05</totfact>
</mgrwt>
</event>
<event>
 8    1  0.9373234E-006  0.2798112E+03  0.7546771E-02  0.1095792E+00
         21   -1    0    0  504  503  0.00000000000E+00  0.00000000000E+00  0.16411834135E+03  0.16411834135E+03  0.00000000000E+00 0. -1.
         21   -1    0    0  503  504 -0.00000000000E+00 -0.00000000000E+00 -0.11926497708E+03  0.11926497708E+03  0.00000000000E+00 0. -1.
         25    2    1    2    0    0 -0.37862432315E+02 -0.27532714373E+02 -0.20019000867E+02  0.13497874238E+03  0.12500754520E+03 0.  0.
         25    2    1    2    0    0  0.37862432315E+02  0.27532714373E+02  0.64872365138E+02  0.14840457604E+03  0.12499552108E+03 0.  0.
          5    1    3    3  501    0 -0.76019059281E+02  0.87491291579E+01 -0.27794507069E+02  0.81547956799E+02  0.47000000000E+01 0.  1.
         -5    1    3    3    0  501  0.38156626966E+02 -0.36281843531E+02  0.77755062016E+01  0.53430785584E+02  0.47000000000E+01 0.  1.
          5    1    4    4  502    0  0.64746072247E+02  0.53882927116E+02  0.14911421409E+02  0.85673007385E+02  0.47000000000E+01 0.  1.
         -5    1    4    4    0  502 -0.26883639932E+02 -0.26350212743E+02  0.49960943729E+02  0.62731568655E+02  0.47000000000E+01 0.  1.
<mgrwt>
<rscale>  0 0.27981115E+03</rscale>
<asrwt>0</asrwt>
<pdfrwt beam="1">  1       21 0.25248976E-01 0.27981115E+03</pdfrwt>
<pdfrwt beam="2">  1       21 0.18348458E-01 0.27981115E+03</pdfrwt>
<totfact> 0.39545108E+05</totfact>
</mgrwt>
</event>
<event>
 8    1  0.9373234E-006  0.4455071E+03  0.7546771E-02  0.1029070E+00
         21   -1    0    0  504  503  0.00000000000E+00  0.00000000000E+00  0.62143659174E+03  0.62143659174E+03  0.00000000000E+00 0. -1.
         21   -1    0    0  503  504 -0.00000000000E+00 -0.00000000000E+00 -0.79845868619E+02  0.79845868619E+02  0.00000000000E+00 0. -1.
         25    2    1    2    0    0 -0.25564505699E+02  0.11759006047E+03  0.49068468626E+03  0.52045838162E+03  0.12499799757E+03 0.  0.
         25    2    1    2    0    0  0.25564505699E+02 -0.11759006047E+03  0.50906036854E+02  0.18082407873E+03  0.12499982635E+03 0.  0.
          5    1    3    3  501    0 -0.24419150708E+02  0.13509343945E+03  0.31258406292E+03  0.34143435488E+03  0.47000000000E+01 0. -1.
         -5    1    3    3    0  501 -0.11453549915E+01 -0.17503378984E+02  0.17810062335E+03  0.17902402674E+03  0.47000000000E+01 0. -1.
          5    1    4    4  502    0 -0.40175216099E+02 -0.95538543405E+02  0.25587938211E+02  0.10685735280E+03  0.47000000000E+01 0.  1.
         -5    1    4    4    0  502  0.65739721799E+02 -0.22051517065E+02  0.25318098643E+02  0.73966725937E+02  0.47000000000E+01 0.  1.
<mgrwt>
<rscale>  0 0.44550710E+03</rscale>
<asrwt>0</asrwt>
<pdfrwt beam="1">  1       21 0.95605626E-01 0.44550710E+03</pdfrwt>
<pdfrwt beam="2">  1       21 0.12283980E-01 0.44550710E+03</pdfrwt>
<totfact> 0.47116014E+04</totfact>
</mgrwt>
</event>
<event>
 8    1  0.9373234E-006  0.3377156E+03  0.7546771E-02  0.1067773E+00
         21   -1    0    0  504  503  0.00000000000E+00  0.00000000000E+00  0.23559770505E+02  0.23559770505E+02  0.00000000000E+00 0.  1.
         21   -1    0    0  503  504 -0.00000000000E+00 -0.00000000000E+00 -0.12102392946E+04  0.12102392946E+04  0.00000000000E+00 0.  1.
         25    2    1    2    0    0  0.34802459435E+02 -0.10805984607E+03 -0.59517885752E+03  0.61866939584E+03  0.12500322957E+03 0.  0.
         25    2    1    2    0    0 -0.34802459435E+02  0.10805984607E+03 -0.59150066657E+03  0.61512966925E+03  0.12499331954E+03 0.  0.
          5    1    3    3  501    0  0.77697137504E+02 -0.69072958090E+02 -0.29267590224E+03  0.31062709551E+03  0.47000000000E+01 0.  1.
         -5    1    3    3    0  501 -0.42894678069E+02 -0.38986887977E+02 -0.30250295528E+03  0.30804230034E+03  0.47000000000E+01 0.  1.
          5    1    4    4  502    0 -0.16533129218E+02  0.10191976627E+03 -0.58528366576E+03  0.59434000582E+03  0.47000000000E+01 0. -1.
         -5    1    4    4    0  502 -0.18269330217E+02  0.61400798010E+01 -0.62170008126E+01  0.20789663432E+02  0.47000000000E+01 0. -1.
<mgrwt>
<rscale>  0 0.33771562E+03</rscale>
<asrwt>0</asrwt>
<pdfrwt beam="1">  1       21 0.36245799E-02 0.33771562E+03</pdfrwt>
<pdfrwt beam="2">  1       21 0.18619067E+00 0.33771562E+03</pdfrwt>
<totfact> 0.71488137E+04</totfact>
</mgrwt>
</event>
<event>
 8    1  0.9373234E-006  0.2570941E+03  0.7546771E-02  0.1108902E+00
         21   -1    0    0  504  503  0.00000000000E+00  0.00000000000E+00  0.30815548923E+03  0.30815548923E+03  0.00000000000E+00 0. -1.
         21   -1    0    0  503  504 -0.00000000000E+00 -0.00000000000E+00 -0.53623406544E+02  0.53623406544E+02  0.00000000000E+00 0. -1.
         25    2    1    2    0    0 -0.96226342151E+01 -0.23522037582E+02  0.10495647805E+03  0.16519122122E+03  0.12500558364E+03 0.  0.
         25    2    1    2    0    0  0.96226342151E+01  0.23522037582E+02  0.14957560464E+03  0.19658767456E+03  0.12501188321E+03 0.  0.
          5    1    3    3  501    0  0.97525172098E+01  0.24364671156E+02 -0.17710518419E+02  0.32007831153E+02  0.47000000000E+01 0.  1.
         -5    1    3    3    0  501 -0.19375151425E+02 -0.47886708738E+02  0.12266699647E+03  0.13318339007E+03  0.47000000000E+01 0.  1.
          5    1    4    4  502    0 -0.30376474643E+02 -0.38040329418E+02  0.33922761453E+02  0.59520085841E+02  0.47000000000E+01 0.  1.
         -5    1    4    4    0  502  0.39999108858E+02  0.61562366999E+02  0.11565284319E+03  0.13706758872E+03  0.47000000000E+01 0.  1.
<mgrwt>
<rscale>  0 0.25709412E+03</rscale>
<asrwt>0</asrwt>
<pdfrwt beam="1">  1       21 0.47408536E-01 0.25709412E+03</pdfrwt>
<pdfrwt beam="2">  1       21 0.82497550E-02 0.25709412E+03</pdfrwt>
<totfact> 0.47770303E+05</totfact>
</mgrwt>
</event>
<event>
 8    1  0.9373234E-006  0.2869251E+03  0.7546771E-02  0.1091966E+00
         21   -1    0    0  504  503  0.00000000000E+00  0.00000000000E+00  0.30992227697E+03  0.30992227697E+03  0.00000000000E+00 0. -1.
         21   -1    0    0  503  504 -0.00000000000E+00 -0.00000000000E+00 -0.66408616568E+02  0.66408616568E+02  0.00000000000E+00 0. -1.
         25    2    1    2    0    0 -0.69735171204E+02  0.88033161576E+01  0.12699304103E+03  0.19155332005E+03  0.12499979791E+03 0.  0.
         25    2    1    2    0    0  0.69735171204E+02 -0.88033161576E+01  0.11652061938E+03  0.18477757348E+03  0.12500081778E+03 0.  0.
          5    1    3    3  501    0 -0.23308202096E+02 -0.20351268601E+02  0.13260162230E+03  0.13624509773E+03  0.47000000000E+01 0.  1.
         -5    1    3    3    0  501 -0.46426969109E+02  0.29154584759E+02 -0.56085812718E+01  0.55308222327E+02  0.47000000000E+01 0.  1.
          5    1    4    4  502    0  0.30360908625E+02 -0.41557687434E+02 -0.58759815822E+01  0.52013876196E+02  0.47000000000E+01 0.  1.
         -5    1    4    4    0  502  0.39374262580E+02  0.32754371276E+02  0.12239660096E+03  0.13276369729E+03  0.47000000000E+01 0.  1.
<mgrwt>
<rscale>  0 0.28692514E+03</rscale>
<asrwt>0</asrwt>
<pdfrwt beam="1">  1       21 0.47680349E-01 0.28692514E+03</pdfrwt>
<pdfrwt beam="2">  1       21 0.10216710E-01 0.28692514E+03</pdfrwt>
<totfact> 0.32144005E+05</totfact>
</mgrwt>
</event>
<event>
 8    1  0.9373234E-006  0.3459421E+03  0.7546771E-02  0.1064293E+00
         21   -1    0    0  504  503  0.00000000000E+00  0.00000000000E+00  0.83248520707E+02  0.83248520707E+02  0.00000000000E+00 0. -1.
         21   -1    0    0  503  504 -0.00000000000E+00 -0.00000000000E+00 -0.35939352776E+03  0.35939352776E+03  0.00000000000E+00 0. -1.
         25    2    1    2    0    0 -0.11792261236E+03 -0.40834916736E+01 -0.16274175446E+03  0.23671103922E+03  0.12499928012E+03 0.  0.
         25    2    1    2    0    0  0.11792261236E+03  0.40834916736E+01 -0.11340325259E+03  0.20593100925E+03  0.12499946185E+03 0.  0.
          5    1    3    3  501    0 -0.29925154613E+01  0.37889560492E+02 -0.75546620388E+01  0.39035072199E+02  0.47000000000E+01 0.  1.
         -5    1    3    3    0  501 -0.11493009690E+03 -0.41973052166E+02 -0.15518709242E+03  0.19767596702E+03  0.47000000000E+01 0.  1.
          5    1    4    4  502    0 -0.11423296157E+02  0.31330094018E+02 -0.33093153724E+01  0.33839445245E+02  0.47000000000E+01 0.  1.
         -5    1    4    4    0  502  0.12934590852E+03 -0.27246602344E+02 -0.11009393722E+03  0.17209156401E+03  0.47000000000E+01 0.  1.
<mgrwt>
<rscale>  0 0.34594207E+03</rscale>
<asrwt>0</asrwt>
<pdfrwt beam="1">  1       21 0.12807465E-01 0.34594207E+03</pdfrwt>
<pdfrwt beam="2">  1       21 0.55291311E-01 0.34594207E+03</pdfrwt>
<totfact> 0.15435943E+05</totfact>
</mgrwt>
</event>
<event>
 8    1  0.9373234E-006  0.2545158E+03  0.7546771E-02  0.1110484E+00
         21   -1    0    0  504  503  0.00000000000E+00  0.00000000000E+00  0.94409829614E+02  0.94409829614E+02  0.00000000000E+00 0.  1.
         21   -1    0    0  503  504 -0.00000000000E+00 -0.00000000000E+00 -0.17153476309E+03  0.17153476309E+03  0.00000000000E+00 0.  1.
         25    2    1    2    0    0  0.20354688080E+02  0.10834957274E+02 -0.45002148521E+02  0.13483373469E+03  0.12499293185E+03 0.  0.
         25    2    1    2    0    0 -0.20354688080E+02 -0.10834957274E+02 -0.32122784954E+02  0.13111085801E+03  0.12500589646E+03 0.  0.
          5    1    3    3  501    0 -0.11503563156E+02  0.32139872678E+02  0.33054228885E+02  0.47749088245E+02  0.47000000000E+01 0.  1.
         -5    1    3    3    0  501  0.31858251235E+02 -0.21304915404E+02 -0.78056377406E+02  0.87084646442E+02  0.47000000000E+01 0.  1.
          5    1    4    4  502    0  0.28114135680E+01  0.53480477028E+02  0.35162262090E+01  0.53875034256E+02  0.47000000000E+01 0.  1.
         -5    1    4    4    0  502 -0.23166101648E+02 -0.64315434302E+02 -0.35639011163E+02  0.77235823759E+02  0.47000000000E+01 0.  1.
<mgrwt>
<rscale>  0 0.25451576E+03</rscale>
<asrwt>0</asrwt>
<pdfrwt beam="1">  1       21 0.14524589E-01 0.25451576E+03</pdfrwt>
<pdfrwt beam="2">  1       21 0.26389963E-01 0.25451576E+03</pdfrwt>
<totfact> 0.56164997E+05</totfact>
</mgrwt>
</event>
<event>
 8    1  0.9373234E-006  0.3554990E+03  0.7546771E-02  0.1060380E+00
         21   -1    0    0  504  503  0.00000000000E+00  0.00000000000E+00  0.25356707721E+02  0.25356707721E+02  0.00000000000E+00 0. -1.
         21   -1    0    0  503  504 -0.00000000000E+00 -0.00000000000E+00 -0.12460171389E+04  0.12460171389E+04  0.00000000000E+00 0. -1.
         25    2    1    2    0    0  0.92775688576E+02 -0.22298152030E+02 -0.90662151978E+03  0.92015872199E+03  0.12499983022E+03 0.  0.
         25    2    1    2    0    0 -0.92775688576E+02  0.22298152030E+02 -0.31403891140E+03  0.35121512463E+03  0.12500835940E+03 0.  0.
          5    1    3    3  501    0  0.45251822908E+02  0.31422971034E+02 -0.68377196514E+03  0.68600387819E+03  0.47000000000E+01 0. -1.
         -5    1    3    3    0  501  0.47523865668E+02 -0.53721123064E+02 -0.22284955465E+03  0.23415484380E+03  0.47000000000E+01 0. -1.
          5    1    4    4  502    0 -0.11845385513E+03 -0.60809900469E+01 -0.23665392372E+03  0.26475547935E+03  0.47000000000E+01 0. -1.
         -5    1    4    4    0  502  0.25678166558E+02  0.28379142076E+02 -0.77384987681E+02  0.86459645275E+02  0.47000000000E+01 0. -1.
<mgrwt>
<rscale>  0 0.35549904E+03</rscale>
<asrwt>0</asrwt>
<pdfrwt beam="1">  1       21 0.39010310E-02 0.35549904E+03</pdfrwt>
<pdfrwt beam="2">  1       21 0.19169499E+00 0.35549904E+03</pdfrwt>
<totfact> 0.57571430E+04</totfact>
</mgrwt>
</event>
<event>
 8    1  0.9373234E-006  0.3458968E+03  0.7546771E-02  0.1064312E+00
         21   -1    0    0  504  503  0.00000000000E+00  0.00000000000E+00  0.63860478031E+03  0.63860478031E+03  0.00000000000E+00 0. -1.
         21   -1    0    0  503  504 -0.00000000000E+00 -0.00000000000E+00 -0.46838277324E+02  0.46838277324E+02  0.00000000000E+00 0. -1.
         25    2    1    2    0    0  0.10641081124E+02 -0.22981403072E+02  0.52735718370E+03  0.54256091883E+03  0.12500149579E+03 0.  0.
         25    2    1    2    0    0 -0.10641081124E+02  0.22981403072E+02  0.64409319288E+02  0.14288213880E+03  0.12500147072E+03 0.  0.
          5    1    3    3  501    0 -0.21466339975E+02  0.38362450505E+02  0.33815823370E+03  0.34103601332E+03  0.47000000000E+01 0. -1.
         -5    1    3    3    0  501  0.32107421099E+02 -0.61343853577E+02  0.18919894999E+03  0.20152490551E+03  0.47000000000E+01 0. -1.
          5    1    4    4  502    0 -0.59594762013E+02  0.36303776580E+02  0.59262823927E+02  0.91671544948E+02  0.47000000000E+01 0. -1.
         -5    1    4    4    0  502  0.48953680889E+02 -0.13322373508E+02  0.51464953615E+01  0.51210593855E+02  0.47000000000E+01 0. -1.
<mgrwt>
<rscale>  0 0.34589679E+03</rscale>
<asrwt>0</asrwt>
<pdfrwt beam="1">  1       21 0.98246883E-01 0.34589679E+03</pdfrwt>
<pdfrwt beam="2">  1       21 0.72058893E-02 0.34589679E+03</pdfrwt>
<totfact> 0.11725593E+05</totfact>
</mgrwt>
</event>
<event>
 8    1  0.9373234E-006  0.3711731E+03  0.7546771E-02  0.1054245E+00
         21   -1    0    0  504  503  0.00000000000E+00  0.00000000000E+00  0.77241899858E+02  0.77241899858E+02  0.00000000000E+00 0.  1.
         21   -1    0    0  503  504 -0.00000000000E+00 -0.00000000000E+00 -0.44590272472E+03  0.44590272472E+03  0.00000000000E+00 0.  1.
         25    2    1    2    0    0  0.63415138418E+02 -0.11927176800E+03 -0.21797919442E+03  0.28528459159E+03  0.12500053831E+03 0.  0.
         25    2    1    2    0    0 -0.63415138418E+02  0.11927176800E+03 -0.15068163045E+03  0.23786003299E+03  0.12500082847E+03 0.  0.
          5    1    3    3  501    0  0.49881354689E+02  0.12385061806E+02 -0.61008323835E+02  0.79910230125E+02  0.47000000000E+01 0.  1.
         -5    1    3    3    0  501  0.13533783729E+02 -0.13165682980E+03 -0.15697087058E+03  0.20537436147E+03  0.47000000000E+01 0.  1.
          5    1    4    4  502    0  0.33592234257E+02  0.44498733501E+02 -0.21935001171E+02  0.60098334103E+02  0.47000000000E+01 0.  1.
         -5    1    4    4    0  502 -0.97007372674E+02  0.74773034497E+02 -0.12874662927E+03  0.17776169889E+03  0.47000000000E+01 0.  1.
<mgrwt>
<rscale>  0 0.37117313E+03</rscale>
<asrwt>0</asrwt>
<pdfrwt beam="1">  1       21 0.11883369E-01 0.37117313E+03</pdfrwt>
<pdfrwt beam="2">  1       21 0.68600418E-01 0.37117313E+03</pdfrwt>
<totfact> 0.10967011E+05</totfact>
</mgrwt>
</event>
<event>
 8    1  0.9373234E-006  0.2837788E+03  0.7546771E-02  0.1093643E+00
         21   -1    0    0  504  503  0.00000000000E+00  0.00000000000E+00  0.50334958712E+02  0.50334958712E+02  0.00000000000E+00 0. -1.
         21   -1    0    0  503  504 -0.00000000000E+00 -0.00000000000E+00 -0.39997260934E+03  0.39997260934E+03  0.00000000000E+00 0. -1.
         25    2    1    2    0    0 -0.56231971252E+01  0.64402924892E+02 -0.20373655812E+03  0.24759447177E+03  0.12496031471E+03 0.  0.
         25    2    1    2    0    0  0.56231971252E+01 -0.64402924892E+02 -0.14590109251E+03  0.20271309629E+03  0.12500445404E+03 0.  0.
          5    1    3    3  501    0 -0.68785055637E+01 -0.21643828687E+01 -0.17452505858E+03  0.17473718684E+03  0.47000000000E+01 0.  1.
         -5    1    3    3    0  501  0.12553084385E+01  0.66567307761E+02 -0.29211499544E+02  0.72857284930E+02  0.47000000000E+01 0.  1.
          5    1    4    4  502    0 -0.35036891532E+02  0.21928945149E+02 -0.66707325984E+02  0.78615645666E+02  0.47000000000E+01 0. -1.
         -5    1    4    4    0  502  0.40660088657E+02 -0.86331870041E+02 -0.79193766523E+02  0.12409745062E+03  0.47000000000E+01 0. -1.
<mgrwt>
<rscale>  0 0.28377882E+03</rscale>
<asrwt>0</asrwt>
<pdfrwt beam="1">  1       21 0.77438400E-02 0.28377882E+03</pdfrwt>
<pdfrwt beam="2">  1       21 0.61534246E-01 0.28377882E+03</pdfrwt>
<totfact> 0.30477348E+05</totfact>
</mgrwt>
</event>
<event>
 8    1  0.9373234E-006  0.2528822E+03  0.7546771E-02  0.1111497E+00
         21   -1    0    0  504  503  0.00000000000E+00  0.00000000000E+00  0.36526001376E+03  0.36526001376E+03  0.00000000000E+00 0. -1.
         21   -1    0    0  503  504 -0.00000000000E+00 -0.00000000000E+00 -0.43769773921E+02  0.43769773921E+02  0.00000000000E+00 0. -1.
         25    2    1    2    0    0 -0.44021418363E+01 -0.17050948892E+02  0.14899290577E+03  0.19527801994E+03  0.12499802155E+03 0.  0.
         25    2    1    2    0    0  0.44021418363E+01  0.17050948892E+02  0.17249733407E+03  0.21375176774E+03  0.12499749693E+03 0.  0.
          5    1    3    3  501    0 -0.63436108736E+02 -0.46096348457E+00  0.88707787544E+02  0.10915820606E+03  0.47000000000E+01 0. -1.
         -5    1    3    3    0  501  0.59033966900E+02 -0.16589985408E+02  0.60285118225E+02  0.86119813883E+02  0.47000000000E+01 0. -1.
          5    1    4    4  502    0  0.21265216140E+01  0.45795376732E+02  0.17813338696E+03  0.18399818525E+03  0.47000000000E+01 0. -1.
         -5    1    4    4    0  502  0.22756202223E+01 -0.28744427840E+02 -0.56360528864E+01  0.29753582497E+02  0.47000000000E+01 0. -1.
<mgrwt>
<rscale>  0 0.25288217E+03</rscale>
<asrwt>0</asrwt>
<pdfrwt beam="1">  1       21 0.56193846E-01 0.25288217E+03</pdfrwt>
<pdfrwt beam="2">  1       21 0.67338116E-02 0.25288217E+03</pdfrwt>
<totfact> 0.47592780E+05</totfact>
</mgrwt>
</event>
<event>
 8    1  0.9373234E-006  0.2729748E+03  0.7546771E-02  0.1099589E+00
         21   -1    0    0  504  503  0.00000000000E+00  0.00000000000E+00  0.11055308388E+03  0.11055308388E+03  0.00000000000E+00 0. -1.
         21   -1    0    0  503  504 -0.00000000000E+00 -0.00000000000E+00 -0.16850561426E+03  0.16850561426E+03  0.00000000000E+00 0. -1.
         25    2    1    2    0    0 -0.11920998360E+02 -0.43697820411E+02 -0.60525185415E+02  0.14608160558E+03  0.12499971084E+03 0.  0.
         25    2    1    2    0    0  0.11920998360E+02  0.43697820411E+02  0.25726550295E+01  0.13297709255E+03  0.12499871551E+03 0.  0.
          5    1    3    3  501    0 -0.62751260121E+01 -0.85571123415E+02 -0.57639940309E+02  0.10347099636E+03  0.47000000000E+01 0.  1.
         -5    1    3    3    0  501 -0.56458723478E+01  0.41873303004E+02 -0.28852451060E+01  0.42610609223E+02  0.47000000000E+01 0.  1.
          5    1    4    4  502    0  0.54060830194E+02  0.38679749249E+02 -0.35733350637E+02  0.75615201587E+02  0.47000000000E+01 0. -1.
         -5    1    4    4    0  502 -0.42139831834E+02  0.50180711618E+01  0.38306005667E+02  0.57361890968E+02  0.47000000000E+01 0. -1.
<mgrwt>
<rscale>  0 0.27297484E+03</rscale>
<asrwt>0</asrwt>
<pdfrwt beam="1">  1       21 0.17008167E-01 0.27297484E+03</pdfrwt>
<pdfrwt beam="2">  1       21 0.25923941E-01 0.27297484E+03</pdfrwt>
<totfact> 0.43333612E+05</totfact>
</mgrwt>
</event>
<event>
 8    1  0.9373234E-006  0.3782946E+03  0.7546771E-02  0.1051566E+00
         21   -1    0    0  504  503  0.00000000000E+00  0.00000000000E+00  0.32201545754E+03  0.32201545754E+03  0.00000000000E+00 0.  1.
         21   -1    0    0  503  504 -0.00000000000E+00 -0.00000000000E+00 -0.11110246284E+03  0.11110246284E+03  0.00000000000E+00 0.  1.
         25    2    1    2    0    0 -0.76836202993E+02  0.46451064933E+02  0.23134345701E+03  0.27786238315E+03  0.12500482129E+03 0.  0.
         25    2    1    2    0    0  0.76836202993E+02 -0.46451064933E+02 -0.20430462307E+02  0.15525553722E+03  0.12500149809E+03 0.  0.
          5    1    3    3  501    0  0.16012483524E+02  0.57269012794E+02  0.77711965622E+02  0.97966213849E+02  0.47000000000E+01 0. -1.
         -5    1    3    3    0  501 -0.92848686517E+02 -0.10817947861E+02  0.15363149139E+03  0.17989616930E+03  0.47000000000E+01 0. -1.
          5    1    4    4  502    0  0.43110442782E+02  0.29771787093E+02 -0.43924241161E+02  0.68529545053E+02  0.47000000000E+01 0. -1.
         -5    1    4    4    0  502  0.33725760211E+02 -0.76222852026E+02  0.23493778854E+02  0.86725992169E+02  0.47000000000E+01 0. -1.
<mgrwt>
<rscale>  0 0.37829465E+03</rscale>
<asrwt>0</asrwt>
<pdfrwt beam="1">  1       21 0.49540839E-01 0.37829465E+03</pdfrwt>
<pdfrwt beam="2">  1       21 0.17092687E-01 0.37829465E+03</pdfrwt>
<totfact> 0.11374781E+05</totfact>
</mgrwt>
</event>
<event>
 8    1  0.9373234E-006  0.2692068E+03  0.7546771E-02  0.1101734E+00
         21   -1    0    0  504  503  0.00000000000E+00  0.00000000000E+00  0.29140853737E+03  0.29140853737E+03  0.00000000000E+00 0.  1.
         21   -1    0    0  503  504 -0.00000000000E+00 -0.00000000000E+00 -0.62174131872E+02  0.62174131872E+02  0.00000000000E+00 0.  1.
         25    2    1    2    0    0  0.41248924251E+02  0.13993848729E+02  0.14668087160E+03  0.19757726941E+03  0.12499679093E+03 0.  0.
         25    2    1    2    0    0 -0.41248924251E+02 -0.13993848729E+02  0.82553533902E+02  0.15600539983E+03  0.12500118904E+03 0.  0.
          5    1    3    3  501    0 -0.32861547344E+02  0.33963273382E+01  0.61354302912E+00  0.33374882296E+02  0.47000000000E+01 0.  1.
         -5    1    3    3    0  501  0.74110471595E+02  0.10597521391E+02  0.14606732857E+03  0.16420238712E+03  0.47000000000E+01 0.  1.
          5    1    4    4  502    0  0.14042119679E+02  0.12260227170E+02 -0.25377957185E+02  0.31837478013E+02  0.47000000000E+01 0. -1.
         -5    1    4    4    0  502 -0.55291043931E+02 -0.26254075898E+02  0.10793149109E+03  0.12416792182E+03  0.47000000000E+01 0. -1.
<mgrwt>
<rscale>  0 0.26920678E+03</rscale>
<asrwt>0</asrwt>
<pdfrwt beam="1">  1       21 0.44832082E-01 0.26920678E+03</pdfrwt>
<pdfrwt beam="2">  1       21 0.95652512E-02 0.26920678E+03</pdfrwt>
<totfact> 0.41225509E+05</totfact>
</mgrwt>
</event>
<event>
 8    1  0.9373234E-006  0.4806590E+03  0.7546771E-02  0.1018954E+00
         21   -1    0    0  504  503  0.00000000000E+00  0.00000000000E+00  0.26099852409E+03  0.26099852409E+03  0.00000000000E+00 0.  1.
         21   -1    0    0  503  504 -0.00000000000E+00 -0.00000000000E+00 -0.22129729495E+03  0.22129729495E+03  0.00000000000E+00 0.  1.
         25    2    1    2    0    0  0.24484021644E+02  0.19717789130E+03 -0.31848634599E+02  0.23689219667E+03  0.12499995673E+03 0.  0.
         25    2    1    2    0    0 -0.24484021644E+02 -0.19717789130E+03  0.71549863742E+02  0.24540362237E+03  0.12499986695E+03 0.  0.
          5    1    3    3  501    0 -0.20169465974E+02  0.16784842523E+01 -0.29755629951E+02  0.36292040186E+02  0.47000000000E+01 0. -1.
         -5    1    3    3    0  501  0.44653487618E+02  0.19549940705E+03 -0.20930046473E+01  0.20060015649E+03  0.47000000000E+01 0. -1.
          5    1    4    4  502    0 -0.12636027974E+02 -0.41628731369E+02 -0.35333601696E+02  0.56242100665E+02  0.47000000000E+01 0.  1.
         -5    1    4    4    0  502 -0.11847993670E+02 -0.15554915993E+03  0.10688346544E+03  0.18916152171E+03  0.47000000000E+01 0.  1.
<mgrwt>
<rscale>  0 0.48065899E+03</rscale>
<asrwt>0</asrwt>
<pdfrwt beam="1">  1       21 0.40153619E-01 0.48065899E+03</pdfrwt>
<pdfrwt beam="2">  1       21 0.34045738E-01 0.48065899E+03</pdfrwt>
<totfact> 0.45386974E+04</totfact>
</mgrwt>
</event>
<event>
 8    1  0.9373234E-006  0.3218916E+03  0.7546771E-02  0.1074782E+00
         21   -1    0    0  504  503  0.00000000000E+00  0.00000000000E+00  0.13025336021E+03  0.13025336021E+03  0.00000000000E+00 0. -1.
         21   -1    0    0  503  504 -0.00000000000E+00 -0.00000000000E+00 -0.19887051055E+03  0.19887051055E+03  0.00000000000E+00 0. -1.
         25    2    1    2    0    0  0.30804474347E+01 -0.97625382354E+02 -0.65010637410E+01  0.15876799369E+03  0.12499923022E+03 0.  0.
         25    2    1    2    0    0 -0.30804474347E+01  0.97625382354E+02 -0.62116086596E+02  0.17035587706E+03  0.12499004840E+03 0.  0.
          5    1    3    3  501    0 -0.10202525431E+02 -0.10588802607E+03  0.36662671468E+02  0.11261708160E+03  0.47000000000E+01 0.  1.
         -5    1    3    3    0  501  0.13282972866E+02  0.82626437131E+01 -0.43163735209E+02  0.46150912087E+02  0.47000000000E+01 0.  1.
          5    1    4    4  502    0  0.39074148367E+02 -0.77594813021E+01  0.15270839619E+01  0.40142503735E+02  0.47000000000E+01 0.  1.
         -5    1    4    4    0  502 -0.42154595802E+02  0.10538486366E+03 -0.63643170558E+02  0.13021337333E+03  0.47000000000E+01 0.  1.
<mgrwt>
<rscale>  0 0.32189161E+03</rscale>
<asrwt>0</asrwt>
<pdfrwt beam="1">  1       21 0.20038979E-01 0.32189161E+03</pdfrwt>
<pdfrwt beam="2">  1       21 0.30595463E-01 0.32189161E+03</pdfrwt>
<totfact> 0.22845810E+05</totfact>
</mgrwt>
</event>
<event>
 8    1  0.9373234E-006  0.2538437E+03  0.7546771E-02  0.1110899E+00
         21   -1    0    0  504  503  0.00000000000E+00  0.00000000000E+00  0.12193105853E+03  0.12193105853E+03  0.00000000000E+00 0.  1.
         21   -1    0    0  503  504 -0.00000000000E+00 -0.00000000000E+00 -0.13211694227E+03  0.13211694227E+03  0.00000000000E+00 0.  1.
         25    2    1    2    0    0  0.12108153221E+02  0.17768835635E+02 -0.40043435037E+00  0.12684186705E+03  0.12500543986E+03 0.  0.
         25    2    1    2    0    0 -0.12108153221E+02 -0.17768835635E+02 -0.97854493918E+01  0.12720613375E+03  0.12499322601E+03 0.  0.
          5    1    3    3  501    0  0.42296831337E+02 -0.27095494364E+02  0.35566760548E+02  0.61727402440E+02  0.47000000000E+01 0. -1.
         -5    1    3    3    0  501 -0.30188678117E+02  0.44864330000E+02 -0.35967194898E+02  0.65114464611E+02  0.47000000000E+01 0. -1.
          5    1    4    4  502    0 -0.66040741416E+02  0.82500017277E+01 -0.34673363679E+01  0.66809838174E+02  0.47000000000E+01 0.  1.
         -5    1    4    4    0  502  0.53932588195E+02 -0.26018837363E+02 -0.63181130238E+01  0.60396295576E+02  0.47000000000E+01 0.  1.
<mgrwt>
<rscale>  0 0.25384372E+03</rscale>
<asrwt>0</asrwt>
<pdfrwt beam="1">  1       21 0.18758624E-01 0.25384372E+03</pdfrwt>
<pdfrwt beam="2">  1       21 0.20325683E-01 0.25384372E+03</pdfrwt>
<totfact> 0.57615913E+05</totfact>
</mgrwt>
</event>
<event>
 8    1  0.9373234E-006  0.3106277E+03  0.7546771E-02  0.1080045E+00
         21   -1    0    0  504  503  0.00000000000E+00  0.00000000000E+00  0.60808749839E+02  0.60808749839E+02  0.00000000000E+00 0.  1.
         21   -1    0    0  503  504 -0.00000000000E+00 -0.00000000000E+00 -0.39669283189E+03  0.39669283189E+03  0.00000000000E+00 0.  1.
         25    2    1    2    0    0 -0.81784994120E+02 -0.42302536330E+00 -0.10535099673E+03  0.18279162755E+03  0.12499992951E+03 0.  0.
         25    2    1    2    0    0  0.81784994120E+02  0.42302536330E+00 -0.23053308532E+03  0.27470995417E+03  0.12502436275E+03 0.  0.
          5    1    3    3  501    0 -0.86794870703E+02  0.14615367125E+02 -0.12759328440E+03  0.15507770555E+03  0.47000000000E+01 0. -1.
         -5    1    3    3    0  501  0.50098765827E+01 -0.15038392488E+02  0.22242287667E+02  0.27713922001E+02  0.47000000000E+01 0. -1.
          5    1    4    4  502    0  0.36194505947E+02 -0.24087583881E+02 -0.58811136775E+01  0.44124046234E+02  0.47000000000E+01 0.  1.
         -5    1    4    4    0  502  0.45590488174E+02  0.24510609245E+02 -0.22465197164E+03  0.23058590794E+03  0.47000000000E+01 0.  1.
<mgrwt>
<rscale>  0 0.31062772E+03</rscale>
<asrwt>0</asrwt>
<pdfrwt beam="1">  1       21 0.93551923E-02 0.31062772E+03</pdfrwt>
<pdfrwt beam="2">  1       21 0.61029666E-01 0.31062772E+03</pdfrwt>
<totfact> 0.22101756E+05</totfact>
</mgrwt>
</event>
<event>
 8    1  0.9373234E-006  0.2569823E+03  0.7546771E-02  0.1108970E+00
         21   -1    0    0  504  503  0.00000000000E+00  0.00000000000E+00  0.18676714225E+03  0.18676714225E+03  0.00000000000E+00 0. -1.
         21   -1    0    0  503  504 -0.00000000000E+00 -0.00000000000E+00 -0.88398735231E+02  0.88398735231E+02  0.00000000000E+00 0. -1.
         25    2    1    2    0    0 -0.53374266362E+01 -0.18541020586E+02  0.24908176045E+02  0.12890168574E+03  0.12499187888E+03 0.  0.
         25    2    1    2    0    0  0.53374266362E+01  0.18541020586E+02  0.73460230977E+02  0.14626419174E+03  0.12499820272E+03 0.  0.
          5    1    3    3  501    0  0.38227164247E+02 -0.14303922828E+02  0.59921253629E+02  0.72653733085E+02  0.47000000000E+01 0.  1.
         -5    1    3    3    0  501 -0.43564590883E+02 -0.42370977572E+01 -0.35013077584E+02  0.56247952657E+02  0.47000000000E+01 0.  1.
          5    1    4    4  502    0 -0.14658704046E+02  0.15503403304E+02 -0.32017869685E+02  0.38761670468E+02  0.47000000000E+01 0.  1.
         -5    1    4    4    0  502  0.19996130682E+02  0.30376172816E+01  0.10547810066E+03  0.10750252127E+03  0.47000000000E+01 0.  1.
<mgrwt>
<rscale>  0 0.25698233E+03</rscale>
<asrwt>0</asrwt>
<pdfrwt beam="1">  1       21 0.28733406E-01 0.25698233E+03</pdfrwt>
<pdfrwt beam="2">  1       21 0.13599806E-01 0.25698233E+03</pdfrwt>
<totfact> 0.53653246E+05</totfact>
</mgrwt>
</event>
<event>
 8    1  0.9373234E-006  0.3010410E+03  0.7546771E-02  0.1084721E+00
         21   -1    0    0  504  503  0.00000000000E+00  0.00000000000E+00  0.41539350701E+02  0.41539350701E+02  0.00000000000E+00 0. -1.
         21   -1    0    0  503  504 -0.00000000000E+00 -0.00000000000E+00 -0.54542070191E+03  0.54542070191E+03  0.00000000000E+00 0. -1.
         25    2    1    2    0    0  0.39196185708E+02 -0.29251326031E+02 -0.11914412121E+03  0.17947966808E+03  0.12500259432E+03 0.  0.
         25    2    1    2    0    0 -0.39196185708E+02  0.29251326031E+02 -0.38473722999E+03  0.40748038452E+03  0.12500218630E+03 0.  0.
          5    1    3    3  501    0  0.62244772360E+02 -0.41075924422E+01 -0.12925227267E+03  0.14359499989E+03  0.47000000000E+01 0. -1.
         -5    1    3    3    0  501 -0.23048586653E+02 -0.25143733588E+02  0.10108151461E+02  0.35884668194E+02  0.47000000000E+01 0. -1.
          5    1    4    4  502    0 -0.93401491066E+01  0.34485223844E+02 -0.19530513951E+02  0.40987803358E+02  0.47000000000E+01 0. -1.
         -5    1    4    4    0  502 -0.29856036601E+02 -0.52338978134E+01 -0.36520671604E+03  0.36649258117E+03  0.47000000000E+01 0. -1.
<mgrwt>
<rscale>  0 0.30104101E+03</rscale>
<asrwt>0</asrwt>
<pdfrwt beam="1">  1       21 0.63906692E-02 0.30104101E+03</pdfrwt>
<pdfrwt beam="2">  1       21 0.83910879E-01 0.30104101E+03</pdfrwt>
<totfact> 0.21179911E+05</totfact>
</mgrwt>
</event>
<event>
 8    1  0.9373234E-006  0.2842437E+03  0.7546771E-02  0.1093393E+00
         21   -1    0    0  504  503  0.00000000000E+00  0.00000000000E+00  0.36911025255E+02  0.36911025255E+02  0.00000000000E+00 0. -1.
         21   -1    0    0  503  504 -0.00000000000E+00 -0.00000000000E+00 -0.54722472024E+03  0.54722472024E+03  0.00000000000E+00 0. -1.
         25    2    1    2    0    0 -0.55671502260E+02  0.89240644645E+01 -0.17836939652E+03  0.22498569930E+03  0.12499587267E+03 0.  0.
         25    2    1    2    0    0  0.55671502260E+02 -0.89240644645E+01 -0.33194429847E+03  0.35915004620E+03  0.12499113291E+03 0.  0.
          5    1    3    3  501    0  0.58899946161E+01 -0.22758297733E+02 -0.14680452565E+03  0.14874908706E+03  0.47000000000E+01 0. -1.
         -5    1    3    3    0  501 -0.61561496876E+02  0.31682362198E+02 -0.31564870868E+02  0.76236612234E+02  0.47000000000E+01 0. -1.
          5    1    4    4  502    0  0.60845995969E+02 -0.57094155862E+02 -0.16081929760E+03  0.18123717704E+03  0.47000000000E+01 0.  1.
         -5    1    4    4    0  502 -0.51744937087E+01  0.48170091397E+02 -0.17112500087E+03  0.17791286916E+03  0.47000000000E+01 0.  1.
<mgrwt>
<rscale>  0 0.28424374E+03</rscale>
<asrwt>0</asrwt>
<pdfrwt beam="1">  1       21 0.56786192E-02 0.28424374E+03</pdfrwt>
<pdfrwt beam="2">  1       21 0.84188420E-01 0.28424374E+03</pdfrwt>
<totfact> 0.25879247E+05</totfact>
</mgrwt>
</event>
<event>
 8    1  0.9373234E-006  0.2778614E+03  0.7546771E-02  0.1096863E+00
         21   -1    0    0  504  503  0.00000000000E+00  0.00000000000E+00  0.16136934755E+03  0.16136934755E+03  0.00000000000E+00 0. -1.
         21   -1    0    0  503  504 -0.00000000000E+00 -0.00000000000E+00 -0.11961215241E+03  0.11961215241E+03  0.00000000000E+00 0. -1.
         25    2    1    2    0    0  0.40175146676E+02  0.43745464558E+02  0.84887664722E+01  0.13865435360E+03  0.12500105014E+03 0.  0.
         25    2    1    2    0    0 -0.40175146676E+02 -0.43745464558E+02  0.33268428667E+02  0.14232714636E+03  0.12499008026E+03 0.  0.
          5    1    3    3  501    0  0.78999548433E+02  0.17328160150E+02 -0.20107905318E+02  0.83472220786E+02  0.47000000000E+01 0. -1.
         -5    1    3    3    0  501 -0.38824401757E+02  0.26417304408E+02  0.28596671790E+02  0.55182132810E+02  0.47000000000E+01 0. -1.
          5    1    4    4  502    0  0.22726685443E+02  0.30282344809E+02  0.22953682645E+02  0.44525096129E+02  0.47000000000E+01 0.  1.
         -5    1    4    4    0  502 -0.62901832119E+02 -0.74027809366E+02  0.10314746022E+02  0.97802050229E+02  0.47000000000E+01 0.  1.
<mgrwt>
<rscale>  0 0.27786137E+03</rscale>
<asrwt>0</asrwt>
<pdfrwt beam="1">  1       21 0.24826053E-01 0.27786137E+03</pdfrwt>
<pdfrwt beam="2">  1       21 0.18401870E-01 0.27786137E+03</pdfrwt>
<totfact> 0.40645808E+05</totfact>
</mgrwt>
</event>
<event>
 8    1  0.9373234E-006  0.4232276E+03  0.7546771E-02  0.1036021E+00
         21   -1    0    0  504  503  0.00000000000E+00  0.00000000000E+00  0.82642982710E+03  0.82642982710E+03  0.00000000000E+00 0. -1.
         21   -1    0    0  503  504 -0.00000000000E+00 -0.00000000000E+00 -0.54185364802E+02  0.54185364802E+02  0.00000000000E+00 0. -1.
         25    2    1    2    0    0  0.11916033911E+03  0.49813297254E+02  0.61855486173E+03  0.64412810890E+03  0.12494139712E+03 0.  0.
         25    2    1    2    0    0 -0.11916033911E+03 -0.49813297254E+02  0.15368960057E+03  0.23648708300E+03  0.12500038440E+03 0.  0.
          5    1    3    3  501    0  0.12284983732E+03  0.57695383735E+02  0.35048537622E+03  0.37587621470E+03  0.47000000000E+01 0. -1.
         -5    1    3    3    0  501 -0.36894982059E+01 -0.78820864810E+01  0.26806948551E+03  0.26825189421E+03  0.47000000000E+01 0. -1.
          5    1    4    4  502    0  0.15281411060E+01 -0.10734108906E+02 -0.18869110996E+02  0.22264089001E+02  0.47000000000E+01 0. -1.
         -5    1    4    4    0  502 -0.12068848022E+03 -0.39079188348E+02  0.17255871157E+03  0.21422299400E+03  0.47000000000E+01 0. -1.
<mgrwt>
<rscale>  0 0.42322761E+03</rscale>
<asrwt>0</asrwt>
<pdfrwt beam="1">  1       21 0.12714304E+00 0.42322761E+03</pdfrwt>
<pdfrwt beam="2">  1       21 0.83362106E-02 0.42322761E+03</pdfrwt>
<totfact> 0.46863092E+04</totfact>
</mgrwt>
</event>
<event>
 8    1  0.9373234E-006  0.6756897E+03  0.7546771E-02  0.9759734E-01
         21   -1    0    0  504  503  0.00000000000E+00  0.00000000000E+00  0.76014749360E+02  0.76014749360E+02  0.00000000000E+00 0.  1.
         21   -1    0    0  503  504 -0.00000000000E+00 -0.00000000000E+00 -0.15015393565E+04  0.15015393565E+04  0.00000000000E+00 0.  1.
         25    2    1    2    0    0  0.18284178548E+03 -0.91119473546E+02 -0.12691028007E+04  0.12915003361E+04  0.12496928546E+03 0.  0.
         25    2    1    2    0    0 -0.18284178548E+03  0.91119473546E+02 -0.15642180645E+03  0.28605376982E+03  0.12500040286E+03 0.  0.
          5    1    3    3  501    0  0.14710349638E+03 -0.68962235066E+02 -0.11963349767E+04  0.12073254305E+04  0.47000000000E+01 0.  1.
         -5    1    3    3    0  501  0.35738289103E+02 -0.22157238481E+02 -0.72767823978E+02  0.84174905593E+02  0.47000000000E+01 0.  1.
          5    1    4    4  502    0 -0.80442533908E+02  0.10086387627E+03 -0.12161522194E+03  0.17736086098E+03  0.47000000000E+01 0.  1.
         -5    1    4    4    0  502 -0.10239925157E+03 -0.97444027260E+01 -0.34806584513E+02  0.10869290884E+03  0.47000000000E+01 0.  1.
<mgrwt>
<rscale>  0 0.67568969E+03</rscale>
<asrwt>0</asrwt>
<pdfrwt beam="1">  1       21 0.11694577E-01 0.67568969E+03</pdfrwt>
<pdfrwt beam="2">  1       21 0.23100605E+00 0.67568969E+03</pdfrwt>
<totfact> 0.41798494E+03</totfact>
</mgrwt>
</event>
<event>
 8    1  0.9373234E-006  0.3132597E+03  0.7546771E-02  0.1078794E+00
         21   -1    0    0  504  503  0.00000000000E+00  0.00000000000E+00  0.75151601864E+02  0.75151601864E+02  0.00000000000E+00 0.  1.
         21   -1    0    0  503  504 -0.00000000000E+00 -0.00000000000E+00 -0.32644570039E+03  0.32644570039E+03  0.00000000000E+00 0.  1.
         25    2    1    2    0    0 -0.11385677119E+02  0.19214471930E+02 -0.80731276970E+01  0.12723068253E+03  0.12499456632E+03 0.  0.
         25    2    1    2    0    0  0.11385677119E+02 -0.19214471930E+02 -0.24322097083E+03  0.27436661973E+03  0.12498708651E+03 0.  0.
          5    1    3    3  501    0 -0.40382954834E+02  0.45370394044E+02  0.33892399768E+02  0.69713990410E+02  0.47000000000E+01 0.  1.
         -5    1    3    3    0  501  0.28997277715E+02 -0.26155922115E+02 -0.41965527465E+02  0.57516692116E+02  0.47000000000E+01 0.  1.
          5    1    4    4  502    0 -0.46093395460E+02  0.90956546321E+01 -0.17239379739E+03  0.17874295347E+03  0.47000000000E+01 0. -1.
         -5    1    4    4    0  502  0.57479072579E+02 -0.28310126562E+02 -0.70827173440E+02  0.95623666255E+02  0.47000000000E+01 0. -1.
<mgrwt>
<rscale>  0 0.31325975E+03</rscale>
<asrwt>0</asrwt>
<pdfrwt beam="1">  1       21 0.11561785E-01 0.31325975E+03</pdfrwt>
<pdfrwt beam="2">  1       21 0.50222415E-01 0.31325975E+03</pdfrwt>
<totfact> 0.22961042E+05</totfact>
</mgrwt>
</event>
<event>
 8    1  0.9373234E-006  0.3522183E+03  0.7546771E-02  0.1061708E+00
         21   -1    0    0  504  503  0.00000000000E+00  0.00000000000E+00  0.16209815594E+03  0.16209815594E+03  0.00000000000E+00 0. -1.
         21   -1    0    0  503  504 -0.00000000000E+00 -0.00000000000E+00 -0.19133118893E+03  0.19133118893E+03  0.00000000000E+00 0. -1.
         25    2    1    2    0    0 -0.87234693099E+02 -0.36612743218E+02  0.65902512107E+02  0.17005427565E+03  0.12499972368E+03 0.  0.
         25    2    1    2    0    0  0.87234693099E+02  0.36612743218E+02 -0.95135545097E+02  0.18337506921E+03  0.12500103767E+03 0.  0.
          5    1    3    3  501    0  0.43832883789E+01  0.25895323328E+02  0.51648534832E+02  0.58132969454E+02  0.47000000000E+01 0.  1.
         -5    1    3    3    0  501 -0.91617981478E+02 -0.62508066546E+02  0.14253977275E+02  0.11192130620E+03  0.47000000000E+01 0.  1.
          5    1    4    4  502    0  0.17197039336E+02 -0.23731094529E+02  0.19888893531E+02  0.35728995163E+02  0.47000000000E+01 0.  1.
         -5    1    4    4    0  502  0.70037653763E+02  0.60343837747E+02 -0.11502443863E+03  0.14764607404E+03  0.47000000000E+01 0.  1.
<mgrwt>
<rscale>  0 0.35221830E+03</rscale>
<asrwt>0</asrwt>
<pdfrwt beam="1">  1       21 0.24938178E-01 0.35221830E+03</pdfrwt>
<pdfrwt beam="2">  1       21 0.29435568E-01 0.35221830E+03</pdfrwt>
<totfact> 0.16129987E+05</totfact>
</mgrwt>
</event>
<event>
 8    1  0.9373234E-006  0.2620366E+03  0.7546771E-02  0.1105926E+00
         21   -1    0    0  504  503  0.00000000000E+00  0.00000000000E+00  0.95170202275E+02  0.95170202275E+02  0.00000000000E+00 0. -1.
         21   -1    0    0  503  504 -0.00000000000E+00 -0.00000000000E+00 -0.18036937895E+03  0.18036937895E+03  0.00000000000E+00 0. -1.
         25    2    1    2    0    0 -0.26759168526E+02 -0.28698153768E+02 -0.41371645695E+02  0.13739081715E+03  0.12499994576E+03 0.  0.
         25    2    1    2    0    0  0.26759168526E+02  0.28698153768E+02 -0.43827530983E+02  0.13814876408E+03  0.12499836565E+03 0.  0.
          5    1    3    3  501    0 -0.98640345221E-01  0.32025419640E+02 -0.60148861284E+02  0.68305290767E+02  0.47000000000E+01 0. -1.
         -5    1    3    3    0  501 -0.26660528181E+02 -0.60723573408E+02  0.18777215588E+02  0.69085526383E+02  0.47000000000E+01 0. -1.
          5    1    4    4  502    0  0.76476370442E+02  0.86962059449E+01 -0.23101242024E+02  0.80498550402E+02  0.47000000000E+01 0.  1.
         -5    1    4    4    0  502 -0.49717201916E+02  0.20001947823E+02 -0.20726288959E+02  0.57650213677E+02  0.47000000000E+01 0.  1.
<mgrwt>
<rscale>  0 0.26203656E+03</rscale>
<asrwt>0</asrwt>
<pdfrwt beam="1">  1       21 0.14641570E-01 0.26203656E+03</pdfrwt>
<pdfrwt beam="2">  1       21 0.27749135E-01 0.26203656E+03</pdfrwt>
<totfact> 0.50147121E+05</totfact>
</mgrwt>
</event>
<event>
 8    1  0.9373234E-006  0.3158719E+03  0.7546771E-02  0.1077565E+00
         21   -1    0    0  504  503  0.00000000000E+00  0.00000000000E+00  0.71662966422E+03  0.71662966422E+03  0.00000000000E+00 0. -1.
         21   -1    0    0  503  504 -0.00000000000E+00 -0.00000000000E+00 -0.34807044336E+02  0.34807044336E+02  0.00000000000E+00 0. -1.
         25    2    1    2    0    0 -0.39694204461E+02 -0.70773905739E+02  0.21650919711E+03  0.26284103782E+03  0.12499841251E+03 0.  0.
         25    2    1    2    0    0  0.39694204461E+02  0.70773905739E+02  0.46531342278E+03  0.48859567074E+03  0.12499828976E+03 0.  0.
          5    1    3    3  501    0 -0.37468575152E+02  0.27816515080E+02  0.97630752567E+02  0.10831207911E+03  0.47000000000E+01 0. -1.
         -5    1    3    3    0  501 -0.22256293089E+01 -0.98590420819E+02  0.11887844454E+03  0.15452895871E+03  0.47000000000E+01 0. -1.
          5    1    4    4  502    0  0.85214910053E+02  0.46927421087E+02  0.29955431846E+03  0.31498991008E+03  0.47000000000E+01 0.  1.
         -5    1    4    4    0  502 -0.45520705592E+02  0.23846484653E+02  0.16575910432E+03  0.17360576066E+03  0.47000000000E+01 0.  1.
<mgrwt>
<rscale>  0 0.31587188E+03</rscale>
<asrwt>0</asrwt>
<pdfrwt beam="1">  1       21 0.11025071E+00 0.31587188E+03</pdfrwt>
<pdfrwt beam="2">  1       21 0.53549304E-02 0.31587188E+03</pdfrwt>
<totfact> 0.14941024E+05</totfact>
</mgrwt>
</event>
<event>
 8    1  0.9373234E-006  0.3050581E+03  0.7546771E-02  0.1082739E+00
         21   -1    0    0  504  503  0.00000000000E+00  0.00000000000E+00  0.10011766051E+03  0.10011766051E+03  0.00000000000E+00 0. -1.
         21   -1    0    0  503  504 -0.00000000000E+00 -0.00000000000E+00 -0.23237772315E+03  0.23237772315E+03  0.00000000000E+00 0. -1.
         25    2    1    2    0    0 -0.48984881137E+01 -0.85875571753E+02 -0.49181047801E+02  0.15950705599E+03  0.12500046575E+03 0.  0.
         25    2    1    2    0    0  0.48984881137E+01  0.85875571753E+02 -0.83079014843E+02  0.17298832767E+03  0.12499691913E+03 0.  0.
          5    1    3    3  501    0 -0.59640872163E+02 -0.35615438309E+02 -0.48832215213E+02  0.85042156140E+02  0.47000000000E+01 0.  1.
         -5    1    3    3    0  501  0.54742384049E+02 -0.50260133444E+02 -0.34883258838E+00  0.74464899848E+02  0.47000000000E+01 0.  1.
          5    1    4    4  502    0 -0.23709041598E+02  0.11024818490E+03 -0.53354592827E+02  0.12484223445E+03  0.47000000000E+01 0.  1.
         -5    1    4    4    0  502  0.28607529711E+02 -0.24372613148E+02 -0.29724422016E+02  0.48146093217E+02  0.47000000000E+01 0.  1.
<mgrwt>
<rscale>  0 0.30505812E+03</rscale>
<asrwt>0</asrwt>
<pdfrwt beam="1">  1       21 0.15402717E-01 0.30505812E+03</pdfrwt>
<pdfrwt beam="2">  1       21 0.35750418E-01 0.30505812E+03</pdfrwt>
<totfact> 0.27457843E+05</totfact>
</mgrwt>
</event>
<event>
 8    1  0.9373234E-006  0.3553087E+03  0.7546771E-02  0.1060457E+00
         21   -1    0    0  504  503  0.00000000000E+00  0.00000000000E+00  0.77702893830E+03  0.77702893830E+03  0.00000000000E+00 0.  1.
         21   -1    0    0  503  504 -0.00000000000E+00 -0.00000000000E+00 -0.40617612533E+02  0.40617612533E+02  0.00000000000E+00 0.  1.
         25    2    1    2    0    0 -0.40368286395E+01 -0.12616247519E+03  0.36484892474E+03  0.40579607355E+03  0.12498979675E+03 0.  0.
         25    2    1    2    0    0  0.40368286395E+01  0.12616247519E+03  0.37156240103E+03  0.41185047729E+03  0.12501572561E+03 0.  0.
          5    1    3    3  501    0  0.35482822387E+02 -0.97435920303E+01  0.25993071507E+02  0.45295673486E+02  0.47000000000E+01 0.  1.
         -5    1    3    3    0  501 -0.39519651027E+02 -0.11641888316E+03  0.33885585324E+03  0.36050040007E+03  0.47000000000E+01 0.  1.
          5    1    4    4  502    0  0.14110053848E+02  0.11022720173E+03  0.37584279498E+03  0.39195538797E+03  0.47000000000E+01 0. -1.
         -5    1    4    4    0  502 -0.10073225209E+02  0.15935273462E+02 -0.42803939534E+01  0.19895089314E+02  0.47000000000E+01 0. -1.
<mgrwt>
<rscale>  0 0.35530866E+03</rscale>
<asrwt>0</asrwt>
<pdfrwt beam="1">  1       21 0.11954290E+00 0.35530866E+03</pdfrwt>
<pdfrwt beam="2">  1       21 0.62488640E-02 0.35530866E+03</pdfrwt>
<totfact> 0.92625078E+04</totfact>
</mgrwt>
</event>
<event>
 8    1  0.9373234E-006  0.2808039E+03  0.7546771E-02  0.1095251E+00
         21   -1    0    0  504  503  0.00000000000E+00  0.00000000000E+00  0.45987873023E+02  0.45987873023E+02  0.00000000000E+00 0. -1.
         21   -1    0    0  503  504 -0.00000000000E+00 -0.00000000000E+00 -0.42865009586E+03  0.42865009586E+03  0.00000000000E+00 0. -1.
         25    2    1    2    0    0  0.12839618309E+02  0.56642835466E+02 -0.14613202797E+03  0.20087713110E+03  0.12499514228E+03 0.  0.
         25    2    1    2    0    0 -0.12839618309E+02 -0.56642835466E+02 -0.23653019486E+03  0.27376083778E+03  0.12500078643E+03 0.  0.
          5    1    3    3  501    0 -0.31670235578E+02  0.46245470625E+02 -0.14431863007E+03  0.15489223466E+03  0.47000000000E+01 0. -1.
         -5    1    3    3    0  501  0.44509853887E+02  0.10397364841E+02 -0.18133979033E+01  0.45984896440E+02  0.47000000000E+01 0. -1.
          5    1    4    4  502    0 -0.31345643410E+02  0.27038997912E+02 -0.13248233201E+03  0.13887877830E+03  0.47000000000E+01 0.  1.
         -5    1    4    4    0  502  0.18506025101E+02 -0.83681833378E+02 -0.10404786286E+03  0.13488205947E+03  0.47000000000E+01 0.  1.
<mgrwt>
<rscale>  0 0.28080389E+03</rscale>
<asrwt>0</asrwt>
<pdfrwt beam="1">  1       21 0.70750569E-02 0.28080389E+03</pdfrwt>
<pdfrwt beam="2">  1       21 0.65946173E-01 0.28080389E+03</pdfrwt>
<totfact> 0.30685366E+05</totfact>
</mgrwt>
</event>
<event>
 8    1  0.9373234E-006  0.2730975E+03  0.7546771E-02  0.1099520E+00
         21   -1    0    0  504  503  0.00000000000E+00  0.00000000000E+00  0.33113440731E+02  0.33113440731E+02  0.00000000000E+00 0.  1.
         21   -1    0    0  503  504 -0.00000000000E+00 -0.00000000000E+00 -0.56308139287E+03  0.56308139287E+03  0.00000000000E+00 0.  1.
         25    2    1    2    0    0  0.33857338418E+02  0.10619805604E+01 -0.35946467250E+03  0.38208101683E+03  0.12499442181E+03 0.  0.
         25    2    1    2    0    0 -0.33857338418E+02 -0.10619805604E+01 -0.17050327964E+03  0.21411381676E+03  0.12500364392E+03 0.  0.
          5    1    3    3  501    0  0.34718909585E+02 -0.23435895876E+02 -0.35403794043E+03  0.35653835300E+03  0.47000000000E+01 0. -1.
         -5    1    3    3    0  501 -0.86157116688E+00  0.24497876436E+02 -0.54267320681E+01  0.25542663833E+02  0.47000000000E+01 0. -1.
          5    1    4    4  502    0 -0.41416750856E+02 -0.40747988118E+02 -0.16253104718E+03  0.17266782296E+03  0.47000000000E+01 0.  1.
         -5    1    4    4    0  502  0.75594124377E+01  0.39686007558E+02 -0.79722324606E+01  0.41445993808E+02  0.47000000000E+01 0.  1.
<mgrwt>
<rscale>  0 0.27309751E+03</rscale>
<asrwt>0</asrwt>
<pdfrwt beam="1">  1       21 0.50943755E-02 0.27309751E+03</pdfrwt>
<pdfrwt beam="2">  1       21 0.86627906E-01 0.27309751E+03</pdfrwt>
<totfact> 0.29259184E+05</totfact>
</mgrwt>
</event>
<event>
 8    1  0.9373234E-006  0.3342121E+03  0.7546771E-02  0.1069288E+00
         21   -1    0    0  504  503  0.00000000000E+00  0.00000000000E+00  0.41661861788E+03  0.41661861788E+03  0.00000000000E+00 0. -1.
         21   -1    0    0  503  504 -0.00000000000E+00 -0.00000000000E+00 -0.67026384571E+02  0.67026384571E+02  0.00000000000E+00 0. -1.
         25    2    1    2    0    0  0.83823695728E+02  0.65073924613E+02  0.22141882013E+03  0.27552454648E+03  0.12500581657E+03 0.  0.
         25    2    1    2    0    0 -0.83823695728E+02 -0.65073924613E+02  0.12817341318E+03  0.20812045597E+03  0.12499869086E+03 0.  0.
          5    1    3    3  501    0  0.10696340136E+03  0.17156123510E+02  0.12656047512E+03  0.16665877015E+03  0.47000000000E+01 0. -1.
         -5    1    3    3    0  501 -0.23139705629E+02  0.47917801103E+02  0.94858345004E+02  0.10886577633E+03  0.47000000000E+01 0. -1.
          5    1    4    4  502    0  0.91070528788E+00 -0.30796603214E+02 -0.17751744460E+02  0.35867458581E+02  0.47000000000E+01 0. -1.
         -5    1    4    4    0  502 -0.84734401016E+02 -0.34277321398E+02  0.14592515764E+03  0.17225299739E+03  0.47000000000E+01 0. -1.
<mgrwt>
<rscale>  0 0.33421215E+03</rscale>
<asrwt>0</asrwt>
<pdfrwt beam="1">  1       21 0.64095170E-01 0.33421215E+03</pdfrwt>
<pdfrwt beam="2">  1       21 0.10311752E-01 0.33421215E+03</pdfrwt>
<totfact> 0.16600512E+05</totfact>
</mgrwt>
</event>
<event>
 8    1  0.9373234E-006  0.2599775E+03  0.7546771E-02  0.1107157E+00
         21   -1    0    0  504  503  0.00000000000E+00  0.00000000000E+00  0.16651048447E+03  0.16651048447E+03  0.00000000000E+00 0. -1.
         21   -1    0    0  503  504 -0.00000000000E+00 -0.00000000000E+00 -0.10147754236E+03  0.10147754236E+03  0.00000000000E+00 0. -1.
         25    2    1    2    0    0  0.27056835371E+02 -0.22163704184E+02  0.25387273699E+02  0.13226499035E+03  0.12500484744E+03 0.  0.
         25    2    1    2    0    0 -0.27056835371E+02  0.22163704184E+02  0.39645668417E+02  0.13572303648E+03  0.12500264590E+03 0.  0.
          5    1    3    3  501    0  0.16992642390E+02 -0.53386071840E+02 -0.32954416773E+02  0.65168290961E+02  0.47000000000E+01 0.  1.
         -5    1    3    3    0  501  0.10064192981E+02  0.31222367656E+02  0.58341690472E+02  0.67096699394E+02  0.47000000000E+01 0.  1.
          5    1    4    4  502    0 -0.26612971440E+02  0.52997036637E+02 -0.24545356643E+02  0.64354492259E+02  0.47000000000E+01 0. -1.
         -5    1    4    4    0  502 -0.44386393093E+00 -0.30833332453E+02  0.64191025060E+02  0.71368544216E+02  0.47000000000E+01 0. -1.
<mgrwt>
<rscale>  0 0.25997750E+03</rscale>
<asrwt>0</asrwt>
<pdfrwt beam="1">  1       21 0.25616998E-01 0.25997750E+03</pdfrwt>
<pdfrwt beam="2">  1       21 0.15611930E-01 0.25997750E+03</pdfrwt>
<totfact> 0.52058982E+05</totfact>
</mgrwt>
</event>
<event>
 8    1  0.9373234E-006  0.3112635E+03  0.7546771E-02  0.1079742E+00
         21   -1    0    0  504  503  0.00000000000E+00  0.00000000000E+00  0.12941014320E+03  0.12941014320E+03  0.00000000000E+00 0.  1.
         21   -1    0    0  503  504 -0.00000000000E+00 -0.00000000000E+00 -0.18716646844E+03  0.18716646844E+03  0.00000000000E+00 0.  1.
         25    2    1    2    0    0  0.48671197639E+01 -0.16174594798E+02 -0.12160057790E+03  0.17520514964E+03  0.12499935017E+03 0.  0.
         25    2    1    2    0    0 -0.48671197639E+01  0.16174594798E+02  0.63844252661E+02  0.14137146201E+03  0.12499798118E+03 0.  0.
          5    1    3    3  501    0  0.18269535104E+02  0.45060567593E+02 -0.95247569529E+02  0.10704401042E+03  0.47000000000E+01 0.  1.
         -5    1    3    3    0  501 -0.13402415340E+02 -0.61235162391E+02 -0.26353008367E+02  0.68161139222E+02  0.47000000000E+01 0.  1.
          5    1    4    4  502    0 -0.63445935619E+02  0.17877440899E+02  0.23805801912E+02  0.70240984078E+02  0.47000000000E+01 0.  1.
         -5    1    4    4    0  502  0.58578815855E+02 -0.17028461011E+01  0.40038450748E+02  0.71130477927E+02  0.47000000000E+01 0.  1.
<mgrwt>
<rscale>  0 0.31126349E+03</rscale>
<asrwt>0</asrwt>
<pdfrwt beam="1">  1       21 0.19909253E-01 0.31126349E+03</pdfrwt>
<pdfrwt beam="2">  1       21 0.28794841E-01 0.31126349E+03</pdfrwt>
<totfact> 0.26117078E+05</totfact>
</mgrwt>
</event>
<event>
 8    1  0.9373234E-006  0.2668117E+03  0.7546771E-02  0.1103118E+00
         21   -1    0    0  504  503  0.00000000000E+00  0.00000000000E+00  0.68839537545E+02  0.68839537545E+02  0.00000000000E+00 0.  1.
         21   -1    0    0  503  504 -0.00000000000E+00 -0.00000000000E+00 -0.25853048173E+03  0.25853048173E+03  0.00000000000E+00 0.  1.
         25    2    1    2    0    0  0.13954937797E+02 -0.44306653230E+02 -0.99412113571E+02  0.16633213866E+03  0.12500316882E+03 0.  0.
         25    2    1    2    0    0 -0.13954937797E+02  0.44306653230E+02 -0.90278830616E+02  0.16103788062E+03  0.12500044771E+03 0.  0.
          5    1    3    3  501    0 -0.38615412364E+01  0.36723218731E+02 -0.67948752845E+02  0.77476637175E+02  0.47000000000E+01 0. -1.
         -5    1    3    3    0  501  0.17816479034E+02 -0.81029871961E+02 -0.31463360726E+02  0.88855501480E+02  0.47000000000E+01 0. -1.
          5    1    4    4  502    0 -0.31776659928E+02  0.83813345039E+02 -0.60762513578E+02  0.10839098661E+03  0.47000000000E+01 0.  1.
         -5    1    4    4    0  502  0.17821722131E+02 -0.39506691809E+02 -0.29516317037E+02  0.52646894009E+02  0.47000000000E+01 0.  1.
<mgrwt>
<rscale>  0 0.26681168E+03</rscale>
<asrwt>0</asrwt>
<pdfrwt beam="1">  1       21 0.10590698E-01 0.26681168E+03</pdfrwt>
<pdfrwt beam="2">  1       21 0.39773919E-01 0.26681168E+03</pdfrwt>
<totfact> 0.43984075E+05</totfact>
</mgrwt>
</event>
<event>
 8    1  0.9373234E-006  0.3059975E+03  0.7546771E-02  0.1082280E+00
         21   -1    0    0  504  503  0.00000000000E+00  0.00000000000E+00  0.11716695862E+04  0.11716695862E+04  0.00000000000E+00 0.  1.
         21   -1    0    0  503  504 -0.00000000000E+00 -0.00000000000E+00 -0.19978850329E+02  0.19978850329E+02  0.00000000000E+00 0.  1.
         25    2    1    2    0    0 -0.50993605717E+02  0.17580013614E+02  0.84778659254E+03  0.85864784573E+03  0.12499844718E+03 0.  0.
         25    2    1    2    0    0  0.50993605717E+02 -0.17580013614E+02  0.30390414336E+03  0.33300059082E+03  0.12498904125E+03 0.  0.
          5    1    3    3  501    0 -0.42790356492E+02  0.95456472832E+00  0.81957333508E+02  0.92579805132E+02  0.47000000000E+01 0. -1.
         -5    1    3    3    0  501 -0.82032492249E+01  0.16625448886E+02  0.76582925903E+03  0.76606804060E+03  0.47000000000E+01 0. -1.
          5    1    4    4  502    0  0.17435251747E+02 -0.55504407585E+02  0.59454821746E+02  0.83316823593E+02  0.47000000000E+01 0. -1.
         -5    1    4    4    0  502  0.33558353970E+02  0.37924393971E+02  0.24444932161E+03  0.24968376723E+03  0.47000000000E+01 0. -1.
<mgrwt>
<rscale>  0 0.30599746E+03</rscale>
<asrwt>0</asrwt>
<pdfrwt beam="1">  1       21 0.18025681E+00 0.30599746E+03</pdfrwt>
<pdfrwt beam="2">  1       21 0.30736702E-02 0.30599746E+03</pdfrwt>
<totfact> 0.10479279E+05</totfact>
</mgrwt>
</event>
<event>
 8    1  0.9373234E-006  0.3130301E+03  0.7546771E-02  0.1078903E+00
         21   -1    0    0  504  503  0.00000000000E+00  0.00000000000E+00  0.66040267887E+03  0.66040267887E+03  0.00000000000E+00 0. -1.
         21   -1    0    0  503  504 -0.00000000000E+00 -0.00000000000E+00 -0.37093969149E+02  0.37093969149E+02  0.00000000000E+00 0. -1.
         25    2    1    2    0    0  0.73834665250E+02  0.57945414461E+02  0.29453123148E+03  0.33344312534E+03  0.12500577054E+03 0.  0.
         25    2    1    2    0    0 -0.73834665250E+02 -0.57945414461E+02  0.32877747824E+03  0.36405352268E+03  0.12502443093E+03 0.  0.
          5    1    3    3  501    0 -0.74169035128E+01 -0.28581542330E+02  0.25288309208E+02  0.39159974493E+02  0.47000000000E+01 0.  1.
         -5    1    3    3    0  501  0.81251568762E+02  0.86526956791E+02  0.26924292228E+03  0.29428315085E+03  0.47000000000E+01 0.  1.
          5    1    4    4  502    0 -0.20238964392E+02 -0.89675705056E+02  0.22234637929E+03  0.24064777194E+03  0.47000000000E+01 0. -1.
         -5    1    4    4    0  502 -0.53595700858E+02  0.31730290595E+02  0.10643109895E+03  0.12340575074E+03  0.47000000000E+01 0. -1.
<mgrwt>
<rscale>  0 0.31303007E+03</rscale>
<asrwt>0</asrwt>
<pdfrwt beam="1">  1       21 0.10160040E+00 0.31303007E+03</pdfrwt>
<pdfrwt beam="2">  1       21 0.57067649E-02 0.31303007E+03</pdfrwt>
<totfact> 0.16356069E+05</totfact>
</mgrwt>
</event>
<event>
 8    1  0.9373234E-006  0.2569652E+03  0.7546771E-02  0.1108980E+00
         21   -1    0    0  504  503  0.00000000000E+00  0.00000000000E+00  0.20678906820E+02  0.20678906820E+02  0.00000000000E+00 0.  1.
         21   -1    0    0  503  504 -0.00000000000E+00 -0.00000000000E+00 -0.79829076121E+03  0.79829076121E+03  0.00000000000E+00 0.  1.
         25    2    1    2    0    0 -0.10603358673E+02  0.23432042633E+02 -0.34152848125E+03  0.36459287250E+03  0.12499906932E+03 0.  0.
         25    2    1    2    0    0  0.10603358673E+02 -0.23432042633E+02 -0.43608337313E+03  0.45437679553E+03  0.12501228801E+03 0.  0.
          5    1    3    3  501    0 -0.64063597716E+02  0.31173776044E+02 -0.22520749302E+03  0.23625506085E+03  0.47000000000E+01 0.  1.
         -5    1    3    3    0  501  0.53460239043E+02 -0.77417334112E+01 -0.11632098824E+03  0.12833781165E+03  0.47000000000E+01 0.  1.
          5    1    4    4  502    0  0.37230911202E+02 -0.56891163336E+02 -0.14603272853E+03  0.16115332145E+03  0.47000000000E+01 0. -1.
         -5    1    4    4    0  502 -0.26627552529E+02  0.33459120703E+02 -0.29005064461E+03  0.29322347407E+03  0.47000000000E+01 0. -1.
<mgrwt>
<rscale>  0 0.25696521E+03</rscale>
<asrwt>0</asrwt>
<pdfrwt beam="1">  1       21 0.31813699E-02 0.25696521E+03</pdfrwt>
<pdfrwt beam="2">  1       21 0.12281398E+00 0.25696521E+03</pdfrwt>
<totfact> 0.28050630E+05</totfact>
</mgrwt>
</event>
<event>
 8    1  0.9373234E-006  0.2597366E+03  0.7546771E-02  0.1107302E+00
         21   -1    0    0  504  503  0.00000000000E+00  0.00000000000E+00  0.16444067171E+03  0.16444067171E+03  0.00000000000E+00 0.  1.
         21   -1    0    0  503  504 -0.00000000000E+00 -0.00000000000E+00 -0.10256448209E+03  0.10256448209E+03  0.00000000000E+00 0.  1.
         25    2    1    2    0    0  0.10656103133E+02 -0.30335889066E+02  0.15805603616E+02  0.12995763052E+03  0.12492137497E+03 0.  0.
         25    2    1    2    0    0 -0.10656103133E+02  0.30335889066E+02  0.46070586006E+02  0.13704752328E+03  0.12500282413E+03 0.  0.
          5    1    3    3  501    0 -0.43226464073E+02  0.11529829333E+02  0.37114091484E+02  0.58318178533E+02  0.47000000000E+01 0.  1.
         -5    1    3    3    0  501  0.53882567206E+02 -0.41865718399E+02 -0.21308487868E+02  0.71639451987E+02  0.47000000000E+01 0.  1.
          5    1    4    4  502    0  0.31552494136E+02 -0.37366554723E+02  0.16375971611E+02  0.51788818719E+02  0.47000000000E+01 0.  1.
         -5    1    4    4    0  502 -0.42208597270E+02  0.67702443789E+02  0.29694614395E+02  0.85258704556E+02  0.47000000000E+01 0.  1.
<mgrwt>
<rscale>  0 0.25973658E+03</rscale>
<asrwt>0</asrwt>
<pdfrwt beam="1">  1       21 0.25298565E-01 0.25973658E+03</pdfrwt>
<pdfrwt beam="2">  1       21 0.15779151E-01 0.25973658E+03</pdfrwt>
<totfact> 0.52295283E+05</totfact>
</mgrwt>
</event>
<event>
 8    1  0.9373234E-006  0.3305889E+03  0.7546771E-02  0.1070877E+00
         21   -1    0    0  504  503  0.00000000000E+00  0.00000000000E+00  0.31656737948E+02  0.31656737948E+02  0.00000000000E+00 0.  1.
         21   -1    0    0  503  504 -0.00000000000E+00 -0.00000000000E+00 -0.86307887898E+03  0.86307887898E+03  0.00000000000E+00 0.  1.
         25    2    1    2    0    0  0.17539590764E+02 -0.56308417965E+02 -0.66106430326E+03  0.67535924900E+03  0.12500330790E+03 0.  0.
         25    2    1    2    0    0 -0.17539590764E+02  0.56308417965E+02 -0.17035783778E+03  0.21937636793E+03  0.12500369090E+03 0.  0.
          5    1    3    3  501    0  0.43096531098E+02 -0.84938691811E+02 -0.53726704788E+03  0.54566460678E+03  0.47000000000E+01 0.  1.
         -5    1    3    3    0  501 -0.25556940334E+02  0.28630273847E+02 -0.12379725538E+03  0.12969464221E+03  0.47000000000E+01 0.  1.
          5    1    4    4  502    0  0.23818989858E+02  0.47444387045E+02 -0.16855501772E+03  0.17678008411E+03  0.47000000000E+01 0. -1.
         -5    1    4    4    0  502 -0.41358580622E+02  0.88640309193E+01 -0.18028200560E+01  0.42596283821E+02  0.47000000000E+01 0. -1.
<mgrwt>
<rscale>  0 0.33058894E+03</rscale>
<asrwt>0</asrwt>
<pdfrwt beam="1">  1       21 0.48702682E-02 0.33058894E+03</pdfrwt>
<pdfrwt beam="2">  1       21 0.13278134E+00 0.33058894E+03</pdfrwt>
<totfact> 0.10961633E+05</totfact>
</mgrwt>
</event>
<event>
 8    1  0.9373234E-006  0.2597278E+03  0.7546771E-02  0.1107307E+00
         21   -1    0    0  504  503  0.00000000000E+00  0.00000000000E+00  0.13161289334E+02  0.13161289334E+02  0.00000000000E+00 0.  1.
         21   -1    0    0  503  504 -0.00000000000E+00 -0.00000000000E+00 -0.12813814841E+04  0.12813814841E+04  0.00000000000E+00 0.  1.
         25    2    1    2    0    0  0.56062313326E+00 -0.10062278223E+02 -0.80254502115E+03  0.81228349447E+03  0.12499760269E+03 0.  0.
         25    2    1    2    0    0 -0.56062313326E+00  0.10062278223E+02 -0.46567517361E+03  0.48225927896E+03  0.12497632208E+03 0.  0.
          5    1    3    3  501    0  0.55532577544E+01 -0.46595148049E+02 -0.72240546853E+03  0.72394315899E+03  0.47000000000E+01 0.  1.
         -5    1    3    3    0  501 -0.49926346211E+01  0.36532869826E+02 -0.80139552624E+02  0.88340335481E+02  0.47000000000E+01 0.  1.
          5    1    4    4  502    0 -0.27562145251E+02  0.57532465778E+02 -0.32594152064E+03  0.33215903021E+03  0.47000000000E+01 0.  1.
         -5    1    4    4    0  502  0.27001522117E+02 -0.47470187554E+02 -0.13973365297E+03  0.15010024875E+03  0.47000000000E+01 0.  1.
<mgrwt>
<rscale>  0 0.25972780E+03</rscale>
<asrwt>0</asrwt>
<pdfrwt beam="1">  1       21 0.20248133E-02 0.25972780E+03</pdfrwt>
<pdfrwt beam="2">  1       21 0.19713565E+00 0.25972780E+03</pdfrwt>
<totfact> 0.16380050E+05</totfact>
</mgrwt>
</event>
<event>
 8    1  0.9373234E-006  0.2891840E+03  0.7546771E-02  0.1090776E+00
         21   -1    0    0  504  503  0.00000000000E+00  0.00000000000E+00  0.31245105076E+03  0.31245105076E+03  0.00000000000E+00 0. -1.
         21   -1    0    0  503  504 -0.00000000000E+00 -0.00000000000E+00 -0.66912377909E+02  0.66912377909E+02  0.00000000000E+00 0. -1.
         25    2    1    2    0    0 -0.39813542002E+02  0.31686779025E+02  0.19083694707E+03  0.23373723106E+03  0.12500073091E+03 0.  0.
         25    2    1    2    0    0  0.39813542002E+02 -0.31686779025E+02  0.54701725783E+02  0.14562619760E+03  0.12500216211E+03 0.  0.
          5    1    3    3  501    0 -0.60477215856E+02 -0.15537864028E+01  0.29157470693E+02  0.67321289256E+02  0.47000000000E+01 0. -1.
         -5    1    3    3    0  501  0.20663673854E+02  0.33240565428E+02  0.16167947637E+03  0.16641594181E+03  0.47000000000E+01 0. -1.
          5    1    4    4  502    0  0.28821336025E+02 -0.54882085586E+02 -0.20948254623E+02  0.65602073903E+02  0.47000000000E+01 0. -1.
         -5    1    4    4    0  502  0.10992205977E+02  0.23195306561E+02  0.75649980406E+02  0.80024123701E+02  0.47000000000E+01 0. -1.
<mgrwt>
<rscale>  0 0.28918397E+03</rscale>
<asrwt>0</asrwt>
<pdfrwt beam="1">  1       21 0.48069391E-01 0.28918397E+03</pdfrwt>
<pdfrwt beam="2">  1       21 0.10294212E-01 0.28918397E+03</pdfrwt>
<totfact> 0.31164387E+05</totfact>
</mgrwt>
</event>
<event>
 8    1  0.9373234E-006  0.2793432E+03  0.7546771E-02  0.1096048E+00
         21   -1    0    0  504  503  0.00000000000E+00  0.00000000000E+00  0.20178903106E+03  0.20178903106E+03  0.00000000000E+00 0.  1.
         21   -1    0    0  503  504 -0.00000000000E+00 -0.00000000000E+00 -0.96675968441E+02  0.96675968441E+02  0.00000000000E+00 0.  1.
         25    2    1    2    0    0  0.37073176798E+02 -0.17448717451E+02  0.24075740279E+01  0.13157619290E+03  0.12501047935E+03 0.  0.
         25    2    1    2    0    0 -0.37073176798E+02  0.17448717451E+02  0.10270548859E+03  0.16688880660E+03  0.12499831280E+03 0.  0.
          5    1    3    3  501    0  0.65573166517E+02  0.13144834094E+02  0.37473334593E+02  0.76804737067E+02  0.47000000000E+01 0.  1.
         -5    1    3    3    0  501 -0.28499989719E+02 -0.30593551544E+02 -0.35065760565E+02  0.54771455833E+02  0.47000000000E+01 0.  1.
          5    1    4    4  502    0 -0.11071273339E+02  0.48448822334E+02 -0.64935258963E+01  0.50340017456E+02  0.47000000000E+01 0.  1.
         -5    1    4    4    0  502 -0.26001903460E+02 -0.31000104883E+02  0.10919901449E+03  0.11654878915E+03  0.47000000000E+01 0.  1.
<mgrwt>
<rscale>  0 0.27934316E+03</rscale>
<asrwt>0</asrwt>
<pdfrwt beam="1">  1       21 0.31044466E-01 0.27934316E+03</pdfrwt>
<pdfrwt beam="2">  1       21 0.14873226E-01 0.27934316E+03</pdfrwt>
<totfact> 0.38985388E+05</totfact>
</mgrwt>
</event>
<event>
 8    1  0.9373234E-006  0.3332247E+03  0.7546771E-02  0.1069719E+00
         21   -1    0    0  504  503  0.00000000000E+00  0.00000000000E+00  0.73958482342E+02  0.73958482342E+02  0.00000000000E+00 0. -1.
         21   -1    0    0  503  504 -0.00000000000E+00 -0.00000000000E+00 -0.37534140053E+03  0.37534140053E+03  0.00000000000E+00 0. -1.
         25    2    1    2    0    0  0.23468545280E+02 -0.12314862342E+01 -0.55830771842E+01  0.12731302627E+03  0.12500058693E+03 0.  0.
         25    2    1    2    0    0 -0.23468545280E+02  0.12314862342E+01 -0.29579984100E+03  0.32198685660E+03  0.12500280280E+03 0.  0.
          5    1    3    3  501    0  0.27052408851E+02  0.51623877338E+02 -0.33352275690E+02  0.67315093625E+02  0.47000000000E+01 0.  1.
         -5    1    3    3    0  501 -0.35838635712E+01 -0.52855363572E+02  0.27769198506E+02  0.59997932649E+02  0.47000000000E+01 0.  1.
          5    1    4    4  502    0  0.41233040767E+02 -0.10914003624E+02 -0.20669007355E+03  0.21109750266E+03  0.47000000000E+01 0. -1.
         -5    1    4    4    0  502 -0.64701586047E+02  0.12145489858E+02 -0.89109767456E+02  0.11088935394E+03  0.47000000000E+01 0. -1.
<mgrwt>
<rscale>  0 0.33322473E+03</rscale>
<asrwt>0</asrwt>
<pdfrwt beam="1">  1       21 0.11378228E-01 0.33322473E+03</pdfrwt>
<pdfrwt beam="2">  1       21 0.57744830E-01 0.33322473E+03</pdfrwt>
<totfact> 0.17467650E+05</totfact>
</mgrwt>
</event>
<event>
 8    1  0.9373234E-006  0.3249321E+03  0.7546771E-02  0.1073402E+00
         21   -1    0    0  504  503  0.00000000000E+00  0.00000000000E+00  0.12480516076E+03  0.12480516076E+03  0.00000000000E+00 0.  1.
         21   -1    0    0  503  504 -0.00000000000E+00 -0.00000000000E+00 -0.21149134863E+03  0.21149134863E+03  0.00000000000E+00 0.  1.
         25    2    1    2    0    0 -0.94120830986E+02  0.25034387007E+02 -0.62612837964E+01  0.15858357733E+03  0.12499638380E+03 0.  0.
         25    2    1    2    0    0  0.94120830986E+02 -0.25034387007E+02 -0.80424904075E+02  0.17771293206E+03  0.12501307799E+03 0.  0.
          5    1    3    3  501    0 -0.66156701092E+02  0.26993850378E+02 -0.62837776239E+02  0.95268322019E+02  0.47000000000E+01 0. -1.
         -5    1    3    3    0  501 -0.27964129894E+02 -0.19594633710E+01  0.56576492442E+02  0.63315255306E+02  0.47000000000E+01 0. -1.
          5    1    4    4  502    0  0.33923372070E+02  0.46950725533E+02 -0.71299925928E+01  0.58549915414E+02  0.47000000000E+01 0.  1.
         -5    1    4    4    0  502  0.60197458916E+02 -0.71985112540E+02 -0.73294911482E+02  0.11916301665E+03  0.47000000000E+01 0.  1.
<mgrwt>
<rscale>  0 0.32493207E+03</rscale>
<asrwt>0</asrwt>
<pdfrwt beam="1">  1       21 0.19200794E-01 0.32493207E+03</pdfrwt>
<pdfrwt beam="2">  1       21 0.32537130E-01 0.32493207E+03</pdfrwt>
<totfact> 0.21904333E+05</totfact>
</mgrwt>
</event>
<event>
 8    1  0.9373234E-006  0.2740186E+03  0.7546771E-02  0.1099001E+00
         21   -1    0    0  504  503  0.00000000000E+00  0.00000000000E+00  0.27485889847E+02  0.27485889847E+02  0.00000000000E+00 0.  1.
         21   -1    0    0  503  504 -0.00000000000E+00 -0.00000000000E+00 -0.68295202165E+03  0.68295202165E+03  0.00000000000E+00 0.  1.
         25    2    1    2    0    0  0.21113985702E+02 -0.43522710835E+02 -0.40135518827E+03  0.42314476390E+03  0.12500190925E+03 0.  0.
         25    2    1    2    0    0 -0.21113985702E+02  0.43522710835E+02 -0.25411094353E+03  0.28729314759E+03  0.12499981712E+03 0.  0.
          5    1    3    3  501    0 -0.37373283899E+02 -0.47350165338E+01 -0.28247694740E+03  0.28501666362E+03  0.47000000000E+01 0.  1.
         -5    1    3    3    0  501  0.58487269601E+02 -0.38787694302E+02 -0.11887824087E+03  0.13812810028E+03  0.47000000000E+01 0.  1.
          5    1    4    4  502    0  0.13800085228E+02 -0.15645679565E+02 -0.19607222590E+03  0.19723498019E+03  0.47000000000E+01 0. -1.
         -5    1    4    4    0  502 -0.34914070930E+02  0.59168390401E+02 -0.58038717631E+02  0.90058167401E+02  0.47000000000E+01 0. -1.
<mgrwt>
<rscale>  0 0.27401857E+03</rscale>
<asrwt>0</asrwt>
<pdfrwt beam="1">  1       21 0.42285988E-02 0.27401857E+03</pdfrwt>
<pdfrwt beam="2">  1       21 0.10506953E+00 0.27401857E+03</pdfrwt>
<totfact> 0.25419521E+05</totfact>
</mgrwt>
</event>
<event>
 8    1  0.9373234E-006  0.2789098E+03  0.7546771E-02  0.1096286E+00
         21   -1    0    0  504  503  0.00000000000E+00  0.00000000000E+00  0.33355908425E+02  0.33355908425E+02  0.00000000000E+00 0.  1.
         21   -1    0    0  503  504 -0.00000000000E+00 -0.00000000000E+00 -0.58303542046E+03  0.58303542046E+03  0.00000000000E+00 0.  1.
         25    2    1    2    0    0  0.21092539774E+01  0.25796105827E+02 -0.15075914585E+03  0.19754253323E+03  0.12499937739E+03 0.  0.
         25    2    1    2    0    0 -0.21092539774E+01 -0.25796105827E+02 -0.39892036618E+03  0.41884879565E+03  0.12500786791E+03 0.  0.
          5    1    3    3  501    0  0.28693313816E+02  0.35524795072E+02 -0.19032542428E+01  0.45945943231E+02  0.47000000000E+01 0.  1.
         -5    1    3    3    0  501 -0.26584059838E+02 -0.97286892459E+01 -0.14885589161E+03  0.15159659000E+03  0.47000000000E+01 0.  1.
          5    1    4    4  502    0  0.51937849590E+02 -0.33460216967E+02 -0.12513720051E+03  0.13963715584E+03  0.47000000000E+01 0. -1.
         -5    1    4    4    0  502 -0.54047103567E+02  0.76641111406E+01 -0.27378316567E+03  0.27921163981E+03  0.47000000000E+01 0. -1.
<mgrwt>
<rscale>  0 0.27890985E+03</rscale>
<asrwt>0</asrwt>
<pdfrwt beam="1">  1       21 0.51316788E-02 0.27890985E+03</pdfrwt>
<pdfrwt beam="2">  1       21 0.89697748E-01 0.27890985E+03</pdfrwt>
<totfact> 0.26609699E+05</totfact>
</mgrwt>
</event>
<event>
 8    1  0.9373234E-006  0.3314457E+03  0.7546771E-02  0.1070499E+00
         21   -1    0    0  504  503  0.00000000000E+00  0.00000000000E+00  0.15852295073E+03  0.15852295073E+03  0.00000000000E+00 0.  1.
         21   -1    0    0  503  504 -0.00000000000E+00 -0.00000000000E+00 -0.17324971807E+03  0.17324971807E+03  0.00000000000E+00 0.  1.
         25    2    1    2    0    0 -0.45699695095E+02 -0.98312855027E+02  0.18422725629E+01  0.16548129863E+03  0.12500714632E+03 0.  0.
         25    2    1    2    0    0  0.45699695095E+02  0.98312855027E+02 -0.16569039900E+02  0.16629137017E+03  0.12499762843E+03 0.  0.
          5    1    3    3  501    0 -0.52517256540E+02 -0.76701240525E+01  0.40162565620E+02  0.66723419536E+02  0.47000000000E+01 0. -1.
         -5    1    3    3    0  501  0.68175614443E+01 -0.90642730975E+02 -0.38320293057E+02  0.98757879091E+02  0.47000000000E+01 0. -1.
          5    1    4    4  502    0  0.84106501015E+02  0.94478259859E+02 -0.13056545225E+02  0.12725018064E+03  0.47000000000E+01 0.  1.
         -5    1    4    4    0  502 -0.38406805920E+02  0.38345951680E+01 -0.35124946744E+01  0.39041189530E+02  0.47000000000E+01 0.  1.
<mgrwt>
<rscale>  0 0.33144566E+03</rscale>
<asrwt>0</asrwt>
<pdfrwt beam="1">  1       21 0.24388146E-01 0.33144566E+03</pdfrwt>
<pdfrwt beam="2">  1       21 0.26653803E-01 0.33144566E+03</pdfrwt>
<totfact> 0.20542761E+05</totfact>
</mgrwt>
</event>
<event>
 8    1  0.9373234E-006  0.3236060E+03  0.7546771E-02  0.1074002E+00
         21   -1    0    0  504  503  0.00000000000E+00  0.00000000000E+00  0.53233107552E+03  0.53233107552E+03  0.00000000000E+00 0.  1.
         21   -1    0    0  503  504 -0.00000000000E+00 -0.00000000000E+00 -0.49180314574E+02  0.49180314574E+02  0.00000000000E+00 0.  1.
         25    2    1    2    0    0 -0.39214209241E+02 -0.89061119816E+02  0.30077406824E+03  0.33994043124E+03  0.12499927758E+03 0.  0.
         25    2    1    2    0    0  0.39214209241E+02  0.89061119816E+02  0.18237669270E+03  0.24157095885E+03  0.12500253138E+03 0.  0.
          5    1    3    3  501    0 -0.53831995101E+01 -0.13556949651E+02 -0.10005210678E+02  0.18302020695E+02  0.47000000000E+01 0.  1.
         -5    1    3    3    0  501 -0.33831009731E+02 -0.75504170165E+02  0.31077927892E+03  0.32163841054E+03  0.47000000000E+01 0.  1.
          5    1    4    4  502    0  0.64467257806E+01 -0.11873257724E+02 -0.12906720194E+02  0.19266757601E+02  0.47000000000E+01 0. -1.
         -5    1    4    4    0  502  0.32767483461E+02  0.10093437754E+03  0.19528341289E+03  0.22230420125E+03  0.47000000000E+01 0. -1.
<mgrwt>
<rscale>  0 0.32360599E+03</rscale>
<asrwt>0</asrwt>
<pdfrwt beam="1">  1       21 0.81897085E-01 0.32360599E+03</pdfrwt>
<pdfrwt beam="2">  1       21 0.75662026E-02 0.32360599E+03</pdfrwt>
<totfact> 0.16596420E+05</totfact>
</mgrwt>
</event>
<event>
 8    1  0.9373234E-006  0.2972685E+03  0.7546771E-02  0.1086614E+00
         21   -1    0    0  504  503  0.00000000000E+00  0.00000000000E+00  0.33621306442E+03  0.33621306442E+03  0.00000000000E+00 0. -1.
         21   -1    0    0  503  504 -0.00000000000E+00 -0.00000000000E+00 -0.65708748526E+02  0.65708748526E+02  0.00000000000E+00 0. -1.
         25    2    1    2    0    0  0.50971431977E+02  0.59621311220E+02  0.15926264092E+03  0.21712016558E+03  0.12499515943E+03 0.  0.
         25    2    1    2    0    0 -0.50971431977E+02 -0.59621311220E+02  0.11124167497E+03  0.18480164736E+03  0.12499660390E+03 0.  0.
          5    1    3    3  501    0 -0.31743053314E+00  0.80416366224E+02  0.50720905281E+02  0.95192399651E+02  0.47000000000E+01 0.  1.
         -5    1    3    3    0  501  0.51288862510E+02 -0.20795055004E+02  0.10854173564E+03  0.12192776593E+03  0.47000000000E+01 0.  1.
          5    1    4    4  502    0 -0.50566170069E+02 -0.94606395852E+02  0.10247691156E+03  0.14842814792E+03  0.47000000000E+01 0. -1.
         -5    1    4    4    0  502 -0.40526190847E+00  0.34985084632E+02  0.87647634109E+01  0.36373499441E+02  0.47000000000E+01 0. -1.
<mgrwt>
<rscale>  0 0.29726850E+03</rscale>
<asrwt>0</asrwt>
<pdfrwt beam="1">  1       21 0.51725086E-01 0.29726850E+03</pdfrwt>
<pdfrwt beam="2">  1       21 0.10109038E-01 0.29726850E+03</pdfrwt>
<totfact> 0.27541511E+05</totfact>
</mgrwt>
</event>
<event>
 8    1  0.9373234E-006  0.3212115E+03  0.7546771E-02  0.1075093E+00
         21   -1    0    0  504  503  0.00000000000E+00  0.00000000000E+00  0.52697901008E+03  0.52697901008E+03  0.00000000000E+00 0.  1.
         21   -1    0    0  503  504 -0.00000000000E+00 -0.00000000000E+00 -0.48947321608E+02  0.48947321608E+02  0.00000000000E+00 0.  1.
         25    2    1    2    0    0  0.96600198323E+02 -0.17198689271E+02  0.28079355109E+03  0.32263985805E+03  0.12499626572E+03 0.  0.
         25    2    1    2    0    0 -0.96600198323E+02  0.17198689271E+02  0.19723813738E+03  0.25328647364E+03  0.12499504654E+03 0.  0.
          5    1    3    3  501    0 -0.91521445360E+01 -0.47541541067E+02  0.79768497369E+02  0.93429454934E+02  0.47000000000E+01 0.  1.
         -5    1    3    3    0  501  0.10575234286E+03  0.30342851796E+02  0.20102505372E+03  0.22921040312E+03  0.47000000000E+01 0.  1.
          5    1    4    4  502    0  0.21331718529E+02 -0.11498239025E+02  0.39456159425E+01  0.24998191960E+02  0.47000000000E+01 0.  1.
         -5    1    4    4    0  502 -0.11793191685E+03  0.28696928296E+02  0.19329252144E+03  0.22828828168E+03  0.47000000000E+01 0.  1.
<mgrwt>
<rscale>  0 0.32121153E+03</rscale>
<asrwt>0</asrwt>
<pdfrwt beam="1">  1       21 0.81073690E-01 0.32121153E+03</pdfrwt>
<pdfrwt beam="2">  1       21 0.75303576E-02 0.32121153E+03</pdfrwt>
<totfact> 0.17138255E+05</totfact>
</mgrwt>
</event>
<event>
 8    1  0.9373234E-006  0.4608971E+03  0.7546771E-02  0.1024521E+00
         21   -1    0    0  504  503  0.00000000000E+00  0.00000000000E+00  0.71929924170E+02  0.71929924170E+02  0.00000000000E+00 0. -1.
         21   -1    0    0  503  504 -0.00000000000E+00 -0.00000000000E+00 -0.73830943672E+03  0.73830943672E+03  0.00000000000E+00 0. -1.
         25    2    1    2    0    0 -0.16740272865E+03 -0.87625598954E+02 -0.25904905369E+03  0.34414260912E+03  0.12500321612E+03 0.  0.
         25    2    1    2    0    0  0.16740272865E+03  0.87625598954E+02 -0.40733045886E+03  0.46609675177E+03  0.12500464050E+03 0.  0.
          5    1    3    3  501    0 -0.11917190423E+03 -0.11713027024E+03 -0.16896814303E+03  0.23768417349E+03  0.47000000000E+01 0.  1.
         -5    1    3    3    0  501 -0.48230824417E+02  0.29504671290E+02 -0.90080910660E+02  0.10645843563E+03  0.47000000000E+01 0.  1.
          5    1    4    4  502    0  0.25471036160E+02  0.78198514809E+02 -0.12149054564E+03  0.14678495864E+03  0.47000000000E+01 0.  1.
         -5    1    4    4    0  502  0.14193169249E+03  0.94270841449E+01 -0.28583991321E+03  0.31931179313E+03  0.47000000000E+01 0.  1.
<mgrwt>
<rscale>  0 0.46089713E+03</rscale>
<asrwt>0</asrwt>
<pdfrwt beam="1">  1       21 0.11066141E-01 0.46089713E+03</pdfrwt>
<pdfrwt beam="2">  1       21 0.11358607E+00 0.46089713E+03</pdfrwt>
<totfact> 0.37190793E+04</totfact>
</mgrwt>
</event>
<event>
 8    1  0.9373234E-006  0.3335486E+03  0.7546771E-02  0.1069577E+00
         21   -1    0    0  504  503  0.00000000000E+00  0.00000000000E+00  0.35387461133E+03  0.35387461133E+03  0.00000000000E+00 0. -1.
         21   -1    0    0  503  504 -0.00000000000E+00 -0.00000000000E+00 -0.78597522340E+02  0.78597522340E+02  0.00000000000E+00 0. -1.
         25    2    1    2    0    0 -0.73582210236E+02 -0.12934249474E+02  0.32251626725E+02  0.14915557599E+03  0.12500232778E+03 0.  0.
         25    2    1    2    0    0  0.73582210236E+02  0.12934249474E+02  0.24302546226E+03  0.28331655768E+03  0.12500104029E+03 0.  0.
          5    1    3    3  501    0 -0.10716691131E+03 -0.60441133129E+00  0.12439570779E+02  0.10799048622E+03  0.47000000000E+01 0.  1.
         -5    1    3    3    0  501  0.33584701075E+02 -0.12329838142E+02  0.19812055947E+02  0.41165089770E+02  0.47000000000E+01 0.  1.
          5    1    4    4  502    0  0.53495988197E+02 -0.35738492845E+02  0.21292913809E+03  0.22248588376E+03  0.47000000000E+01 0.  1.
         -5    1    4    4    0  502  0.20086222038E+02  0.48672742319E+02  0.30096324169E+02  0.60830673916E+02  0.47000000000E+01 0.  1.
<mgrwt>
<rscale>  0 0.33354860E+03</rscale>
<asrwt>0</asrwt>
<pdfrwt beam="1">  1       21 0.54442247E-01 0.33354860E+03</pdfrwt>
<pdfrwt beam="2">  1       21 0.12091927E-01 0.33354860E+03</pdfrwt>
<totfact> 0.17760315E+05</totfact>
</mgrwt>
</event>
<event>
 8    1  0.9373234E-006  0.2807528E+03  0.7546771E-02  0.1095278E+00
         21   -1    0    0  504  503  0.00000000000E+00  0.00000000000E+00  0.16546416493E+03  0.16546416493E+03  0.00000000000E+00 0. -1.
         21   -1    0    0  503  504 -0.00000000000E+00 -0.00000000000E+00 -0.11909246517E+03  0.11909246517E+03  0.00000000000E+00 0. -1.
         25    2    1    2    0    0  0.15872162642E+02 -0.28179481628E+02  0.79020257284E+02  0.15138008356E+03  0.12500287959E+03 0.  0.
         25    2    1    2    0    0 -0.15872162642E+02  0.28179481628E+02 -0.32648557525E+02  0.13317654653E+03  0.12499622197E+03 0.  0.
          5    1    3    3  501    0 -0.42712452058E+02 -0.14140104148E+02  0.78906050042E+02  0.90953564193E+02  0.47000000000E+01 0.  1.
         -5    1    3    3    0  501  0.58584614700E+02 -0.14039377480E+02  0.11420724181E+00  0.60426519367E+02  0.47000000000E+01 0.  1.
          5    1    4    4  502    0  0.29923623902E+02 -0.29839009604E+01 -0.62906611888E+02  0.69883179318E+02  0.47000000000E+01 0. -1.
         -5    1    4    4    0  502 -0.45795786544E+02  0.31163382588E+02  0.30258054363E+02  0.63293367214E+02  0.47000000000E+01 0. -1.
<mgrwt>
<rscale>  0 0.28075281E+03</rscale>
<asrwt>0</asrwt>
<pdfrwt beam="1">  1       21 0.25456025E-01 0.28075281E+03</pdfrwt>
<pdfrwt beam="2">  1       21 0.18321918E-01 0.28075281E+03</pdfrwt>
<totfact> 0.39025855E+05</totfact>
</mgrwt>
</event>
<event>
 8    1  0.9373234E-006  0.3198810E+03  0.7546771E-02  0.1075704E+00
         21   -1    0    0  504  503  0.00000000000E+00  0.00000000000E+00  0.14843045011E+03  0.14843045011E+03  0.00000000000E+00 0.  1.
         21   -1    0    0  503  504 -0.00000000000E+00 -0.00000000000E+00 -0.17234311914E+03  0.17234311914E+03  0.00000000000E+00 0.  1.
         25    2    1    2    0    0 -0.16549715847E+01  0.32889446776E+02  0.82498761365E+02  0.15334439323E+03  0.12499601061E+03 0.  0.
         25    2    1    2    0    0  0.16549715847E+01 -0.32889446776E+02 -0.10641143040E+03  0.16742917601E+03  0.12499872727E+03 0.  0.
          5    1    3    3  501    0  0.58546354165E+02  0.10020783937E+02  0.18396189257E+02  0.62358651973E+02  0.47000000000E+01 0.  1.
         -5    1    3    3    0  501 -0.60201325749E+02  0.22868662839E+02  0.64102572108E+02  0.90985741262E+02  0.47000000000E+01 0.  1.
          5    1    4    4  502    0  0.17556725787E+02  0.42725662130E+02 -0.17698033046E+02  0.49689346932E+02  0.47000000000E+01 0. -1.
         -5    1    4    4    0  502 -0.15901754202E+02 -0.75615108906E+02 -0.88713397352E+02  0.11773982908E+03  0.47000000000E+01 0. -1.
<mgrwt>
<rscale>  0 0.31988102E+03</rscale>
<asrwt>0</asrwt>
<pdfrwt beam="1">  1       21 0.22835454E-01 0.31988102E+03</pdfrwt>
<pdfrwt beam="2">  1       21 0.26514326E-01 0.31988102E+03</pdfrwt>
<totfact> 0.23603265E+05</totfact>
</mgrwt>
</event>
<event>
 8    1  0.9373234E-006  0.3435625E+03  0.7546771E-02  0.1065289E+00
         21   -1    0    0  504  503  0.00000000000E+00  0.00000000000E+00  0.11355311360E+03  0.11355311360E+03  0.00000000000E+00 0.  1.
         21   -1    0    0  503  504 -0.00000000000E+00 -0.00000000000E+00 -0.25986786549E+03  0.25986786549E+03  0.00000000000E+00 0.  1.
         25    2    1    2    0    0  0.45932223209E+02 -0.56876131652E+02 -0.17359465556E+03  0.22606232214E+03  0.12499762226E+03 0.  0.
         25    2    1    2    0    0 -0.45932223209E+02  0.56876131652E+02  0.27279903671E+02  0.14735865694E+03  0.12500286857E+03 0.  0.
          5    1    3    3  501    0  0.18187310641E+02  0.34568944446E+02 -0.92943864180E+02  0.10092790534E+03  0.47000000000E+01 0.  1.
         -5    1    3    3    0  501  0.27744912568E+02 -0.91445076098E+02 -0.80650791381E+02  0.12513441679E+03  0.47000000000E+01 0.  1.
          5    1    4    4  502    0 -0.39781425686E+01 -0.37580549391E+02  0.21509245042E+02  0.43736265651E+02  0.47000000000E+01 0. -1.
         -5    1    4    4    0  502 -0.41954080641E+02  0.94456681042E+02  0.57706586282E+01  0.10362239129E+03  0.47000000000E+01 0. -1.
<mgrwt>
<rscale>  0 0.34356254E+03</rscale>
<asrwt>0</asrwt>
<pdfrwt beam="1">  1       21 0.17469710E-01 0.34356254E+03</pdfrwt>
<pdfrwt beam="2">  1       21 0.39979671E-01 0.34356254E+03</pdfrwt>
<totfact> 0.17189061E+05</totfact>
</mgrwt>
</event>
<event>
 8    1  0.9373234E-006  0.3496384E+03  0.7546771E-02  0.1062764E+00
         21   -1    0    0  504  503  0.00000000000E+00  0.00000000000E+00  0.80610073189E+02  0.80610073189E+02  0.00000000000E+00 0.  1.
         21   -1    0    0  503  504 -0.00000000000E+00 -0.00000000000E+00 -0.37913066915E+03  0.37913066915E+03  0.00000000000E+00 0.  1.
         25    2    1    2    0    0 -0.65721022074E+02 -0.39096254847E+02 -0.27461037218E+03  0.31126100335E+03  0.12499914323E+03 0.  0.
         25    2    1    2    0    0  0.65721022074E+02  0.39096254847E+02 -0.23910223784E+02  0.14847973900E+03  0.12500705662E+03 0.  0.
          5    1    3    3  501    0 -0.31863218634E+02 -0.83936068349E+02 -0.17748432889E+03  0.19895553592E+03  0.47000000000E+01 0.  1.
         -5    1    3    3    0  501 -0.33857803440E+02  0.44839813501E+02 -0.97126043293E+02  0.11230546743E+03  0.47000000000E+01 0.  1.
          5    1    4    4  502    0  0.12417813826E+02 -0.10028300091E+02  0.45231282282E+02  0.48194686428E+02  0.47000000000E+01 0. -1.
         -5    1    4    4    0  502  0.53303208248E+02  0.49124554939E+02 -0.69141506066E+02  0.10028505257E+03  0.47000000000E+01 0. -1.
<mgrwt>
<rscale>  0 0.34963839E+03</rscale>
<asrwt>0</asrwt>
<pdfrwt beam="1">  1       21 0.12401550E-01 0.34963839E+03</pdfrwt>
<pdfrwt beam="2">  1       21 0.58327796E-01 0.34963839E+03</pdfrwt>
<totfact> 0.14572292E+05</totfact>
</mgrwt>
</event>
<event>
 8    1  0.9373234E-006  0.3162065E+03  0.7546771E-02  0.1077409E+00
         21   -1    0    0  504  503  0.00000000000E+00  0.00000000000E+00  0.26986435011E+03  0.26986435011E+03  0.00000000000E+00 0. -1.
         21   -1    0    0  503  504 -0.00000000000E+00 -0.00000000000E+00 -0.92626654075E+02  0.92626654075E+02  0.00000000000E+00 0. -1.
         25    2    1    2    0    0  0.12284604588E+01  0.18984524614E+02  0.19742398042E+03  0.23444452308E+03  0.12500434020E+03 0.  0.
         25    2    1    2    0    0 -0.12284604588E+01 -0.18984524614E+02 -0.20186284384E+02  0.12804648111E+03  0.12500597568E+03 0.  0.
          5    1    3    3  501    0 -0.34796726602E+02  0.36680866414E+02  0.18548025979E+03  0.19230526492E+03  0.47000000000E+01 0.  1.
         -5    1    3    3    0  501  0.36025187061E+02 -0.17696341800E+02  0.11943720627E+02  0.42139258160E+02  0.47000000000E+01 0.  1.
          5    1    4    4  502    0  0.55907488269E+02 -0.31315955468E+02  0.45255576577E+01  0.64412009622E+02  0.47000000000E+01 0.  1.
         -5    1    4    4    0  502 -0.57135948728E+02  0.12331430854E+02 -0.24711842042E+02  0.63634471484E+02  0.47000000000E+01 0.  1.
<mgrwt>
<rscale>  0 0.31620646E+03</rscale>
<asrwt>0</asrwt>
<pdfrwt beam="1">  1       21 0.41517592E-01 0.31620646E+03</pdfrwt>
<pdfrwt beam="2">  1       21 0.14250255E-01 0.31620646E+03</pdfrwt>
<totfact> 0.23322637E+05</totfact>
</mgrwt>
</event>
<event>
 8    1  0.9373234E-006  0.2810583E+03  0.7546771E-02  0.1095112E+00
         21   -1    0    0  504  503  0.00000000000E+00  0.00000000000E+00  0.89935789899E+02  0.89935789899E+02  0.00000000000E+00 0.  1.
         21   -1    0    0  503  504 -0.00000000000E+00 -0.00000000000E+00 -0.21958374727E+03  0.21958374727E+03  0.00000000000E+00 0.  1.
         25    2    1    2    0    0  0.59069756119E+02 -0.36376826585E+00 -0.37102217029E+02  0.14314942874E+03  0.12500326405E+03 0.  0.
         25    2    1    2    0    0 -0.59069756119E+02  0.36376826585E+00 -0.92545740340E+02  0.16637010843E+03  0.12499972203E+03 0.  0.
          5    1    3    3  501    0  0.71340953062E+02  0.19019767559E+02 -0.70609720565E+02  0.10226976963E+03  0.47000000000E+01 0.  1.
         -5    1    3    3    0  501 -0.12271196943E+02 -0.19383535825E+02  0.33507503536E+02  0.40879659107E+02  0.47000000000E+01 0.  1.
          5    1    4    4  502    0  0.26343273167E+02 -0.29081979426E+02 -0.39018097526E+01  0.39712009365E+02  0.47000000000E+01 0. -1.
         -5    1    4    4    0  502 -0.85413029286E+02  0.29445747692E+02 -0.88643930587E+02  0.12665809907E+03  0.47000000000E+01 0. -1.
<mgrwt>
<rscale>  0 0.28105827E+03</rscale>
<asrwt>0</asrwt>
<pdfrwt beam="1">  1       21 0.13836276E-01 0.28105827E+03</pdfrwt>
<pdfrwt beam="2">  1       21 0.33782114E-01 0.28105827E+03</pdfrwt>
<totfact> 0.37617051E+05</totfact>
</mgrwt>
</event>
<event>
 8    1  0.9373234E-006  0.3479108E+03  0.7546771E-02  0.1063476E+00
         21   -1    0    0  504  503  0.00000000000E+00  0.00000000000E+00  0.22270890292E+03  0.22270890292E+03  0.00000000000E+00 0. -1.
         21   -1    0    0  503  504 -0.00000000000E+00 -0.00000000000E+00 -0.13587459592E+03  0.13587459592E+03  0.00000000000E+00 0. -1.
         25    2    1    2    0    0 -0.17076087863E+02  0.58722851304E+02  0.15099473039E+03  0.20534224947E+03  0.12500425900E+03 0.  0.
         25    2    1    2    0    0  0.17076087863E+02 -0.58722851304E+02 -0.64160423388E+02  0.15324124937E+03  0.12500541803E+03 0.  0.
          5    1    3    3  501    0  0.52299024928E+02  0.22225846739E+02  0.41170811633E+02  0.70329950961E+02  0.47000000000E+01 0. -1.
         -5    1    3    3    0  501 -0.69375112791E+02  0.36497004564E+02  0.10982391876E+03  0.13501229851E+03  0.47000000000E+01 0. -1.
          5    1    4    4  502    0  0.21998335598E+01 -0.93857333442E+02 -0.22703326089E+02  0.96703512470E+02  0.47000000000E+01 0.  1.
         -5    1    4    4    0  502  0.14876254303E+02  0.35134482138E+02 -0.41457097299E+02  0.56537736899E+02  0.47000000000E+01 0.  1.
<mgrwt>
<rscale>  0 0.34791081E+03</rscale>
<asrwt>0</asrwt>
<pdfrwt beam="1">  1       21 0.34262908E-01 0.34791081E+03</pdfrwt>
<pdfrwt beam="2">  1       21 0.20903784E-01 0.34791081E+03</pdfrwt>
<totfact> 0.16741588E+05</totfact>
</mgrwt>
</event>
<event>
 8    1  0.9373234E-006  0.3156639E+03  0.7546771E-02  0.1077662E+00
         21   -1    0    0  504  503  0.00000000000E+00  0.00000000000E+00  0.24672067557E+02  0.24672067557E+02  0.00000000000E+00 0.  1.
         21   -1    0    0  503  504 -0.00000000000E+00 -0.00000000000E+00 -0.10096810377E+04  0.10096810377E+04  0.00000000000E+00 0.  1.
         25    2    1    2    0    0  0.10860118488E+02 -0.83195413976E+00 -0.80623235472E+03  0.81593739012E+03  0.12499832190E+03 0.  0.
         25    2    1    2    0    0 -0.10860118488E+02  0.83195413976E+00 -0.17877661546E+03  0.21841571517E+03  0.12500284828E+03 0.  0.
          5    1    3    3  501    0 -0.39755501781E+01 -0.61174500481E+02 -0.33410531476E+03  0.33971543365E+03  0.47000000000E+01 0. -1.
         -5    1    3    3    0  501  0.14835668666E+02  0.60342546341E+02 -0.47212703996E+03  0.47622195647E+03  0.47000000000E+01 0. -1.
          5    1    4    4  502    0 -0.11224833361E+01 -0.40085340927E+02 -0.63508473794E+01  0.40871968249E+02  0.47000000000E+01 0. -1.
         -5    1    4    4    0  502 -0.97376351515E+01  0.40917295067E+02 -0.17242576808E+03  0.17754374693E+03  0.47000000000E+01 0. -1.
<mgrwt>
<rscale>  0 0.31566386E+03</rscale>
<asrwt>0</asrwt>
<pdfrwt beam="1">  1       21 0.37957027E-02 0.31566386E+03</pdfrwt>
<pdfrwt beam="2">  1       21 0.15533555E+00 0.31566386E+03</pdfrwt>
<totfact> 0.11104634E+05</totfact>
</mgrwt>
</event>
<event>
 8    1  0.9373234E-006  0.6276171E+03  0.7546771E-02  0.9849710E-01
         21   -1    0    0  504  503  0.00000000000E+00  0.00000000000E+00  0.36692193383E+03  0.36692193383E+03  0.00000000000E+00 0.  1.
         21   -1    0    0  503  504 -0.00000000000E+00 -0.00000000000E+00 -0.26838349971E+03  0.26838349971E+03  0.00000000000E+00 0.  1.
         25    2    1    2    0    0  0.97804547917E+02 -0.25431693769E+03  0.14318300851E+03  0.33222039872E+03  0.12500473997E+03 0.  0.
         25    2    1    2    0    0 -0.97804547917E+02  0.25431693769E+03 -0.44644574390E+02  0.30308503481E+03  0.12499826365E+03 0.  0.
          5    1    3    3  501    0  0.60029114909E+01 -0.76778051992E+01 -0.19849922990E+02  0.22607367865E+02  0.47000000000E+01 0.  1.
         -5    1    3    3    0  501  0.91801636426E+02 -0.24663913249E+03  0.16303293150E+03  0.30961303086E+03  0.47000000000E+01 0.  1.
          5    1    4    4  502    0 -0.77484615455E+02  0.12411682761E+03 -0.79648770332E+02  0.16665794054E+03  0.47000000000E+01 0. -1.
         -5    1    4    4    0  502 -0.20319932462E+02  0.13020011007E+03  0.35004195942E+02  0.13642709427E+03  0.47000000000E+01 0. -1.
<mgrwt>
<rscale>  0 0.62761706E+03</rscale>
<asrwt>0</asrwt>
<pdfrwt beam="1">  1       21 0.56449528E-01 0.62761706E+03</pdfrwt>
<pdfrwt beam="2">  1       21 0.41289769E-01 0.62761706E+03</pdfrwt>
<totfact> 0.14401978E+04</totfact>
</mgrwt>
</event>
<event>
 8    1  0.9373234E-006  0.3216305E+03  0.7546771E-02  0.1074901E+00
         21   -1    0    0  504  503  0.00000000000E+00  0.00000000000E+00  0.18852536961E+03  0.18852536961E+03  0.00000000000E+00 0.  1.
         21   -1    0    0  503  504 -0.00000000000E+00 -0.00000000000E+00 -0.13717808146E+03  0.13717808146E+03  0.00000000000E+00 0.  1.
         25    2    1    2    0    0 -0.51646540106E+02 -0.49488385051E+02  0.98132813677E+02  0.17427429119E+03  0.12500005636E+03 0.  0.
         25    2    1    2    0    0  0.51646540106E+02  0.49488385051E+02 -0.46785525524E+02  0.15142915989E+03  0.12500175881E+03 0.  0.
          5    1    3    3  501    0 -0.57147570127E+02 -0.17597635278E+02 -0.10441595036E+02  0.60882168537E+02  0.47000000000E+01 0. -1.
         -5    1    3    3    0  501  0.55010300213E+01 -0.31890749773E+02  0.10857440871E+03  0.11339212265E+03  0.47000000000E+01 0. -1.
          5    1    4    4  502    0  0.70697578497E+02  0.30743033636E+02 -0.78203270494E+02  0.10991416305E+03  0.47000000000E+01 0.  1.
         -5    1    4    4    0  502 -0.19051038391E+02  0.18745351415E+02  0.31417744970E+02  0.41514996838E+02  0.47000000000E+01 0.  1.
<mgrwt>
<rscale>  0 0.32163052E+03</rscale>
<asrwt>0</asrwt>
<pdfrwt beam="1">  1       21 0.29003903E-01 0.32163052E+03</pdfrwt>
<pdfrwt beam="2">  1       21 0.21104320E-01 0.32163052E+03</pdfrwt>
<totfact> 0.23010538E+05</totfact>
</mgrwt>
</event>
<event>
 8    1  0.9373234E-006  0.4421253E+03  0.7546771E-02  0.1030097E+00
         21   -1    0    0  504  503  0.00000000000E+00  0.00000000000E+00  0.41949207709E+03  0.41949207709E+03  0.00000000000E+00 0.  1.
         21   -1    0    0  503  504 -0.00000000000E+00 -0.00000000000E+00 -0.11649490889E+03  0.11649490889E+03  0.00000000000E+00 0.  1.
         25    2    1    2    0    0 -0.17781420308E+03 -0.99764504573E+00  0.20032410042E+03  0.29560121671E+03  0.12502578934E+03 0.  0.
         25    2    1    2    0    0  0.17781420308E+03  0.99764504573E+00  0.10267306778E+03  0.24038576926E+03  0.12499869242E+03 0.  0.
          5    1    3    3  501    0 -0.86945376697E+02  0.69637758271E+01  0.14503975201E+02  0.88546304267E+02  0.47000000000E+01 0. -1.
         -5    1    3    3    0  501 -0.90868826379E+02 -0.79614208729E+01  0.18582012522E+03  0.20705491245E+03  0.47000000000E+01 0. -1.
          5    1    4    4  502    0  0.18957006814E+03 -0.78321335581E+01  0.66578325634E+02  0.20112910405E+03  0.47000000000E+01 0.  1.
         -5    1    4    4    0  502 -0.11755865065E+02  0.88297786039E+01  0.36094742142E+02  0.39256665217E+02  0.47000000000E+01 0.  1.
<mgrwt>
<rscale>  0 0.44212528E+03</rscale>
<asrwt>0</asrwt>
<pdfrwt beam="1">  1       21 0.64537242E-01 0.44212528E+03</pdfrwt>
<pdfrwt beam="2">  1       21 0.17922294E-01 0.44212528E+03</pdfrwt>
<totfact> 0.57900447E+04</totfact>
</mgrwt>
</event>
<event>
 8    1  0.9373234E-006  0.3108653E+03  0.7546771E-02  0.1079932E+00
         21   -1    0    0  504  503  0.00000000000E+00  0.00000000000E+00  0.93587306733E+02  0.93587306733E+02  0.00000000000E+00 0. -1.
         21   -1    0    0  503  504 -0.00000000000E+00 -0.00000000000E+00 -0.25814722894E+03  0.25814722894E+03  0.00000000000E+00 0. -1.
         25    2    1    2    0    0 -0.59334070200E+02 -0.41662018650E+02 -0.17505896064E+02  0.14556365338E+03  0.12500426035E+03 0.  0.
         25    2    1    2    0    0  0.59334070200E+02  0.41662018650E+02 -0.14705402615E+03  0.20617088229E+03  0.12500116165E+03 0.  0.
          5    1    3    3  501    0 -0.43121898141E+02 -0.32144986620E+02  0.51061141461E+02  0.74311024965E+02  0.47000000000E+01 0. -1.
         -5    1    3    3    0  501 -0.16212172059E+02 -0.95170320304E+01 -0.68567037525E+02  0.71252628418E+02  0.47000000000E+01 0. -1.
          5    1    4    4  502    0  0.48982681821E+02  0.81699617353E+02 -0.12990300487E+03  0.16115523965E+03  0.47000000000E+01 0. -1.
         -5    1    4    4    0  502  0.10351388379E+02 -0.40037598703E+02 -0.17151021278E+02  0.45015642639E+02  0.47000000000E+01 0. -1.
<mgrwt>
<rscale>  0 0.31086527E+03</rscale>
<asrwt>0</asrwt>
<pdfrwt beam="1">  1       21 0.14398047E-01 0.31086527E+03</pdfrwt>
<pdfrwt beam="2">  1       21 0.39714958E-01 0.31086527E+03</pdfrwt>
<totfact> 0.25090938E+05</totfact>
</mgrwt>
</event>
<event>
 8    1  0.9373234E-006  0.3202814E+03  0.7546771E-02  0.1075520E+00
         21   -1    0    0  504  503  0.00000000000E+00  0.00000000000E+00  0.43198044519E+02  0.43198044519E+02  0.00000000000E+00 0. -1.
         21   -1    0    0  503  504 -0.00000000000E+00 -0.00000000000E+00 -0.59366222067E+03  0.59366222067E+03  0.00000000000E+00 0. -1.
         25    2    1    2    0    0  0.10694385951E+02 -0.56766068101E+02 -0.11268566565E+03  0.17793149741E+03  0.12499920860E+03 0.  0.
         25    2    1    2    0    0 -0.10694385951E+02  0.56766068101E+02 -0.43777851050E+03  0.45892876777E+03  0.12501533209E+03 0.  0.
          5    1    3    3  501    0  0.58679181138E+02 -0.61741427761E+02 -0.50669337386E+02  0.99220572223E+02  0.47000000000E+01 0. -1.
         -5    1    3    3    0  501 -0.47984795187E+02  0.49753596598E+01 -0.62016328263E+02  0.78710925189E+02  0.47000000000E+01 0. -1.
          5    1    4    4  502    0  0.13427152210E+02  0.34272656891E+02 -0.41909055661E+03  0.42073018440E+03  0.47000000000E+01 0. -1.
         -5    1    4    4    0  502 -0.24121538161E+02  0.22493411211E+02 -0.18687953887E+02  0.38198583372E+02  0.47000000000E+01 0. -1.
<mgrwt>
<rscale>  0 0.32028142E+03</rscale>
<asrwt>0</asrwt>
<pdfrwt beam="1">  1       21 0.66458533E-02 0.32028142E+03</pdfrwt>
<pdfrwt beam="2">  1       21 0.91332646E-01 0.32028142E+03</pdfrwt>
<totfact> 0.16163742E+05</totfact>
</mgrwt>
</event>
<event>
 8    1  0.9373234E-006  0.4116250E+03  0.7546771E-02  0.1039827E+00
         21   -1    0    0  504  503  0.00000000000E+00  0.00000000000E+00  0.15457498424E+04  0.15457498424E+04  0.00000000000E+00 0. -1.
         21   -1    0    0  503  504 -0.00000000000E+00 -0.00000000000E+00 -0.27403385668E+02  0.27403385668E+02  0.00000000000E+00 0. -1.
         25    2    1    2    0    0 -0.72479287121E+02  0.14521348813E+03  0.83499836195E+03  0.85976007168E+03  0.12499964876E+03 0.  0.
         25    2    1    2    0    0  0.72479287121E+02 -0.14521348813E+03  0.68334809482E+03  0.71339315643E+03  0.12499989100E+03 0.  0.
          5    1    3    3  501    0 -0.78294367683E+02  0.69585555863E+02  0.26951680846E+03  0.28919467083E+03  0.47000000000E+01 0.  1.
         -5    1    3    3    0  501  0.58150805614E+01  0.75627932272E+02  0.56548155349E+03  0.57056540085E+03  0.47000000000E+01 0.  1.
          5    1    4    4  502    0 -0.20951909062E+02 -0.97151178284E+02  0.34735037807E+03  0.36131940036E+03  0.47000000000E+01 0. -1.
         -5    1    4    4    0  502  0.93431196183E+02 -0.48062309851E+02  0.33599771675E+03  0.35207375607E+03  0.47000000000E+01 0. -1.
<mgrwt>
<rscale>  0 0.41162497E+03</rscale>
<asrwt>0</asrwt>
<pdfrwt beam="1">  1       21 0.23780760E+00 0.41162497E+03</pdfrwt>
<pdfrwt beam="2">  1       21 0.42159067E-02 0.41162497E+03</pdfrwt>
<totfact> 0.24957486E+04</totfact>
</mgrwt>
</event>
<event>
 8    1  0.9373234E-006  0.3096821E+03  0.7546771E-02  0.1080498E+00
         21   -1    0    0  504  503  0.00000000000E+00  0.00000000000E+00  0.48987495310E+02  0.48987495310E+02  0.00000000000E+00 0. -1.
         21   -1    0    0  503  504 -0.00000000000E+00 -0.00000000000E+00 -0.48942590479E+03  0.48942590479E+03  0.00000000000E+00 0. -1.
         25    2    1    2    0    0  0.42703564821E+01 -0.85439910378E+02 -0.27606502369E+03  0.31488758428E+03  0.12499631676E+03 0.  0.
         25    2    1    2    0    0 -0.42703564821E+01  0.85439910378E+02 -0.16437338580E+03  0.22352581582E+03  0.12500786435E+03 0.  0.
          5    1    3    3  501    0 -0.33139689989E+02 -0.78065529633E+02 -0.85612422818E+02  0.12059868536E+03  0.47000000000E+01 0.  1.
         -5    1    3    3    0  501  0.37410046471E+02 -0.73743807452E+01 -0.19045260087E+03  0.19428889893E+03  0.47000000000E+01 0.  1.
          5    1    4    4  502    0  0.37619097963E+02 -0.14230500569E+02 -0.27099306720E+02  0.48725415367E+02  0.47000000000E+01 0. -1.
         -5    1    4    4    0  502 -0.41889454445E+02  0.99670410947E+02 -0.13727407908E+03  0.17480040045E+03  0.47000000000E+01 0. -1.
<mgrwt>
<rscale>  0 0.30968209E+03</rscale>
<asrwt>0</asrwt>
<pdfrwt beam="1">  1       21 0.75365378E-02 0.30968209E+03</pdfrwt>
<pdfrwt beam="2">  1       21 0.75296292E-01 0.30968209E+03</pdfrwt>
<totfact> 0.20308409E+05</totfact>
</mgrwt>
</event>
<event>
 8    1  0.9373234E-006  0.2699274E+03  0.7546771E-02  0.1101321E+00
         21   -1    0    0  504  503  0.00000000000E+00  0.00000000000E+00  0.81267253440E+02  0.81267253440E+02  0.00000000000E+00 0.  1.
         21   -1    0    0  503  504 -0.00000000000E+00 -0.00000000000E+00 -0.22413950240E+03  0.22413950240E+03  0.00000000000E+00 0.  1.
         25    2    1    2    0    0 -0.23146151885E+02  0.44976592169E+02 -0.65074169866E+02  0.14972707179E+03  0.12499964101E+03 0.  0.
         25    2    1    2    0    0  0.23146151885E+02 -0.44976592169E+02 -0.77798079090E+02  0.15567968404E+03  0.12499993889E+03 0.  0.
          5    1    3    3  501    0 -0.22561629892E+01 -0.43113777343E+02 -0.13756226083E+02  0.45554492909E+02  0.47000000000E+01 0. -1.
         -5    1    3    3    0  501 -0.20889988896E+02  0.88090369512E+02 -0.51317943783E+02  0.10417257888E+03  0.47000000000E+01 0. -1.
          5    1    4    4  502    0 -0.35894251797E+02  0.24155109318E+02 -0.20416451637E+02  0.48070657533E+02  0.47000000000E+01 0.  1.
         -5    1    4    4    0  502  0.59040403682E+02 -0.69131701488E+02 -0.57381627452E+02  0.10760902651E+03  0.47000000000E+01 0.  1.
<mgrwt>
<rscale>  0 0.26992741E+03</rscale>
<asrwt>0</asrwt>
<pdfrwt beam="1">  1       21 0.12502654E-01 0.26992741E+03</pdfrwt>
<pdfrwt beam="2">  1       21 0.34483000E-01 0.26992741E+03</pdfrwt>
<totfact> 0.43494516E+05</totfact>
</mgrwt>
</event>
<event>
 8    1  0.9373234E-006  0.3719903E+03  0.7546771E-02  0.1053935E+00
         21   -1    0    0  504  503  0.00000000000E+00  0.00000000000E+00  0.17281856199E+03  0.17281856199E+03  0.00000000000E+00 0.  1.
         21   -1    0    0  503  504 -0.00000000000E+00 -0.00000000000E+00 -0.20017635709E+03  0.20017635709E+03  0.00000000000E+00 0.  1.
         25    2    1    2    0    0  0.84006843672E+02 -0.26732827305E+02  0.92436107047E+02  0.17872072900E+03  0.12499948500E+03 0.  0.
         25    2    1    2    0    0 -0.84006843672E+02  0.26732827305E+02 -0.11979390215E+03  0.19427419008E+03  0.12498035085E+03 0.  0.
          5    1    3    3  501    0  0.55127040339E+02 -0.72365590722E+02  0.83903952980E+02  0.12384559993E+03  0.47000000000E+01 0.  1.
         -5    1    3    3    0  501  0.28879803333E+02  0.45632763417E+02  0.85321540677E+01  0.54875129072E+02  0.47000000000E+01 0.  1.
          5    1    4    4  502    0  0.89646168213E+00  0.49203717767E+02 -0.50403429494E+01  0.49692097387E+02  0.47000000000E+01 0. -1.
         -5    1    4    4    0  502 -0.84903305354E+02 -0.22470890462E+02 -0.11475355920E+03  0.14458209269E+03  0.47000000000E+01 0. -1.
<mgrwt>
<rscale>  0 0.37199027E+03</rscale>
<asrwt>0</asrwt>
<pdfrwt beam="1">  1       21 0.26587471E-01 0.37199027E+03</pdfrwt>
<pdfrwt beam="2">  1       21 0.30796362E-01 0.37199027E+03</pdfrwt>
<totfact> 0.12971783E+05</totfact>
</mgrwt>
</event>
<event>
 8    1  0.9373234E-006  0.2847170E+03  0.7546771E-02  0.1093140E+00
         21   -1    0    0  504  503  0.00000000000E+00  0.00000000000E+00  0.35412319312E+03  0.35412319312E+03  0.00000000000E+00 0.  1.
         21   -1    0    0  503  504 -0.00000000000E+00 -0.00000000000E+00 -0.57228496790E+02  0.57228496790E+02  0.00000000000E+00 0.  1.
         25    2    1    2    0    0  0.54569452754E+02  0.12282530710E+02  0.92240440674E+02  0.16510544976E+03  0.12499129933E+03 0.  0.
         25    2    1    2    0    0 -0.54569452754E+02 -0.12282530710E+02  0.20465425566E+03  0.24624624015E+03  0.12500064279E+03 0.  0.
          5    1    3    3  501    0  0.52781293296E+01 -0.78704125881E+01 -0.29933487724E+02  0.31747531099E+02  0.47000000000E+01 0. -1.
         -5    1    3    3    0  501  0.49291323424E+02  0.20152943298E+02  0.12217392840E+03  0.13335791866E+03  0.47000000000E+01 0. -1.
          5    1    4    4  502    0 -0.65922392562E+02 -0.59026090432E+02  0.13306035871E+03  0.15986553804E+03  0.47000000000E+01 0. -1.
         -5    1    4    4    0  502  0.11352939808E+02  0.46743559722E+02  0.71593896946E+02  0.86380702114E+02  0.47000000000E+01 0. -1.
<mgrwt>
<rscale>  0 0.28471697E+03</rscale>
<asrwt>0</asrwt>
<pdfrwt beam="1">  1       21 0.54480490E-01 0.28471697E+03</pdfrwt>
<pdfrwt beam="2">  1       21 0.88043843E-02 0.28471697E+03</pdfrwt>
<totfact> 0.31606727E+05</totfact>
</mgrwt>
</event>
<event>
 8    1  0.9373234E-006  0.2978331E+03  0.7546771E-02  0.1086329E+00
         21   -1    0    0  504  503  0.00000000000E+00  0.00000000000E+00  0.71636863748E+02  0.71636863748E+02  0.00000000000E+00 0.  1.
         21   -1    0    0  503  504 -0.00000000000E+00 -0.00000000000E+00 -0.30956326585E+03  0.30956326585E+03  0.00000000000E+00 0.  1.
         25    2    1    2    0    0  0.21663869472E+02  0.10420660612E+02 -0.20045039572E+02  0.12886553040E+03  0.12500643146E+03 0.  0.
         25    2    1    2    0    0 -0.21663869472E+02 -0.10420660612E+02 -0.21788136253E+03  0.25233459919E+03  0.12499019323E+03 0.  0.
          5    1    3    3  501    0  0.37889342131E+02 -0.27061934835E+02  0.36222132862E+02  0.59178403773E+02  0.47000000000E+01 0. -1.
         -5    1    3    3    0  501 -0.16225472659E+02  0.37482595447E+02 -0.56267172433E+02  0.69687126631E+02  0.47000000000E+01 0. -1.
          5    1    4    4  502    0  0.19146323366E+02 -0.16990570609E+02  0.42241070498E+01  0.26366536906E+02  0.47000000000E+01 0.  1.
         -5    1    4    4    0  502 -0.40810192838E+02  0.65699099970E+01 -0.22210546958E+03  0.22596806229E+03  0.47000000000E+01 0.  1.
<mgrwt>
<rscale>  0 0.29783312E+03</rscale>
<asrwt>0</asrwt>
<pdfrwt beam="1">  1       21 0.11021056E-01 0.29783312E+03</pdfrwt>
<pdfrwt beam="2">  1       21 0.47625117E-01 0.29783312E+03</pdfrwt>
<totfact> 0.28072057E+05</totfact>
</mgrwt>
</event>
<event>
 8    1  0.9373234E-006  0.2731176E+03  0.7546771E-02  0.1099508E+00
         21   -1    0    0  504  503  0.00000000000E+00  0.00000000000E+00  0.36375706568E+03  0.36375706568E+03  0.00000000000E+00 0.  1.
         21   -1    0    0  503  504 -0.00000000000E+00 -0.00000000000E+00 -0.51265833695E+02  0.51265833695E+02  0.00000000000E+00 0.  1.
         25    2    1    2    0    0  0.50311387032E+02 -0.22189191003E+02  0.15523767087E+03  0.20675266583E+03  0.12499733800E+03 0.  0.
         25    2    1    2    0    0 -0.50311387032E+02  0.22189191003E+02  0.15725356111E+03  0.20827023355E+03  0.12499684731E+03 0.  0.
          5    1    3    3  501    0  0.32446439836E+02  0.51043360165E+02  0.76708560011E+02  0.97798206803E+02  0.47000000000E+01 0.  1.
         -5    1    3    3    0  501  0.17864947196E+02 -0.73232551167E+02  0.78529110862E+02  0.10895445903E+03  0.47000000000E+01 0.  1.
          5    1    4    4  502    0 -0.53282432931E+02  0.68693828021E+02  0.12087735380E+03  0.14896739351E+03  0.47000000000E+01 0. -1.
         -5    1    4    4    0  502  0.29710458987E+01 -0.46504637019E+02  0.36376207309E+02  0.59302840035E+02  0.47000000000E+01 0. -1.
<mgrwt>
<rscale>  0 0.27311762E+03</rscale>
<asrwt>0</asrwt>
<pdfrwt beam="1">  1       21 0.55962624E-01 0.27311762E+03</pdfrwt>
<pdfrwt beam="2">  1       21 0.78870516E-02 0.27311762E+03</pdfrwt>
<totfact> 0.36305283E+05</totfact>
</mgrwt>
</event>
<event>
 8    1  0.9373234E-006  0.5108412E+03  0.7546771E-02  0.1010987E+00
         21   -1    0    0  504  503  0.00000000000E+00  0.00000000000E+00  0.75283231913E+02  0.75283231913E+02  0.00000000000E+00 0.  1.
         21   -1    0    0  503  504 -0.00000000000E+00 -0.00000000000E+00 -0.86658966605E+03  0.86658966605E+03  0.00000000000E+00 0.  1.
         25    2    1    2    0    0  0.18381431873E+03  0.71027297624E+02 -0.58710829442E+03  0.63178610587E+03  0.12499981369E+03 0.  0.
         25    2    1    2    0    0 -0.18381431873E+03 -0.71027297624E+02 -0.20419813972E+03  0.31008679209E+03  0.12499743032E+03 0.  0.
          5    1    3    3  501    0  0.97949267889E+02  0.75071945917E+02 -0.19870445268E+03  0.23395599086E+03  0.47000000000E+01 0. -1.
         -5    1    3    3    0  501  0.85865050840E+02 -0.40446482930E+01 -0.38840384174E+03  0.39783011502E+03  0.47000000000E+01 0. -1.
          5    1    4    4  502    0 -0.11884844207E+02  0.84038250778E+01 -0.84762190893E+02  0.86131253344E+02  0.47000000000E+01 0. -1.
         -5    1    4    4    0  502 -0.17192947452E+03 -0.79431122701E+02 -0.11943594883E+03  0.22395553875E+03  0.47000000000E+01 0. -1.
<mgrwt>
<rscale>  0 0.51084115E+03</rscale>
<asrwt>0</asrwt>
<pdfrwt beam="1">  1       21 0.11582037E-01 0.51084115E+03</pdfrwt>
<pdfrwt beam="2">  1       21 0.13332148E+00 0.51084115E+03</pdfrwt>
<totfact> 0.22435725E+04</totfact>
</mgrwt>
</event>
<event>
 8    1  0.9373234E-006  0.2690267E+03  0.7546771E-02  0.1101838E+00
         21   -1    0    0  504  503  0.00000000000E+00  0.00000000000E+00  0.37614457540E+03  0.37614457540E+03  0.00000000000E+00 0. -1.
         21   -1    0    0  503  504 -0.00000000000E+00 -0.00000000000E+00 -0.48103426201E+02  0.48103426201E+02  0.00000000000E+00 0. -1.
         25    2    1    2    0    0 -0.24500639986E+02  0.15760388928E+02  0.22749449824E+03  0.26120385222E+03  0.12500013786E+03 0.  0.
         25    2    1    2    0    0  0.24500639986E+02 -0.15760388928E+02  0.10054665095E+03  0.16304414938E+03  0.12500037764E+03 0.  0.
          5    1    3    3  501    0 -0.57980142017E+01  0.66804254603E+02  0.83355581280E+02  0.10708253047E+03  0.47000000000E+01 0.  1.
         -5    1    3    3    0  501 -0.18702625784E+02 -0.51043865675E+02  0.14413891696E+03  0.15412132175E+03  0.47000000000E+01 0.  1.
          5    1    4    4  502    0 -0.43669312123E+02  0.21041624200E+02  0.25036135449E+02  0.54759993138E+02  0.47000000000E+01 0. -1.
         -5    1    4    4    0  502  0.68169952109E+02 -0.36802013128E+02  0.75510515506E+02  0.10828415624E+03  0.47000000000E+01 0. -1.
<mgrwt>
<rscale>  0 0.26902671E+03</rscale>
<asrwt>0</asrwt>
<pdfrwt beam="1">  1       21 0.57868394E-01 0.26902671E+03</pdfrwt>
<pdfrwt beam="2">  1       21 0.74005274E-02 0.26902671E+03</pdfrwt>
<totfact> 0.37799497E+05</totfact>
</mgrwt>
</event>
<event>
 8    1  0.9373234E-006  0.5400445E+03  0.7546771E-02  0.1003825E+00
         21   -1    0    0  504  503  0.00000000000E+00  0.00000000000E+00  0.16635551634E+03  0.16635551634E+03  0.00000000000E+00 0.  1.
         21   -1    0    0  503  504 -0.00000000000E+00 -0.00000000000E+00 -0.43829031333E+03  0.43829031333E+03  0.00000000000E+00 0.  1.
         25    2    1    2    0    0 -0.16144679851E+03 -0.13802081977E+03 -0.25948760812E+03  0.35787710814E+03  0.12500956094E+03 0.  0.
         25    2    1    2    0    0  0.16144679851E+03  0.13802081977E+03 -0.12447188872E+02  0.24676872152E+03  0.12500021588E+03 0.  0.
          5    1    3    3  501    0 -0.17361450199E+03 -0.14506414805E+03 -0.21961757428E+03  0.31534040541E+03  0.47000000000E+01 0. -1.
         -5    1    3    3    0  501  0.12167703486E+02  0.70433282732E+01 -0.39870033841E+02  0.42536702737E+02  0.47000000000E+01 0. -1.
          5    1    4    4  502    0  0.11405310074E+01  0.33571292587E+01 -0.35595018435E+02  0.36078615068E+02  0.47000000000E+01 0. -1.
         -5    1    4    4    0  502  0.16030626750E+03  0.13466369052E+03  0.23147829563E+02  0.21069010645E+03  0.47000000000E+01 0. -1.
<mgrwt>
<rscale>  0 0.54004448E+03</rscale>
<asrwt>0</asrwt>
<pdfrwt beam="1">  1       21 0.25593157E-01 0.54004448E+03</pdfrwt>
<pdfrwt beam="2">  1       21 0.67429278E-01 0.54004448E+03</pdfrwt>
<totfact> 0.25952676E+04</totfact>
</mgrwt>
</event>
<event>
 8    1  0.9373234E-006  0.2572139E+03  0.7546771E-02  0.1108829E+00
         21   -1    0    0  504  503  0.00000000000E+00  0.00000000000E+00  0.40002646887E+02  0.40002646887E+02  0.00000000000E+00 0. -1.
         21   -1    0    0  503  504 -0.00000000000E+00 -0.00000000000E+00 -0.41346631388E+03  0.41346631388E+03  0.00000000000E+00 0. -1.
         25    2    1    2    0    0 -0.21358454782E+02 -0.21265158883E+02 -0.18224218709E+03  0.22303482610E+03  0.12499571323E+03 0.  0.
         25    2    1    2    0    0  0.21358454782E+02  0.21265158883E+02 -0.19122147990E+03  0.23043413466E+03  0.12500338183E+03 0.  0.
          5    1    3    3  501    0 -0.59914040188E+02  0.84239009779E+00 -0.35874893296E+02  0.69996427064E+02  0.47000000000E+01 0. -1.
         -5    1    3    3    0  501  0.38555585406E+02 -0.22107548980E+02 -0.14636729380E+03  0.15303839904E+03  0.47000000000E+01 0. -1.
          5    1    4    4  502    0 -0.44476042439E+02 -0.55529719752E+01 -0.12610688021E+03  0.13391784453E+03  0.47000000000E+01 0. -1.
         -5    1    4    4    0  502  0.65834497221E+02  0.26818130858E+02 -0.65114599699E+02  0.96516290133E+02  0.47000000000E+01 0. -1.
<mgrwt>
<rscale>  0 0.25721390E+03</rscale>
<asrwt>0</asrwt>
<pdfrwt beam="1">  1       21 0.61542529E-02 0.25721390E+03</pdfrwt>
<pdfrwt beam="2">  1       21 0.63610207E-01 0.25721390E+03</pdfrwt>
<totfact> 0.42503312E+05</totfact>
</mgrwt>
</event>
<event>
 8    1  0.9373234E-006  0.3157756E+03  0.7546771E-02  0.1077610E+00
         21   -1    0    0  504  503  0.00000000000E+00  0.00000000000E+00  0.27842187637E+02  0.27842187637E+02  0.00000000000E+00 0. -1.
         21   -1    0    0  503  504 -0.00000000000E+00 -0.00000000000E+00 -0.89535169220E+03  0.89535169220E+03  0.00000000000E+00 0. -1.
         25    2    1    2    0    0 -0.58715984382E+02 -0.13794440240E+02 -0.65382286726E+03  0.66839143760E+03  0.12499967477E+03 0.  0.
         25    2    1    2    0    0  0.58715984382E+02  0.13794440240E+02 -0.21368663730E+03  0.25480244224E+03  0.12499780881E+03 0.  0.
          5    1    3    3  501    0  0.30751144946E+02 -0.19270198161E+02 -0.85170563933E+02  0.92698912687E+02  0.47000000000E+01 0.  1.
         -5    1    3    3    0  501 -0.89467129327E+02  0.54757579215E+01 -0.56865230333E+03  0.57569252491E+03  0.47000000000E+01 0.  1.
          5    1    4    4  502    0  0.22013322828E+02  0.54081451309E+02 -0.18285873125E+03  0.19201248749E+03  0.47000000000E+01 0.  1.
         -5    1    4    4    0  502  0.36702661554E+02 -0.40287011069E+02 -0.30827906051E+02  0.62789954750E+02  0.47000000000E+01 0.  1.
<mgrwt>
<rscale>  0 0.31577555E+03</rscale>
<asrwt>0</asrwt>
<pdfrwt beam="1">  1       21 0.42834143E-02 0.31577555E+03</pdfrwt>
<pdfrwt beam="2">  1       21 0.13774639E+00 0.31577555E+03</pdfrwt>
<totfact> 0.12460231E+05</totfact>
</mgrwt>
</event>
<event>
 8    1  0.9373234E-006  0.2755734E+03  0.7546771E-02  0.1098132E+00
         21   -1    0    0  504  503  0.00000000000E+00  0.00000000000E+00  0.90444056566E+02  0.90444056566E+02  0.00000000000E+00 0.  1.
         21   -1    0    0  503  504 -0.00000000000E+00 -0.00000000000E+00 -0.20991066215E+03  0.20991066215E+03  0.00000000000E+00 0.  1.
         25    2    1    2    0    0  0.14255262003E+02 -0.33924845991E+02 -0.10897148110E+02  0.13075228491E+03  0.12499321783E+03 0.  0.
         25    2    1    2    0    0 -0.14255262003E+02  0.33924845991E+02 -0.10856945748E+03  0.16960243380E+03  0.12499420301E+03 0.  0.
          5    1    3    3  501    0 -0.44582405301E+02  0.11136973731E+02  0.19981029118E+02  0.50328466804E+02  0.47000000000E+01 0. -1.
         -5    1    3    3    0  501  0.58837667303E+02 -0.45061819722E+02 -0.30878177228E+02  0.80423818109E+02  0.47000000000E+01 0. -1.
          5    1    4    4  502    0 -0.13087229922E+02 -0.43294254565E+02 -0.69168026536E+02  0.82776651057E+02  0.47000000000E+01 0. -1.
         -5    1    4    4    0  502 -0.11680320804E+01  0.77219100555E+02 -0.39401430940E+02  0.86825782747E+02  0.47000000000E+01 0. -1.
<mgrwt>
<rscale>  0 0.27557338E+03</rscale>
<asrwt>0</asrwt>
<pdfrwt beam="1">  1       21 0.13914470E-01 0.27557338E+03</pdfrwt>
<pdfrwt beam="2">  1       21 0.32293948E-01 0.27557338E+03</pdfrwt>
<totfact> 0.40762190E+05</totfact>
</mgrwt>
</event>
<event>
 8    1  0.9373234E-006  0.2931240E+03  0.7546771E-02  0.1088729E+00
         21   -1    0    0  504  503  0.00000000000E+00  0.00000000000E+00  0.16340965194E+03  0.16340965194E+03  0.00000000000E+00 0. -1.
         21   -1    0    0  503  504 -0.00000000000E+00 -0.00000000000E+00 -0.13145134378E+03  0.13145134378E+03  0.00000000000E+00 0. -1.
         25    2    1    2    0    0 -0.35187786118E+02  0.63875261646E+01 -0.52081184574E+02  0.14004777840E+03  0.12498779807E+03 0.  0.
         25    2    1    2    0    0  0.35187786118E+02 -0.63875261646E+01  0.84039492727E+02  0.15481321732E+03  0.12500206053E+03 0.  0.
          5    1    3    3  501    0 -0.61835354076E+02  0.35901331746E+02  0.32718476361E+01  0.71730827555E+02  0.47000000000E+01 0.  1.
         -5    1    3    3    0  501  0.26647567958E+02 -0.29513805581E+02 -0.55353032210E+02  0.68316950845E+02  0.47000000000E+01 0.  1.
          5    1    4    4  502    0  0.19522963481E+02 -0.51181262566E+02  0.91301614579E+02  0.10657740176E+03  0.47000000000E+01 0. -1.
         -5    1    4    4    0  502  0.15664822636E+02  0.44793736401E+02 -0.72621218519E+01  0.48235815560E+02  0.47000000000E+01 0. -1.
<mgrwt>
<rscale>  0 0.29312399E+03</rscale>
<asrwt>0</asrwt>
<pdfrwt beam="1">  1       21 0.25139946E-01 0.29312399E+03</pdfrwt>
<pdfrwt beam="2">  1       21 0.20223284E-01 0.29312399E+03</pdfrwt>
<totfact> 0.33133913E+05</totfact>
</mgrwt>
</event>
<event>
 8    1  0.9373234E-006  0.2920228E+03  0.7546771E-02  0.1089298E+00
         21   -1    0    0  504  503  0.00000000000E+00  0.00000000000E+00  0.10898633503E+03  0.10898633503E+03  0.00000000000E+00 0. -1.
         21   -1    0    0  503  504 -0.00000000000E+00 -0.00000000000E+00 -0.19561468781E+03  0.19561468781E+03  0.00000000000E+00 0. -1.
         25    2    1    2    0    0 -0.24551142377E+02  0.71372042046E+02 -0.43248751103E+02  0.15227540613E+03  0.12498247022E+03 0.  0.
         25    2    1    2    0    0  0.24551142377E+02 -0.71372042046E+02 -0.43379601677E+02  0.15232561672E+03  0.12499830674E+03 0.  0.
          5    1    3    3  501    0 -0.69300292603E+02  0.30327753864E+02  0.29239120656E+01  0.75848154039E+02  0.47000000000E+01 0.  1.
         -5    1    3    3    0  501  0.44749150227E+02  0.41044288183E+02 -0.46172663169E+02  0.76427252093E+02  0.47000000000E+01 0.  1.
          5    1    4    4  502    0 -0.12535425593E+01 -0.40953290564E+02 -0.85005208034E+02  0.94481314395E+02  0.47000000000E+01 0. -1.
         -5    1    4    4    0  502  0.25804684936E+02 -0.30418751483E+02  0.41625606357E+02  0.57844302321E+02  0.47000000000E+01 0. -1.
<mgrwt>
<rscale>  0 0.29202279E+03</rscale>
<asrwt>0</asrwt>
<pdfrwt beam="1">  1       21 0.16767129E-01 0.29202279E+03</pdfrwt>
<pdfrwt beam="2">  1       21 0.30094567E-01 0.29202279E+03</pdfrwt>
<totfact> 0.33145762E+05</totfact>
</mgrwt>
</event>
<event>
 8    1  0.9373234E-006  0.2819142E+03  0.7546771E-02  0.1094648E+00
         21   -1    0    0  504  503  0.00000000000E+00  0.00000000000E+00  0.78845278357E+03  0.78845278357E+03  0.00000000000E+00 0.  1.
         21   -1    0    0  503  504 -0.00000000000E+00 -0.00000000000E+00 -0.25199865721E+02  0.25199865721E+02  0.00000000000E+00 0.  1.
         25    2    1    2    0    0 -0.33349743871E+02 -0.12169172910E+02  0.53931341657E+03  0.55474299448E+03  0.12498213650E+03 0.  0.
         25    2    1    2    0    0  0.33349743871E+02  0.12169172910E+02  0.22393950127E+03  0.25890965480E+03  0.12500005974E+03 0.  0.
          5    1    3    3  501    0 -0.39227811605E+02 -0.61977237814E+02  0.23307153868E+03  0.24438582478E+03  0.47000000000E+01 0.  1.
         -5    1    3    3    0  501  0.58780677340E+01  0.49808064904E+02  0.30624187789E+03  0.31035716970E+03  0.47000000000E+01 0.  1.
          5    1    4    4  502    0 -0.38229248483E+02  0.17514819511E+01  0.22082919338E+02  0.44432965860E+02  0.47000000000E+01 0.  1.
         -5    1    4    4    0  502  0.71578992354E+02  0.10417690959E+02  0.20185658193E+03  0.21447668895E+03  0.47000000000E+01 0.  1.
<mgrwt>
<rscale>  0 0.28191420E+03</rscale>
<asrwt>0</asrwt>
<pdfrwt beam="1">  1       21 0.12130041E+00 0.28191420E+03</pdfrwt>
<pdfrwt beam="2">  1       21 0.38769030E-02 0.28191420E+03</pdfrwt>
<totfact> 0.20623085E+05</totfact>
</mgrwt>
</event>
<event>
 8    1  0.9373234E-006  0.3088644E+03  0.7546771E-02  0.1080891E+00
         21   -1    0    0  504  503  0.00000000000E+00  0.00000000000E+00  0.50583721921E+02  0.50583721921E+02  0.00000000000E+00 0.  1.
         21   -1    0    0  503  504 -0.00000000000E+00 -0.00000000000E+00 -0.47148171906E+03  0.47148171906E+03  0.00000000000E+00 0.  1.
         25    2    1    2    0    0 -0.37840373650E+02 -0.31370608796E+02 -0.33928289400E+03  0.36489648124E+03  0.12498220226E+03 0.  0.
         25    2    1    2    0    0  0.37840373650E+02  0.31370608796E+02 -0.81615103133E+02  0.15716895974E+03  0.12500019149E+03 0.  0.
          5    1    3    3  501    0  0.16731473511E+02 -0.41667451807E+02 -0.39531771033E+02  0.60008080014E+02  0.47000000000E+01 0. -1.
         -5    1    3    3    0  501 -0.54571847161E+02  0.10296843011E+02 -0.29975112297E+03  0.30488840122E+03  0.47000000000E+01 0. -1.
          5    1    4    4  502    0 -0.94703642665E+01  0.61802322228E+02 -0.62548047436E+01  0.63011327668E+02  0.47000000000E+01 0. -1.
         -5    1    4    4    0  502  0.47310737916E+02 -0.30431713431E+02 -0.75360298389E+02  0.94157632075E+02  0.47000000000E+01 0. -1.
<mgrwt>
<rscale>  0 0.30886437E+03</rscale>
<asrwt>0</asrwt>
<pdfrwt beam="1">  1       21 0.77821109E-02 0.30886437E+03</pdfrwt>
<pdfrwt beam="2">  1       21 0.72535650E-01 0.30886437E+03</pdfrwt>
<totfact> 0.20887869E+05</totfact>
</mgrwt>
</event>
<event>
 8    1  0.9373234E-006  0.3658320E+03  0.7546771E-02  0.1056298E+00
         21   -1    0    0  504  503  0.00000000000E+00  0.00000000000E+00  0.17010871749E+03  0.17010871749E+03  0.00000000000E+00 0. -1.
         21   -1    0    0  503  504 -0.00000000000E+00 -0.00000000000E+00 -0.19668748893E+03  0.19668748893E+03  0.00000000000E+00 0. -1.
         25    2    1    2    0    0 -0.22895436040E+02  0.41877822010E+02 -0.13834238150E+03  0.19245672440E+03  0.12499209286E+03 0.  0.
         25    2    1    2    0    0  0.22895436040E+02 -0.41877822010E+02  0.11176361006E+03  0.17433948202E+03  0.12500078996E+03 0.  0.
          5    1    3    3  501    0 -0.68418714350E+01 -0.36999606115E+02 -0.91878277117E+02  0.99395622959E+02  0.47000000000E+01 0.  1.
         -5    1    3    3    0  501 -0.16053564605E+02  0.78877428126E+02 -0.46464104386E+02  0.93061101437E+02  0.47000000000E+01 0.  1.
          5    1    4    4  502    0  0.11330244217E+02  0.23649463835E+02 -0.15378245653E+02  0.30761209551E+02  0.47000000000E+01 0. -1.
         -5    1    4    4    0  502  0.11565191823E+02 -0.65527285845E+02  0.12714185571E+03  0.14357827247E+03  0.47000000000E+01 0. -1.
<mgrwt>
<rscale>  0 0.36583196E+03</rscale>
<asrwt>0</asrwt>
<pdfrwt beam="1">  1       21 0.26170572E-01 0.36583196E+03</pdfrwt>
<pdfrwt beam="2">  1       21 0.30259613E-01 0.36583196E+03</pdfrwt>
<totfact> 0.13869626E+05</totfact>
</mgrwt>
</event>
<event>
 8    1  0.9373234E-006  0.3982640E+03  0.7546771E-02  0.1044382E+00
         21   -1    0    0  504  503  0.00000000000E+00  0.00000000000E+00  0.24165063921E+03  0.24165063921E+03  0.00000000000E+00 0.  1.
         21   -1    0    0  503  504 -0.00000000000E+00 -0.00000000000E+00 -0.16409451915E+03  0.16409451915E+03  0.00000000000E+00 0.  1.
         25    2    1    2    0    0  0.99950868108E+02 -0.33111258470E+02 -0.77114164505E+02  0.18071597392E+03  0.12500054955E+03 0.  0.
         25    2    1    2    0    0 -0.99950868108E+02  0.33111258470E+02  0.15467028457E+03  0.22502918444E+03  0.12501482092E+03 0.  0.
          5    1    3    3  501    0 -0.28041854784E+02  0.67637725982E+01 -0.15814365812E+02  0.33230684699E+02  0.47000000000E+01 0.  1.
         -5    1    3    3    0  501  0.12799272289E+03 -0.39875031068E+02 -0.61299798693E+02  0.14748528922E+03  0.47000000000E+01 0.  1.
          5    1    4    4  502    0  0.28816541228E+02 -0.19024816274E+01  0.20404767630E+02  0.35671515621E+02  0.47000000000E+01 0. -1.
         -5    1    4    4    0  502 -0.12876740934E+03  0.35013740097E+02  0.13426551694E+03  0.18935766882E+03  0.47000000000E+01 0. -1.
<mgrwt>
<rscale>  0 0.39826396E+03</rscale>
<asrwt>0</asrwt>
<pdfrwt beam="1">  1       21 0.37177021E-01 0.39826396E+03</pdfrwt>
<pdfrwt beam="2">  1       21 0.25245311E-01 0.39826396E+03</pdfrwt>
<totfact> 0.97756774E+04</totfact>
</mgrwt>
</event>
<event>
 8    1  0.9373234E-006  0.2903291E+03  0.7546771E-02  0.1090177E+00
         21   -1    0    0  504  503  0.00000000000E+00  0.00000000000E+00  0.55308131335E+02  0.55308131335E+02  0.00000000000E+00 0. -1.
         21   -1    0    0  503  504 -0.00000000000E+00 -0.00000000000E+00 -0.38100623587E+03  0.38100623587E+03  0.00000000000E+00 0. -1.
         25    2    1    2    0    0  0.54211723943E+02  0.23047519634E+02 -0.96007722667E+02  0.16826515761E+03  0.12500232510E+03 0.  0.
         25    2    1    2    0    0 -0.54211723943E+02 -0.23047519634E+02 -0.22969038187E+03  0.26804920959E+03  0.12499043189E+03 0.  0.
          5    1    3    3  501    0 -0.35958323619E+02  0.51802774869E+01 -0.58179615895E+02  0.68751683746E+02  0.47000000000E+01 0.  1.
         -5    1    3    3    0  501  0.90170047561E+02  0.17867242147E+02 -0.37828106772E+02  0.99513473867E+02  0.47000000000E+01 0.  1.
          5    1    4    4  502    0 -0.65878588738E+02  0.37481460238E+02 -0.13685700302E+03  0.15651446448E+03  0.47000000000E+01 0.  1.
         -5    1    4    4    0  502  0.11666864796E+02 -0.60528979872E+02 -0.92833378844E+02  0.11153474511E+03  0.47000000000E+01 0.  1.
<mgrwt>
<rscale>  0 0.29032907E+03</rscale>
<asrwt>0</asrwt>
<pdfrwt beam="1">  1       21 0.85089431E-02 0.29032907E+03</pdfrwt>
<pdfrwt beam="2">  1       21 0.58616345E-01 0.29032907E+03</pdfrwt>
<totfact> 0.28656482E+05</totfact>
</mgrwt>
</event>
<event>
 8    1  0.9373234E-006  0.3106619E+03  0.7546771E-02  0.1080029E+00
         21   -1    0    0  504  503  0.00000000000E+00  0.00000000000E+00  0.17474248009E+02  0.17474248009E+02  0.00000000000E+00 0.  1.
         21   -1    0    0  503  504 -0.00000000000E+00 -0.00000000000E+00 -0.13807580852E+04  0.13807580852E+04  0.00000000000E+00 0.  1.
         25    2    1    2    0    0  0.74756009648E+02 -0.53605036142E+02 -0.71043069801E+03  0.72718526789E+03  0.12499870516E+03 0.  0.
         25    2    1    2    0    0 -0.74756009648E+02  0.53605036142E+02 -0.65285313918E+03  0.67104706532E+03  0.12499992660E+03 0.  0.
          5    1    3    3  501    0  0.10089760414E+03 -0.95357978034E+01 -0.40908476911E+03  0.42147799026E+03  0.47000000000E+01 0.  1.
         -5    1    3    3    0  501 -0.26141594496E+02 -0.44069238339E+02 -0.30134592890E+03  0.30570727763E+03  0.47000000000E+01 0.  1.
          5    1    4    4  502    0 -0.58688980451E+02  0.34952992136E+02 -0.63850931095E+03  0.64217002286E+03  0.47000000000E+01 0. -1.
         -5    1    4    4    0  502 -0.16067029197E+02  0.18652044006E+02 -0.14343828233E+02  0.28877042459E+02  0.47000000000E+01 0. -1.
<mgrwt>
<rscale>  0 0.31066193E+03</rscale>
<asrwt>0</asrwt>
<pdfrwt beam="1">  1       21 0.26883455E-02 0.31066193E+03</pdfrwt>
<pdfrwt beam="2">  1       21 0.21242435E+00 0.31066193E+03</pdfrwt>
<totfact> 0.80025137E+04</totfact>
</mgrwt>
</event>
<event>
 8    1  0.9373234E-006  0.2755777E+03  0.7546771E-02  0.1098129E+00
         21   -1    0    0  504  503  0.00000000000E+00  0.00000000000E+00  0.62183084207E+02  0.62183084207E+02  0.00000000000E+00 0. -1.
         21   -1    0    0  503  504 -0.00000000000E+00 -0.00000000000E+00 -0.30532052201E+03  0.30532052201E+03  0.00000000000E+00 0. -1.
         25    2    1    2    0    0  0.83148289156E+01  0.23439853597E+02 -0.19140647740E+03  0.22995744200E+03  0.12500168969E+03 0.  0.
         25    2    1    2    0    0 -0.83148289156E+01 -0.23439853597E+02 -0.51730960398E+02  0.13754616421E+03  0.12499716760E+03 0.  0.
          5    1    3    3  501    0  0.31711539971E+02  0.44161817506E+02 -0.19068917148E+03  0.19834398910E+03  0.47000000000E+01 0.  1.
         -5    1    3    3    0  501 -0.23396711055E+02 -0.20721963909E+02 -0.71730591780E+00  0.31613452900E+02  0.47000000000E+01 0.  1.
          5    1    4    4  502    0  0.48686434862E+02 -0.36092596866E+02 -0.50383169568E+02  0.78953139671E+02  0.47000000000E+01 0. -1.
         -5    1    4    4    0  502 -0.57001263778E+02  0.12652743269E+02 -0.13477908301E+01  0.58593024539E+02  0.47000000000E+01 0. -1.
<mgrwt>
<rscale>  0 0.27557773E+03</rscale>
<asrwt>0</asrwt>
<pdfrwt beam="1">  1       21 0.95666286E-02 0.27557773E+03</pdfrwt>
<pdfrwt beam="2">  1       21 0.46972387E-01 0.27557773E+03</pdfrwt>
<totfact> 0.37364884E+05</totfact>
</mgrwt>
</event>
<event>
 8    1  0.9373234E-006  0.2671500E+03  0.7546771E-02  0.1102922E+00
         21   -1    0    0  504  503  0.00000000000E+00  0.00000000000E+00  0.49822315707E+02  0.49822315707E+02  0.00000000000E+00 0.  1.
         21   -1    0    0  503  504 -0.00000000000E+00 -0.00000000000E+00 -0.35811823866E+03  0.35811823866E+03  0.00000000000E+00 0.  1.
         25    2    1    2    0    0  0.10871995693E+02  0.42299320674E+02 -0.18112337608E+03  0.22434852998E+03  0.12497660871E+03 0.  0.
         25    2    1    2    0    0 -0.10871995693E+02 -0.42299320674E+02 -0.12717254687E+03  0.18359202438E+03  0.12500296764E+03 0.  0.
          5    1    3    3  501    0  0.34493435597E+02  0.25569185411E+02 -0.18909002442E+03  0.19396058279E+03  0.47000000000E+01 0. -1.
         -5    1    3    3    0  501 -0.23621439904E+02  0.16730135263E+02  0.79666483368E+01  0.30387947195E+02  0.47000000000E+01 0. -1.
          5    1    4    4  502    0 -0.99977797167E+01 -0.75836597429E+02 -0.12857999579E+03  0.14968650716E+03  0.47000000000E+01 0. -1.
         -5    1    4    4    0  502 -0.87421597665E+00  0.33537276755E+02  0.14074489159E+01  0.33905517223E+02  0.47000000000E+01 0. -1.
<mgrwt>
<rscale>  0 0.26714999E+03</rscale>
<asrwt>0</asrwt>
<pdfrwt beam="1">  1       21 0.76649716E-02 0.26714999E+03</pdfrwt>
<pdfrwt beam="2">  1       21 0.55095114E-01 0.26714999E+03</pdfrwt>
<totfact> 0.39509335E+05</totfact>
</mgrwt>
</event>
<event>
 8    1  0.9373234E-006  0.3218117E+03  0.7546771E-02  0.1074819E+00
         21   -1    0    0  504  503  0.00000000000E+00  0.00000000000E+00  0.45541606239E+03  0.45541606239E+03  0.00000000000E+00 0.  1.
         21   -1    0    0  503  504 -0.00000000000E+00 -0.00000000000E+00 -0.56850645857E+02  0.56850645857E+02  0.00000000000E+00 0.  1.
         25    2    1    2    0    0  0.75988888758E+02 -0.66356171729E+02  0.18434142449E+03  0.24450823546E+03  0.12500025473E+03 0.  0.
         25    2    1    2    0    0 -0.75988888758E+02  0.66356171729E+02  0.21422399204E+03  0.26775847279E+03  0.12500091296E+03 0.  0.
          5    1    3    3  501    0 -0.14098660111E+02 -0.59837805537E+02  0.11520262965E+03  0.13066396239E+03  0.47000000000E+01 0.  1.
         -5    1    3    3    0  501  0.90087548869E+02 -0.65183661921E+01  0.69138794839E+02  0.11384427307E+03  0.47000000000E+01 0.  1.
          5    1    4    4  502    0  0.14162223391E+02  0.67881823804E+02  0.10690987302E+03  0.12751596576E+03  0.47000000000E+01 0. -1.
         -5    1    4    4    0  502 -0.90151112149E+02 -0.15256520753E+01  0.10731411902E+03  0.14024250702E+03  0.47000000000E+01 0. -1.
<mgrwt>
<rscale>  0 0.32181173E+03</rscale>
<asrwt>0</asrwt>
<pdfrwt beam="1">  1       21 0.70064007E-01 0.32181173E+03</pdfrwt>
<pdfrwt beam="2">  1       21 0.87462535E-02 0.32181173E+03</pdfrwt>
<totfact> 0.18320617E+05</totfact>
</mgrwt>
</event>
<event>
 8    1  0.9373234E-006  0.3058992E+03  0.7546771E-02  0.1082328E+00
         21   -1    0    0  504  503  0.00000000000E+00  0.00000000000E+00  0.40605122347E+03  0.40605122347E+03  0.00000000000E+00 0. -1.
         21   -1    0    0  503  504 -0.00000000000E+00 -0.00000000000E+00 -0.57612403682E+02  0.57612403682E+02  0.00000000000E+00 0. -1.
         25    2    1    2    0    0  0.58909441916E+02  0.38783039236E+01  0.75034675762E+02  0.15728870040E+03  0.12499667643E+03 0.  0.
         25    2    1    2    0    0 -0.58909441916E+02 -0.38783039236E+01  0.27340414402E+03  0.30637492675E+03  0.12502162287E+03 0.  0.
          5    1    3    3  501    0  0.14555967190E+02  0.59340937538E+02  0.57400013445E+02  0.83964722308E+02  0.47000000000E+01 0. -1.
         -5    1    3    3    0  501  0.44353474726E+02 -0.55462633615E+02  0.17634662317E+02  0.73323978089E+02  0.47000000000E+01 0. -1.
          5    1    4    4  502    0  0.35866787170E+02  0.14696478113E+02  0.54272884881E+02  0.66858424481E+02  0.47000000000E+01 0.  1.
         -5    1    4    4    0  502 -0.94776229085E+02 -0.18574782036E+02  0.21913125914E+03  0.23951650227E+03  0.47000000000E+01 0.  1.
<mgrwt>
<rscale>  0 0.30589924E+03</rscale>
<asrwt>0</asrwt>
<pdfrwt beam="1">  1       21 0.62469417E-01 0.30589924E+03</pdfrwt>
<pdfrwt beam="2">  1       21 0.88634470E-02 0.30589924E+03</pdfrwt>
<totfact> 0.23139994E+05</totfact>
</mgrwt>
</event>
<event>
 8    1  0.9373234E-006  0.3973584E+03  0.7546771E-02  0.1044698E+00
         21   -1    0    0  504  503  0.00000000000E+00  0.00000000000E+00  0.18335829769E+03  0.18335829769E+03  0.00000000000E+00 0.  1.
         21   -1    0    0  503  504 -0.00000000000E+00 -0.00000000000E+00 -0.21528023542E+03  0.21528023542E+03  0.00000000000E+00 0.  1.
         25    2    1    2    0    0  0.92376907737E+02  0.12347654765E+03 -0.24258238669E+02  0.19998460149E+03  0.12500171113E+03 0.  0.
         25    2    1    2    0    0 -0.92376907737E+02 -0.12347654765E+03 -0.76636990586E+01  0.19865393162E+03  0.12499880544E+03 0.  0.
          5    1    3    3  501    0  0.10194640200E+03  0.14008929978E+03 -0.65160855621E+01  0.17344344947E+03  0.47000000000E+01 0. -1.
         -5    1    3    3    0  501 -0.95694942631E+01 -0.16612752123E+02 -0.17742153107E+02  0.26541152018E+02  0.47000000000E+01 0. -1.
          5    1    4    4  502    0 -0.10498235810E+02 -0.78469560532E+02  0.45114312146E+02  0.91241854681E+02  0.47000000000E+01 0.  1.
         -5    1    4    4    0  502 -0.81878671926E+02 -0.45006987123E+02 -0.52778011204E+02  0.10741207694E+03  0.47000000000E+01 0.  1.
<mgrwt>
<rscale>  0 0.39735836E+03</rscale>
<asrwt>0</asrwt>
<pdfrwt beam="1">  1       21 0.28208969E-01 0.39735836E+03</pdfrwt>
<pdfrwt beam="2">  1       21 0.33120036E-01 0.39735836E+03</pdfrwt>
<totfact> 0.99384553E+04</totfact>
</mgrwt>
</event>
<event>
 8    1  0.9373234E-006  0.2888852E+03  0.7546771E-02  0.1090933E+00
         21   -1    0    0  504  503  0.00000000000E+00  0.00000000000E+00  0.45276566171E+02  0.45276566171E+02  0.00000000000E+00 0. -1.
         21   -1    0    0  503  504 -0.00000000000E+00 -0.00000000000E+00 -0.46080498729E+03  0.46080498729E+03  0.00000000000E+00 0. -1.
         25    2    1    2    0    0 -0.13502931284E+02  0.57483937686E+00 -0.33233892572E+03  0.35532458147E+03  0.12499494813E+03 0.  0.
         25    2    1    2    0    0  0.13502931284E+02 -0.57483937686E+00 -0.83189495402E+02  0.15075697199E+03  0.12499805144E+03 0.  0.
          5    1    3    3  501    0 -0.37628063704E+01  0.60624686419E+02 -0.20931368612E+03  0.21799958833E+03  0.47000000000E+01 0. -1.
         -5    1    3    3    0  501 -0.97401249133E+01 -0.60049847042E+02 -0.12302523960E+03  0.13732499314E+03  0.47000000000E+01 0. -1.
          5    1    4    4  502    0 -0.31030163885E+02  0.43533243218E+02 -0.67012343713E+02  0.85853121933E+02  0.47000000000E+01 0.  1.
         -5    1    4    4    0  502  0.44533095168E+02 -0.44108082595E+02 -0.16177151689E+02  0.64903850057E+02  0.47000000000E+01 0.  1.
<mgrwt>
<rscale>  0 0.28888522E+03</rscale>
<asrwt>0</asrwt>
<pdfrwt beam="1">  1       21 0.69656257E-02 0.28888522E+03</pdfrwt>
<pdfrwt beam="2">  1       21 0.70893073E-01 0.28888522E+03</pdfrwt>
<totfact> 0.26809648E+05</totfact>
</mgrwt>
</event>
<event>
 8    1  0.9373234E-006  0.3263548E+03  0.7546771E-02  0.1072761E+00
         21   -1    0    0  504  503  0.00000000000E+00  0.00000000000E+00  0.12216222684E+03  0.12216222684E+03  0.00000000000E+00 0. -1.
         21   -1    0    0  503  504 -0.00000000000E+00 -0.00000000000E+00 -0.21796311842E+03  0.21796311842E+03  0.00000000000E+00 0. -1.
         25    2    1    2    0    0 -0.78730011818E+02  0.65113989247E+02 -0.23187682467E+02  0.16310042250E+03  0.12500333133E+03 0.  0.
         25    2    1    2    0    0  0.78730011818E+02 -0.65113989247E+02 -0.72613209117E+02  0.17702492276E+03  0.12500759490E+03 0.  0.
          5    1    3    3  501    0 -0.11937868970E+01  0.40416955687E+02 -0.60929445638E+02  0.73276481765E+02  0.47000000000E+01 0. -1.
         -5    1    3    3    0  501 -0.77536224921E+02  0.24697033560E+02  0.37741763171E+02  0.89823940733E+02  0.47000000000E+01 0. -1.
          5    1    4    4  502    0 -0.18007244276E+02 -0.43420281971E+02  0.95278998884E+01  0.48191831353E+02  0.47000000000E+01 0.  1.
         -5    1    4    4    0  502  0.96737256094E+02 -0.21693707276E+02 -0.82141109006E+02  0.12883309140E+03  0.47000000000E+01 0.  1.
<mgrwt>
<rscale>  0 0.32635478E+03</rscale>
<asrwt>0</asrwt>
<pdfrwt beam="1">  1       21 0.18794189E-01 0.32635478E+03</pdfrwt>
<pdfrwt beam="2">  1       21 0.33532787E-01 0.32635478E+03</pdfrwt>
<totfact> 0.21467184E+05</totfact>
</mgrwt>
</event>
<event>
 8    1  0.9373234E-006  0.6067717E+03  0.7546771E-02  0.9891456E-01
         21   -1    0    0  504  503  0.00000000000E+00  0.00000000000E+00  0.79523619629E+02  0.79523619629E+02  0.00000000000E+00 0.  1.
         21   -1    0    0  503  504 -0.00000000000E+00 -0.00000000000E+00 -0.11574295656E+04  0.11574295656E+04  0.00000000000E+00 0.  1.
         25    2    1    2    0    0  0.72847000191E+02  0.20633750806E+03 -0.19458187526E+03  0.31838364332E+03  0.12499674191E+03 0.  0.
         25    2    1    2    0    0 -0.72847000191E+02 -0.20633750806E+03 -0.88332407071E+03  0.91856954191E+03  0.12500694681E+03 0.  0.
          5    1    3    3  501    0  0.72234504019E+02  0.19408961062E+03 -0.21210981842E+03  0.29648147597E+03  0.47000000000E+01 0.  1.
         -5    1    3    3    0  501  0.61249617188E+00  0.12247897437E+02  0.17527943164E+02  0.21902167353E+02  0.47000000000E+01 0.  1.
          5    1    4    4  502    0 -0.58753556576E+01 -0.16563966861E+03 -0.48437360896E+03  0.51196767738E+03  0.47000000000E+01 0. -1.
         -5    1    4    4    0  502 -0.66971644534E+02 -0.40697839447E+02 -0.39895046175E+03  0.40660186453E+03  0.47000000000E+01 0. -1.
<mgrwt>
<rscale>  0 0.60677175E+03</rscale>
<asrwt>0</asrwt>
<pdfrwt beam="1">  1       21 0.12234404E-01 0.60677175E+03</pdfrwt>
<pdfrwt beam="2">  1       21 0.17806608E+00 0.60677175E+03</pdfrwt>
<totfact> 0.88900217E+03</totfact>
</mgrwt>
</event>
<event>
 8    1  0.9373234E-006  0.3927346E+03  0.7546771E-02  0.1046325E+00
         21   -1    0    0  504  503  0.00000000000E+00  0.00000000000E+00  0.97807057416E+03  0.97807057416E+03  0.00000000000E+00 0. -1.
         21   -1    0    0  503  504 -0.00000000000E+00 -0.00000000000E+00 -0.39424667324E+02  0.39424667324E+02  0.00000000000E+00 0. -1.
         25    2    1    2    0    0  0.96385205763E+01  0.58507863485E+02  0.83035838506E+03  0.84180503453E+03  0.12499838941E+03 0.  0.
         25    2    1    2    0    0 -0.96385205763E+01 -0.58507863485E+02  0.10828752178E+03  0.17569020696E+03  0.12499916111E+03 0.  0.
          5    1    3    3  501    0  0.74203536972E+01  0.39169981406E+02  0.66448408808E+02  0.77632661461E+02  0.47000000000E+01 0. -1.
         -5    1    3    3    0  501  0.22181668791E+01  0.19337882079E+02  0.76390997625E+03  0.76417237307E+03  0.47000000000E+01 0. -1.
          5    1    4    4  502    0  0.17123701083E+02 -0.11800036291E+02 -0.24411440441E+02  0.32410961412E+02  0.47000000000E+01 0. -1.
         -5    1    4    4    0  502 -0.26762221659E+02 -0.46707827193E+02  0.13269896222E+03  0.14327924554E+03  0.47000000000E+01 0. -1.
<mgrwt>
<rscale>  0 0.39273455E+03</rscale>
<asrwt>0</asrwt>
<pdfrwt beam="1">  1       21 0.15047238E+00 0.39273455E+03</pdfrwt>
<pdfrwt beam="2">  1       21 0.60653342E-02 0.39273455E+03</pdfrwt>
<totfact> 0.52965105E+04</totfact>
</mgrwt>
</event>
<event>
 8    1  0.9373234E-006  0.2768865E+03  0.7546771E-02  0.1097402E+00
         21   -1    0    0  504  503  0.00000000000E+00  0.00000000000E+00  0.42241282868E+03  0.42241282868E+03  0.00000000000E+00 0.  1.
         21   -1    0    0  503  504 -0.00000000000E+00 -0.00000000000E+00 -0.45373945850E+02  0.45373945850E+02  0.00000000000E+00 0.  1.
         25    2    1    2    0    0  0.29778314546E+02  0.50720448055E+02  0.20384059066E+03  0.24624183027E+03  0.12499896282E+03 0.  0.
         25    2    1    2    0    0 -0.29778314546E+02 -0.50720448055E+02  0.17319829216E+03  0.22154494426E+03  0.12500080819E+03 0.  0.
          5    1    3    3  501    0  0.73554914768E+02  0.39792478260E+02  0.17043478801E+03  0.18990490720E+03  0.47000000000E+01 0. -1.
         -5    1    3    3    0  501 -0.43776600222E+02  0.10927969795E+02  0.33405802650E+02  0.56336923075E+02  0.47000000000E+01 0. -1.
          5    1    4    4  502    0  0.35381386309E+02  0.20758061736E+02  0.49977652575E+02  0.64827427691E+02  0.47000000000E+01 0. -1.
         -5    1    4    4    0  502 -0.65159700855E+02 -0.71478509791E+02  0.12322063959E+03  0.15671751657E+03  0.47000000000E+01 0. -1.
<mgrwt>
<rscale>  0 0.27688652E+03</rscale>
<asrwt>0</asrwt>
<pdfrwt beam="1">  1       21 0.64986586E-01 0.27688652E+03</pdfrwt>
<pdfrwt beam="2">  1       21 0.69806073E-02 0.27688652E+03</pdfrwt>
<totfact> 0.32468388E+05</totfact>
</mgrwt>
</event>
<event>
 8    1  0.9373234E-006  0.2644462E+03  0.7546771E-02  0.1104501E+00
         21   -1    0    0  504  503  0.00000000000E+00  0.00000000000E+00  0.48695727221E+03  0.48695727221E+03  0.00000000000E+00 0. -1.
         21   -1    0    0  503  504 -0.00000000000E+00 -0.00000000000E+00 -0.35902425916E+02  0.35902425916E+02  0.00000000000E+00 0. -1.
         25    2    1    2    0    0  0.38907891811E+02 -0.16395738720E+02  0.20834703903E+03  0.24660793094E+03  0.12499735453E+03 0.  0.
         25    2    1    2    0    0 -0.38907891811E+02  0.16395738720E+02  0.24270780726E+03  0.27625176718E+03  0.12500125947E+03 0.  0.
          5    1    3    3  501    0 -0.41305757133E+02 -0.16604070885E+02  0.39851267194E+02  0.59933915600E+02  0.47000000000E+01 0.  1.
         -5    1    3    3    0  501  0.80213648944E+02  0.20833216466E+00  0.16849577183E+03  0.18667401534E+03  0.47000000000E+01 0.  1.
          5    1    4    4  502    0 -0.16766052705E+02  0.52181123862E+02  0.37152347165E+02  0.66380397036E+02  0.47000000000E+01 0. -1.
         -5    1    4    4    0  502 -0.22141839106E+02 -0.35785385142E+02  0.20555546010E+03  0.20987137014E+03  0.47000000000E+01 0. -1.
<mgrwt>
<rscale>  0 0.26444619E+03</rscale>
<asrwt>0</asrwt>
<pdfrwt beam="1">  1       21 0.74916499E-01 0.26444619E+03</pdfrwt>
<pdfrwt beam="2">  1       21 0.55234505E-02 0.26444619E+03</pdfrwt>
<totfact> 0.35566066E+05</totfact>
</mgrwt>
</event>
<event>
 8    1  0.9373234E-006  0.3633260E+03  0.7546771E-02  0.1057275E+00
         21   -1    0    0  504  503  0.00000000000E+00  0.00000000000E+00  0.98877565147E+02  0.98877565147E+02  0.00000000000E+00 0. -1.
         21   -1    0    0  503  504 -0.00000000000E+00 -0.00000000000E+00 -0.33376062142E+03  0.33376062142E+03  0.00000000000E+00 0. -1.
         25    2    1    2    0    0  0.16982844438E+02  0.81281455037E+02 -0.23933748021E+03  0.28249368293E+03  0.12500063810E+03 0.  0.
         25    2    1    2    0    0 -0.16982844438E+02 -0.81281455037E+02  0.44544239356E+01  0.15014450364E+03  0.12501375181E+03 0.  0.
          5    1    3    3  501    0  0.84102277316E+01  0.70797891600E+02 -0.25287592298E+03  0.26277632277E+03  0.47000000000E+01 0. -1.
         -5    1    3    3    0  501  0.85726167063E+01  0.10483563437E+02  0.13538442763E+02  0.19717360167E+02  0.47000000000E+01 0. -1.
          5    1    4    4  502    0 -0.16276260562E+02  0.82080368043E+01  0.47230002462E+02  0.50843403295E+02  0.47000000000E+01 0.  1.
         -5    1    4    4    0  502 -0.70658387543E+00 -0.89489491842E+02 -0.42775578527E+02  0.99301100342E+02  0.47000000000E+01 0.  1.
<mgrwt>
<rscale>  0 0.36332596E+03</rscale>
<asrwt>0</asrwt>
<pdfrwt beam="1">  1       21 0.15211933E-01 0.36332596E+03</pdfrwt>
<pdfrwt beam="2">  1       21 0.51347788E-01 0.36332596E+03</pdfrwt>
<totfact> 0.13135008E+05</totfact>
</mgrwt>
</event>
<event>
 8    1  0.9373234E-006  0.2957576E+03  0.7546771E-02  0.1087381E+00
         21   -1    0    0  504  503  0.00000000000E+00  0.00000000000E+00  0.46345094902E+02  0.46345094902E+02  0.00000000000E+00 0.  1.
         21   -1    0    0  503  504 -0.00000000000E+00 -0.00000000000E+00 -0.47185459637E+03  0.47185459637E+03  0.00000000000E+00 0.  1.
         25    2    1    2    0    0  0.23086257406E+00 -0.60410293394E+02 -0.30201656050E+03  0.33239900033E+03  0.12500254301E+03 0.  0.
         25    2    1    2    0    0 -0.23086257406E+00  0.60410293394E+02 -0.12349294096E+03  0.18580069094E+03  0.12498773316E+03 0.  0.
          5    1    3    3  501    0 -0.51015052283E+02 -0.56780987799E+02 -0.23911862765E+03  0.25105064076E+03  0.47000000000E+01 0. -1.
         -5    1    3    3    0  501  0.51245914857E+02 -0.36293055952E+01 -0.62897932854E+02  0.81348359577E+02  0.47000000000E+01 0. -1.
          5    1    4    4  502    0  0.36946033022E+01  0.60476263639E+02  0.13711618774E+01  0.60786500493E+02  0.47000000000E+01 0. -1.
         -5    1    4    4    0  502 -0.39254658762E+01 -0.65970244951E-01 -0.12486410284E+03  0.12501419045E+03  0.47000000000E+01 0. -1.
<mgrwt>
<rscale>  0 0.29575764E+03</rscale>
<asrwt>0</asrwt>
<pdfrwt beam="1">  1       21 0.71300146E-02 0.29575764E+03</pdfrwt>
<pdfrwt beam="2">  1       21 0.72593015E-01 0.29575764E+03</pdfrwt>
<totfact> 0.24374131E+05</totfact>
</mgrwt>
</event>
<event>
 8    1  0.9373234E-006  0.3265336E+03  0.7546771E-02  0.1072681E+00
         21   -1    0    0  504  503  0.00000000000E+00  0.00000000000E+00  0.80881933111E+03  0.80881933111E+03  0.00000000000E+00 0.  1.
         21   -1    0    0  503  504 -0.00000000000E+00 -0.00000000000E+00 -0.32956738688E+02  0.32956738688E+02  0.00000000000E+00 0.  1.
         25    2    1    2    0    0 -0.67868307360E+02 -0.65821261926E+02  0.50582452016E+03  0.52954792038E+03  0.12499603641E+03 0.  0.
         25    2    1    2    0    0  0.67868307360E+02  0.65821261926E+02  0.27003807227E+03  0.31222814942E+03  0.12500924427E+03 0.  0.
          5    1    3    3  501    0 -0.10245910810E+03 -0.30988218426E+02  0.36035090762E+03  0.37594282163E+03  0.47000000000E+01 0.  1.
         -5    1    3    3    0  501  0.34590800743E+02 -0.34833043500E+02  0.14547361253E+03  0.15360509874E+03  0.47000000000E+01 0.  1.
          5    1    4    4  502    0  0.44226840415E+02  0.84165760603E+02  0.94640186010E+02  0.13423391330E+03  0.47000000000E+01 0. -1.
         -5    1    4    4    0  502  0.23641466945E+02 -0.18344498677E+02  0.17539788626E+03  0.17799423613E+03  0.47000000000E+01 0. -1.
<mgrwt>
<rscale>  0 0.32653360E+03</rscale>
<asrwt>0</asrwt>
<pdfrwt beam="1">  1       21 0.12443373E+00 0.32653360E+03</pdfrwt>
<pdfrwt beam="2">  1       21 0.50702681E-02 0.32653360E+03</pdfrwt>
<totfact> 0.12096922E+05</totfact>
</mgrwt>
</event>
<event>
 8    1  0.9373234E-006  0.3713043E+03  0.7546771E-02  0.1054195E+00
         21   -1    0    0  504  503  0.00000000000E+00  0.00000000000E+00  0.50359244780E+03  0.50359244780E+03  0.00000000000E+00 0. -1.
         21   -1    0    0  503  504 -0.00000000000E+00 -0.00000000000E+00 -0.68441692785E+02  0.68441692785E+02  0.00000000000E+00 0. -1.
         25    2    1    2    0    0 -0.11048415464E+03  0.19520920693E+01  0.34302265887E+03  0.38144802361E+03  0.12500996411E+03 0.  0.
         25    2    1    2    0    0  0.11048415464E+03 -0.19520920693E+01  0.92128096141E+02  0.19058611697E+03  0.12499969117E+03 0.  0.
          5    1    3    3  501    0 -0.92141387135E+02 -0.53349330423E+02  0.19354796087E+03  0.22095042303E+03  0.47000000000E+01 0. -1.
         -5    1    3    3    0  501 -0.18342767508E+02  0.55301422492E+02  0.14947469800E+03  0.16049760058E+03  0.47000000000E+01 0. -1.
          5    1    4    4  502    0  0.77513548531E+01 -0.43774091582E+02 -0.24116731760E+01  0.44767854130E+02  0.47000000000E+01 0.  1.
         -5    1    4    4    0  502  0.10273279979E+03  0.41821999513E+02  0.94539769317E+02  0.14581826284E+03  0.47000000000E+01 0.  1.
<mgrwt>
<rscale>  0 0.37130429E+03</rscale>
<asrwt>0</asrwt>
<pdfrwt beam="1">  1       21 0.77475759E-01 0.37130429E+03</pdfrwt>
<pdfrwt beam="2">  1       21 0.10529492E-01 0.37130429E+03</pdfrwt>
<totfact> 0.10365690E+05</totfact>
</mgrwt>
</event>
<event>
 8    1  0.9373234E-006  0.3006383E+03  0.7546771E-02  0.1084922E+00
         21   -1    0    0  504  503  0.00000000000E+00  0.00000000000E+00  0.32866805077E+02  0.32866805077E+02  0.00000000000E+00 0.  1.
         21   -1    0    0  503  504 -0.00000000000E+00 -0.00000000000E+00 -0.68749731492E+03  0.68749731492E+03  0.00000000000E+00 0.  1.
         25    2    1    2    0    0  0.41234523067E+02 -0.69902275949E+02 -0.28031171898E+03  0.31746759635E+03  0.12499760339E+03 0.  0.
         25    2    1    2    0    0 -0.41234523067E+02  0.69902275949E+02 -0.37431879086E+03  0.40289652365E+03  0.12499775000E+03 0.  0.
          5    1    3    3  501    0  0.56235961756E+02 -0.42586782683E+02 -0.53973635247E+02  0.88945830458E+02  0.47000000000E+01 0.  1.
         -5    1    3    3    0  501 -0.15001438689E+02 -0.27315493265E+02 -0.22633808374E+03  0.22852176589E+03  0.47000000000E+01 0.  1.
          5    1    4    4  502    0 -0.49593267405E+02  0.96094558088E+02 -0.34837872371E+03  0.36480608739E+03  0.47000000000E+01 0.  1.
         -5    1    4    4    0  502  0.83587443373E+01 -0.26192282139E+02 -0.25940067152E+02  0.38090436259E+02  0.47000000000E+01 0.  1.
<mgrwt>
<rscale>  0 0.30063826E+03</rscale>
<asrwt>0</asrwt>
<pdfrwt beam="1">  1       21 0.50564317E-02 0.30063826E+03</pdfrwt>
<pdfrwt beam="2">  1       21 0.10576882E+00 0.30063826E+03</pdfrwt>
<totfact> 0.18320817E+05</totfact>
</mgrwt>
</event>
<event>
 8    1  0.9373234E-006  0.2729195E+03  0.7546771E-02  0.1099620E+00
         21   -1    0    0  504  503  0.00000000000E+00  0.00000000000E+00  0.39906354859E+03  0.39906354859E+03  0.00000000000E+00 0.  1.
         21   -1    0    0  503  504 -0.00000000000E+00 -0.00000000000E+00 -0.46662393861E+02  0.46662393861E+02  0.00000000000E+00 0.  1.
         25    2    1    2    0    0 -0.24996704087E+02 -0.48393496272E+02  0.18506198373E+03  0.22987085487E+03  0.12500362556E+03 0.  0.
         25    2    1    2    0    0  0.24996704087E+02  0.48393496272E+02  0.16733917101E+03  0.21585508758E+03  0.12499701991E+03 0.  0.
          5    1    3    3  501    0  0.25263885306E+02  0.90961068631E+00  0.14790479809E+03  0.15012331794E+03  0.47000000000E+01 0.  1.
         -5    1    3    3    0  501 -0.50260589393E+02 -0.49303106958E+02  0.37157185636E+02  0.79747536929E+02  0.47000000000E+01 0.  1.
          5    1    4    4  502    0 -0.36939485101E+02  0.47717124266E+02  0.35637808839E+02  0.70239539624E+02  0.47000000000E+01 0. -1.
         -5    1    4    4    0  502  0.61936189188E+02  0.67637200559E+00  0.13170136217E+03  0.14561554796E+03  0.47000000000E+01 0. -1.
<mgrwt>
<rscale>  0 0.27291948E+03</rscale>
<asrwt>0</asrwt>
<pdfrwt beam="1">  1       21 0.61394390E-01 0.27291948E+03</pdfrwt>
<pdfrwt beam="2">  1       21 0.71788301E-02 0.27291948E+03</pdfrwt>
<totfact> 0.35043620E+05</totfact>
</mgrwt>
</event>
<event>
 8    1  0.9373234E-006  0.3569284E+03  0.7546771E-02  0.1059807E+00
         21   -1    0    0  504  503  0.00000000000E+00  0.00000000000E+00  0.56453854382E+03  0.56453854382E+03  0.00000000000E+00 0.  1.
         21   -1    0    0  503  504 -0.00000000000E+00 -0.00000000000E+00 -0.56416814128E+02  0.56416814128E+02  0.00000000000E+00 0.  1.
         25    2    1    2    0    0  0.36920748214E+01 -0.88667456836E+02  0.41301295122E+03  0.44054437674E+03  0.12499640267E+03 0.  0.
         25    2    1    2    0    0 -0.36920748214E+01  0.88667456836E+02  0.95108778469E+02  0.18041098121E+03  0.12500757209E+03 0.  0.
          5    1    3    3  501    0  0.31256081213E+02 -0.11214162692E+03  0.32535768267E+03  0.34558992863E+03  0.47000000000E+01 0. -1.
         -5    1    3    3    0  501 -0.27564006391E+02  0.23474170086E+02  0.87655268558E+02  0.94954448108E+02  0.47000000000E+01 0. -1.
          5    1    4    4  502    0 -0.58045553844E+02  0.21248074231E+02  0.18498614173E+02  0.64692006507E+02  0.47000000000E+01 0.  1.
         -5    1    4    4    0  502  0.54353479023E+02  0.67419382605E+02  0.76610164296E+02  0.11571897470E+03  0.47000000000E+01 0.  1.
<mgrwt>
<rscale>  0 0.35692837E+03</rscale>
<asrwt>0</asrwt>
<pdfrwt beam="1">  1       21 0.86852080E-01 0.35692837E+03</pdfrwt>
<pdfrwt beam="2">  1       21 0.86795102E-02 0.35692837E+03</pdfrwt>
<totfact> 0.11279448E+05</totfact>
</mgrwt>
</event>
<event>
 8    1  0.9373234E-006  0.2766057E+03  0.7546771E-02  0.1097557E+00
         21   -1    0    0  504  503  0.00000000000E+00  0.00000000000E+00  0.82392873424E+02  0.82392873424E+02  0.00000000000E+00 0.  1.
         21   -1    0    0  503  504 -0.00000000000E+00 -0.00000000000E+00 -0.23215208878E+03  0.23215208878E+03  0.00000000000E+00 0.  1.
         25    2    1    2    0    0 -0.13258310890E+01 -0.15354675829E+02 -0.99000453256E+01  0.12633351661E+03  0.12499849049E+03 0.  0.
         25    2    1    2    0    0  0.13258310890E+01  0.15354675829E+02 -0.13985917003E+03  0.18821144559E+03  0.12500174764E+03 0.  0.
          5    1    3    3  501    0  0.36504957965E+02 -0.30720218918E+02 -0.49746214752E+02  0.69087768009E+02  0.47000000000E+01 0. -1.
         -5    1    3    3    0  501 -0.37830789054E+02  0.15365543089E+02  0.39846169426E+02  0.57245748600E+02  0.47000000000E+01 0. -1.
          5    1    4    4  502    0 -0.60400586015E+02  0.10564239226E+02 -0.87741236874E+02  0.10714685525E+03  0.47000000000E+01 0. -1.
         -5    1    4    4    0  502  0.61726417104E+02  0.47904366032E+01 -0.52117933151E+02  0.81064590342E+02  0.47000000000E+01 0. -1.
<mgrwt>
<rscale>  0 0.27660570E+03</rscale>
<asrwt>0</asrwt>
<pdfrwt beam="1">  1       21 0.12675827E-01 0.27660570E+03</pdfrwt>
<pdfrwt beam="2">  1       21 0.35715705E-01 0.27660570E+03</pdfrwt>
<totfact> 0.39496075E+05</totfact>
</mgrwt>
</event>
<event>
 8    1  0.9373234E-006  0.4892985E+03  0.7546771E-02  0.1016611E+00
         21   -1    0    0  504  503  0.00000000000E+00  0.00000000000E+00  0.11600708201E+03  0.11600708201E+03  0.00000000000E+00 0.  1.
         21   -1    0    0  503  504 -0.00000000000E+00 -0.00000000000E+00 -0.51594486651E+03  0.51594486651E+03  0.00000000000E+00 0.  1.
         25    2    1    2    0    0  0.44303134506E+02  0.62916959316E+02  0.52815435232E+02  0.15599715817E+03  0.12499732662E+03 0.  0.
         25    2    1    2    0    0 -0.44303134506E+02 -0.62916959316E+02 -0.45275321974E+03  0.47595479035E+03  0.12500469184E+03 0.  0.
          5    1    3    3  501    0  0.78032154784E+01 -0.17682056856E+02  0.63694993576E+02  0.66728461042E+02  0.47000000000E+01 0.  1.
         -5    1    3    3    0  501  0.36499919028E+02  0.80599016172E+02 -0.10879558344E+02  0.89268697127E+02  0.47000000000E+01 0.  1.
          5    1    4    4  502    0 -0.26084284911E+02  0.20526090253E+02 -0.29147811330E+03  0.29339954130E+03  0.47000000000E+01 0. -1.
         -5    1    4    4    0  502 -0.18218849595E+02 -0.83443049569E+02 -0.16127510643E+03  0.18255524905E+03  0.47000000000E+01 0. -1.
<mgrwt>
<rscale>  0 0.48929851E+03</rscale>
<asrwt>0</asrwt>
<pdfrwt beam="1">  1       21 0.17847243E-01 0.48929851E+03</pdfrwt>
<pdfrwt beam="2">  1       21 0.79376133E-01 0.48929851E+03</pdfrwt>
<totfact> 0.36159222E+04</totfact>
</mgrwt>
</event>
<event>
 8    1  0.9373234E-006  0.2927970E+03  0.7546771E-02  0.1088898E+00
         21   -1    0    0  504  503  0.00000000000E+00  0.00000000000E+00  0.14916445237E+03  0.14916445237E+03  0.00000000000E+00 0. -1.
         21   -1    0    0  503  504 -0.00000000000E+00 -0.00000000000E+00 -0.14368381421E+03  0.14368381421E+03  0.00000000000E+00 0. -1.
         25    2    1    2    0    0 -0.61879418976E+02  0.12188849944E+02  0.45549374862E+02  0.14723545395E+03  0.12500361112E+03 0.  0.
         25    2    1    2    0    0  0.61879418976E+02 -0.12188849944E+02 -0.40068736698E+02  0.14561281263E+03  0.12497982632E+03 0.  0.
          5    1    3    3  501    0 -0.60330913442E+02 -0.26930981876E+01  0.85233151806E+02  0.10456506138E+03  0.47000000000E+01 0. -1.
         -5    1    3    3    0  501 -0.15485055335E+01  0.14881948131E+02 -0.39683776945E+02  0.42670392571E+02  0.47000000000E+01 0. -1.
          5    1    4    4  502    0 -0.27511217106E+02 -0.22570982874E+02  0.16192537709E+02  0.39377717202E+02  0.47000000000E+01 0.  1.
         -5    1    4    4    0  502  0.89390636082E+02  0.10382132930E+02 -0.56261274407E+02  0.10623509543E+03  0.47000000000E+01 0.  1.
<mgrwt>
<rscale>  0 0.29279698E+03</rscale>
<asrwt>0</asrwt>
<pdfrwt beam="1">  1       21 0.22948377E-01 0.29279698E+03</pdfrwt>
<pdfrwt beam="2">  1       21 0.22105202E-01 0.29279698E+03</pdfrwt>
<totfact> 0.33349228E+05</totfact>
</mgrwt>
</event>
<event>
 8    1  0.9373234E-006  0.4142855E+03  0.7546771E-02  0.1038942E+00
         21   -1    0    0  504  503  0.00000000000E+00  0.00000000000E+00  0.20793653949E+04  0.20793653949E+04  0.00000000000E+00 0.  1.
         21   -1    0    0  503  504 -0.00000000000E+00 -0.00000000000E+00 -0.20635203851E+02  0.20635203851E+02  0.00000000000E+00 0.  1.
         25    2    1    2    0    0  0.85906652749E+02  0.12995104356E+02  0.31727495621E+03  0.35190449770E+03  0.12499820775E+03 0.  0.
         25    2    1    2    0    0 -0.85906652749E+02 -0.12995104356E+02  0.17414552349E+04  0.17480961011E+04  0.12499927132E+03 0.  0.
          5    1    3    3  501    0  0.10596050175E+03 -0.20679099583E+02  0.26660971042E+03  0.28767704250E+03  0.47000000000E+01 0. -1.
         -5    1    3    3    0  501 -0.20053849005E+02  0.33674203938E+02  0.50665245790E+02  0.64227455203E+02  0.47000000000E+01 0. -1.
          5    1    4    4  502    0 -0.10431110470E+03 -0.27880450503E+02  0.92625846952E+03  0.93254220733E+03  0.47000000000E+01 0.  1.
         -5    1    4    4    0  502  0.18404451954E+02  0.14885346147E+02  0.81519676535E+03  0.81555389376E+03  0.47000000000E+01 0.  1.
<mgrwt>
<rscale>  0 0.41428555E+03</rscale>
<asrwt>0</asrwt>
<pdfrwt beam="1">  1       21 0.31990220E+00 0.41428555E+03</pdfrwt>
<pdfrwt beam="2">  1       21 0.31746484E-02 0.41428555E+03</pdfrwt>
<totfact> 0.12877059E+04</totfact>
</mgrwt>
</event>
<event>
 8    1  0.9373234E-006  0.5108283E+03  0.7546771E-02  0.1010991E+00
         21   -1    0    0  504  503  0.00000000000E+00  0.00000000000E+00  0.47639342872E+03  0.47639342872E+03  0.00000000000E+00 0.  1.
         21   -1    0    0  503  504 -0.00000000000E+00 -0.00000000000E+00 -0.13693804587E+03  0.13693804587E+03  0.00000000000E+00 0.  1.
         25    2    1    2    0    0 -0.39378418296E+02 -0.21913533497E+03  0.16212318095E+03  0.30245844885E+03  0.12500493038E+03 0.  0.
         25    2    1    2    0    0  0.39378418296E+02  0.21913533497E+03  0.17733220190E+03  0.31087302574E+03  0.12499749374E+03 0.  0.
          5    1    3    3  501    0 -0.29008599699E+02 -0.22158846129E+03  0.17588474410E+03  0.28443009377E+03  0.47000000000E+01 0. -1.
         -5    1    3    3    0  501 -0.10369818597E+02  0.24531263236E+01 -0.13761563151E+02  0.18028355079E+02  0.47000000000E+01 0. -1.
          5    1    4    4  502    0  0.31839235376E+02  0.99653059153E+00  0.46870578881E+01  0.32539030320E+02  0.47000000000E+01 0. -1.
         -5    1    4    4    0  502  0.75391829208E+01  0.21813880438E+03  0.17264514401E+03  0.27833399542E+03  0.47000000000E+01 0. -1.
<mgrwt>
<rscale>  0 0.51082829E+03</rscale>
<asrwt>0</asrwt>
<pdfrwt beam="1">  1       21 0.73291296E-01 0.51082829E+03</pdfrwt>
<pdfrwt beam="2">  1       21 0.21067392E-01 0.51082829E+03</pdfrwt>
<totfact> 0.31527237E+04</totfact>
</mgrwt>
</event>
<event>
 8    1  0.9373234E-006  0.2673328E+03  0.7546771E-02  0.1102816E+00
         21   -1    0    0  504  503  0.00000000000E+00  0.00000000000E+00  0.22290433163E+03  0.22290433163E+03  0.00000000000E+00 0.  1.
         21   -1    0    0  503  504 -0.00000000000E+00 -0.00000000000E+00 -0.80154139737E+02  0.80154139737E+02  0.00000000000E+00 0.  1.
         25    2    1    2    0    0  0.59792225910E+01  0.42553897875E+02  0.93915076717E+02  0.16214693352E+03  0.12500000435E+03 0.  0.
         25    2    1    2    0    0 -0.59792225910E+01 -0.42553897875E+02  0.48835115173E+02  0.14091153785E+03  0.12499843078E+03 0.  0.
          5    1    3    3  501    0  0.27581412893E+02 -0.38722217236E+02  0.29978183559E+02  0.56399697999E+02  0.47000000000E+01 0.  1.
         -5    1    3    3    0  501 -0.21602190302E+02  0.81276115111E+02  0.63936893158E+02  0.10574723552E+03  0.47000000000E+01 0.  1.
          5    1    4    4  502    0 -0.77770305016E+01  0.42686464399E+02  0.31389665280E+02  0.53758883291E+02  0.47000000000E+01 0.  1.
         -5    1    4    4    0  502  0.17978079106E+01 -0.85240362275E+02  0.17445449893E+02  0.87152654555E+02  0.47000000000E+01 0.  1.
<mgrwt>
<rscale>  0 0.26733279E+03</rscale>
<asrwt>0</asrwt>
<pdfrwt beam="1">  1       21 0.34292974E-01 0.26733279E+03</pdfrwt>
<pdfrwt beam="2">  1       21 0.12331406E-01 0.26733279E+03</pdfrwt>
<totfact> 0.45107795E+05</totfact>
</mgrwt>
</event>
<event>
 8    1  0.9373234E-006  0.2851820E+03  0.7546771E-02  0.1092892E+00
         21   -1    0    0  504  503  0.00000000000E+00  0.00000000000E+00  0.57254114314E+03  0.57254114314E+03  0.00000000000E+00 0. -1.
         21   -1    0    0  503  504 -0.00000000000E+00 -0.00000000000E+00 -0.35512187616E+02  0.35512187616E+02  0.00000000000E+00 0. -1.
         25    2    1    2    0    0 -0.20961408029E+02  0.15953777857E+02  0.40357517368E+03  0.42331182959E+03  0.12500432233E+03 0.  0.
         25    2    1    2    0    0  0.20961408029E+02 -0.15953777857E+02  0.13345378185E+03  0.18474150117E+03  0.12500242682E+03 0.  0.
          5    1    3    3  501    0  0.19706084993E+02 -0.46760415711E+02  0.20023276694E+03  0.20661586875E+03  0.47000000000E+01 0.  1.
         -5    1    3    3    0  501 -0.40667493022E+02  0.62714193568E+02  0.20334240674E+03  0.21669596084E+03  0.47000000000E+01 0.  1.
          5    1    4    4  502    0 -0.42707105933E+02  0.18454415346E+02  0.21778530591E+02  0.51583492880E+02  0.47000000000E+01 0. -1.
         -5    1    4    4    0  502  0.63668513962E+02 -0.34408193204E+02  0.11167525125E+03  0.13315800829E+03  0.47000000000E+01 0. -1.
<mgrwt>
<rscale>  0 0.28518197E+03</rscale>
<asrwt>0</asrwt>
<pdfrwt beam="1">  1       21 0.88083246E-01 0.28518197E+03</pdfrwt>
<pdfrwt beam="2">  1       21 0.54634139E-02 0.28518197E+03</pdfrwt>
<totfact> 0.24897864E+05</totfact>
</mgrwt>
</event>
<event>
 8    1  0.9373234E-006  0.4956169E+03  0.7546771E-02  0.1014929E+00
         21   -1    0    0  504  503  0.00000000000E+00  0.00000000000E+00  0.12798645809E+04  0.12798645809E+04  0.00000000000E+00 0. -1.
         21   -1    0    0  503  504 -0.00000000000E+00 -0.00000000000E+00 -0.47980880346E+02  0.47980880346E+02  0.00000000000E+00 0. -1.
         25    2    1    2    0    0 -0.10372004289E+03 -0.18545335229E+03  0.68339547089E+03  0.72650129670E+03  0.12499588519E+03 0.  0.
         25    2    1    2    0    0  0.10372004289E+03  0.18545335229E+03  0.54848822966E+03  0.60134416453E+03  0.12499869187E+03 0.  0.
          5    1    3    3  501    0 -0.96679881863E-01  0.10182605956E+02  0.39625377523E+01  0.11894810486E+02  0.47000000000E+01 0. -1.
         -5    1    3    3    0  501 -0.10362336301E+03 -0.19563595825E+03  0.67943293313E+03  0.71460648622E+03  0.47000000000E+01 0. -1.
          5    1    4    4  502    0  0.36216495469E+02  0.12324052036E+03  0.17759544925E+03  0.21923068671E+03  0.47000000000E+01 0. -1.
         -5    1    4    4    0  502  0.67503547422E+02  0.62212831935E+02  0.37089278041E+03  0.38211347782E+03  0.47000000000E+01 0. -1.
<mgrwt>
<rscale>  0 0.49561691E+03</rscale>
<asrwt>0</asrwt>
<pdfrwt beam="1">  1       21 0.19690222E+00 0.49561691E+03</pdfrwt>
<pdfrwt beam="2">  1       21 0.73816749E-02 0.49561691E+03</pdfrwt>
<totfact> 0.16832000E+04</totfact>
</mgrwt>
</event>
<event>
 8    1  0.9373234E-006  0.5935222E+03  0.7546771E-02  0.9918937E-01
         21   -1    0    0  504  503  0.00000000000E+00  0.00000000000E+00  0.14138976985E+03  0.14138976985E+03  0.00000000000E+00 0. -1.
         21   -1    0    0  503  504 -0.00000000000E+00 -0.00000000000E+00 -0.62286795471E+03  0.62286795471E+03  0.00000000000E+00 0. -1.
         25    2    1    2    0    0 -0.11686220527E+03  0.24243088976E+03 -0.24525448949E+03  0.38497226593E+03  0.12499747831E+03 0.  0.
         25    2    1    2    0    0  0.11686220527E+03 -0.24243088976E+03 -0.23622369536E+03  0.37928545863E+03  0.12500525409E+03 0.  0.
          5    1    3    3  501    0 -0.13968191171E+03  0.20207380858E+03 -0.22827671218E+03  0.33537621844E+03  0.47000000000E+01 0.  1.
         -5    1    3    3    0  501  0.22819706438E+02  0.40357081186E+02 -0.16977777310E+02  0.49596047485E+02  0.47000000000E+01 0.  1.
          5    1    4    4  502    0  0.99312722518E+02 -0.19650710082E+03 -0.11512501539E+03  0.24850335349E+03  0.47000000000E+01 0. -1.
         -5    1    4    4    0  502  0.17549482750E+02 -0.45923788943E+02 -0.12109867997E+03  0.13078210515E+03  0.47000000000E+01 0. -1.
<mgrwt>
<rscale>  0 0.59352222E+03</rscale>
<asrwt>0</asrwt>
<pdfrwt beam="1">  1       21 0.21752272E-01 0.59352222E+03</pdfrwt>
<pdfrwt beam="2">  1       21 0.95825839E-01 0.59352222E+03</pdfrwt>
<totfact> 0.15534815E+04</totfact>
</mgrwt>
</event>
<event>
 8    1  0.9373234E-006  0.2744503E+03  0.7546771E-02  0.1098759E+00
         21   -1    0    0  504  503  0.00000000000E+00  0.00000000000E+00  0.63332712043E+02  0.63332712043E+02  0.00000000000E+00 0. -1.
         21   -1    0    0  503  504 -0.00000000000E+00 -0.00000000000E+00 -0.29733042603E+03  0.29733042603E+03  0.00000000000E+00 0. -1.
         25    2    1    2    0    0 -0.13367616436E+02 -0.16899566753E+02 -0.18582217703E+03  0.22497940753E+03  0.12498625448E+03 0.  0.
         25    2    1    2    0    0  0.13367616436E+02  0.16899566753E+02 -0.48175536957E+02  0.13568373055E+03  0.12499961539E+03 0.  0.
          5    1    3    3  501    0  0.44241031035E+01 -0.29859274650E+02 -0.19734379230E+03  0.19969429469E+03  0.47000000000E+01 0. -1.
         -5    1    3    3    0  501 -0.17791719540E+02  0.12959707897E+02  0.11521615270E+02  0.25285112841E+02  0.47000000000E+01 0. -1.
          5    1    4    4  502    0  0.40330275442E+02 -0.11973526020E+02 -0.76097626319E+02  0.87079476192E+02  0.47000000000E+01 0.  1.
         -5    1    4    4    0  502 -0.26962659005E+02  0.28873092772E+02  0.27922089362E+02  0.48604254353E+02  0.47000000000E+01 0.  1.
<mgrwt>
<rscale>  0 0.27445030E+03</rscale>
<asrwt>0</asrwt>
<pdfrwt beam="1">  1       21 0.97434943E-02 0.27445030E+03</pdfrwt>
<pdfrwt beam="2">  1       21 0.45743142E-01 0.27445030E+03</pdfrwt>
<totfact> 0.38227980E+05</totfact>
</mgrwt>
</event>
<event>
 8    1  0.9373234E-006  0.3085643E+03  0.7546771E-02  0.1081036E+00
         21   -1    0    0  504  503  0.00000000000E+00  0.00000000000E+00  0.10729732094E+03  0.10729732094E+03  0.00000000000E+00 0.  1.
         21   -1    0    0  503  504 -0.00000000000E+00 -0.00000000000E+00 -0.22184136179E+03  0.22184136179E+03  0.00000000000E+00 0.  1.
         25    2    1    2    0    0 -0.25017473247E+02  0.78354938983E+02 -0.17161481290E+02  0.15060673630E+03  0.12499000819E+03 0.  0.
         25    2    1    2    0    0  0.25017473247E+02 -0.78354938983E+02 -0.97382559561E+02  0.17853194644E+03  0.12499969025E+03 0.  0.
          5    1    3    3  501    0  0.26298887553E+01  0.77808370389E+02  0.39467418700E+02  0.87411818173E+02  0.47000000000E+01 0. -1.
         -5    1    3    3    0  501 -0.27647362002E+02  0.54656859408E+00 -0.56628899990E+02  0.63194918126E+02  0.47000000000E+01 0. -1.
          5    1    4    4  502    0 -0.49704720718E+02 -0.35408107197E+02 -0.25900055713E+02  0.66461990663E+02  0.47000000000E+01 0. -1.
         -5    1    4    4    0  502  0.74722193965E+02 -0.42946831786E+02 -0.71482503848E+02  0.11206995578E+03  0.47000000000E+01 0. -1.
<mgrwt>
<rscale>  0 0.30856431E+03</rscale>
<asrwt>0</asrwt>
<pdfrwt beam="1">  1       21 0.16507280E-01 0.30856431E+03</pdfrwt>
<pdfrwt beam="2">  1       21 0.34129440E-01 0.30856431E+03</pdfrwt>
<totfact> 0.26495368E+05</totfact>
</mgrwt>
</event>
<event>
 8    1  0.9373234E-006  0.2833388E+03  0.7546771E-02  0.1093879E+00
         21   -1    0    0  504  503  0.00000000000E+00  0.00000000000E+00  0.41652032708E+03  0.41652032708E+03  0.00000000000E+00 0.  1.
         21   -1    0    0  503  504 -0.00000000000E+00 -0.00000000000E+00 -0.48185459565E+02  0.48185459565E+02  0.00000000000E+00 0.  1.
         25    2    1    2    0    0  0.66362217614E+02  0.63531971639E+01  0.18055566681E+03  0.22948180902E+03  0.12496897539E+03 0.  0.
         25    2    1    2    0    0 -0.66362217614E+02 -0.63531971639E+01  0.18777920070E+03  0.23522397763E+03  0.12499993758E+03 0.  0.
          5    1    3    3  501    0 -0.27894852207E+02 -0.35438304082E+00  0.10399141289E+03  0.10777083242E+03  0.47000000000E+01 0. -1.
         -5    1    3    3    0  501  0.94257069822E+02  0.67075802047E+01  0.76564253928E+02  0.12171097659E+03  0.47000000000E+01 0. -1.
          5    1    4    4  502    0 -0.45038394193E+02 -0.54030565519E+02  0.46307324912E+02  0.84345819708E+02  0.47000000000E+01 0.  1.
         -5    1    4    4    0  502 -0.21323823422E+02  0.47677368355E+02  0.14147187578E+03  0.15087815792E+03  0.47000000000E+01 0.  1.
<mgrwt>
<rscale>  0 0.28333883E+03</rscale>
<asrwt>0</asrwt>
<pdfrwt beam="1">  1       21 0.64080048E-01 0.28333883E+03</pdfrwt>
<pdfrwt beam="2">  1       21 0.74131479E-02 0.28333883E+03</pdfrwt>
<totfact> 0.30110447E+05</totfact>
</mgrwt>
</event>
<event>
 8    1  0.9373234E-006  0.2619644E+03  0.7546771E-02  0.1105969E+00
         21   -1    0    0  504  503  0.00000000000E+00  0.00000000000E+00  0.10365494321E+04  0.10365494321E+04  0.00000000000E+00 0. -1.
         21   -1    0    0  503  504 -0.00000000000E+00 -0.00000000000E+00 -0.16551387689E+02  0.16551387689E+02  0.00000000000E+00 0. -1.
         25    2    1    2    0    0  0.27749695879E+02 -0.25851633850E+02  0.47122150836E+03  0.48899220187E+03  0.12500124381E+03 0.  0.
         25    2    1    2    0    0 -0.27749695879E+02  0.25851633850E+02  0.54877653605E+03  0.56410861792E+03  0.12499797478E+03 0.  0.
          5    1    3    3  501    0 -0.49658234182E+02 -0.15629847397E+02  0.17795919203E+03  0.18547721256E+03  0.47000000000E+01 0.  1.
         -5    1    3    3    0  501  0.77407930061E+02 -0.10221786453E+02  0.29326231633E+03  0.30351498931E+03  0.47000000000E+01 0.  1.
          5    1    4    4  502    0 -0.40909134974E+02  0.10865507825E+02  0.54023243764E+03  0.54190847314E+03  0.47000000000E+01 0. -1.
         -5    1    4    4    0  502  0.13159439095E+02  0.14986126025E+02  0.85440984109E+01  0.22200144779E+02  0.47000000000E+01 0. -1.
<mgrwt>
<rscale>  0 0.26196436E+03</rscale>
<asrwt>0</asrwt>
<pdfrwt beam="1">  1       21 0.15946909E+00 0.26196436E+03</pdfrwt>
<pdfrwt beam="2">  1       21 0.25463682E-02 0.26196436E+03</pdfrwt>
<totfact> 0.20503740E+05</totfact>
</mgrwt>
</event>
<event>
 8    1  0.9373234E-006  0.2993185E+03  0.7546771E-02  0.1085582E+00
         21   -1    0    0  504  503  0.00000000000E+00  0.00000000000E+00  0.40483210125E+03  0.40483210125E+03  0.00000000000E+00 0. -1.
         21   -1    0    0  503  504 -0.00000000000E+00 -0.00000000000E+00 -0.55326374976E+02  0.55326374976E+02  0.00000000000E+00 0. -1.
         25    2    1    2    0    0 -0.60782487330E+02 -0.47918777787E+02  0.21773126724E+03  0.26271956381E+03  0.12499577770E+03 0.  0.
         25    2    1    2    0    0  0.60782487330E+02  0.47918777787E+02  0.13177445903E+03  0.19743891242E+03  0.12500758398E+03 0.  0.
          5    1    3    3  501    0  0.92039693849E+01  0.35488848187E+02  0.69746923242E+02  0.78936016493E+02  0.47000000000E+01 0. -1.
         -5    1    3    3    0  501 -0.69986456715E+02 -0.83407625974E+02  0.14798434400E+03  0.18378354731E+03  0.47000000000E+01 0. -1.
          5    1    4    4  502    0 -0.20849053908E+02  0.45341177128E+02  0.95695874652E+02  0.10802914337E+03  0.47000000000E+01 0.  1.
         -5    1    4    4    0  502  0.81631541238E+02  0.25776006590E+01  0.36078584378E+02  0.89409769046E+02  0.47000000000E+01 0.  1.
<mgrwt>
<rscale>  0 0.29931851E+03</rscale>
<asrwt>0</asrwt>
<pdfrwt beam="1">  1       21 0.62281860E-01 0.29931851E+03</pdfrwt>
<pdfrwt beam="2">  1       21 0.85117503E-02 0.29931851E+03</pdfrwt>
<totfact> 0.25055547E+05</totfact>
</mgrwt>
</event>
<event>
 8    1  0.9373234E-006  0.2635541E+03  0.7546771E-02  0.1105026E+00
         21   -1    0    0  504  503  0.00000000000E+00  0.00000000000E+00  0.94125618854E+01  0.94125618854E+01  0.00000000000E+00 0. -1.
         21   -1    0    0  503  504 -0.00000000000E+00 -0.00000000000E+00 -0.18448950352E+04  0.18448950352E+04  0.00000000000E+00 0. -1.
         25    2    1    2    0    0 -0.98714902189E+01  0.30545168118E+02 -0.73037565863E+03  0.74169044361E+03  0.12500263121E+03 0.  0.
         25    2    1    2    0    0  0.98714902189E+01 -0.30545168118E+02 -0.11051068146E+04  0.11126171534E+04  0.12500161891E+03 0.  0.
          5    1    3    3  501    0  0.49631945458E+02  0.44237556938E+02 -0.43010421004E+03  0.43523788087E+03  0.47000000000E+01 0. -1.
         -5    1    3    3    0  501 -0.59503435677E+02 -0.13692388821E+02 -0.30027144859E+03  0.30645256274E+03  0.47000000000E+01 0. -1.
          5    1    4    4  502    0  0.47736896272E+02 -0.44490117899E+02 -0.32866716540E+03  0.33511546886E+03  0.47000000000E+01 0.  1.
         -5    1    4    4    0  502 -0.37865406053E+02  0.13944949782E+02 -0.77643964924E+03  0.77750168457E+03  0.47000000000E+01 0.  1.
<mgrwt>
<rscale>  0 0.26355408E+03</rscale>
<asrwt>0</asrwt>
<pdfrwt beam="1">  1       21 0.14480885E-02 0.26355408E+03</pdfrwt>
<pdfrwt beam="2">  1       21 0.28382960E+00 0.26355408E+03</pdfrwt>
<totfact> 0.83556778E+04</totfact>
</mgrwt>
</event>
<event>
 8    1  0.9373234E-006  0.2931773E+03  0.7546771E-02  0.1088702E+00
         21   -1    0    0  504  503  0.00000000000E+00  0.00000000000E+00  0.39323408582E+03  0.39323408582E+03  0.00000000000E+00 0.  1.
         21   -1    0    0  503  504 -0.00000000000E+00 -0.00000000000E+00 -0.54644890133E+02  0.54644890133E+02  0.00000000000E+00 0.  1.
         25    2    1    2    0    0  0.14248853616E+02 -0.35835097070E+02  0.27034314991E+03  0.30031342235E+03  0.12496218998E+03 0.  0.
         25    2    1    2    0    0 -0.14248853616E+02  0.35835097070E+02  0.68246045774E+02  0.14756555361E+03  0.12502354113E+03 0.  0.
          5    1    3    3  501    0 -0.21504613949E+02  0.34461233154E+02  0.41694670779E+02  0.58400004991E+02  0.47000000000E+01 0. -1.
         -5    1    3    3    0  501  0.35753467566E+02 -0.70296330225E+02  0.22864847913E+03  0.24191341736E+03  0.47000000000E+01 0. -1.
          5    1    4    4  502    0 -0.58674899214E+02 -0.15607283153E+02  0.44461450038E+02  0.75400541276E+02  0.47000000000E+01 0. -1.
         -5    1    4    4    0  502  0.44426045598E+02  0.51442380224E+02  0.23784595736E+02  0.72165012332E+02  0.47000000000E+01 0. -1.
<mgrwt>
<rscale>  0 0.29317731E+03</rscale>
<asrwt>0</asrwt>
<pdfrwt beam="1">  1       21 0.60497550E-01 0.29317731E+03</pdfrwt>
<pdfrwt beam="2">  1       21 0.84069064E-02 0.29317731E+03</pdfrwt>
<totfact> 0.27319254E+05</totfact>
</mgrwt>
</event>
<event>
 8    1  0.9373234E-006  0.4438483E+03  0.7546771E-02  0.1029573E+00
         21   -1    0    0  504  503  0.00000000000E+00  0.00000000000E+00  0.32448766244E+03  0.32448766244E+03  0.00000000000E+00 0.  1.
         21   -1    0    0  503  504 -0.00000000000E+00 -0.00000000000E+00 -0.15177875085E+03  0.15177875085E+03  0.00000000000E+00 0.  1.
         25    2    1    2    0    0 -0.15645506576E+03 -0.95575790266E+02  0.82829991386E+02  0.23685614984E+03  0.12500843555E+03 0.  0.
         25    2    1    2    0    0  0.15645506576E+03  0.95575790266E+02  0.89878920206E+02  0.23941026345E+03  0.12500453857E+03 0.  0.
          5    1    3    3  501    0 -0.13361439870E+03 -0.52144627576E+02  0.10977424838E+03  0.18067746216E+03  0.47000000000E+01 0. -1.
         -5    1    3    3    0  501 -0.22840667058E+02 -0.43431162690E+02 -0.26944256999E+02  0.56178687680E+02  0.47000000000E+01 0. -1.
          5    1    4    4  502    0  0.36017970873E+02 -0.23034838757E+02 -0.83983523968E+01  0.43823741800E+02  0.47000000000E+01 0. -1.
         -5    1    4    4    0  502  0.12043709489E+03  0.11861062902E+03  0.98277272603E+02  0.19558652165E+03  0.47000000000E+01 0. -1.
<mgrwt>
<rscale>  0 0.44384832E+03</rscale>
<asrwt>0</asrwt>
<pdfrwt beam="1">  1       21 0.49921179E-01 0.44384832E+03</pdfrwt>
<pdfrwt beam="2">  1       21 0.23350577E-01 0.44384832E+03</pdfrwt>
<totfact> 0.61021957E+04</totfact>
</mgrwt>
</event>
<event>
 8    1  0.9373234E-006  0.2721548E+03  0.7546771E-02  0.1100053E+00
         21   -1    0    0  504  503  0.00000000000E+00  0.00000000000E+00  0.78882707055E+03  0.78882707055E+03  0.00000000000E+00 0. -1.
         21   -1    0    0  503  504 -0.00000000000E+00 -0.00000000000E+00 -0.23474164173E+02  0.23474164173E+02  0.00000000000E+00 0. -1.
         25    2    1    2    0    0 -0.68572908887E+01  0.45231836111E+02  0.46702327545E+03  0.48562189037E+03  0.12499975665E+03 0.  0.
         25    2    1    2    0    0  0.68572908887E+01 -0.45231836111E+02  0.29832963093E+03  0.32667934435E+03  0.12500353554E+03 0.  0.
          5    1    3    3  501    0  0.32564851096E+02  0.44239737299E+02  0.83574193839E+02  0.10012172471E+03  0.47000000000E+01 0.  1.
         -5    1    3    3    0  501 -0.39422141985E+02  0.99209881257E+00  0.38344908161E+03  0.38550016566E+03  0.47000000000E+01 0.  1.
          5    1    4    4  502    0  0.47695431878E+02  0.22622907912E+02  0.13712107635E+03  0.14700656368E+03  0.47000000000E+01 0.  1.
         -5    1    4    4    0  502 -0.40838140989E+02 -0.67854744024E+02  0.16120855458E+03  0.17967278068E+03  0.47000000000E+01 0.  1.
<mgrwt>
<rscale>  0 0.27215478E+03</rscale>
<asrwt>0</asrwt>
<pdfrwt beam="1">  1       21 0.12135799E+00 0.27215478E+03</pdfrwt>
<pdfrwt beam="2">  1       21 0.36114105E-02 0.27215478E+03</pdfrwt>
<totfact> 0.23275644E+05</totfact>
</mgrwt>
</event>
<event>
 8    1  0.9373234E-006  0.5337513E+03  0.7546771E-02  0.1005326E+00
         21   -1    0    0  504  503  0.00000000000E+00  0.00000000000E+00  0.22485896373E+03  0.22485896373E+03  0.00000000000E+00 0.  1.
         21   -1    0    0  503  504 -0.00000000000E+00 -0.00000000000E+00 -0.31674348747E+03  0.31674348747E+03  0.00000000000E+00 0.  1.
         25    2    1    2    0    0 -0.73821646032E+02 -0.20679854276E+03  0.41244620660E+02  0.25600983881E+03  0.12499858449E+03 0.  0.
         25    2    1    2    0    0  0.73821646032E+02  0.20679854276E+03 -0.13312914440E+03  0.28559261239E+03  0.12499799378E+03 0.  0.
          5    1    3    3  501    0 -0.11972220197E+01 -0.72581231534E+02 -0.40047674957E+02  0.83038393416E+02  0.47000000000E+01 0.  1.
         -5    1    3    3    0  501 -0.72624424012E+02 -0.13421731123E+03  0.81292295616E+02  0.17297144540E+03  0.47000000000E+01 0.  1.
          5    1    4    4  502    0  0.15309313400E+02  0.17474528447E+03 -0.13045540033E+03  0.21865724547E+03  0.47000000000E+01 0.  1.
         -5    1    4    4    0  502  0.58512332632E+02  0.32053258297E+02 -0.26737440720E+01  0.66935366921E+02  0.47000000000E+01 0.  1.
<mgrwt>
<rscale>  0 0.53375130E+03</rscale>
<asrwt>0</asrwt>
<pdfrwt beam="1">  1       21 0.34593687E-01 0.53375130E+03</pdfrwt>
<pdfrwt beam="2">  1       21 0.48729767E-01 0.53375130E+03</pdfrwt>
<totfact> 0.28975925E+04</totfact>
</mgrwt>
</event>
<event>
 8    1  0.9373234E-006  0.2666054E+03  0.7546771E-02  0.1103238E+00
         21   -1    0    0  504  503  0.00000000000E+00  0.00000000000E+00  0.85060782687E+02  0.85060782687E+02  0.00000000000E+00 0. -1.
         21   -1    0    0  503  504 -0.00000000000E+00 -0.00000000000E+00 -0.20890484551E+03  0.20890484551E+03  0.00000000000E+00 0. -1.
         25    2    1    2    0    0 -0.42052872794E+02 -0.95430878430E+01 -0.80887179047E+02  0.15499164587E+03  0.12498063818E+03 0.  0.
         25    2    1    2    0    0  0.42052872794E+02  0.95430878430E+01 -0.42956883773E+02  0.13897398232E+03  0.12493582058E+03 0.  0.
          5    1    3    3  501    0 -0.80806817884E+02 -0.81135317336E+01 -0.82543355805E+02  0.11589247949E+03  0.47000000000E+01 0. -1.
         -5    1    3    3    0  501  0.38753945090E+02 -0.14295561094E+01  0.16561767578E+01  0.39099166387E+02  0.47000000000E+01 0. -1.
          5    1    4    4  502    0  0.53678592366E+02  0.22665662749E+02  0.28651635506E+02  0.65100919836E+02  0.47000000000E+01 0.  1.
         -5    1    4    4    0  502 -0.11625719572E+02 -0.13122574906E+02 -0.71608519278E+02  0.73873062485E+02  0.47000000000E+01 0.  1.
<mgrwt>
<rscale>  0 0.26660540E+03</rscale>
<asrwt>0</asrwt>
<pdfrwt beam="1">  1       21 0.13086274E-01 0.26660540E+03</pdfrwt>
<pdfrwt beam="2">  1       21 0.32139207E-01 0.26660540E+03</pdfrwt>
<totfact> 0.46088412E+05</totfact>
</mgrwt>
</event>
<event>
 8    1  0.9373234E-006  0.3964956E+03  0.7546771E-02  0.1045000E+00
         21   -1    0    0  504  503  0.00000000000E+00  0.00000000000E+00  0.74985203150E+03  0.74985203150E+03  0.00000000000E+00 0.  1.
         21   -1    0    0  503  504 -0.00000000000E+00 -0.00000000000E+00 -0.52413251295E+02  0.52413251295E+02  0.00000000000E+00 0.  1.
         25    2    1    2    0    0 -0.50960240190E+02 -0.71715735318E+02  0.60415397430E+03  0.62319083804E+03  0.12499881271E+03 0.  0.
         25    2    1    2    0    0  0.50960240190E+02  0.71715735318E+02  0.93284805901E+02  0.17907444475E+03  0.12500203590E+03 0.  0.
          5    1    3    3  501    0 -0.51193924058E+02 -0.93931623728E+02  0.58090438479E+03  0.59069108853E+03  0.47000000000E+01 0.  1.
         -5    1    3    3    0  501  0.23368386877E+00  0.22215888410E+02  0.23249589514E+02  0.32499749516E+02  0.47000000000E+01 0.  1.
          5    1    4    4  502    0 -0.11970789951E+02  0.82428428996E+02  0.75804007013E+02  0.11272126329E+03  0.47000000000E+01 0. -1.
         -5    1    4    4    0  502  0.62931030141E+02 -0.10712693678E+02  0.17480798889E+02  0.66353181462E+02  0.47000000000E+01 0. -1.
<mgrwt>
<rscale>  0 0.39649556E+03</rscale>
<asrwt>0</asrwt>
<pdfrwt beam="1">  1       21 0.11536184E+00 0.39649556E+03</pdfrwt>
<pdfrwt beam="2">  1       21 0.80635776E-02 0.39649556E+03</pdfrwt>
<totfact> 0.64069011E+04</totfact>
</mgrwt>
</event>
<event>
 8    1  0.9373234E-006  0.2610154E+03  0.7546771E-02  0.1106535E+00
         21   -1    0    0  504  503  0.00000000000E+00  0.00000000000E+00  0.87500898084E+02  0.87500898084E+02  0.00000000000E+00 0.  1.
         21   -1    0    0  503  504 -0.00000000000E+00 -0.00000000000E+00 -0.19465242929E+03  0.19465242929E+03  0.00000000000E+00 0.  1.
         25    2    1    2    0    0  0.29082460801E+02 -0.16133232731E+02 -0.72714819984E+02  0.14831059693E+03  0.12491003720E+03 0.  0.
         25    2    1    2    0    0 -0.29082460801E+02  0.16133232731E+02 -0.34436711225E+02  0.13384273045E+03  0.12498767415E+03 0.  0.
          5    1    3    3  501    0  0.15905180636E+02 -0.70829894080E+02 -0.43148483010E+02  0.84579727196E+02  0.47000000000E+01 0. -1.
         -5    1    3    3    0  501  0.13177280165E+02  0.54696661349E+02 -0.29566336974E+02  0.63730869736E+02  0.47000000000E+01 0. -1.
          5    1    4    4  502    0 -0.72383495598E+02  0.35394009795E+02 -0.13551071530E+02  0.81840258455E+02  0.47000000000E+01 0.  1.
         -5    1    4    4    0  502  0.43301034797E+02 -0.19260777065E+02 -0.20885639696E+02  0.52002471991E+02  0.47000000000E+01 0.  1.
<mgrwt>
<rscale>  0 0.26101542E+03</rscale>
<asrwt>0</asrwt>
<pdfrwt beam="1">  1       21 0.13461677E-01 0.26101542E+03</pdfrwt>
<pdfrwt beam="2">  1       21 0.29946527E-01 0.26101542E+03</pdfrwt>
<totfact> 0.50373096E+05</totfact>
</mgrwt>
</event>
<event>
 8    1  0.9373234E-006  0.3784317E+03  0.7546771E-02  0.1051515E+00
         21   -1    0    0  504  503  0.00000000000E+00  0.00000000000E+00  0.14328106607E+03  0.14328106607E+03  0.00000000000E+00 0.  1.
         21   -1    0    0  503  504 -0.00000000000E+00 -0.00000000000E+00 -0.24987692826E+03  0.24987692826E+03  0.00000000000E+00 0.  1.
         25    2    1    2    0    0 -0.10544200717E+03 -0.93217160699E+02 -0.73344257759E+02  0.20201474672E+03  0.12499248706E+03 0.  0.
         25    2    1    2    0    0  0.10544200717E+03  0.93217160699E+02 -0.33251604428E+02  0.19114324761E+03  0.12499046357E+03 0.  0.
          5    1    3    3  501    0 -0.15568092217E+02 -0.43659400863E+02  0.30698934698E+02  0.55794474373E+02  0.47000000000E+01 0. -1.
         -5    1    3    3    0  501 -0.89873914955E+02 -0.49557759836E+02 -0.10404319246E+03  0.14622027235E+03  0.47000000000E+01 0. -1.
          5    1    4    4  502    0  0.11907182402E+03  0.31314673604E+02 -0.10589030661E+02  0.12366456901E+03  0.47000000000E+01 0.  1.
         -5    1    4    4    0  502 -0.13629816844E+02  0.61902487095E+02 -0.22662573767E+02  0.67478678599E+02  0.47000000000E+01 0.  1.
<mgrwt>
<rscale>  0 0.37843167E+03</rscale>
<asrwt>0</asrwt>
<pdfrwt beam="1">  1       21 0.22043241E-01 0.37843167E+03</pdfrwt>
<pdfrwt beam="2">  1       21 0.38442604E-01 0.37843167E+03</pdfrwt>
<totfact> 0.11910300E+05</totfact>
</mgrwt>
</event>
<event>
 8    1  0.9373234E-006  0.4208699E+03  0.7546771E-02  0.1036784E+00
         21   -1    0    0  504  503  0.00000000000E+00  0.00000000000E+00  0.35882082792E+02  0.35882082792E+02  0.00000000000E+00 0. -1.
         21   -1    0    0  503  504 -0.00000000000E+00 -0.00000000000E+00 -0.12341219871E+04  0.12341219871E+04  0.00000000000E+00 0. -1.
         25    2    1    2    0    0  0.66688764555E+02 -0.17731623930E+02 -0.13265710378E+03  0.19489762060E+03  0.12500149409E+03 0.  0.
         25    2    1    2    0    0 -0.66688764555E+02  0.17731623930E+02 -0.10655828005E+04  0.10751064493E+04  0.12500148294E+03 0.  0.
          5    1    3    3  501    0  0.86006819098E+02  0.37654091517E+01 -0.35181832825E+02  0.93119292300E+02  0.47000000000E+01 0.  1.
         -5    1    3    3    0  501 -0.19318054543E+02 -0.21497033082E+02 -0.97475270959E+02  0.10177832830E+03  0.47000000000E+01 0.  1.
          5    1    4    4  502    0 -0.49482901693E+01  0.57384198551E+02 -0.26899260421E+03  0.27513004733E+03  0.47000000000E+01 0.  1.
         -5    1    4    4    0  502 -0.61740474386E+02 -0.39652574621E+02 -0.79659019628E+03  0.79997640194E+03  0.47000000000E+01 0.  1.
<mgrwt>
<rscale>  0 0.42086990E+03</rscale>
<asrwt>0</asrwt>
<pdfrwt beam="1">  1       21 0.55203213E-02 0.42086990E+03</pdfrwt>
<pdfrwt beam="2">  1       21 0.18986489E+00 0.42086990E+03</pdfrwt>
<totfact> 0.31966732E+04</totfact>
</mgrwt>
</event>
<event>
 8    1  0.9373234E-006  0.4806099E+03  0.7546771E-02  0.1018968E+00
         21   -1    0    0  504  503  0.00000000000E+00  0.00000000000E+00  0.25706892467E+03  0.25706892467E+03  0.00000000000E+00 0.  1.
         21   -1    0    0  503  504 -0.00000000000E+00 -0.00000000000E+00 -0.22463417846E+03  0.22463417846E+03  0.00000000000E+00 0.  1.
         25    2    1    2    0    0 -0.18275607763E+03  0.87996298958E+02 -0.15147353294E+02  0.23873745827E+03  0.12499199626E+03 0.  0.
         25    2    1    2    0    0  0.18275607763E+03 -0.87996298958E+02  0.47582099511E+02  0.24296564486E+03  0.12500046338E+03 0.  0.
          5    1    3    3  501    0 -0.13696732544E+03  0.36924235294E+02 -0.62673530971E+02  0.15515640134E+03  0.47000000000E+01 0. -1.
         -5    1    3    3    0  501 -0.45788752191E+02  0.51072063663E+02  0.47526177678E+02  0.83581056937E+02  0.47000000000E+01 0. -1.
          5    1    4    4  502    0  0.10581844741E+03 -0.11478577234E+03  0.38443517325E+02  0.16085183048E+03  0.47000000000E+01 0.  1.
         -5    1    4    4    0  502  0.76937630219E+02  0.26789473379E+02  0.91385821857E+01  0.82113814380E+02  0.47000000000E+01 0.  1.
<mgrwt>
<rscale>  0 0.48060989E+03</rscale>
<asrwt>0</asrwt>
<pdfrwt beam="1">  1       21 0.39549065E-01 0.48060989E+03</pdfrwt>
<pdfrwt beam="2">  1       21 0.34559104E-01 0.48060989E+03</pdfrwt>
<totfact> 0.45434562E+04</totfact>
</mgrwt>
</event>
<event>
 8    1  0.9373234E-006  0.3240078E+03  0.7546771E-02  0.1073819E+00
         21   -1    0    0  504  503  0.00000000000E+00  0.00000000000E+00  0.18458386926E+04  0.18458386926E+04  0.00000000000E+00 0.  1.
         21   -1    0    0  503  504 -0.00000000000E+00 -0.00000000000E+00 -0.14218612404E+02  0.14218612404E+02  0.00000000000E+00 0.  1.
         25    2    1    2    0    0  0.61660636998E+02 -0.55079803232E+02  0.12686571915E+04  0.12774865580E+04  0.12508004403E+03 0.  0.
         25    2    1    2    0    0 -0.61660636998E+02  0.55079803232E+02  0.56296288868E+03  0.58257074700E+03  0.12500256937E+03 0.  0.
          5    1    3    3  501    0 -0.76158401515E+01  0.33220443417E+02  0.42383158734E+03  0.42522570867E+03  0.47000000000E+01 0. -1.
         -5    1    3    3    0  501  0.69276477149E+02 -0.88300246649E+02  0.84482560414E+03  0.85226084930E+03  0.47000000000E+01 0. -1.
          5    1    4    4  502    0 -0.57063954017E+02  0.20373939377E+02  0.53241017015E+03  0.53586758769E+03  0.47000000000E+01 0.  1.
         -5    1    4    4    0  502 -0.45966829806E+01  0.34705863854E+02  0.30552718532E+02  0.46703159315E+02  0.47000000000E+01 0.  1.
<mgrwt>
<rscale>  0 0.32400781E+03</rscale>
<asrwt>0</asrwt>
<pdfrwt beam="1">  1       21 0.28397500E+00 0.32400781E+03</pdfrwt>
<pdfrwt beam="2">  1       21 0.21874803E-02 0.32400781E+03</pdfrwt>
<totfact> 0.41076481E+04</totfact>
</mgrwt>
</event>
<event>
 8    1  0.9373234E-006  0.3232963E+03  0.7546771E-02  0.1074142E+00
         21   -1    0    0  504  503  0.00000000000E+00  0.00000000000E+00  0.12738279621E+03  0.12738279621E+03  0.00000000000E+00 0.  1.
         21   -1    0    0  503  504 -0.00000000000E+00 -0.00000000000E+00 -0.20513072482E+03  0.20513072482E+03  0.00000000000E+00 0.  1.
         25    2    1    2    0    0 -0.69102387595E+02  0.37238946818E+02  0.28895793882E+02  0.15040270684E+03  0.12499651271E+03 0.  0.
         25    2    1    2    0    0  0.69102387595E+02 -0.37238946818E+02 -0.10664372249E+03  0.18211081420E+03  0.12501834253E+03 0.  0.
          5    1    3    3  501    0 -0.22745296935E+02  0.64570182755E+02  0.57275444782E+02  0.89382456940E+02  0.47000000000E+01 0.  1.
         -5    1    3    3    0  501 -0.46357090661E+02 -0.27331235937E+02 -0.28379650900E+02  0.61020249897E+02  0.47000000000E+01 0.  1.
          5    1    4    4  502    0  0.81648182519E+02 -0.46652635209E+02 -0.12565748550E+03  0.15701843122E+03  0.47000000000E+01 0.  1.
         -5    1    4    4    0  502 -0.12545794923E+02  0.94136883915E+01  0.19013763013E+02  0.25092382974E+02  0.47000000000E+01 0.  1.
<mgrwt>
<rscale>  0 0.32329631E+03</rscale>
<asrwt>0</asrwt>
<pdfrwt beam="1">  1       21 0.19597353E-01 0.32329631E+03</pdfrwt>
<pdfrwt beam="2">  1       21 0.31558573E-01 0.32329631E+03</pdfrwt>
<totfact> 0.22402781E+05</totfact>
</mgrwt>
</event>
<event>
 8    1  0.9373234E-006  0.5617080E+03  0.7546771E-02  0.9988197E-01
         21   -1    0    0  504  503  0.00000000000E+00  0.00000000000E+00  0.13115009709E+04  0.13115009709E+04  0.00000000000E+00 0. -1.
         21   -1    0    0  503  504 -0.00000000000E+00 -0.00000000000E+00 -0.60144035545E+02  0.60144035545E+02  0.00000000000E+00 0. -1.
         25    2    1    2    0    0 -0.11973965624E+03  0.13716819621E+03  0.20198476805E+03  0.29929098494E+03  0.12499819124E+03 0.  0.
         25    2    1    2    0    0  0.11973965624E+03 -0.13716819621E+03  0.10493721673E+04  0.10723540216E+04  0.12493399301E+03 0.  0.
          5    1    3    3  501    0 -0.68313534446E+01  0.24236865942E+02  0.11412356272E+03  0.11696311653E+03  0.47000000000E+01 0.  1.
         -5    1    3    3    0  501 -0.11290830279E+03  0.11293133027E+03  0.87861205328E+02  0.18232786840E+03  0.47000000000E+01 0.  1.
          5    1    4    4  502    0  0.55952207972E+02 -0.11327909315E+03  0.40253288563E+03  0.42192133928E+03  0.47000000000E+01 0. -1.
         -5    1    4    4    0  502  0.63787448264E+02 -0.23889103055E+02  0.64683928172E+03  0.65043268228E+03  0.47000000000E+01 0. -1.
<mgrwt>
<rscale>  0 0.56170797E+03</rscale>
<asrwt>0</asrwt>
<pdfrwt beam="1">  1       21 0.20176936E+00 0.56170797E+03</pdfrwt>
<pdfrwt beam="2">  1       21 0.92529295E-02 0.56170797E+03</pdfrwt>
<totfact> 0.10240637E+04</totfact>
</mgrwt>
</event>
<event>
 8    1  0.9373234E-006  0.2954638E+03  0.7546771E-02  0.1087530E+00
         21   -1    0    0  504  503  0.00000000000E+00  0.00000000000E+00  0.17183997600E+02  0.17183997600E+02  0.00000000000E+00 0. -1.
         21   -1    0    0  503  504 -0.00000000000E+00 -0.00000000000E+00 -0.12700607338E+04  0.12700607338E+04  0.00000000000E+00 0. -1.
         25    2    1    2    0    0  0.13551676351E+02  0.76861128915E+02 -0.67171946358E+03  0.68769464595E+03  0.12500242892E+03 0.  0.
         25    2    1    2    0    0 -0.13551676351E+02 -0.76861128915E+02 -0.58115727260E+03  0.59955008543E+03  0.12500099353E+03 0.  0.
          5    1    3    3  501    0  0.29285253154E+02  0.52570459647E+02 -0.64563651938E+03  0.64845191374E+03  0.47000000000E+01 0.  1.
         -5    1    3    3    0  501 -0.15733576803E+02  0.24290669268E+02 -0.26082944207E+02  0.39242732206E+02  0.47000000000E+01 0.  1.
          5    1    4    4  502    0 -0.24470833801E+02 -0.12757998925E+02 -0.46889291683E+03  0.46972784216E+03  0.47000000000E+01 0.  1.
         -5    1    4    4    0  502  0.10919157450E+02 -0.64103129990E+02 -0.11226435576E+03  0.12982224327E+03  0.47000000000E+01 0.  1.
<mgrwt>
<rscale>  0 0.29546384E+03</rscale>
<asrwt>0</asrwt>
<pdfrwt beam="1">  1       21 0.26436924E-02 0.29546384E+03</pdfrwt>
<pdfrwt beam="2">  1       21 0.19539392E+00 0.29546384E+03</pdfrwt>
<totfact> 0.10679750E+05</totfact>
</mgrwt>
</event>
<event>
 8    1  0.9373234E-006  0.4274543E+03  0.7546771E-02  0.1034667E+00
         21   -1    0    0  504  503  0.00000000000E+00  0.00000000000E+00  0.40248913723E+02  0.40248913723E+02  0.00000000000E+00 0. -1.
         21   -1    0    0  503  504 -0.00000000000E+00 -0.00000000000E+00 -0.11349199957E+04  0.11349199957E+04  0.00000000000E+00 0. -1.
         25    2    1    2    0    0 -0.47993881170E+02  0.11691274265E+03 -0.87354214634E+03  0.89144400624E+03  0.12499813125E+03 0.  0.
         25    2    1    2    0    0  0.47993881170E+02 -0.11691274265E+03 -0.22112893566E+03  0.28372490320E+03  0.12501924846E+03 0.  0.
          5    1    3    3  501    0 -0.23974080461E+02  0.42102093624E+02 -0.77493122534E+02  0.91512932756E+02  0.47000000000E+01 0.  1.
         -5    1    3    3    0  501 -0.24019800709E+02  0.74810649023E+02 -0.79604902380E+03  0.79993107349E+03  0.47000000000E+01 0.  1.
          5    1    4    4  502    0 -0.18302317003E+02 -0.10281429530E+03 -0.99029320988E+02  0.14399531430E+03  0.47000000000E+01 0. -1.
         -5    1    4    4    0  502  0.66296198173E+02 -0.14098447344E+02 -0.12209961467E+03  0.13972958889E+03  0.47000000000E+01 0. -1.
<mgrwt>
<rscale>  0 0.42745431E+03</rscale>
<asrwt>0</asrwt>
<pdfrwt beam="1">  1       21 0.61921417E-02 0.42745431E+03</pdfrwt>
<pdfrwt beam="2">  1       21 0.17460304E+00 0.42745431E+03</pdfrwt>
<totfact> 0.33403164E+04</totfact>
</mgrwt>
</event>
<event>
 8    1  0.9373234E-006  0.3052486E+03  0.7546771E-02  0.1082646E+00
         21   -1    0    0  504  503  0.00000000000E+00  0.00000000000E+00  0.62084005118E+02  0.62084005118E+02  0.00000000000E+00 0.  1.
         21   -1    0    0  503  504 -0.00000000000E+00 -0.00000000000E+00 -0.37520423166E+03  0.37520423166E+03  0.00000000000E+00 0.  1.
         25    2    1    2    0    0  0.63353825236E+01 -0.65276596684E+02 -0.73420821938E+02  0.15911405422E+03  0.12500197602E+03 0.  0.
         25    2    1    2    0    0 -0.63353825236E+01  0.65276596684E+02 -0.23969940461E+03  0.27817418256E+03  0.12499560044E+03 0.  0.
          5    1    3    3  501    0  0.38137878112E+02 -0.70477431317E+02 -0.16375516214E+01  0.80289087971E+02  0.47000000000E+01 0. -1.
         -5    1    3    3    0  501 -0.31802495589E+02  0.52008346334E+01 -0.71783270317E+02  0.78824966248E+02  0.47000000000E+01 0. -1.
          5    1    4    4  502    0 -0.29724898055E+02  0.61380822045E+02 -0.44691408503E+02  0.81673660829E+02  0.47000000000E+01 0. -1.
         -5    1    4    4    0  502  0.23389515531E+02  0.38957746387E+01 -0.19500799611E+03  0.19650052173E+03  0.47000000000E+01 0. -1.
<mgrwt>
<rscale>  0 0.30524863E+03</rscale>
<asrwt>0</asrwt>
<pdfrwt beam="1">  1       21 0.95513856E-02 0.30524863E+03</pdfrwt>
<pdfrwt beam="2">  1       21 0.57723727E-01 0.30524863E+03</pdfrwt>
<totfact> 0.24062867E+05</totfact>
</mgrwt>
</event>
<event>
 8    1  0.9373234E-006  0.3371572E+03  0.7546771E-02  0.1068013E+00
         21   -1    0    0  504  503  0.00000000000E+00  0.00000000000E+00  0.25779686549E+03  0.25779686549E+03  0.00000000000E+00 0. -1.
         21   -1    0    0  503  504 -0.00000000000E+00 -0.00000000000E+00 -0.11023696905E+03  0.11023696905E+03  0.00000000000E+00 0. -1.
         25    2    1    2    0    0  0.10372533238E+03  0.35520820957E+02  0.10415522051E+03  0.19619620702E+03  0.12499587349E+03 0.  0.
         25    2    1    2    0    0 -0.10372533238E+03 -0.35520820957E+02  0.43404675927E+02  0.17183762751E+03  0.12499412402E+03 0.  0.
          5    1    3    3  501    0  0.73333992332E+02  0.77091466391E+02  0.39932621812E+02  0.11374389173E+03  0.47000000000E+01 0. -1.
         -5    1    3    3    0  501  0.30391340049E+02 -0.41570645434E+02  0.64222598703E+02  0.82452315285E+02  0.47000000000E+01 0. -1.
          5    1    4    4  502    0 -0.52421661902E+02  0.23921265903E+02  0.68157243073E+02  0.89374254583E+02  0.47000000000E+01 0. -1.
         -5    1    4    4    0  502 -0.51303670480E+02 -0.59442086861E+02 -0.24752567145E+02  0.82463372932E+02  0.47000000000E+01 0. -1.
<mgrwt>
<rscale>  0 0.33715720E+03</rscale>
<asrwt>0</asrwt>
<pdfrwt beam="1">  1       21 0.39661056E-01 0.33715720E+03</pdfrwt>
<pdfrwt beam="2">  1       21 0.16959534E-01 0.33715720E+03</pdfrwt>
<totfact> 0.18490632E+05</totfact>
</mgrwt>
</event>
<event>
 8    1  0.9373234E-006  0.3757932E+03  0.7546771E-02  0.1052500E+00
         21   -1    0    0  504  503  0.00000000000E+00  0.00000000000E+00  0.72685705637E+02  0.72685705637E+02  0.00000000000E+00 0. -1.
         21   -1    0    0  503  504 -0.00000000000E+00 -0.00000000000E+00 -0.48572317747E+03  0.48572317747E+03  0.00000000000E+00 0. -1.
         25    2    1    2    0    0  0.94997172713E+02  0.84687217309E+02 -0.11880416652E+03  0.21432362734E+03  0.12499519852E+03 0.  0.
         25    2    1    2    0    0 -0.94997172713E+02 -0.84687217309E+02 -0.29423330531E+03  0.34408525577E+03  0.12500015075E+03 0.  0.
          5    1    3    3  501    0  0.50554989623E+02  0.10129225659E+03 -0.12205264253E+03  0.16653788089E+03  0.47000000000E+01 0. -1.
         -5    1    3    3    0  501  0.44442183091E+02 -0.16605039283E+02  0.32484760062E+01  0.47785746450E+02  0.47000000000E+01 0. -1.
          5    1    4    4  502    0 -0.45596310170E+02 -0.63028582961E+02 -0.27624948162E+03  0.28703221399E+03  0.47000000000E+01 0. -1.
         -5    1    4    4    0  502 -0.49400862544E+02 -0.21658634348E+02 -0.17983823684E+02  0.57053041778E+02  0.47000000000E+01 0. -1.
<mgrwt>
<rscale>  0 0.37579320E+03</rscale>
<asrwt>0</asrwt>
<pdfrwt beam="1">  1       21 0.11182417E-01 0.37579320E+03</pdfrwt>
<pdfrwt beam="2">  1       21 0.74726640E-01 0.37579320E+03</pdfrwt>
<totfact> 0.10087701E+05</totfact>
</mgrwt>
</event>
<event>
 8    1  0.9373234E-006  0.2900450E+03  0.7546771E-02  0.1090326E+00
         21   -1    0    0  504  503  0.00000000000E+00  0.00000000000E+00  0.13649416764E+03  0.13649416764E+03  0.00000000000E+00 0.  1.
         21   -1    0    0  503  504 -0.00000000000E+00 -0.00000000000E+00 -0.15408367215E+03  0.15408367215E+03  0.00000000000E+00 0.  1.
         25    2    1    2    0    0 -0.34122103915E+02  0.64069301632E+02 -0.20558541952E+02  0.14600053405E+03  0.12499723560E+03 0.  0.
         25    2    1    2    0    0  0.34122103915E+02 -0.64069301632E+02  0.29690374396E+01  0.14457730574E+03  0.12499835505E+03 0.  0.
          5    1    3    3  501    0 -0.37524081254E+02  0.30724693850E+02  0.48715147172E+02  0.68900791360E+02  0.47000000000E+01 0. -1.
         -5    1    3    3    0  501  0.34019773397E+01  0.33344607782E+02 -0.69273689124E+02  0.77099742689E+02  0.47000000000E+01 0. -1.
          5    1    4    4  502    0  0.10183986712E+02 -0.95132489624E+02  0.25470810888E+02  0.99119909074E+02  0.47000000000E+01 0.  1.
         -5    1    4    4    0  502  0.23938117203E+02  0.31063187993E+02 -0.22501773448E+02  0.45457396668E+02  0.47000000000E+01 0.  1.
<mgrwt>
<rscale>  0 0.29004498E+03</rscale>
<asrwt>0</asrwt>
<pdfrwt beam="1">  1       21 0.20999103E-01 0.29004498E+03</pdfrwt>
<pdfrwt beam="2">  1       21 0.23705180E-01 0.29004498E+03</pdfrwt>
<totfact> 0.34568574E+05</totfact>
</mgrwt>
</event>
<event>
 8    1  0.9373234E-006  0.3305723E+03  0.7546771E-02  0.1070884E+00
         21   -1    0    0  504  503  0.00000000000E+00  0.00000000000E+00  0.88062708742E+02  0.88062708742E+02  0.00000000000E+00 0.  1.
         21   -1    0    0  503  504 -0.00000000000E+00 -0.00000000000E+00 -0.31022801617E+03  0.31022801617E+03  0.00000000000E+00 0.  1.
         25    2    1    2    0    0  0.91235602098E+02 -0.48502594482E+01 -0.18079007697E+03  0.23802511551E+03  0.12499377413E+03 0.  0.
         25    2    1    2    0    0 -0.91235602098E+02  0.48502594482E+01 -0.41375230452E+02  0.16026560940E+03  0.12500278299E+03 0.  0.
          5    1    3    3  501    0 -0.27068586987E+02  0.90734037389E+01 -0.68049694240E+02  0.73945154966E+02  0.47000000000E+01 0.  1.
         -5    1    3    3    0  501  0.11830418908E+03 -0.13923663187E+02 -0.11274038273E+03  0.16407996054E+03  0.47000000000E+01 0.  1.
          5    1    4    4  502    0 -0.22244766783E+02 -0.32168094509E+02  0.33588688053E+02  0.51767807745E+02  0.47000000000E+01 0.  1.
         -5    1    4    4    0  502 -0.68990835316E+02  0.37018353957E+02 -0.74963918505E+02  0.10849780166E+03  0.47000000000E+01 0.  1.
<mgrwt>
<rscale>  0 0.33057235E+03</rscale>
<asrwt>0</asrwt>
<pdfrwt beam="1">  1       21 0.13548109E-01 0.33057235E+03</pdfrwt>
<pdfrwt beam="2">  1       21 0.47727386E-01 0.33057235E+03</pdfrwt>
<totfact> 0.19097978E+05</totfact>
</mgrwt>
</event>
<event>
 8    1  0.9373234E-006  0.2622230E+03  0.7546771E-02  0.1105815E+00
         21   -1    0    0  504  503  0.00000000000E+00  0.00000000000E+00  0.47427888733E+03  0.47427888733E+03  0.00000000000E+00 0. -1.
         21   -1    0    0  503  504 -0.00000000000E+00 -0.00000000000E+00 -0.36244973926E+02  0.36244973926E+02  0.00000000000E+00 0. -1.
         25    2    1    2    0    0  0.36122358140E+02  0.13668424661E+02  0.23579827074E+03  0.26966161728E+03  0.12499965104E+03 0.  0.
         25    2    1    2    0    0 -0.36122358140E+02 -0.13668424661E+02  0.20223564266E+03  0.24086224397E+03  0.12499485917E+03 0.  0.
          5    1    3    3  501    0  0.27206325842E+02  0.42035328218E+02  0.23417409530E+03  0.23951356933E+03  0.47000000000E+01 0. -1.
         -5    1    3    3    0  501  0.89160322977E+01 -0.28366903557E+02  0.16241754403E+01  0.30148047951E+02  0.47000000000E+01 0. -1.
          5    1    4    4  502    0 -0.35077319704E+02 -0.42450034756E+02  0.24000365321E+02  0.60253890695E+02  0.47000000000E+01 0. -1.
         -5    1    4    4    0  502 -0.10450384360E+01  0.28781610095E+02  0.17823527734E+03  0.18060835328E+03  0.47000000000E+01 0. -1.
<mgrwt>
<rscale>  0 0.26222300E+03</rscale>
<asrwt>0</asrwt>
<pdfrwt beam="1">  1       21 0.72965978E-01 0.26222300E+03</pdfrwt>
<pdfrwt beam="2">  1       21 0.55761502E-02 0.26222300E+03</pdfrwt>
<totfact> 0.37144125E+05</totfact>
</mgrwt>
</event>
<event>
 8    1  0.9373234E-006  0.2805022E+03  0.7546771E-02  0.1095415E+00
         21   -1    0    0  504  503  0.00000000000E+00  0.00000000000E+00  0.13927256024E+02  0.13927256024E+02  0.00000000000E+00 0. -1.
         21   -1    0    0  503  504 -0.00000000000E+00 -0.00000000000E+00 -0.14123651242E+04  0.14123651242E+04  0.00000000000E+00 0. -1.
         25    2    1    2    0    0 -0.30839442645E+02 -0.33485595345E+02 -0.92503157300E+03  0.93454835647E+03  0.12499945287E+03 0.  0.
         25    2    1    2    0    0  0.30839442645E+02  0.33485595345E+02 -0.47340629518E+03  0.49174402376E+03  0.12500523295E+03 0.  0.
          5    1    3    3  501    0  0.79609223315E+01 -0.48096772489E+02 -0.82101782307E+03  0.82247737452E+03  0.47000000000E+01 0.  1.
         -5    1    3    3    0  501 -0.38800364976E+02  0.14611177144E+02 -0.10401374994E+03  0.11207098195E+03  0.47000000000E+01 0.  1.
          5    1    4    4  502    0 -0.24131412801E+02  0.56452576654E+02 -0.34046744469E+03  0.34599044696E+03  0.47000000000E+01 0. -1.
         -5    1    4    4    0  502  0.54970855446E+02 -0.22966981309E+02 -0.13293885049E+03  0.14575357680E+03  0.47000000000E+01 0. -1.
<mgrwt>
<rscale>  0 0.28050220E+03</rscale>
<asrwt>0</asrwt>
<pdfrwt beam="1">  1       21 0.21426551E-02 0.28050220E+03</pdfrwt>
<pdfrwt beam="2">  1       21 0.21728691E+00 0.28050220E+03</pdfrwt>
<totfact> 0.10985802E+05</totfact>
</mgrwt>
</event>
<event>
 8    1  0.9373234E-006  0.3517442E+03  0.7546771E-02  0.1061901E+00
         21   -1    0    0  504  503  0.00000000000E+00  0.00000000000E+00  0.38926319549E+02  0.38926319549E+02  0.00000000000E+00 0.  1.
         21   -1    0    0  503  504 -0.00000000000E+00 -0.00000000000E+00 -0.79460355624E+03  0.79460355624E+03  0.00000000000E+00 0.  1.
         25    2    1    2    0    0 -0.26980034293E+02  0.10006128375E+03 -0.21769042137E+03  0.27157717255E+03  0.12499943335E+03 0.  0.
         25    2    1    2    0    0  0.26980034293E+02 -0.10006128375E+03 -0.53798681531E+03  0.56195270323E+03  0.12498337675E+03 0.  0.
          5    1    3    3  501    0  0.23074213453E+02  0.95275048503E+02 -0.19032221576E+03  0.21413638178E+03  0.47000000000E+01 0. -1.
         -5    1    3    3    0  501 -0.50054247746E+02  0.47862352505E+01 -0.27368205619E+02  0.57440790769E+02  0.47000000000E+01 0. -1.
          5    1    4    4  502    0 -0.27840579699E+02  0.17026030510E+02 -0.11276767676E+03  0.11748881868E+03  0.47000000000E+01 0.  1.
         -5    1    4    4    0  502  0.54820613992E+02 -0.11708731426E+03 -0.42521913856E+03  0.44446388456E+03  0.47000000000E+01 0.  1.
<mgrwt>
<rscale>  0 0.35174418E+03</rscale>
<asrwt>0</asrwt>
<pdfrwt beam="1">  1       21 0.59886645E-02 0.35174418E+03</pdfrwt>
<pdfrwt beam="2">  1       21 0.12224670E+00 0.35174418E+03</pdfrwt>
<totfact> 0.94318295E+04</totfact>
</mgrwt>
</event>
<event>
 8    1  0.9373234E-006  0.3710881E+03  0.7546771E-02  0.1054278E+00
         21   -1    0    0  504  503  0.00000000000E+00  0.00000000000E+00  0.63312055164E+02  0.63312055164E+02  0.00000000000E+00 0. -1.
         21   -1    0    0  503  504 -0.00000000000E+00 -0.00000000000E+00 -0.54376045233E+03  0.54376045233E+03  0.00000000000E+00 0. -1.
         25    2    1    2    0    0  0.12570250155E+03  0.51377823828E+02 -0.20916006349E+03  0.27895085202E+03  0.12499938404E+03 0.  0.
         25    2    1    2    0    0 -0.12570250155E+03 -0.51377823828E+02 -0.27128833367E+03  0.32812165547E+03  0.12500264445E+03 0.  0.
          5    1    3    3  501    0 -0.19147577378E+01 -0.31669747586E+02 -0.32058847698E+02  0.45348637522E+02  0.47000000000E+01 0. -1.
         -5    1    3    3    0  501  0.12761725929E+03  0.83047571414E+02 -0.17710121579E+03  0.23360221450E+03  0.47000000000E+01 0. -1.
          5    1    4    4  502    0 -0.58824400724E+00  0.26550380378E+02 -0.11344668542E+02  0.29258507029E+02  0.47000000000E+01 0. -1.
         -5    1    4    4    0  502 -0.12511425754E+03 -0.77928204206E+02 -0.25994366513E+03  0.29886314844E+03  0.47000000000E+01 0. -1.
<mgrwt>
<rscale>  0 0.37108809E+03</rscale>
<asrwt>0</asrwt>
<pdfrwt beam="1">  1       21 0.97403163E-02 0.37108809E+03</pdfrwt>
<pdfrwt beam="2">  1       21 0.83655453E-01 0.37108809E+03</pdfrwt>
<totfact> 0.99901799E+04</totfact>
</mgrwt>
</event>
<event>
 8    1  0.9373234E-006  0.3380836E+03  0.7546771E-02  0.1067615E+00
         21   -1    0    0  504  503  0.00000000000E+00  0.00000000000E+00  0.70399572236E+03  0.70399572236E+03  0.00000000000E+00 0. -1.
         21   -1    0    0  503  504 -0.00000000000E+00 -0.00000000000E+00 -0.40589923008E+02  0.40589923008E+02  0.00000000000E+00 0. -1.
         25    2    1    2    0    0 -0.17124857493E+02  0.11250973553E+03  0.33211788467E+03  0.37266444316E+03  0.12499918620E+03 0.  0.
         25    2    1    2    0    0  0.17124857493E+02 -0.11250973553E+03  0.33128791469E+03  0.37192120221E+03  0.12498798703E+03 0.  0.
          5    1    3    3  501    0  0.46802378340E+02  0.29574710111E+02  0.17648599251E+03  0.18502573240E+03  0.47000000000E+01 0. -1.
         -5    1    3    3    0  501 -0.63927235833E+02  0.82935025416E+02  0.15563189216E+03  0.18763871077E+03  0.47000000000E+01 0. -1.
          5    1    4    4  502    0  0.66402815243E+02 -0.70406250072E+02  0.24816721564E+03  0.26641214469E+03  0.47000000000E+01 0.  1.
         -5    1    4    4    0  502 -0.49277957749E+02 -0.42103485455E+02  0.83120699046E+02  0.10550905751E+03  0.47000000000E+01 0.  1.
<mgrwt>
<rscale>  0 0.33808361E+03</rscale>
<asrwt>0</asrwt>
<pdfrwt beam="1">  1       21 0.10830703E+00 0.33808361E+03</pdfrwt>
<pdfrwt beam="2">  1       21 0.62446041E-02 0.33808361E+03</pdfrwt>
<totfact> 0.11899106E+05</totfact>
</mgrwt>
</event>
<event>
 8    1  0.9373234E-006  0.2622635E+03  0.7546771E-02  0.1105791E+00
         21   -1    0    0  504  503  0.00000000000E+00  0.00000000000E+00  0.54376375707E+02  0.54376375707E+02  0.00000000000E+00 0. -1.
         21   -1    0    0  503  504 -0.00000000000E+00 -0.00000000000E+00 -0.31623182162E+03  0.31623182162E+03  0.00000000000E+00 0. -1.
         25    2    1    2    0    0 -0.11033970061E+02 -0.51186739682E+01 -0.77708420839E+02  0.14770928345E+03  0.12502593503E+03 0.  0.
         25    2    1    2    0    0  0.11033970061E+02  0.51186739682E+01 -0.18414702507E+03  0.22289891388E+03  0.12500339854E+03 0.  0.
          5    1    3    3  501    0  0.16196239229E+02  0.55275528156E+02 -0.47223739532E+02  0.74631586834E+02  0.47000000000E+01 0. -1.
         -5    1    3    3    0  501 -0.27230209290E+02 -0.60394202124E+02 -0.30484681308E+02  0.73077696615E+02  0.47000000000E+01 0. -1.
          5    1    4    4  502    0 -0.50763059366E+02  0.21820681311E+02 -0.52150425372E+02  0.76123499628E+02  0.47000000000E+01 0.  1.
         -5    1    4    4    0  502  0.61797029427E+02 -0.16702007342E+02 -0.13199659970E+03  0.14677541425E+03  0.47000000000E+01 0.  1.
<mgrwt>
<rscale>  0 0.26226353E+03</rscale>
<asrwt>0</asrwt>
<pdfrwt beam="1">  1       21 0.83655964E-02 0.26226353E+03</pdfrwt>
<pdfrwt beam="2">  1       21 0.48651049E-01 0.26226353E+03</pdfrwt>
<totfact> 0.44120484E+05</totfact>
</mgrwt>
</event>
<event>
 8    1  0.9373234E-006  0.3789160E+03  0.7546771E-02  0.1051335E+00
         21   -1    0    0  504  503  0.00000000000E+00  0.00000000000E+00  0.23884126937E+03  0.23884126937E+03  0.00000000000E+00 0.  1.
         21   -1    0    0  503  504 -0.00000000000E+00 -0.00000000000E+00 -0.15028533378E+03  0.15028533378E+03  0.00000000000E+00 0.  1.
         25    2    1    2    0    0  0.51884816130E+02  0.12421818051E+03  0.91862580059E+02  0.20539232343E+03  0.12500032958E+03 0.  0.
         25    2    1    2    0    0 -0.51884816130E+02 -0.12421818051E+03 -0.33066444663E+01  0.18373427972E+03  0.12500064452E+03 0.  0.
          5    1    3    3  501    0  0.60323360876E+02  0.18188575215E+02 -0.23504385616E+01  0.63224573523E+02  0.47000000000E+01 0. -1.
         -5    1    3    3    0  501 -0.84385447461E+01  0.10602960530E+03  0.94213018621E+02  0.14216774991E+03  0.47000000000E+01 0. -1.
          5    1    4    4  502    0  0.28544079057E+02  0.37792647007E+01 -0.13505112435E+02  0.32148489121E+02  0.47000000000E+01 0.  1.
         -5    1    4    4    0  502 -0.80428895187E+02 -0.12799744521E+03  0.10198467969E+02  0.15158579060E+03  0.47000000000E+01 0.  1.
<mgrwt>
<rscale>  0 0.37891603E+03</rscale>
<asrwt>0</asrwt>
<pdfrwt beam="1">  1       21 0.36744811E-01 0.37891603E+03</pdfrwt>
<pdfrwt beam="2">  1       21 0.23120821E-01 0.37891603E+03</pdfrwt>
<totfact> 0.11912777E+05</totfact>
</mgrwt>
</event>
<event>
 8    1  0.9373234E-006  0.3230462E+03  0.7546771E-02  0.1074256E+00
         21   -1    0    0  504  503  0.00000000000E+00  0.00000000000E+00  0.17310587696E+03  0.17310587696E+03  0.00000000000E+00 0. -1.
         21   -1    0    0  503  504 -0.00000000000E+00 -0.00000000000E+00 -0.15071533196E+03  0.15071533196E+03  0.00000000000E+00 0. -1.
         25    2    1    2    0    0  0.24627014570E+02  0.58978641178E+02 -0.68861694232E+02  0.15637480593E+03  0.12500470805E+03 0.  0.
         25    2    1    2    0    0 -0.24627014570E+02 -0.58978641178E+02  0.91252239226E+02  0.16744640299E+03  0.12500542688E+03 0.  0.
          5    1    3    3  501    0  0.27408840052E+02  0.45825609041E+02 -0.10480241000E+03  0.11771519060E+03  0.47000000000E+01 0. -1.
         -5    1    3    3    0  501 -0.27818254819E+01  0.13153032137E+02  0.35940715766E+02  0.38659615327E+02  0.47000000000E+01 0. -1.
          5    1    4    4  502    0  0.34297614871E+02  0.17521779771E+02  0.47491924384E+02  0.61326275232E+02  0.47000000000E+01 0. -1.
         -5    1    4    4    0  502 -0.58924629441E+02 -0.76500420949E+02  0.43760314842E+02  0.10612012776E+03  0.47000000000E+01 0. -1.
<mgrwt>
<rscale>  0 0.32304619E+03</rscale>
<asrwt>0</asrwt>
<pdfrwt beam="1">  1       21 0.26631673E-01 0.32304619E+03</pdfrwt>
<pdfrwt beam="2">  1       21 0.23186974E-01 0.32304619E+03</pdfrwt>
<totfact> 0.22712340E+05</totfact>
</mgrwt>
</event>
<event>
 8    1  0.9373234E-006  0.3158500E+03  0.7546771E-02  0.1077575E+00
         21   -1    0    0  504  503  0.00000000000E+00  0.00000000000E+00  0.63883352193E+02  0.63883352193E+02  0.00000000000E+00 0. -1.
         21   -1    0    0  503  504 -0.00000000000E+00 -0.00000000000E+00 -0.39040385518E+03  0.39040385518E+03  0.00000000000E+00 0. -1.
         25    2    1    2    0    0  0.16055901708E+02  0.94198976563E+02 -0.18278790879E+03  0.24117954759E+03  0.12499966163E+03 0.  0.
         25    2    1    2    0    0 -0.16055901708E+02 -0.94198976563E+02 -0.14373259420E+03  0.21310765979E+03  0.12499830743E+03 0.  0.
          5    1    3    3  501    0 -0.41281515895E+02  0.88704818993E+02 -0.13105246179E+03  0.16361401593E+03  0.47000000000E+01 0. -1.
         -5    1    3    3    0  501  0.57337417604E+02  0.54941575706E+01 -0.51735447005E+02  0.77565531660E+02  0.47000000000E+01 0. -1.
          5    1    4    4  502    0 -0.60589774044E+02 -0.12309720762E+02 -0.41142608435E+02  0.74414072410E+02  0.47000000000E+01 0.  1.
         -5    1    4    4    0  502  0.44533872335E+02 -0.81889255802E+02 -0.10258998576E+03  0.13869358738E+03  0.47000000000E+01 0.  1.
<mgrwt>
<rscale>  0 0.31585001E+03</rscale>
<asrwt>0</asrwt>
<pdfrwt beam="1">  1       21 0.98282078E-02 0.31585001E+03</pdfrwt>
<pdfrwt beam="2">  1       21 0.60062133E-01 0.31585001E+03</pdfrwt>
<totfact> 0.20936249E+05</totfact>
</mgrwt>
</event>
<event>
 8    1  0.9373234E-006  0.3185266E+03  0.7546771E-02  0.1076329E+00
         21   -1    0    0  504  503  0.00000000000E+00  0.00000000000E+00  0.49872504515E+02  0.49872504515E+02  0.00000000000E+00 0. -1.
         21   -1    0    0  503  504 -0.00000000000E+00 -0.00000000000E+00 -0.50859290106E+03  0.50859290106E+03  0.00000000000E+00 0. -1.
         25    2    1    2    0    0  0.44542358341E+02  0.76291360272E+02 -0.15223498712E+03  0.21588196434E+03  0.12500055155E+03 0.  0.
         25    2    1    2    0    0 -0.44542358341E+02 -0.76291360272E+02 -0.30648540943E+03  0.34258344123E+03  0.12500285866E+03 0.  0.
          5    1    3    3  501    0  0.38148564857E+02  0.67294635357E+01  0.90490556145E+01  0.40057135290E+02  0.47000000000E+01 0.  1.
         -5    1    3    3    0  501  0.63937934842E+01  0.69561896736E+02 -0.16128404273E+03  0.17582482905E+03  0.47000000000E+01 0.  1.
          5    1    4    4  502    0 -0.65872937423E+02 -0.49788335184E+02 -0.29499344024E+03  0.30636798461E+03  0.47000000000E+01 0. -1.
         -5    1    4    4    0  502  0.21330579082E+02 -0.26503025088E+02 -0.11491969185E+02  0.36215456625E+02  0.47000000000E+01 0. -1.
<mgrwt>
<rscale>  0 0.31852662E+03</rscale>
<asrwt>0</asrwt>
<pdfrwt beam="1">  1       21 0.76726933E-02 0.31852662E+03</pdfrwt>
<pdfrwt beam="2">  1       21 0.78245058E-01 0.31852662E+03</pdfrwt>
<totfact> 0.17999715E+05</totfact>
</mgrwt>
</event>
<event>
 8    1  0.9373234E-006  0.2759680E+03  0.7546771E-02  0.1097912E+00
         21   -1    0    0  504  503  0.00000000000E+00  0.00000000000E+00  0.74096838025E+02  0.74096838025E+02  0.00000000000E+00 0.  1.
         21   -1    0    0  503  504 -0.00000000000E+00 -0.00000000000E+00 -0.25695539533E+03  0.25695539533E+03  0.00000000000E+00 0.  1.
         25    2    1    2    0    0  0.16397130377E+02 -0.14426227808E+02 -0.26413896532E+02  0.12961453513E+03  0.12500100741E+03 0.  0.
         25    2    1    2    0    0 -0.16397130377E+02  0.14426227808E+02 -0.15644466078E+03  0.20143769823E+03  0.12500092979E+03 0.  0.
          5    1    3    3  501    0 -0.37994880860E+02  0.15625165351E+02 -0.48283054228E+02  0.63569647548E+02  0.47000000000E+01 0. -1.
         -5    1    3    3    0  501  0.54392011237E+02 -0.30051393158E+02  0.21869157697E+02  0.66044887580E+02  0.47000000000E+01 0. -1.
          5    1    4    4  502    0 -0.34259347185E+01 -0.21874363331E+02 -0.16077737914E+03  0.16236280498E+03  0.47000000000E+01 0. -1.
         -5    1    4    4    0  502 -0.12971195658E+02  0.36300591138E+02  0.43327183616E+01  0.39074893246E+02  0.47000000000E+01 0. -1.
<mgrwt>
<rscale>  0 0.27596799E+03</rscale>
<asrwt>0</asrwt>
<pdfrwt beam="1">  1       21 0.11399514E-01 0.27596799E+03</pdfrwt>
<pdfrwt beam="2">  1       21 0.39531598E-01 0.27596799E+03</pdfrwt>
<totfact> 0.38966742E+05</totfact>
</mgrwt>
</event>
<event>
 8    1  0.9373234E-006  0.3339364E+03  0.7546771E-02  0.1069408E+00
         21   -1    0    0  504  503  0.00000000000E+00  0.00000000000E+00  0.17845551288E+03  0.17845551288E+03  0.00000000000E+00 0.  1.
         21   -1    0    0  503  504 -0.00000000000E+00 -0.00000000000E+00 -0.15622033442E+03  0.15622033442E+03  0.00000000000E+00 0.  1.
         25    2    1    2    0    0  0.41724000457E+02  0.92041510338E+02 -0.34176083562E+02  0.16432238183E+03  0.12498523370E+03 0.  0.
         25    2    1    2    0    0 -0.41724000457E+02 -0.92041510338E+02  0.56411262026E+02  0.17035346547E+03  0.12500216348E+03 0.  0.
          5    1    3    3  501    0  0.80754308903E+02  0.63943387662E+02  0.33104216748E+01  0.10316522730E+03  0.47000000000E+01 0. -1.
         -5    1    3    3    0  501 -0.39030308446E+02  0.28098122676E+02 -0.37486505237E+02  0.61157154530E+02  0.47000000000E+01 0. -1.
          5    1    4    4  502    0 -0.78516956121E+02 -0.70814641314E+02  0.68338983053E+02  0.12598385781E+03  0.47000000000E+01 0.  1.
         -5    1    4    4    0  502  0.36792955664E+02 -0.21226869023E+02 -0.11927721027E+02  0.44369607661E+02  0.47000000000E+01 0.  1.
<mgrwt>
<rscale>  0 0.33393640E+03</rscale>
<asrwt>0</asrwt>
<pdfrwt beam="1">  1       21 0.27454694E-01 0.33393640E+03</pdfrwt>
<pdfrwt beam="2">  1       21 0.24033898E-01 0.33393640E+03</pdfrwt>
<totfact> 0.19934892E+05</totfact>
</mgrwt>
</event>
<event>
 8    1  0.9373234E-006  0.3294955E+03  0.7546771E-02  0.1071360E+00
         21   -1    0    0  504  503  0.00000000000E+00  0.00000000000E+00  0.36609922295E+02  0.36609922295E+02  0.00000000000E+00 0. -1.
         21   -1    0    0  503  504 -0.00000000000E+00 -0.00000000000E+00 -0.74137874886E+03  0.74137874886E+03  0.00000000000E+00 0. -1.
         25    2    1    2    0    0 -0.39139449485E+02 -0.51414194724E+02 -0.55456461982E+03  0.57213826737E+03  0.12499985405E+03 0.  0.
         25    2    1    2    0    0  0.39139449485E+02  0.51414194724E+02 -0.15020420675E+03  0.20585040379E+03  0.12505106592E+03 0.  0.
          5    1    3    3  501    0  0.43022016722E+02 -0.24007215924E+02 -0.27530055547E+03  0.27971365033E+03  0.47000000000E+01 0.  1.
         -5    1    3    3    0  501 -0.82161466206E+02 -0.27406978800E+02 -0.27926406435E+03  0.29242461704E+03  0.47000000000E+01 0.  1.
          5    1    4    4  502    0  0.11436408928E+02 -0.81843334377E+00 -0.14585468557E+03  0.14638012360E+03  0.47000000000E+01 0.  1.
         -5    1    4    4    0  502  0.27703040557E+02  0.52232628068E+02 -0.43495211813E+01  0.59470280187E+02  0.47000000000E+01 0.  1.
<mgrwt>
<rscale>  0 0.32949548E+03</rscale>
<asrwt>0</asrwt>
<pdfrwt beam="1">  1       21 0.56322960E-02 0.32949548E+03</pdfrwt>
<pdfrwt beam="2">  1       21 0.11405826E+00 0.32949548E+03</pdfrwt>
<totfact> 0.12551073E+05</totfact>
</mgrwt>
</event>
<event>
 8    1  0.9373234E-006  0.3289588E+03  0.7546771E-02  0.1071598E+00
         21   -1    0    0  504  503  0.00000000000E+00  0.00000000000E+00  0.17542543069E+03  0.17542543069E+03  0.00000000000E+00 0. -1.
         21   -1    0    0  503  504 -0.00000000000E+00 -0.00000000000E+00 -0.15421641229E+03  0.15421641229E+03  0.00000000000E+00 0. -1.
         25    2    1    2    0    0 -0.28908787961E+01 -0.72412261374E+02  0.89372392791E+02  0.16988237697E+03  0.12498281736E+03 0.  0.
         25    2    1    2    0    0  0.28908787961E+01  0.72412261374E+02 -0.68163374392E+02  0.15975946601E+03  0.12499979438E+03 0.  0.
          5    1    3    3  501    0  0.50764538039E+02 -0.29022664418E+02  0.81290800856E+02  0.10024788115E+03  0.47000000000E+01 0.  1.
         -5    1    3    3    0  501 -0.53655416835E+02 -0.43389596956E+02  0.80815919353E+01  0.69634495819E+02  0.47000000000E+01 0.  1.
          5    1    4    4  502    0 -0.12407295438E+02  0.38088494636E+02 -0.10155391131E+03  0.10927012998E+03  0.47000000000E+01 0. -1.
         -5    1    4    4    0  502  0.15298174235E+02  0.34323766737E+02  0.33390536914E+02  0.50489336036E+02  0.47000000000E+01 0. -1.
<mgrwt>
<rscale>  0 0.32895885E+03</rscale>
<asrwt>0</asrwt>
<pdfrwt beam="1">  1       21 0.26988528E-01 0.32895885E+03</pdfrwt>
<pdfrwt beam="2">  1       21 0.23725602E-01 0.32895885E+03</pdfrwt>
<totfact> 0.21151925E+05</totfact>
</mgrwt>
</event>
<event>
 8    1  0.9373234E-006  0.2757242E+03  0.7546771E-02  0.1098047E+00
         21   -1    0    0  504  503  0.00000000000E+00  0.00000000000E+00  0.82436813724E+02  0.82436813724E+02  0.00000000000E+00 0. -1.
         21   -1    0    0  503  504 -0.00000000000E+00 -0.00000000000E+00 -0.23055188162E+03  0.23055188162E+03  0.00000000000E+00 0. -1.
         25    2    1    2    0    0  0.26045354833E+02 -0.43984443422E+02 -0.42594371108E+02  0.14160344175E+03  0.12499704995E+03 0.  0.
         25    2    1    2    0    0 -0.26045354833E+02  0.43984443422E+02 -0.10552069679E+03  0.17138525359E+03  0.12500118370E+03 0.  0.
          5    1    3    3  501    0  0.43692166839E+02 -0.66096949508E+02 -0.67058871106E+02  0.10390762422E+03  0.47000000000E+01 0. -1.
         -5    1    3    3    0  501 -0.17646812005E+02  0.22112506086E+02  0.24464499998E+02  0.37695817533E+02  0.47000000000E+01 0. -1.
          5    1    4    4  502    0 -0.63721409184E+02 -0.13844125442E+01 -0.19188599066E+02  0.66728007018E+02  0.47000000000E+01 0.  1.
         -5    1    4    4    0  502  0.37676054351E+02  0.45368855966E+02 -0.86332097725E+02  0.10465724658E+03  0.47000000000E+01 0.  1.
<mgrwt>
<rscale>  0 0.27572423E+03</rscale>
<asrwt>0</asrwt>
<pdfrwt beam="1">  1       21 0.12682587E-01 0.27572423E+03</pdfrwt>
<pdfrwt beam="2">  1       21 0.35469520E-01 0.27572423E+03</pdfrwt>
<totfact> 0.40015784E+05</totfact>
</mgrwt>
</event>
<event>
 8    1  0.9373234E-006  0.3169719E+03  0.7546771E-02  0.1077051E+00
         21   -1    0    0  504  503  0.00000000000E+00  0.00000000000E+00  0.25561539873E+03  0.25561539873E+03  0.00000000000E+00 0.  1.
         21   -1    0    0  503  504 -0.00000000000E+00 -0.00000000000E+00 -0.98264033557E+02  0.98264033557E+02  0.00000000000E+00 0.  1.
         25    2    1    2    0    0  0.47034143701E+02 -0.37127360565E+02  0.16444350071E+03  0.21507396153E+03  0.12499796968E+03 0.  0.
         25    2    1    2    0    0 -0.47034143701E+02  0.37127360565E+02 -0.70921355379E+01  0.13880547076E+03  0.12500403494E+03 0.  0.
          5    1    3    3  501    0 -0.33351585263E+02 -0.22922732033E+02  0.12652421234E+02  0.42660914741E+02  0.47000000000E+01 0. -1.
         -5    1    3    3    0  501  0.80385728964E+02 -0.14204628532E+02  0.15179107948E+03  0.17241304678E+03  0.47000000000E+01 0. -1.
          5    1    4    4  502    0 -0.80797928722E+02  0.10079543685E+02 -0.33200060258E+02  0.88058142654E+02  0.47000000000E+01 0. -1.
         -5    1    4    4    0  502  0.33763785021E+02  0.27047816880E+02  0.26107924720E+02  0.50747328108E+02  0.47000000000E+01 0. -1.
<mgrwt>
<rscale>  0 0.31697192E+03</rscale>
<asrwt>0</asrwt>
<pdfrwt beam="1">  1       21 0.39325446E-01 0.31697192E+03</pdfrwt>
<pdfrwt beam="2">  1       21 0.15117544E-01 0.31697192E+03</pdfrwt>
<totfact> 0.23376475E+05</totfact>
</mgrwt>
</event>
<event>
 8    1  0.9373234E-006  0.2764602E+03  0.7546771E-02  0.1097638E+00
         21   -1    0    0  504  503  0.00000000000E+00  0.00000000000E+00  0.35756468550E+03  0.35756468550E+03  0.00000000000E+00 0. -1.
         21   -1    0    0  503  504 -0.00000000000E+00 -0.00000000000E+00 -0.53438071285E+02  0.53438071285E+02  0.00000000000E+00 0. -1.
         25    2    1    2    0    0 -0.21734254829E+02 -0.42878962587E+02  0.10117191166E+03  0.16784815150E+03  0.12500505185E+03 0.  0.
         25    2    1    2    0    0  0.21734254829E+02  0.42878962587E+02  0.20295470256E+03  0.24315460529E+03  0.12499026969E+03 0.  0.
          5    1    3    3  501    0  0.42814502780E+02 -0.45653384784E+02  0.75464732847E+02  0.98154618303E+02  0.47000000000E+01 0.  1.
         -5    1    3    3    0  501 -0.64548757609E+02  0.27744221969E+01  0.25707178815E+02  0.69693533201E+02  0.47000000000E+01 0.  1.
          5    1    4    4  502    0  0.52177855329E+02  0.82913445405E+01  0.23847240683E+02  0.58155445740E+02  0.47000000000E+01 0. -1.
         -5    1    4    4    0  502 -0.30443600500E+02  0.34587618046E+02  0.17910746188E+03  0.18499915955E+03  0.47000000000E+01 0. -1.
<mgrwt>
<rscale>  0 0.27646025E+03</rscale>
<asrwt>0</asrwt>
<pdfrwt beam="1">  1       21 0.55009950E-01 0.27646025E+03</pdfrwt>
<pdfrwt beam="2">  1       21 0.82212420E-02 0.27646025E+03</pdfrwt>
<totfact> 0.34993090E+05</totfact>
</mgrwt>
</event>
<event>
 8    1  0.9373234E-006  0.3158268E+03  0.7546771E-02  0.1077586E+00
         21   -1    0    0  504  503  0.00000000000E+00  0.00000000000E+00  0.26254646859E+02  0.26254646859E+02  0.00000000000E+00 0.  1.
         21   -1    0    0  503  504 -0.00000000000E+00 -0.00000000000E+00 -0.94979887726E+03  0.94979887726E+03  0.00000000000E+00 0.  1.
         25    2    1    2    0    0 -0.43761491387E+02  0.17650648939E+02 -0.20162600523E+03  0.24187545460E+03  0.12499630402E+03 0.  0.
         25    2    1    2    0    0  0.43761491387E+02 -0.17650648939E+02 -0.72191822517E+03  0.73417806951E+03  0.12499960153E+03 0.  0.
          5    1    3    3  501    0 -0.10620600559E+02 -0.46763300749E+02 -0.13500789746E+03  0.14334861643E+03  0.47000000000E+01 0.  1.
         -5    1    3    3    0  501 -0.33140890829E+02  0.64413949688E+02 -0.66618107761E+02  0.98526838176E+02  0.47000000000E+01 0.  1.
          5    1    4    4  502    0  0.57616233957E+02  0.42331877851E+02 -0.36674876816E+03  0.37368217411E+03  0.47000000000E+01 0. -1.
         -5    1    4    4    0  502 -0.13854742569E+02 -0.59982526790E+02 -0.35516945701E+03  0.36049589541E+03  0.47000000000E+01 0. -1.
<mgrwt>
<rscale>  0 0.31582675E+03</rscale>
<asrwt>0</asrwt>
<pdfrwt beam="1">  1       21 0.40391770E-02 0.31582675E+03</pdfrwt>
<pdfrwt beam="2">  1       21 0.14612288E+00 0.31582675E+03</pdfrwt>
<totfact> 0.11778723E+05</totfact>
</mgrwt>
</event>
<event>
 8    1  0.9373234E-006  0.2901943E+03  0.7546771E-02  0.1090248E+00
         21   -1    0    0  504  503  0.00000000000E+00  0.00000000000E+00  0.21845538788E+03  0.21845538788E+03  0.00000000000E+00 0.  1.
         21   -1    0    0  503  504 -0.00000000000E+00 -0.00000000000E+00 -0.96372895966E+02  0.96372895966E+02  0.00000000000E+00 0.  1.
         25    2    1    2    0    0  0.12176157545E+02 -0.33466547188E+02 -0.89934935121E+01  0.13023851545E+03  0.12495166820E+03 0.  0.
         25    2    1    2    0    0 -0.12176157545E+02  0.33466547188E+02  0.13107598543E+03  0.18458976841E+03  0.12499680016E+03 0.  0.
          5    1    3    3  501    0 -0.51741513699E+02 -0.12821381702E+02  0.19730057761E+02  0.57034526805E+02  0.47000000000E+01 0.  1.
         -5    1    3    3    0  501  0.63917671243E+02 -0.20645165486E+02 -0.28723551273E+02  0.73203988640E+02  0.47000000000E+01 0.  1.
          5    1    4    4  502    0  0.54783433225E+02  0.29585913410E+02  0.56908382512E+02  0.84481979311E+02  0.47000000000E+01 0. -1.
         -5    1    4    4    0  502 -0.66959590769E+02  0.38806337771E+01  0.74167602919E+02  0.10010778909E+03  0.47000000000E+01 0. -1.
<mgrwt>
<rscale>  0 0.29019427E+03</rscale>
<asrwt>0</asrwt>
<pdfrwt beam="1">  1       21 0.33608521E-01 0.29019427E+03</pdfrwt>
<pdfrwt beam="2">  1       21 0.14826599E-01 0.29019427E+03</pdfrwt>
<totfact> 0.33429671E+05</totfact>
</mgrwt>
</event>
<event>
 8    1  0.9373234E-006  0.3192614E+03  0.7546771E-02  0.1075990E+00
         21   -1    0    0  504  503  0.00000000000E+00  0.00000000000E+00  0.40542709153E+03  0.40542709153E+03  0.00000000000E+00 0.  1.
         21   -1    0    0  503  504 -0.00000000000E+00 -0.00000000000E+00 -0.62852123102E+02  0.62852123102E+02  0.00000000000E+00 0.  1.
         25    2    1    2    0    0 -0.49956578294E+02  0.95547467817E+01  0.46219086884E+02  0.14264332103E+03  0.12499584049E+03 0.  0.
         25    2    1    2    0    0  0.49956578294E+02 -0.95547467817E+01  0.29635588154E+03  0.32563589360E+03  0.12499989511E+03 0.  0.
          5    1    3    3  501    0 -0.27282030104E+02  0.64117138353E+02  0.45525146305E+02  0.83366333393E+02  0.47000000000E+01 0.  1.
         -5    1    3    3    0  501 -0.22674548189E+02 -0.54562391572E+02  0.69394057882E+00  0.59276987636E+02  0.47000000000E+01 0.  1.
          5    1    4    4  502    0 -0.23072824419E+02 -0.14520004713E+02  0.90369936908E+01  0.29102285451E+02  0.47000000000E+01 0. -1.
         -5    1    4    4    0  502  0.73029402712E+02  0.49652579311E+01  0.28731888785E+03  0.29653360815E+03  0.47000000000E+01 0. -1.
<mgrwt>
<rscale>  0 0.31926136E+03</rscale>
<asrwt>0</asrwt>
<pdfrwt beam="1">  1       21 0.62373397E-01 0.31926136E+03</pdfrwt>
<pdfrwt beam="2">  1       21 0.96695576E-02 0.31926136E+03</pdfrwt>
<totfact> 0.19833948E+05</totfact>
</mgrwt>
</event>
<event>
 8    1  0.9373234E-006  0.2815797E+03  0.7546771E-02  0.1094829E+00
         21   -1    0    0  504  503  0.00000000000E+00  0.00000000000E+00  0.99845523747E+03  0.99845523747E+03  0.00000000000E+00 0. -1.
         21   -1    0    0  503  504 -0.00000000000E+00 -0.00000000000E+00 -0.19852444293E+02  0.19852444293E+02  0.00000000000E+00 0. -1.
         25    2    1    2    0    0 -0.10319541465E+02  0.51312581976E+02  0.62734669959E+03  0.64181653445E+03  0.12500043361E+03 0.  0.
         25    2    1    2    0    0  0.10319541465E+02 -0.51312581976E+02  0.35125609360E+03  0.37649114732E+03  0.12500106687E+03 0.  0.
          5    1    3    3  501    0  0.54638677876E+02  0.14632229730E+02  0.35007266033E+03  0.35464411002E+03  0.47000000000E+01 0. -1.
         -5    1    3    3    0  501 -0.64958219341E+02  0.36680352246E+02  0.27727403926E+03  0.28717242442E+03  0.47000000000E+01 0. -1.
          5    1    4    4  502    0 -0.57272170946E+02 -0.23969011753E+02  0.15174192579E+03  0.16401925841E+03  0.47000000000E+01 0. -1.
         -5    1    4    4    0  502  0.67591712411E+02 -0.27343570223E+02  0.19951416781E+03  0.21247188891E+03  0.47000000000E+01 0. -1.
<mgrwt>
<rscale>  0 0.28157967E+03</rscale>
<asrwt>0</asrwt>
<pdfrwt beam="1">  1       21 0.15360846E+00 0.28157967E+03</pdfrwt>
<pdfrwt beam="2">  1       21 0.30542230E-02 0.28157967E+03</pdfrwt>
<totfact> 0.16666985E+05</totfact>
</mgrwt>
</event>
<event>
 8    1  0.9373234E-006  0.3723153E+03  0.7546771E-02  0.1053811E+00
         21   -1    0    0  504  503  0.00000000000E+00  0.00000000000E+00  0.66304652668E+02  0.66304652668E+02  0.00000000000E+00 0. -1.
         21   -1    0    0  503  504 -0.00000000000E+00 -0.00000000000E+00 -0.52265828024E+03  0.52265828024E+03  0.00000000000E+00 0. -1.
         25    2    1    2    0    0  0.12178715492E+02  0.68162871492E+02 -0.39428603407E+02  0.14822857359E+03  0.12499038804E+03 0.  0.
         25    2    1    2    0    0 -0.12178715492E+02 -0.68162871492E+02 -0.41692502417E+03  0.44073435931E+03  0.12500320613E+03 0.  0.
          5    1    3    3  501    0 -0.39580600089E+02  0.61343943743E+02  0.12760169037E+02  0.74260455501E+02  0.47000000000E+01 0.  1.
         -5    1    3    3    0  501  0.51759315581E+02  0.68189277485E+01 -0.52188772444E+02  0.73968118093E+02  0.47000000000E+01 0.  1.
          5    1    4    4  502    0 -0.43132516518E+02 -0.34047109993E+02 -0.62736650234E+02  0.83532011605E+02  0.47000000000E+01 0.  1.
         -5    1    4    4    0  502  0.30953801026E+02 -0.34115761499E+02 -0.35418837393E+03  0.35720234771E+03  0.47000000000E+01 0.  1.
<mgrwt>
<rscale>  0 0.37231533E+03</rscale>
<asrwt>0</asrwt>
<pdfrwt beam="1">  1       21 0.10200716E-01 0.37231533E+03</pdfrwt>
<pdfrwt beam="2">  1       21 0.80408965E-01 0.37231533E+03</pdfrwt>
<totfact> 0.10074822E+05</totfact>
</mgrwt>
</event>
<event>
 8    1  0.9373234E-006  0.3225217E+03  0.7546771E-02  0.1074495E+00
         21   -1    0    0  504  503  0.00000000000E+00  0.00000000000E+00  0.90657304440E+02  0.90657304440E+02  0.00000000000E+00 0.  1.
         21   -1    0    0  503  504 -0.00000000000E+00 -0.00000000000E+00 -0.28685012181E+03  0.28685012181E+03  0.00000000000E+00 0.  1.
         25    2    1    2    0    0  0.95037842326E+02  0.27304402258E+02 -0.69308538500E+02  0.17379741778E+03  0.12499658821E+03 0.  0.
         25    2    1    2    0    0 -0.95037842326E+02 -0.27304402258E+02 -0.12688427887E+03  0.20371000846E+03  0.12498170053E+03 0.  0.
          5    1    3    3  501    0  0.84378406563E+02 -0.37147184966E+02 -0.28432051675E+02  0.96592444878E+02  0.47000000000E+01 0. -1.
         -5    1    3    3    0  501  0.10659435763E+02  0.64451587224E+02 -0.40876486824E+02  0.77204972907E+02  0.47000000000E+01 0. -1.
          5    1    4    4  502    0 -0.58873888568E+02 -0.68947915781E+02 -0.36763727723E+02  0.97946983219E+02  0.47000000000E+01 0. -1.
         -5    1    4    4    0  502 -0.36163953758E+02  0.41643513524E+02 -0.90120551143E+02  0.10576302524E+03  0.47000000000E+01 0. -1.
<mgrwt>
<rscale>  0 0.32252168E+03</rscale>
<asrwt>0</asrwt>
<pdfrwt beam="1">  1       21 0.13947278E-01 0.32252168E+03</pdfrwt>
<pdfrwt beam="2">  1       21 0.44130788E-01 0.32252168E+03</pdfrwt>
<totfact> 0.21360000E+05</totfact>
</mgrwt>
</event>
<event>
 8    1  0.9373234E-006  0.2887435E+03  0.7546771E-02  0.1091007E+00
         21   -1    0    0  504  503  0.00000000000E+00  0.00000000000E+00  0.10380096874E+03  0.10380096874E+03  0.00000000000E+00 0.  1.
         21   -1    0    0  503  504 -0.00000000000E+00 -0.00000000000E+00 -0.20079973880E+03  0.20079973880E+03  0.00000000000E+00 0.  1.
         25    2    1    2    0    0  0.61955482208E+02 -0.34573752455E+02 -0.34201135290E+02  0.14774963922E+03  0.12500564827E+03 0.  0.
         25    2    1    2    0    0 -0.61955482208E+02  0.34573752455E+02 -0.62797634774E+02  0.15685106833E+03  0.12499955427E+03 0.  0.
          5    1    3    3  501    0  0.63017624485E+02 -0.14618670380E+02  0.36294590314E+02  0.74325727750E+02  0.47000000000E+01 0. -1.
         -5    1    3    3    0  501 -0.10621422774E+01 -0.19955082075E+02 -0.70495725604E+02  0.73423911468E+02  0.47000000000E+01 0. -1.
          5    1    4    4  502    0 -0.17402655825E+02 -0.42436504775E+02  0.28338777634E+01  0.46193400291E+02  0.47000000000E+01 0. -1.
         -5    1    4    4    0  502 -0.44552826383E+02  0.77010257230E+02 -0.65631512537E+02  0.11065766804E+03  0.47000000000E+01 0. -1.
<mgrwt>
<rscale>  0 0.28874354E+03</rscale>
<asrwt>0</asrwt>
<pdfrwt beam="1">  1       21 0.15969380E-01 0.28874354E+03</pdfrwt>
<pdfrwt beam="2">  1       21 0.30892267E-01 0.28874354E+03</pdfrwt>
<totfact> 0.34473769E+05</totfact>
</mgrwt>
</event>
<event>
 8    1  0.9373234E-006  0.3221904E+03  0.7546771E-02  0.1074646E+00
         21   -1    0    0  504  503  0.00000000000E+00  0.00000000000E+00  0.86311491803E+03  0.86311491803E+03  0.00000000000E+00 0.  1.
         21   -1    0    0  503  504 -0.00000000000E+00 -0.00000000000E+00 -0.30067443895E+02  0.30067443895E+02  0.00000000000E+00 0.  1.
         25    2    1    2    0    0 -0.23899811506E+02  0.10538781395E+02  0.14428479431E+03  0.19268025738E+03  0.12500125123E+03 0.  0.
         25    2    1    2    0    0  0.23899811506E+02 -0.10538781395E+02  0.68876267982E+03  0.70050210455E+03  0.12500760959E+03 0.  0.
          5    1    3    3  501    0  0.32321115544E+02  0.49360964287E+02  0.68939134190E+02  0.90861727522E+02  0.47000000000E+01 0. -1.
         -5    1    3    3    0  501 -0.56220927050E+02 -0.38822182892E+02  0.75345660122E+02  0.10181852986E+03  0.47000000000E+01 0. -1.
          5    1    4    4  502    0  0.49002079235E+02  0.41381132039E+02  0.25913096249E+03  0.26699166200E+03  0.47000000000E+01 0. -1.
         -5    1    4    4    0  502 -0.25102267729E+02 -0.51919913434E+02  0.42963171733E+03  0.43351044254E+03  0.47000000000E+01 0. -1.
<mgrwt>
<rscale>  0 0.32219037E+03</rscale>
<asrwt>0</asrwt>
<pdfrwt beam="1">  1       21 0.13278689E+00 0.32219037E+03</pdfrwt>
<pdfrwt beam="2">  1       21 0.46257613E-02 0.32219037E+03</pdfrwt>
<totfact> 0.11998488E+05</totfact>
</mgrwt>
</event>
<event>
 8    1  0.9373234E-006  0.2943629E+03  0.7546771E-02  0.1088093E+00
         21   -1    0    0  504  503  0.00000000000E+00  0.00000000000E+00  0.13892913826E+03  0.13892913826E+03  0.00000000000E+00 0. -1.
         21   -1    0    0  503  504 -0.00000000000E+00 -0.00000000000E+00 -0.15592393972E+03  0.15592393972E+03  0.00000000000E+00 0. -1.
         25    2    1    2    0    0  0.65056605249E+02  0.45533421733E+01 -0.50788802332E+02  0.14986809948E+03  0.12501139944E+03 0.  0.
         25    2    1    2    0    0 -0.65056605249E+02 -0.45533421733E+01  0.33794000877E+02  0.14498497850E+03  0.12500205871E+03 0.  0.
          5    1    3    3  501    0 -0.67254205738E+01 -0.49783325287E+02 -0.12895124849E+02  0.52076722280E+02  0.47000000000E+01 0. -1.
         -5    1    3    3    0  501  0.71782025823E+02  0.54336667461E+02 -0.37893677483E+02  0.97791377203E+02  0.47000000000E+01 0. -1.
          5    1    4    4  502    0 -0.75918661949E+02  0.41886595212E+02  0.41841817327E+02  0.96389614419E+02  0.47000000000E+01 0. -1.
         -5    1    4    4    0  502  0.10862056700E+02 -0.46439937385E+02 -0.80478164494E+01  0.48595364076E+02  0.47000000000E+01 0. -1.
<mgrwt>
<rscale>  0 0.29436290E+03</rscale>
<asrwt>0</asrwt>
<pdfrwt beam="1">  1       21 0.21373714E-01 0.29436290E+03</pdfrwt>
<pdfrwt beam="2">  1       21 0.23988298E-01 0.29436290E+03</pdfrwt>
<totfact> 0.32649200E+05</totfact>
</mgrwt>
</event>
<event>
 8    1  0.9373234E-006  0.3058785E+03  0.7546771E-02  0.1082338E+00
         21   -1    0    0  504  503  0.00000000000E+00  0.00000000000E+00  0.49587651539E+02  0.49587651539E+02  0.00000000000E+00 0.  1.
         21   -1    0    0  503  504 -0.00000000000E+00 -0.00000000000E+00 -0.47169826622E+03  0.47169826622E+03  0.00000000000E+00 0.  1.
         25    2    1    2    0    0 -0.58148105184E+02  0.28146044775E+02 -0.10891967681E+03  0.17793755223E+03  0.12499949810E+03 0.  0.
         25    2    1    2    0    0  0.58148105184E+02 -0.28146044775E+02 -0.31319093787E+03  0.34334836553E+03  0.12500453820E+03 0.  0.
          5    1    3    3  501    0 -0.34558297548E+02 -0.38424484259E+02 -0.49055303377E+01  0.52123614109E+02  0.47000000000E+01 0. -1.
         -5    1    3    3    0  501 -0.23589807636E+02  0.66570529033E+02 -0.10401414647E+03  0.12581393813E+03  0.47000000000E+01 0. -1.
          5    1    4    4  502    0 -0.81999111765E+01 -0.36268660901E+02 -0.19772280525E+02  0.42375551725E+02  0.47000000000E+01 0. -1.
         -5    1    4    4    0  502  0.66348016360E+02  0.81226161263E+01 -0.29341865735E+03  0.30097281380E+03  0.47000000000E+01 0. -1.
<mgrwt>
<rscale>  0 0.30587847E+03</rscale>
<asrwt>0</asrwt>
<pdfrwt beam="1">  1       21 0.76288691E-02 0.30587847E+03</pdfrwt>
<pdfrwt beam="2">  1       21 0.72568967E-01 0.30587847E+03</pdfrwt>
<totfact> 0.21621836E+05</totfact>
</mgrwt>
</event>
<event>
 8    1  0.9373234E-006  0.2625038E+03  0.7546771E-02  0.1105648E+00
         21   -1    0    0  504  503  0.00000000000E+00  0.00000000000E+00  0.23610661581E+02  0.23610661581E+02  0.00000000000E+00 0. -1.
         21   -1    0    0  503  504 -0.00000000000E+00 -0.00000000000E+00 -0.72963076647E+03  0.72963076647E+03  0.00000000000E+00 0. -1.
         25    2    1    2    0    0  0.26613475289E+02  0.19193404051E+02 -0.28724153787E+03  0.31497520156E+03  0.12500005077E+03 0.  0.
         25    2    1    2    0    0 -0.26613475289E+02 -0.19193404051E+02 -0.41877856702E+03  0.43826622649E+03  0.12500053305E+03 0.  0.
          5    1    3    3  501    0 -0.52045691255E+00  0.51178023808E+02 -0.42703784971E+02  0.66821884493E+02  0.47000000000E+01 0. -1.
         -5    1    3    3    0  501  0.27133932202E+02 -0.31984619758E+02 -0.24453775290E+03  0.24815331707E+03  0.47000000000E+01 0. -1.
          5    1    4    4  502    0  0.19192472961E+02  0.15814622232E+02 -0.13125754336E+02  0.28510151202E+02  0.47000000000E+01 0. -1.
         -5    1    4    4    0  502 -0.45805948250E+02 -0.35008026283E+02 -0.40565281268E+03  0.40975607529E+03  0.47000000000E+01 0. -1.
<mgrwt>
<rscale>  0 0.26250383E+03</rscale>
<asrwt>0</asrwt>
<pdfrwt beam="1">  1       21 0.36324103E-02 0.26250383E+03</pdfrwt>
<pdfrwt beam="2">  1       21 0.11225086E+00 0.26250383E+03</pdfrwt>
<totfact> 0.28038264E+05</totfact>
</mgrwt>
</event>
<event>
 8    1  0.9373234E-006  0.3072822E+03  0.7546771E-02  0.1081656E+00
         21   -1    0    0  504  503  0.00000000000E+00  0.00000000000E+00  0.29765271729E+02  0.29765271729E+02  0.00000000000E+00 0. -1.
         21   -1    0    0  503  504 -0.00000000000E+00 -0.00000000000E+00 -0.79305810038E+03  0.79305810038E+03  0.00000000000E+00 0. -1.
         25    2    1    2    0    0 -0.42085040668E+02 -0.77202528169E+02 -0.33932446002E+03  0.37215121017E+03  0.12499621216E+03 0.  0.
         25    2    1    2    0    0  0.42085040668E+02  0.77202528169E+02 -0.42396836862E+03  0.45067216194E+03  0.12499935580E+03 0.  0.
          5    1    3    3  501    0  0.33680971593E+02 -0.42321072957E+01 -0.16477808276E+03  0.16830396650E+03  0.47000000000E+01 0.  1.
         -5    1    3    3    0  501 -0.75766012261E+02 -0.72970420874E+02 -0.17454637726E+03  0.20384724367E+03  0.47000000000E+01 0.  1.
          5    1    4    4  502    0 -0.17383918158E+02  0.72864289189E+02 -0.33609928965E+03  0.34437803030E+03  0.47000000000E+01 0.  1.
         -5    1    4    4    0  502  0.59468958826E+02  0.43382389806E+01 -0.87869078970E+02  0.10629413164E+03  0.47000000000E+01 0.  1.
<mgrwt>
<rscale>  0 0.30728221E+03</rscale>
<asrwt>0</asrwt>
<pdfrwt beam="1">  1       21 0.45792735E-02 0.30728221E+03</pdfrwt>
<pdfrwt beam="2">  1       21 0.12200891E+00 0.30728221E+03</pdfrwt>
<totfact> 0.15216254E+05</totfact>
</mgrwt>
</event>
<event>
 8    1  0.9373234E-006  0.3034634E+03  0.7546771E-02  0.1083522E+00
         21   -1    0    0  504  503  0.00000000000E+00  0.00000000000E+00  0.10129317094E+03  0.10129317094E+03  0.00000000000E+00 0.  1.
         21   -1    0    0  503  504 -0.00000000000E+00 -0.00000000000E+00 -0.22728588002E+03  0.22728588002E+03  0.00000000000E+00 0.  1.
         25    2    1    2    0    0  0.21405056965E+02  0.74923851375E+01  0.26844733972E+02  0.12983792967E+03  0.12499174348E+03 0.  0.
         25    2    1    2    0    0 -0.21405056965E+02 -0.74923851375E+01 -0.15283744305E+03  0.19874112129E+03  0.12499774796E+03 0.  0.
          5    1    3    3  501    0  0.59711209273E+02  0.63916313720E+00  0.55203590730E+02  0.81457740405E+02  0.47000000000E+01 0. -1.
         -5    1    3    3    0  501 -0.38306152308E+02  0.68532220003E+01 -0.28358856758E+02  0.48380189262E+02  0.47000000000E+01 0. -1.
          5    1    4    4  502    0 -0.39231278831E+02  0.51556666336E+02 -0.72401069507E+02  0.97268638050E+02  0.47000000000E+01 0.  1.
         -5    1    4    4    0  502  0.17826221866E+02 -0.59049051474E+02 -0.80436373545E+02  0.10147248324E+03  0.47000000000E+01 0.  1.
<mgrwt>
<rscale>  0 0.30346339E+03</rscale>
<asrwt>0</asrwt>
<pdfrwt beam="1">  1       21 0.15583565E-01 0.30346339E+03</pdfrwt>
<pdfrwt beam="2">  1       21 0.34967058E-01 0.30346339E+03</pdfrwt>
<totfact> 0.28104830E+05</totfact>
</mgrwt>
</event>
<event>
 8    1  0.9373234E-006  0.3277638E+03  0.7546771E-02  0.1072131E+00
         21   -1    0    0  504  503  0.00000000000E+00  0.00000000000E+00  0.50303814016E+03  0.50303814016E+03  0.00000000000E+00 0. -1.
         21   -1    0    0  503  504 -0.00000000000E+00 -0.00000000000E+00 -0.53390139598E+02  0.53390139598E+02  0.00000000000E+00 0. -1.
         25    2    1    2    0    0  0.99975619738E+02 -0.33385950933E+02  0.24367717091E+03  0.29344869990E+03  0.12499531827E+03 0.  0.
         25    2    1    2    0    0 -0.99975619738E+02  0.33385950933E+02  0.20597082965E+03  0.26297957986E+03  0.12499812195E+03 0.  0.
          5    1    3    3  501    0  0.14485458227E+02  0.36421436257E+02  0.12601749705E+03  0.13205623454E+03  0.47000000000E+01 0. -1.
         -5    1    3    3    0  501  0.85490161511E+02 -0.69807387191E+02  0.11765967386E+03  0.16139246536E+03  0.47000000000E+01 0. -1.
          5    1    4    4  502    0 -0.44278275422E+02 -0.97012075311E+01  0.33789113172E+00  0.45572834807E+02  0.47000000000E+01 0.  1.
         -5    1    4    4    0  502 -0.55697344317E+02  0.43087158464E+02  0.20563293852E+03  0.21740674505E+03  0.47000000000E+01 0.  1.
<mgrwt>
<rscale>  0 0.32776380E+03</rscale>
<asrwt>0</asrwt>
<pdfrwt beam="1">  1       21 0.77390480E-01 0.32776380E+03</pdfrwt>
<pdfrwt beam="2">  1       21 0.82138680E-02 0.32776380E+03</pdfrwt>
<totfact> 0.16335206E+05</totfact>
</mgrwt>
</event>
<event>
 8    1  0.9373234E-006  0.4036527E+03  0.7546771E-02  0.1042522E+00
         21   -1    0    0  504  503  0.00000000000E+00  0.00000000000E+00  0.38816608305E+03  0.38816608305E+03  0.00000000000E+00 0. -1.
         21   -1    0    0  503  504 -0.00000000000E+00 -0.00000000000E+00 -0.10493927754E+03  0.10493927754E+03  0.00000000000E+00 0. -1.
         25    2    1    2    0    0 -0.85556988422E+02  0.87014039923E+02  0.26508512676E+03  0.31747933805E+03  0.12502625423E+03 0.  0.
         25    2    1    2    0    0  0.85556988422E+02 -0.87014039923E+02  0.18141678743E+02  0.17562602253E+03  0.12499575142E+03 0.  0.
          5    1    3    3  501    0 -0.11432113250E+03  0.45228854311E+02  0.17379973757E+03  0.21293991964E+03  0.47000000000E+01 0. -1.
         -5    1    3    3    0  501  0.28764144075E+02  0.41785185612E+02  0.91285389195E+02  0.10453941841E+03  0.47000000000E+01 0. -1.
          5    1    4    4  502    0 -0.19583415633E+02  0.78025082628E+01 -0.19450694440E+02  0.29065595078E+02  0.47000000000E+01 0.  1.
         -5    1    4    4    0  502  0.10514040405E+03 -0.94816548186E+02  0.37592373182E+02  0.14656042746E+03  0.47000000000E+01 0.  1.
<mgrwt>
<rscale>  0 0.40365266E+03</rscale>
<asrwt>0</asrwt>
<pdfrwt beam="1">  1       21 0.59717858E-01 0.40365266E+03</pdfrwt>
<pdfrwt beam="2">  1       21 0.16144504E-01 0.40365266E+03</pdfrwt>
<totfact> 0.84224187E+04</totfact>
</mgrwt>
</event>
<event>
 8    1  0.9373234E-006  0.2758523E+03  0.7546771E-02  0.1097976E+00
         21   -1    0    0  504  503  0.00000000000E+00  0.00000000000E+00  0.17297805325E+03  0.17297805325E+03  0.00000000000E+00 0. -1.
         21   -1    0    0  503  504 -0.00000000000E+00 -0.00000000000E+00 -0.10997707320E+03  0.10997707320E+03  0.00000000000E+00 0. -1.
         25    2    1    2    0    0 -0.46577016902E+02 -0.13096820935E+02 -0.18306436518E+01  0.13406071471E+03  0.12501191443E+03 0.  0.
         25    2    1    2    0    0  0.46577016902E+02  0.13096820935E+02  0.64831623701E+02  0.14889441175E+03  0.12500184477E+03 0.  0.
          5    1    3    3  501    0 -0.45426758226E+02 -0.65560494083E+02 -0.10769087392E+02  0.80621535526E+02  0.47000000000E+01 0. -1.
         -5    1    3    3    0  501 -0.11502586767E+01  0.52463673148E+02  0.89384437401E+01  0.53439179182E+02  0.47000000000E+01 0. -1.
          5    1    4    4  502    0  0.54325104717E+02  0.43588175590E+02 -0.71733614153E+01  0.70176158116E+02  0.47000000000E+01 0.  1.
         -5    1    4    4    0  502 -0.77480878151E+01 -0.30491354656E+02  0.72004985116E+02  0.78718253633E+02  0.47000000000E+01 0.  1.
<mgrwt>
<rscale>  0 0.27585228E+03</rscale>
<asrwt>0</asrwt>
<pdfrwt beam="1">  1       21 0.26612008E-01 0.27585228E+03</pdfrwt>
<pdfrwt beam="2">  1       21 0.16919550E-01 0.27585228E+03</pdfrwt>
<totfact> 0.41571541E+05</totfact>
</mgrwt>
</event>
<event>
 8    1  0.9373234E-006  0.2763674E+03  0.7546771E-02  0.1097690E+00
         21   -1    0    0  504  503  0.00000000000E+00  0.00000000000E+00  0.19074309464E+04  0.19074309464E+04  0.00000000000E+00 0.  1.
         21   -1    0    0  503  504 -0.00000000000E+00 -0.00000000000E+00 -0.10010705546E+02  0.10010705546E+02  0.00000000000E+00 0.  1.
         25    2    1    2    0    0 -0.28434022233E+02 -0.50515289257E+02  0.87519254780E+03  0.88596974397E+03  0.12498041220E+03 0.  0.
         25    2    1    2    0    0  0.28434022233E+02  0.50515289257E+02  0.10222276930E+04  0.10314719080E+04  0.12499820971E+03 0.  0.
          5    1    3    3  501    0  0.42882342560E+02  0.55068722634E+01  0.19829713058E+03  0.20301000700E+03  0.47000000000E+01 0.  1.
         -5    1    3    3    0  501 -0.71316364793E+02 -0.56022161520E+02  0.67689541722E+03  0.68295973697E+03  0.47000000000E+01 0.  1.
          5    1    4    4  502    0 -0.20136138803E+02  0.73347621256E+02  0.42152879427E+03  0.42836194046E+03  0.47000000000E+01 0.  1.
         -5    1    4    4    0  502  0.48570161037E+02 -0.22832332000E+02  0.60069889876E+03  0.60310996750E+03  0.47000000000E+01 0.  1.
<mgrwt>
<rscale>  0 0.27636736E+03</rscale>
<asrwt>0</asrwt>
<pdfrwt beam="1">  1       21 0.29345063E+00 0.27636736E+03</pdfrwt>
<pdfrwt beam="2">  1       21 0.15401101E-02 0.27636736E+03</pdfrwt>
<totfact> 0.65875574E+04</totfact>
</mgrwt>
</event>
<event>
 8    1  0.9373234E-006  0.2823758E+03  0.7546771E-02  0.1094398E+00
         21   -1    0    0  504  503  0.00000000000E+00  0.00000000000E+00  0.49822578090E+02  0.49822578090E+02  0.00000000000E+00 0.  1.
         21   -1    0    0  503  504 -0.00000000000E+00 -0.00000000000E+00 -0.40010005553E+03  0.40010005553E+03  0.00000000000E+00 0.  1.
         25    2    1    2    0    0 -0.22616496355E+02 -0.41786919556E+02 -0.10299264983E+03  0.16878905974E+03  0.12499843286E+03 0.  0.
         25    2    1    2    0    0  0.22616496355E+02  0.41786919556E+02 -0.24728482761E+03  0.28113357388E+03  0.12501459052E+03 0.  0.
          5    1    3    3  501    0 -0.58889250584E+02 -0.13318276853E+02 -0.10628054281E+03  0.12232319532E+03  0.47000000000E+01 0. -1.
         -5    1    3    3    0  501  0.36272754228E+02 -0.28468642703E+02  0.32878929786E+01  0.46465864426E+02  0.47000000000E+01 0. -1.
          5    1    4    4  502    0 -0.13189297247E+02 -0.30378140510E+02 -0.17835703811E+02  0.37907668263E+02  0.47000000000E+01 0.  1.
         -5    1    4    4    0  502  0.35805793603E+02  0.72165060066E+02 -0.22944912380E+03  0.24322590562E+03  0.47000000000E+01 0.  1.
<mgrwt>
<rscale>  0 0.28237575E+03</rscale>
<asrwt>0</asrwt>
<pdfrwt beam="1">  1       21 0.76650122E-02 0.28237575E+03</pdfrwt>
<pdfrwt beam="2">  1       21 0.61553853E-01 0.28237575E+03</pdfrwt>
<totfact> 0.31016122E+05</totfact>
</mgrwt>
</event>
<event>
 8    1  0.9373234E-006  0.2505148E+03  0.7546771E-02  0.1112980E+00
         21   -1    0    0  504  503  0.00000000000E+00  0.00000000000E+00  0.20887616856E+04  0.20887616856E+04  0.00000000000E+00 0. -1.
         21   -1    0    0  503  504 -0.00000000000E+00 -0.00000000000E+00 -0.75113461549E+01  0.75113461549E+01  0.00000000000E+00 0. -1.
         25    2    1    2    0    0  0.21434718109E+01 -0.80996943931E+00  0.97589769633E+03  0.98387282188E+03  0.12499666167E+03 0.  0.
         25    2    1    2    0    0 -0.21434718109E+01  0.80996943931E+00  0.11053526431E+04  0.11124002099E+04  0.12499804296E+03 0.  0.
          5    1    3    3  501    0 -0.45691416939E+02 -0.92016236720E+01  0.79892375456E+03  0.80029596467E+03  0.47000000000E+01 0.  1.
         -5    1    3    3    0  501  0.47834888750E+02  0.83916542327E+01  0.17697394176E+03  0.18357685722E+03  0.47000000000E+01 0.  1.
          5    1    4    4  502    0 -0.42589445299E+02 -0.32061951314E+02  0.26113577486E+03  0.26656296158E+03  0.47000000000E+01 0.  1.
         -5    1    4    4    0  502  0.40445973488E+02  0.32871920754E+02  0.84421686826E+03  0.84583724829E+03  0.47000000000E+01 0.  1.
<mgrwt>
<rscale>  0 0.25051477E+03</rscale>
<asrwt>0</asrwt>
<pdfrwt beam="1">  1       21 0.32134749E+00 0.25051477E+03</pdfrwt>
<pdfrwt beam="2">  1       21 0.11555934E-02 0.25051477E+03</pdfrwt>
<totfact> 0.73104102E+04</totfact>
</mgrwt>
</event>
<event>
 8    1  0.9373234E-006  0.5821169E+03  0.7546771E-02  0.9943218E-01
         21   -1    0    0  504  503  0.00000000000E+00  0.00000000000E+00  0.11258715446E+03  0.11258715446E+03  0.00000000000E+00 0.  1.
         21   -1    0    0  503  504 -0.00000000000E+00 -0.00000000000E+00 -0.75243959346E+03  0.75243959346E+03  0.00000000000E+00 0.  1.
         25    2    1    2    0    0 -0.31263820437E+02 -0.82985994374E+02 -0.68762378427E+03  0.70449669441E+03  0.12500008801E+03 0.  0.
         25    2    1    2    0    0  0.31263820437E+02  0.82985994374E+02  0.47771345265E+02  0.16053005351E+03  0.12499477958E+03 0.  0.
          5    1    3    3  501    0 -0.48920755560E+00  0.30484647519E+02 -0.83390533519E+02  0.88913576797E+02  0.47000000000E+01 0.  1.
         -5    1    3    3    0  501 -0.30774612881E+02 -0.11347064189E+03 -0.60423325075E+03  0.61558311761E+03  0.47000000000E+01 0.  1.
          5    1    4    4  502    0  0.62026419970E+02  0.87382883773E+02  0.64260795685E+02  0.12503833417E+03  0.47000000000E+01 0.  1.
         -5    1    4    4    0  502 -0.30762599534E+02 -0.43968893990E+01 -0.16489450420E+02  0.35491719338E+02  0.47000000000E+01 0.  1.
<mgrwt>
<rscale>  0 0.58211694E+03</rscale>
<asrwt>0</asrwt>
<pdfrwt beam="1">  1       21 0.17321100E-01 0.58211694E+03</pdfrwt>
<pdfrwt beam="2">  1       21 0.11575995E+00 0.58211694E+03</pdfrwt>
<totfact> 0.15064073E+04</totfact>
</mgrwt>
</event>
<event>
 8    1  0.9373234E-006  0.2589312E+03  0.7546771E-02  0.1107787E+00
         21   -1    0    0  504  503  0.00000000000E+00  0.00000000000E+00  0.79241868546E+02  0.79241868546E+02  0.00000000000E+00 0. -1.
         21   -1    0    0  503  504 -0.00000000000E+00 -0.00000000000E+00 -0.21152122999E+03  0.21152122999E+03  0.00000000000E+00 0. -1.
         25    2    1    2    0    0  0.32349057309E+02 -0.89194058762E+01 -0.62530727852E+02  0.14373772193E+03  0.12499769386E+03 0.  0.
         25    2    1    2    0    0 -0.32349057309E+02  0.89194058762E+01 -0.69748633591E+02  0.14702537660E+03  0.12500228865E+03 0.  0.
          5    1    3    3  501    0 -0.38478409833E+02 -0.20845182554E+01  0.11954544435E+02  0.40619384194E+02  0.47000000000E+01 0. -1.
         -5    1    3    3    0  501  0.70827467142E+02 -0.68348876208E+01 -0.74485272287E+02  0.10311833774E+03  0.47000000000E+01 0. -1.
          5    1    4    4  502    0  0.26265168661E+02  0.19801840805E+02 -0.79748866030E+02  0.86394117955E+02  0.47000000000E+01 0.  1.
         -5    1    4    4    0  502 -0.58614225970E+02 -0.10882434929E+02  0.10000232440E+02  0.60631258645E+02  0.47000000000E+01 0.  1.
<mgrwt>
<rscale>  0 0.25893117E+03</rscale>
<asrwt>0</asrwt>
<pdfrwt beam="1">  1       21 0.12191057E-01 0.25893117E+03</pdfrwt>
<pdfrwt beam="2">  1       21 0.32541727E-01 0.25893117E+03</pdfrwt>
<totfact> 0.51183593E+05</totfact>
</mgrwt>
</event>
<event>
 8    1  0.9373234E-006  0.2815870E+03  0.7546771E-02  0.1094825E+00
         21   -1    0    0  504  503  0.00000000000E+00  0.00000000000E+00  0.79115453051E+02  0.79115453051E+02  0.00000000000E+00 0.  1.
         21   -1    0    0  503  504 -0.00000000000E+00 -0.00000000000E+00 -0.25055548427E+03  0.25055548427E+03  0.00000000000E+00 0.  1.
         25    2    1    2    0    0  0.30064677250E+02 -0.55571224514E+02 -0.68925350103E+02  0.15610194994E+03  0.12500027630E+03 0.  0.
         25    2    1    2    0    0 -0.30064677250E+02  0.55571224514E+02 -0.10251468111E+03  0.17356898738E+03  0.12499955090E+03 0.  0.
          5    1    3    3  501    0  0.61153567595E+02 -0.65239972887E+02 -0.81310501608E+02  0.12095247233E+03  0.47000000000E+01 0. -1.
         -5    1    3    3    0  501 -0.31088890344E+02  0.96687483724E+01  0.12385151505E+02  0.35149477603E+02  0.47000000000E+01 0. -1.
          5    1    4    4  502    0 -0.63352272958E+02  0.14551833095E+02 -0.86308013987E+01  0.65740756522E+02  0.47000000000E+01 0.  1.
         -5    1    4    4    0  502  0.33287595707E+02  0.41019391419E+02 -0.93883879716E+02  0.10782823086E+03  0.47000000000E+01 0.  1.
<mgrwt>
<rscale>  0 0.28158701E+03</rscale>
<asrwt>0</asrwt>
<pdfrwt beam="1">  1       21 0.12171608E-01 0.28158701E+03</pdfrwt>
<pdfrwt beam="2">  1       21 0.38546997E-01 0.28158701E+03</pdfrwt>
<totfact> 0.36408328E+05</totfact>
</mgrwt>
</event>
<event>
 8    1  0.9373234E-006  0.2834786E+03  0.7546771E-02  0.1093804E+00
         21   -1    0    0  504  503  0.00000000000E+00  0.00000000000E+00  0.16095934068E+03  0.16095934068E+03  0.00000000000E+00 0. -1.
         21   -1    0    0  503  504 -0.00000000000E+00 -0.00000000000E+00 -0.12481430853E+03  0.12481430853E+03  0.00000000000E+00 0. -1.
         25    2    1    2    0    0  0.26021401592E+02 -0.42642672019E+02  0.62810162967E+02  0.14854550057E+03  0.12500055340E+03 0.  0.
         25    2    1    2    0    0 -0.26021401592E+02  0.42642672019E+02 -0.26665130815E+02  0.13722814863E+03  0.12500009903E+03 0.  0.
          5    1    3    3  501    0  0.62235866557E+02 -0.21551324328E+01 -0.36798930702E+01  0.62558606882E+02  0.47000000000E+01 0.  1.
         -5    1    3    3    0  501 -0.36214464965E+02 -0.40487539586E+02  0.66490056037E+02  0.85986893689E+02  0.47000000000E+01 0.  1.
          5    1    4    4  502    0 -0.63948978542E+02  0.39181903786E+02 -0.51877227870E+02  0.91312815160E+02  0.47000000000E+01 0. -1.
         -5    1    4    4    0  502  0.37927576950E+02  0.34607682325E+01  0.25212097055E+02  0.45915333473E+02  0.47000000000E+01 0. -1.
<mgrwt>
<rscale>  0 0.28347860E+03</rscale>
<asrwt>0</asrwt>
<pdfrwt beam="1">  1       21 0.24762976E-01 0.28347860E+03</pdfrwt>
<pdfrwt beam="2">  1       21 0.19202201E-01 0.28347860E+03</pdfrwt>
<totfact> 0.37676265E+05</totfact>
</mgrwt>
</event>
<event>
 8    1  0.9373234E-006  0.2973918E+03  0.7546771E-02  0.1086552E+00
         21   -1    0    0  504  503  0.00000000000E+00  0.00000000000E+00  0.46758591936E+03  0.46758591936E+03  0.00000000000E+00 0.  1.
         21   -1    0    0  503  504 -0.00000000000E+00 -0.00000000000E+00 -0.47286426702E+02  0.47286426702E+02  0.00000000000E+00 0.  1.
         25    2    1    2    0    0  0.25132329455E+02 -0.81416303022E+01  0.78438267385E+02  0.14992260213E+03  0.12500521873E+03 0.  0.
         25    2    1    2    0    0 -0.25132329455E+02  0.81416303022E+01  0.34186122527E+03  0.36494974394E+03  0.12498519162E+03 0.  0.
          5    1    3    3  501    0  0.30433224290E+02  0.29264632200E+02 -0.18078602883E+02  0.46168449407E+02  0.47000000000E+01 0.  1.
         -5    1    3    3    0  501 -0.53008948342E+01 -0.37406262502E+02  0.96516870268E+02  0.10375415272E+03  0.47000000000E+01 0.  1.
          5    1    4    4  502    0 -0.27078772671E+02 -0.34647890389E+02  0.38776177909E+02  0.58816819116E+02  0.47000000000E+01 0.  1.
         -5    1    4    4    0  502  0.19464432158E+01  0.42789520691E+02  0.30308504736E+03  0.30613292482E+03  0.47000000000E+01 0.  1.
<mgrwt>
<rscale>  0 0.29739178E+03</rscale>
<asrwt>0</asrwt>
<pdfrwt beam="1">  1       21 0.71936292E-01 0.29739178E+03</pdfrwt>
<pdfrwt beam="2">  1       21 0.72748352E-02 0.29739178E+03</pdfrwt>
<totfact> 0.24008825E+05</totfact>
</mgrwt>
</event>
<event>
 8    1  0.9373234E-006  0.4384577E+03  0.7546771E-02  0.1031221E+00
         21   -1    0    0  504  503  0.00000000000E+00  0.00000000000E+00  0.39432840404E+02  0.39432840404E+02  0.00000000000E+00 0. -1.
         21   -1    0    0  503  504 -0.00000000000E+00 -0.00000000000E+00 -0.12188136083E+04  0.12188136083E+04  0.00000000000E+00 0. -1.
         25    2    1    2    0    0  0.79508590366E+02  0.15234582093E+03 -0.74426969525E+03  0.77401640956E+03  0.12503262730E+03 0.  0.
         25    2    1    2    0    0 -0.79508590366E+02 -0.15234582093E+03 -0.43511107267E+03  0.48423003917E+03  0.12500488064E+03 0.  0.
          5    1    3    3  501    0  0.16310022415E+02  0.13292442264E+03 -0.60655284881E+03  0.62117901394E+03  0.47000000000E+01 0. -1.
         -5    1    3    3    0  501  0.63198567951E+02  0.19421398295E+02 -0.13771684645E+03  0.15283739561E+03  0.47000000000E+01 0. -1.
          5    1    4    4  502    0  0.29313692720E+02 -0.26091723364E+02 -0.13774434805E+03  0.14330270769E+03  0.47000000000E+01 0.  1.
         -5    1    4    4    0  502 -0.10882228309E+03 -0.12625409757E+03 -0.29736672461E+03  0.34092733149E+03  0.47000000000E+01 0.  1.
<mgrwt>
<rscale>  0 0.43845767E+03</rscale>
<asrwt>0</asrwt>
<pdfrwt beam="1">  1       21 0.60665910E-02 0.43845767E+03</pdfrwt>
<pdfrwt beam="2">  1       21 0.18750978E+00 0.43845767E+03</pdfrwt>
<totfact> 0.28006843E+04</totfact>
</mgrwt>
</event>
<event>
 8    1  0.9373234E-006  0.3088323E+03  0.7546771E-02  0.1080907E+00
         21   -1    0    0  504  503  0.00000000000E+00  0.00000000000E+00  0.24562940820E+02  0.24562940820E+02  0.00000000000E+00 0.  1.
         21   -1    0    0  503  504 -0.00000000000E+00 -0.00000000000E+00 -0.97074485275E+03  0.97074485275E+03  0.00000000000E+00 0.  1.
         25    2    1    2    0    0  0.41785467388E+01 -0.34758896605E+02 -0.20358859851E+03  0.24145373524E+03  0.12500379062E+03 0.  0.
         25    2    1    2    0    0 -0.41785467388E+01  0.34758896605E+02 -0.74259331342E+03  0.75385405833E+03  0.12500188392E+03 0.  0.
          5    1    3    3  501    0 -0.13240160477E+02 -0.79196945652E+02 -0.10974185931E+03  0.13606183791E+03  0.47000000000E+01 0. -1.
         -5    1    3    3    0  501  0.17418707216E+02  0.44438049046E+02 -0.93846739198E+02  0.10539189733E+03  0.47000000000E+01 0. -1.
          5    1    4    4  502    0  0.37156008816E+02  0.66921486604E+02 -0.47368182322E+03  0.47984957436E+03  0.47000000000E+01 0.  1.
         -5    1    4    4    0  502 -0.41334555554E+02 -0.32162589999E+02 -0.26891149020E+03  0.27400448398E+03  0.47000000000E+01 0.  1.
<mgrwt>
<rscale>  0 0.30883231E+03</rscale>
<asrwt>0</asrwt>
<pdfrwt beam="1">  1       21 0.37789135E-02 0.30883231E+03</pdfrwt>
<pdfrwt beam="2">  1       21 0.14934538E+00 0.30883231E+03</pdfrwt>
<totfact> 0.12464639E+05</totfact>
</mgrwt>
</event>
<event>
 8    1  0.9373234E-006  0.2853410E+03  0.7546771E-02  0.1092807E+00
         21   -1    0    0  504  503  0.00000000000E+00  0.00000000000E+00  0.16776644800E+03  0.16776644800E+03  0.00000000000E+00 0.  1.
         21   -1    0    0  503  504 -0.00000000000E+00 -0.00000000000E+00 -0.12132863766E+03  0.12132863766E+03  0.00000000000E+00 0.  1.
         25    2    1    2    0    0  0.56957362351E+01 -0.16536369398E+02  0.90598901264E+02  0.15537046821E+03  0.12500371418E+03 0.  0.
         25    2    1    2    0    0 -0.56957362351E+01  0.16536369398E+02 -0.44161090917E+02  0.13372461745E+03  0.12500471366E+03 0.  0.
          5    1    3    3  501    0  0.29577522040E+02 -0.46592159319E+02  0.10111503288E+03  0.11529093197E+03  0.47000000000E+01 0.  1.
         -5    1    3    3    0  501 -0.23881785805E+02  0.30055789921E+02 -0.10516131618E+02  0.40079536240E+02  0.47000000000E+01 0.  1.
          5    1    4    4  502    0 -0.12033169902E+02 -0.48761412034E+02 -0.45508460791E+02  0.67938078314E+02  0.47000000000E+01 0. -1.
         -5    1    4    4    0  502  0.63374336669E+01  0.65297781432E+02  0.13473698742E+01  0.65786539132E+02  0.47000000000E+01 0. -1.
<mgrwt>
<rscale>  0 0.28534102E+03</rscale>
<asrwt>0</asrwt>
<pdfrwt beam="1">  1       21 0.25810223E-01 0.28534102E+03</pdfrwt>
<pdfrwt beam="2">  1       21 0.18665944E-01 0.28534102E+03</pdfrwt>
<totfact> 0.36667859E+05</totfact>
</mgrwt>
</event>
<event>
 8    1  0.9373234E-006  0.2855463E+03  0.7546771E-02  0.1092698E+00
         21   -1    0    0  504  503  0.00000000000E+00  0.00000000000E+00  0.14730340729E+03  0.14730340729E+03  0.00000000000E+00 0. -1.
         21   -1    0    0  503  504 -0.00000000000E+00 -0.00000000000E+00 -0.13838219756E+03  0.13838219756E+03  0.00000000000E+00 0. -1.
         25    2    1    2    0    0  0.26016836879E+02 -0.63671700405E+02  0.10130967255E+02  0.14303609069E+03  0.12500290200E+03 0.  0.
         25    2    1    2    0    0 -0.26016836879E+02  0.63671700405E+02 -0.12097575266E+01  0.14264951416E+03  0.12496583190E+03 0.  0.
          5    1    3    3  501    0 -0.15039084278E+02 -0.32345394796E+02 -0.51290806378E+02  0.62651699413E+02  0.47000000000E+01 0. -1.
         -5    1    3    3    0  501  0.41055921156E+02 -0.31326305610E+02  0.61421773633E+02  0.80384391279E+02  0.47000000000E+01 0. -1.
          5    1    4    4  502    0 -0.40691429547E+02  0.66477102322E+02 -0.49116824565E+02  0.92247222327E+02  0.47000000000E+01 0. -1.
         -5    1    4    4    0  502  0.14674592668E+02 -0.28054019166E+01  0.47907067038E+02  0.50402291834E+02  0.47000000000E+01 0. -1.
<mgrwt>
<rscale>  0 0.28554628E+03</rscale>
<asrwt>0</asrwt>
<pdfrwt beam="1">  1       21 0.22662063E-01 0.28554628E+03</pdfrwt>
<pdfrwt beam="2">  1       21 0.21289569E-01 0.28554628E+03</pdfrwt>
<totfact> 0.36737963E+05</totfact>
</mgrwt>
</event>
<event>
 8    1  0.9373234E-006  0.2824808E+03  0.7546771E-02  0.1094342E+00
         21   -1    0    0  504  503  0.00000000000E+00  0.00000000000E+00  0.22420344942E+02  0.22420344942E+02  0.00000000000E+00 0. -1.
         21   -1    0    0  503  504 -0.00000000000E+00 -0.00000000000E+00 -0.88976560802E+03  0.88976560802E+03  0.00000000000E+00 0. -1.
         25    2    1    2    0    0  0.29119923727E+02 -0.10662087544E+02 -0.24638220093E+03  0.27800903157E+03  0.12499273032E+03 0.  0.
         25    2    1    2    0    0 -0.29119923727E+02  0.10662087544E+02 -0.62096306215E+03  0.63417692139E+03  0.12499437187E+03 0.  0.
          5    1    3    3  501    0 -0.28096459713E+02 -0.24092237564E+02 -0.16692071305E+02  0.40872511591E+02  0.47000000000E+01 0.  1.
         -5    1    3    3    0  501  0.57216383440E+02  0.13430150020E+02 -0.22969012962E+03  0.23713651998E+03  0.47000000000E+01 0.  1.
          5    1    4    4  502    0 -0.72359315403E+02  0.21487009768E+02 -0.27098868249E+03  0.28134412763E+03  0.47000000000E+01 0.  1.
         -5    1    4    4    0  502  0.43239391676E+02 -0.10824922224E+02 -0.34997437966E+03  0.35283279376E+03  0.47000000000E+01 0.  1.
<mgrwt>
<rscale>  0 0.28248081E+03</rscale>
<asrwt>0</asrwt>
<pdfrwt beam="1">  1       21 0.34492847E-02 0.28248081E+03</pdfrwt>
<pdfrwt beam="2">  1       21 0.13688698E+00 0.28248081E+03</pdfrwt>
<totfact> 0.18438958E+05</totfact>
</mgrwt>
</event>
<event>
 8    1  0.9373234E-006  0.3392376E+03  0.7546771E-02  0.1067121E+00
         21   -1    0    0  504  503  0.00000000000E+00  0.00000000000E+00  0.81543580626E+02  0.81543580626E+02  0.00000000000E+00 0. -1.
         21   -1    0    0  503  504 -0.00000000000E+00 -0.00000000000E+00 -0.35282402097E+03  0.35282402097E+03  0.00000000000E+00 0. -1.
         25    2    1    2    0    0 -0.10061596878E+03 -0.19950718508E+02 -0.20122135375E+03  0.25814010012E+03  0.12499869496E+03 0.  0.
         25    2    1    2    0    0  0.10061596878E+03  0.19950718508E+02 -0.70059086589E+02  0.17622750147E+03  0.12500500917E+03 0.  0.
          5    1    3    3  501    0 -0.29665383979E+02 -0.29935425938E+02  0.21548948221E+01  0.42460549978E+02  0.47000000000E+01 0. -1.
         -5    1    3    3    0  501 -0.70950584804E+02  0.99847074309E+01 -0.20337624858E+03  0.21567955015E+03  0.47000000000E+01 0. -1.
          5    1    4    4  502    0  0.17772586327E+02  0.10750089923E+02 -0.88250291031E+02  0.90783440809E+02  0.47000000000E+01 0. -1.
         -5    1    4    4    0  502  0.82843382456E+02  0.92006285842E+01  0.18191204442E+02  0.85444060660E+02  0.47000000000E+01 0. -1.
<mgrwt>
<rscale>  0 0.33923758E+03</rscale>
<asrwt>0</asrwt>
<pdfrwt beam="1">  1       21 0.12545166E-01 0.33923758E+03</pdfrwt>
<pdfrwt beam="2">  1       21 0.54280619E-01 0.33923758E+03</pdfrwt>
<totfact> 0.16698810E+05</totfact>
</mgrwt>
</event>
<event>
 8    1  0.9373234E-006  0.3852334E+03  0.7546771E-02  0.1049016E+00
         21   -1    0    0  504  503  0.00000000000E+00  0.00000000000E+00  0.43304658665E+03  0.43304658665E+03  0.00000000000E+00 0.  1.
         21   -1    0    0  503  504 -0.00000000000E+00 -0.00000000000E+00 -0.85674838759E+02  0.85674838759E+02  0.00000000000E+00 0.  1.
         25    2    1    2    0    0  0.11296486833E+01  0.49828309837E+02 -0.11885516148E+02  0.13508808434E+03  0.12499355371E+03 0.  0.
         25    2    1    2    0    0 -0.11296486833E+01 -0.49828309837E+02  0.35925726404E+03  0.38363334107E+03  0.12499848819E+03 0.  0.
          5    1    3    3  501    0 -0.32064617966E+02 -0.32236723334E+02 -0.51725581739E+00  0.45713276082E+02  0.47000000000E+01 0.  1.
         -5    1    3    3    0  501  0.33194266649E+02  0.82065033170E+02 -0.11368260330E+02  0.89374808255E+02  0.47000000000E+01 0.  1.
          5    1    4    4  502    0 -0.69081182189E+01 -0.89727969308E+01 -0.76051901974E+01  0.14427823815E+02  0.47000000000E+01 0.  1.
         -5    1    4    4    0  502  0.57784695355E+01 -0.40855512906E+02  0.36686245424E+03  0.36920551726E+03  0.47000000000E+01 0.  1.
<mgrwt>
<rscale>  0 0.38523342E+03</rscale>
<asrwt>0</asrwt>
<pdfrwt beam="1">  1       21 0.66622551E-01 0.38523342E+03</pdfrwt>
<pdfrwt beam="2">  1       21 0.13180745E-01 0.38523342E+03</pdfrwt>
<totfact> 0.96621316E+04</totfact>
</mgrwt>
</event>
<event>
 8    1  0.9373234E-006  0.5009676E+03  0.7546771E-02  0.1013527E+00
         21   -1    0    0  504  503  0.00000000000E+00  0.00000000000E+00  0.57358584456E+03  0.57358584456E+03  0.00000000000E+00 0. -1.
         21   -1    0    0  503  504 -0.00000000000E+00 -0.00000000000E+00 -0.10938575865E+03  0.10938575865E+03  0.00000000000E+00 0. -1.
         25    2    1    2    0    0 -0.11433541965E+03 -0.14359772467E+03  0.74114938218E+02  0.23411432904E+03  0.12499440099E+03 0.  0.
         25    2    1    2    0    0  0.11433541965E+03  0.14359772467E+03  0.39008514770E+03  0.44885727417E+03  0.12495413322E+03 0.  0.
          5    1    3    3  501    0 -0.33242294466E+02 -0.88699998618E+02  0.94601492931E+02  0.13395623300E+03  0.47000000000E+01 0. -1.
         -5    1    3    3    0  501 -0.81093125181E+02 -0.54897726055E+02 -0.20486554713E+02  0.10015809604E+03  0.47000000000E+01 0. -1.
          5    1    4    4  502    0  0.49590838975E+02  0.93149104356E+02  0.93434637741E+02  0.14102527604E+03  0.47000000000E+01 0.  1.
         -5    1    4    4    0  502  0.64744580672E+02  0.50448620316E+02  0.29665050996E+03  0.30783199813E+03  0.47000000000E+01 0.  1.
<mgrwt>
<rscale>  0 0.50096755E+03</rscale>
<asrwt>0</asrwt>
<pdfrwt beam="1">  1       21 0.88243974E-01 0.50096755E+03</pdfrwt>
<pdfrwt beam="2">  1       21 0.16828579E-01 0.50096755E+03</pdfrwt>
<totfact> 0.31449009E+04</totfact>
</mgrwt>
</event>
<event>
 8    1  0.9373234E-006  0.2854707E+03  0.7546771E-02  0.1092738E+00
         21   -1    0    0  504  503  0.00000000000E+00  0.00000000000E+00  0.19481896755E+03  0.19481896755E+03  0.00000000000E+00 0.  1.
         21   -1    0    0  503  504 -0.00000000000E+00 -0.00000000000E+00 -0.10457597342E+03  0.10457597342E+03  0.00000000000E+00 0.  1.
         25    2    1    2    0    0 -0.13387554701E+02 -0.48258926369E+02 -0.44604539617E+01  0.13472497002E+03  0.12499108489E+03 0.  0.
         25    2    1    2    0    0  0.13387554701E+02  0.48258926369E+02  0.94703448101E+02  0.16466997096E+03  0.12505720954E+03 0.  0.
          5    1    3    3  501    0 -0.62027347201E+02 -0.40546362983E+00  0.14248198964E+02  0.63817375183E+02  0.47000000000E+01 0. -1.
         -5    1    3    3    0  501  0.48639792500E+02 -0.47853462739E+02 -0.18708652926E+02  0.70907594832E+02  0.47000000000E+01 0. -1.
          5    1    4    4  502    0  0.66858437892E+02  0.25126418432E+02  0.30384653630E+02  0.77760560678E+02  0.47000000000E+01 0.  1.
         -5    1    4    4    0  502 -0.53470883192E+02  0.23132507937E+02  0.64318794470E+02  0.86909410278E+02  0.47000000000E+01 0.  1.
<mgrwt>
<rscale>  0 0.28547072E+03</rscale>
<asrwt>0</asrwt>
<pdfrwt beam="1">  1       21 0.29972149E-01 0.28547072E+03</pdfrwt>
<pdfrwt beam="2">  1       21 0.16088611E-01 0.28547072E+03</pdfrwt>
<totfact> 0.36113398E+05</totfact>
</mgrwt>
</event>
<event>
 8    1  0.9373234E-006  0.3114903E+03  0.7546771E-02  0.1079634E+00
         21   -1    0    0  504  503  0.00000000000E+00  0.00000000000E+00  0.19590471780E+03  0.19590471780E+03  0.00000000000E+00 0. -1.
         21   -1    0    0  503  504 -0.00000000000E+00 -0.00000000000E+00 -0.12381812497E+03  0.12381812497E+03  0.00000000000E+00 0. -1.
         25    2    1    2    0    0 -0.77768220317E+02  0.32233557615E+02 -0.42847238197E+01  0.15076952689E+03  0.12500477212E+03 0.  0.
         25    2    1    2    0    0  0.77768220317E+02 -0.32233557615E+02  0.76371316652E+02  0.16895331588E+03  0.12500298642E+03 0.  0.
          5    1    3    3  501    0  0.18838202087E+02  0.37183612824E+02 -0.28781645041E+02  0.50872114285E+02  0.47000000000E+01 0.  1.
         -5    1    3    3    0  501 -0.96606422404E+02 -0.49500552087E+01  0.24496921222E+02  0.99897412608E+02  0.47000000000E+01 0.  1.
          5    1    4    4  502    0  0.91807358232E+02 -0.24031868931E+02  0.10125755606E+03  0.13885713669E+03  0.47000000000E+01 0.  1.
         -5    1    4    4    0  502 -0.14039137915E+02 -0.82016886847E+01 -0.24886239405E+02  0.30096179199E+02  0.47000000000E+01 0.  1.
<mgrwt>
<rscale>  0 0.31149032E+03</rscale>
<asrwt>0</asrwt>
<pdfrwt beam="1">  1       21 0.30139187E-01 0.31149032E+03</pdfrwt>
<pdfrwt beam="2">  1       21 0.19048942E-01 0.31149032E+03</pdfrwt>
<totfact> 0.25945875E+05</totfact>
</mgrwt>
</event>
<event>
 8    1  0.9373234E-006  0.5731441E+03  0.7546771E-02  0.9962745E-01
         21   -1    0    0  504  503  0.00000000000E+00  0.00000000000E+00  0.45435264918E+03  0.45435264918E+03  0.00000000000E+00 0. -1.
         21   -1    0    0  503  504 -0.00000000000E+00 -0.00000000000E+00 -0.18074846424E+03  0.18074846424E+03  0.00000000000E+00 0. -1.
         25    2    1    2    0    0 -0.15299900311E+02 -0.19572918761E+03  0.32205529377E+03  0.39736526712E+03  0.12504215864E+03 0.  0.
         25    2    1    2    0    0  0.15299900311E+02  0.19572918761E+03 -0.48451108819E+02  0.23773584630E+03  0.12500728315E+03 0.  0.
          5    1    3    3  501    0  0.47987875055E+02 -0.34732501195E+02  0.73901709710E+02  0.94830034744E+02  0.47000000000E+01 0. -1.
         -5    1    3    3    0  501 -0.63287775365E+02 -0.16099668641E+03  0.24815358406E+03  0.30253523237E+03  0.47000000000E+01 0. -1.
          5    1    4    4  502    0  0.63586849268E+02  0.14283092829E+03 -0.11068382793E+02  0.15680739961E+03  0.47000000000E+01 0. -1.
         -5    1    4    4    0  502 -0.48286948957E+02  0.52898259319E+02 -0.37382726027E+02  0.80928446691E+02  0.47000000000E+01 0. -1.
<mgrwt>
<rscale>  0 0.57314411E+03</rscale>
<asrwt>0</asrwt>
<pdfrwt beam="1">  1       21 0.69900407E-01 0.57314411E+03</pdfrwt>
<pdfrwt beam="2">  1       21 0.27807456E-01 0.57314411E+03</pdfrwt>
<totfact> 0.20186403E+04</totfact>
</mgrwt>
</event>
<event>
 8    1  0.9373234E-006  0.2651744E+03  0.7546771E-02  0.1104074E+00
         21   -1    0    0  504  503  0.00000000000E+00  0.00000000000E+00  0.17696041796E+02  0.17696041796E+02  0.00000000000E+00 0.  1.
         21   -1    0    0  503  504 -0.00000000000E+00 -0.00000000000E+00 -0.99340683042E+03  0.99340683042E+03  0.00000000000E+00 0.  1.
         25    2    1    2    0    0 -0.20482177214E+02 -0.38338525264E+02 -0.51930817517E+03  0.53590193637E+03  0.12498216873E+03 0.  0.
         25    2    1    2    0    0  0.20482177214E+02  0.38338525264E+02 -0.45640261345E+03  0.47520093585E+03  0.12499288684E+03 0.  0.
          5    1    3    3  501    0 -0.55304448089E+02 -0.65370941234E+02 -0.38614831774E+03  0.39555600770E+03  0.47000000000E+01 0.  1.
         -5    1    3    3    0  501  0.34822270875E+02  0.27032415970E+02 -0.13315985744E+03  0.14034592867E+03  0.47000000000E+01 0.  1.
          5    1    4    4  502    0  0.44837608724E+02 -0.13810474445E+02 -0.69330360631E+02  0.83844673448E+02  0.47000000000E+01 0. -1.
         -5    1    4    4    0  502 -0.24355431509E+02  0.52148999709E+02 -0.38707225282E+03  0.39135626240E+03  0.47000000000E+01 0. -1.
<mgrwt>
<rscale>  0 0.26517442E+03</rscale>
<asrwt>0</asrwt>
<pdfrwt beam="1">  1       21 0.27224687E-02 0.26517442E+03</pdfrwt>
<pdfrwt beam="2">  1       21 0.15283178E+00 0.26517442E+03</pdfrwt>
<totfact> 0.20568565E+05</totfact>
</mgrwt>
</event>
<event>
 8    1  0.9373234E-006  0.2826527E+03  0.7546771E-02  0.1094249E+00
         21   -1    0    0  504  503  0.00000000000E+00  0.00000000000E+00  0.75248352252E+03  0.75248352252E+03  0.00000000000E+00 0.  1.
         21   -1    0    0  503  504 -0.00000000000E+00 -0.00000000000E+00 -0.26542963704E+02  0.26542963704E+02  0.00000000000E+00 0.  1.
         25    2    1    2    0    0  0.34135256470E+02  0.55625224719E+02  0.33706340087E+03  0.36537370468E+03  0.12500730579E+03 0.  0.
         25    2    1    2    0    0 -0.34135256470E+02 -0.55625224719E+02  0.38887715794E+03  0.41365278154E+03  0.12499519332E+03 0.  0.
          5    1    3    3  501    0  0.76647009464E+00  0.19867313258E+01  0.28020653980E+03  0.28025404461E+03  0.47000000000E+01 0. -1.
         -5    1    3    3    0  501  0.33368786375E+02  0.53638493393E+02  0.56856861076E+02  0.85119660062E+02  0.47000000000E+01 0. -1.
          5    1    4    4  502    0 -0.68629249540E+01  0.28373718787E+02  0.23628346766E+02  0.37849127171E+02  0.47000000000E+01 0.  1.
         -5    1    4    4    0  502 -0.27272331516E+02 -0.83998943506E+02  0.36524881117E+03  0.37580365437E+03  0.47000000000E+01 0.  1.
<mgrwt>
<rscale>  0 0.28265274E+03</rscale>
<asrwt>0</asrwt>
<pdfrwt beam="1">  1       21 0.11576668E+00 0.28265274E+03</pdfrwt>
<pdfrwt beam="2">  1       21 0.40835334E-02 0.28265274E+03</pdfrwt>
<totfact> 0.21219617E+05</totfact>
</mgrwt>
</event>
<event>
 8    1  0.9373234E-006  0.3850802E+03  0.7546771E-02  0.1049072E+00
         21   -1    0    0  504  503  0.00000000000E+00  0.00000000000E+00  0.10439716626E+03  0.10439716626E+03  0.00000000000E+00 0.  1.
         21   -1    0    0  503  504 -0.00000000000E+00 -0.00000000000E+00 -0.35510252345E+03  0.35510252345E+03  0.00000000000E+00 0.  1.
         25    2    1    2    0    0  0.17505391715E+02 -0.11638830568E+03 -0.22935349596E+03  0.28648538782E+03  0.12497269655E+03 0.  0.
         25    2    1    2    0    0 -0.17505391715E+02  0.11638830568E+03 -0.21351861232E+02  0.17301430189E+03  0.12500148096E+03 0.  0.
          5    1    3    3  501    0  0.16662774612E+01 -0.12831115838E+03 -0.23275766205E+03  0.26582842039E+03  0.47000000000E+01 0.  1.
         -5    1    3    3    0  501  0.15839114254E+02  0.11922852694E+02  0.34041660827E+01  0.20656967430E+02  0.47000000000E+01 0.  1.
          5    1    4    4  502    0  0.32753126558E+02  0.10571763187E+03  0.12239927442E+02  0.11144905029E+03  0.47000000000E+01 0. -1.
         -5    1    4    4    0  502 -0.50258518274E+02  0.10670673819E+02 -0.33591788674E+02  0.61565251605E+02  0.47000000000E+01 0. -1.
<mgrwt>
<rscale>  0 0.38508024E+03</rscale>
<asrwt>0</asrwt>
<pdfrwt beam="1">  1       21 0.16061102E-01 0.38508024E+03</pdfrwt>
<pdfrwt beam="2">  1       21 0.54631158E-01 0.38508024E+03</pdfrwt>
<totfact> 0.10354602E+05</totfact>
</mgrwt>
</event>
<event>
 8    1  0.9373234E-006  0.3848558E+03  0.7546771E-02  0.1049153E+00
         21   -1    0    0  504  503  0.00000000000E+00  0.00000000000E+00  0.17182262912E+04  0.17182262912E+04  0.00000000000E+00 0.  1.
         21   -1    0    0  503  504 -0.00000000000E+00 -0.00000000000E+00 -0.21550420780E+02  0.21550420780E+02  0.00000000000E+00 0.  1.
         25    2    1    2    0    0  0.48899869724E+02  0.13411363768E+03  0.99319546916E+03  0.10111564467E+04  0.12498981853E+03 0.  0.
         25    2    1    2    0    0 -0.48899869724E+02 -0.13411363768E+03  0.70348040123E+03  0.72862026522E+03  0.12500060361E+03 0.  0.
          5    1    3    3  501    0 -0.35454692110E+02  0.73769466904E+02  0.33890582494E+03  0.34868068145E+03  0.47000000000E+01 0.  1.
         -5    1    3    3    0  501  0.84354561833E+02  0.60344170772E+02  0.65428964421E+03  0.66247576527E+03  0.47000000000E+01 0.  1.
          5    1    4    4  502    0 -0.62456712776E+02 -0.15281205454E+03  0.58760180790E+03  0.61036901923E+03  0.47000000000E+01 0.  1.
         -5    1    4    4    0  502  0.13556843052E+02  0.18698416863E+02  0.11587859333E+03  0.11825124599E+03  0.47000000000E+01 0.  1.
<mgrwt>
<rscale>  0 0.38485581E+03</rscale>
<asrwt>0</asrwt>
<pdfrwt beam="1">  1       21 0.26434240E+00 0.38485581E+03</pdfrwt>
<pdfrwt beam="2">  1       21 0.33154507E-02 0.38485581E+03</pdfrwt>
<totfact> 0.26124695E+04</totfact>
</mgrwt>
</event>
<event>
 8    1  0.9373234E-006  0.2887590E+03  0.7546771E-02  0.1090999E+00
         21   -1    0    0  504  503  0.00000000000E+00  0.00000000000E+00  0.14072043825E+03  0.14072043825E+03  0.00000000000E+00 0. -1.
         21   -1    0    0  503  504 -0.00000000000E+00 -0.00000000000E+00 -0.14813369498E+03  0.14813369498E+03  0.00000000000E+00 0. -1.
         25    2    1    2    0    0  0.20207224330E+02 -0.42680064271E+02  0.50998824630E+02  0.14304079546E+03  0.12501947549E+03 0.  0.
         25    2    1    2    0    0 -0.20207224330E+02  0.42680064271E+02 -0.58412081366E+02  0.14581333777E+03  0.12497855184E+03 0.  0.
          5    1    3    3  501    0  0.25170958503E+01  0.38172556601E+02  0.45969606396E+02  0.59989787140E+02  0.47000000000E+01 0. -1.
         -5    1    3    3    0  501  0.17690128480E+02 -0.80852620872E+02  0.50292182341E+01  0.83051008323E+02  0.47000000000E+01 0. -1.
          5    1    4    4  502    0 -0.29576819011E+02  0.43075612370E+02 -0.94579320753E+02  0.10815560327E+03  0.47000000000E+01 0. -1.
         -5    1    4    4    0  502  0.93695946804E+01 -0.39554809899E+00  0.36167239387E+02  0.37657734500E+02  0.47000000000E+01 0. -1.
<mgrwt>
<rscale>  0 0.28875899E+03</rscale>
<asrwt>0</asrwt>
<pdfrwt beam="1">  1       21 0.21649298E-01 0.28875899E+03</pdfrwt>
<pdfrwt beam="2">  1       21 0.22789799E-01 0.28875899E+03</pdfrwt>
<totfact> 0.35187088E+05</totfact>
</mgrwt>
</event>
<event>
 8    1  0.9373234E-006  0.3409272E+03  0.7546771E-02  0.1066402E+00
         21   -1    0    0  504  503  0.00000000000E+00  0.00000000000E+00  0.31015575199E+03  0.31015575199E+03  0.00000000000E+00 0. -1.
         21   -1    0    0  503  504 -0.00000000000E+00 -0.00000000000E+00 -0.93687917540E+02  0.93687917540E+02  0.00000000000E+00 0. -1.
         25    2    1    2    0    0  0.10690283352E+03 -0.95374342848E+01  0.16004420357E+03  0.22969201178E+03  0.12500037885E+03 0.  0.
         25    2    1    2    0    0 -0.10690283352E+03  0.95374342848E+01  0.56423630881E+02  0.17415165775E+03  0.12500398116E+03 0.  0.
          5    1    3    3  501    0  0.13302387196E+03 -0.22859634892E+02  0.13174257049E+03  0.18866930937E+03  0.47000000000E+01 0. -1.
         -5    1    3    3    0  501 -0.26121038439E+02  0.13322200608E+02  0.28301633078E+02  0.41022702410E+02  0.47000000000E+01 0. -1.
          5    1    4    4  502    0 -0.53831268722E+02  0.66805098098E+02  0.37036010219E+02  0.93565392518E+02  0.47000000000E+01 0.  1.
         -5    1    4    4    0  502 -0.53071564801E+02 -0.57267663813E+02  0.19387620662E+02  0.80586265232E+02  0.47000000000E+01 0.  1.
<mgrwt>
<rscale>  0 0.34092724E+03</rscale>
<asrwt>0</asrwt>
<pdfrwt beam="1">  1       21 0.47716269E-01 0.34092724E+03</pdfrwt>
<pdfrwt beam="2">  1       21 0.14413526E-01 0.34092724E+03</pdfrwt>
<totfact> 0.17019773E+05</totfact>
</mgrwt>
</event>
<event>
 8    1  0.9373234E-006  0.3185675E+03  0.7546771E-02  0.1076310E+00
         21   -1    0    0  504  503  0.00000000000E+00  0.00000000000E+00  0.90242323444E+03  0.90242323444E+03  0.00000000000E+00 0. -1.
         21   -1    0    0  503  504 -0.00000000000E+00 -0.00000000000E+00 -0.28114645360E+02  0.28114645360E+02  0.00000000000E+00 0. -1.
         25    2    1    2    0    0 -0.11219899900E+02 -0.73949879809E+02  0.24895039129E+03  0.28843539521E+03  0.12499683598E+03 0.  0.
         25    2    1    2    0    0  0.11219899900E+02  0.73949879809E+02  0.62535819779E+03  0.64210248459E+03  0.12501301653E+03 0.  0.
          5    1    3    3  501    0 -0.27052470954E+02  0.18748444492E+02  0.14245747619E+03  0.14628589432E+03  0.47000000000E+01 0.  1.
         -5    1    3    3    0  501  0.15832571054E+02 -0.92698324301E+02  0.10649291510E+03  0.14214950088E+03  0.47000000000E+01 0.  1.
          5    1    4    4  502    0  0.59031859044E+02  0.47930502996E+02  0.49391948950E+03  0.49976058829E+03  0.47000000000E+01 0. -1.
         -5    1    4    4    0  502 -0.47811959144E+02  0.26019376812E+02  0.13143870829E+03  0.14234189631E+03  0.47000000000E+01 0. -1.
<mgrwt>
<rscale>  0 0.31856748E+03</rscale>
<asrwt>0</asrwt>
<pdfrwt beam="1">  1       21 0.13883432E+00 0.31856748E+03</pdfrwt>
<pdfrwt beam="2">  1       21 0.43253308E-02 0.31856748E+03</pdfrwt>
<totfact> 0.11995486E+05</totfact>
</mgrwt>
</event>
<event>
 8    1  0.9373234E-006  0.3989351E+03  0.7546771E-02  0.1044149E+00
         21   -1    0    0  504  503  0.00000000000E+00  0.00000000000E+00  0.16986002171E+04  0.16986002171E+04  0.00000000000E+00 0. -1.
         21   -1    0    0  503  504 -0.00000000000E+00 -0.00000000000E+00 -0.23423581594E+02  0.23423581594E+02  0.00000000000E+00 0. -1.
         25    2    1    2    0    0  0.89771511575E+02  0.70232805259E+02  0.12937579094E+04  0.13047706906E+04  0.12500182257E+03 0.  0.
         25    2    1    2    0    0 -0.89771511575E+02 -0.70232805259E+02  0.38141872614E+03  0.41725310815E+03  0.12501336081E+03 0.  0.
          5    1    3    3  501    0 -0.27433317434E+02  0.29472764804E+02  0.46464273756E+03  0.46640775544E+03  0.47000000000E+01 0.  1.
         -5    1    3    3    0  501  0.11720482901E+03  0.40760040455E+02  0.82911517181E+03  0.83836293511E+03  0.47000000000E+01 0.  1.
          5    1    4    4  502    0 -0.36888514957E+02 -0.96856401156E+00  0.14217558291E+02  0.39823731816E+02  0.47000000000E+01 0. -1.
         -5    1    4    4    0  502 -0.52882996618E+02 -0.69264241248E+02  0.36720116785E+03  0.37742937633E+03  0.47000000000E+01 0. -1.
<mgrwt>
<rscale>  0 0.39893509E+03</rscale>
<asrwt>0</asrwt>
<pdfrwt beam="1">  1       21 0.26132301E+00 0.39893509E+03</pdfrwt>
<pdfrwt beam="2">  1       21 0.36036293E-02 0.39893509E+03</pdfrwt>
<totfact> 0.23520781E+04</totfact>
</mgrwt>
</event>
<event>
 8    1  0.9373234E-006  0.2777092E+03  0.7546771E-02  0.1096947E+00
         21   -1    0    0  504  503  0.00000000000E+00  0.00000000000E+00  0.96358254215E+02  0.96358254215E+02  0.00000000000E+00 0.  1.
         21   -1    0    0  503  504 -0.00000000000E+00 -0.00000000000E+00 -0.20009282244E+03  0.20009282244E+03  0.00000000000E+00 0.  1.
         25    2    1    2    0    0  0.44749579389E+02 -0.36042551445E+02 -0.71915175348E+02  0.15523801150E+03  0.12500182958E+03 0.  0.
         25    2    1    2    0    0 -0.44749579389E+02  0.36042551445E+02 -0.31819392880E+02  0.14121306516E+03  0.12500826228E+03 0.  0.
          5    1    3    3  501    0  0.68779853303E+02 -0.38318466077E+02  0.38034133022E+00  0.78874632947E+02  0.47000000000E+01 0.  1.
         -5    1    3    3    0  501 -0.24030273914E+02  0.22759146322E+01 -0.72295516679E+02  0.76363378550E+02  0.47000000000E+01 0.  1.
          5    1    4    4  502    0 -0.49599568574E+02  0.67606431954E+02 -0.55949953415E+02  0.10091201183E+03  0.47000000000E+01 0. -1.
         -5    1    4    4    0  502  0.48499891848E+01 -0.31563880509E+02  0.24130560536E+02  0.40301053331E+02  0.47000000000E+01 0. -1.
<mgrwt>
<rscale>  0 0.27770916E+03</rscale>
<asrwt>0</asrwt>
<pdfrwt beam="1">  1       21 0.14824347E-01 0.27770916E+03</pdfrwt>
<pdfrwt beam="2">  1       21 0.30783511E-01 0.27770916E+03</pdfrwt>
<totfact> 0.39892096E+05</totfact>
</mgrwt>
</event>
<event>
 8    1  0.9373234E-006  0.2563925E+03  0.7546771E-02  0.1109330E+00
         21   -1    0    0  504  503  0.00000000000E+00  0.00000000000E+00  0.81680485515E+03  0.81680485515E+03  0.00000000000E+00 0.  1.
         21   -1    0    0  503  504 -0.00000000000E+00 -0.00000000000E+00 -0.20120194945E+02  0.20120194945E+02  0.00000000000E+00 0.  1.
         25    2    1    2    0    0 -0.16822349180E+02  0.62780826620E+01  0.32653624740E+03  0.35010677796E+03  0.12500571728E+03 0.  0.
         25    2    1    2    0    0  0.16822349180E+02 -0.62780826620E+01  0.47014841280E+03  0.48681827213E+03  0.12502037541E+03 0.  0.
          5    1    3    3  501    0 -0.47836424745E+02 -0.36848823618E+02  0.96201919852E+02  0.11367963194E+03  0.47000000000E+01 0.  1.
         -5    1    3    3    0  501  0.31014075565E+02  0.43126906280E+02  0.23033432755E+03  0.23642714602E+03  0.47000000000E+01 0.  1.
          5    1    4    4  502    0 -0.30811826676E+02  0.36999374096E+01  0.28265348683E+02  0.42238349117E+02  0.47000000000E+01 0.  1.
         -5    1    4    4    0  502  0.47634175856E+02 -0.99780200716E+01  0.44188306412E+03  0.44457992302E+03  0.47000000000E+01 0.  1.
<mgrwt>
<rscale>  0 0.25639246E+03</rscale>
<asrwt>0</asrwt>
<pdfrwt beam="1">  1       21 0.12566226E+00 0.25639246E+03</pdfrwt>
<pdfrwt beam="2">  1       21 0.30954152E-02 0.25639246E+03</pdfrwt>
<totfact> 0.27716189E+05</totfact>
</mgrwt>
</event>
<event>
 8    1  0.9373234E-006  0.4151321E+03  0.7546771E-02  0.1038662E+00
         21   -1    0    0  504  503  0.00000000000E+00  0.00000000000E+00  0.42763280003E+02  0.42763280003E+02  0.00000000000E+00 0. -1.
         21   -1    0    0  503  504 -0.00000000000E+00 -0.00000000000E+00 -0.10074921868E+04  0.10074921868E+04  0.00000000000E+00 0. -1.
         25    2    1    2    0    0  0.92613585251E+02  0.10981405777E+03 -0.69132024174E+03  0.71706839235E+03  0.12500799659E+03 0.  0.
         25    2    1    2    0    0 -0.92613585251E+02 -0.10981405777E+03 -0.27340866504E+03  0.33318707443E+03  0.12499969997E+03 0.  0.
          5    1    3    3  501    0 -0.17652683726E+02  0.53526737840E+02 -0.33699323610E+03  0.34170639456E+03  0.47000000000E+01 0.  1.
         -5    1    3    3    0  501  0.11026626898E+03  0.56287319932E+02 -0.35432700564E+03  0.37536199779E+03  0.47000000000E+01 0.  1.
          5    1    4    4  502    0 -0.10073186184E+03 -0.28309204810E+02 -0.12049403408E+03  0.15965344129E+03  0.47000000000E+01 0. -1.
         -5    1    4    4    0  502  0.81182765890E+01 -0.81504852962E+02 -0.15291463095E+03  0.17353363314E+03  0.47000000000E+01 0. -1.
<mgrwt>
<rscale>  0 0.41513213E+03</rscale>
<asrwt>0</asrwt>
<pdfrwt beam="1">  1       21 0.65789668E-02 0.41513213E+03</pdfrwt>
<pdfrwt beam="2">  1       21 0.15499878E+00 0.41513213E+03</pdfrwt>
<totfact> 0.42132036E+04</totfact>
</mgrwt>
</event>
<event>
 8    1  0.9373234E-006  0.4501189E+03  0.7546771E-02  0.1027687E+00
         21   -1    0    0  504  503  0.00000000000E+00  0.00000000000E+00  0.12008482725E+04  0.12008482725E+04  0.00000000000E+00 0. -1.
         21   -1    0    0  503  504 -0.00000000000E+00 -0.00000000000E+00 -0.42179985401E+02  0.42179985401E+02  0.00000000000E+00 0. -1.
         25    2    1    2    0    0 -0.94874464040E+02 -0.14718915144E+03  0.76170737585E+03  0.79151199640E+03  0.12500921484E+03 0.  0.
         25    2    1    2    0    0  0.94874464040E+02  0.14718915144E+03  0.39696091129E+03  0.45151626154E+03  0.12499263624E+03 0.  0.
          5    1    3    3  501    0 -0.62345137487E+02 -0.11707752629E+01  0.28847713405E+03  0.29517695329E+03  0.47000000000E+01 0. -1.
         -5    1    3    3    0  501 -0.32529326553E+02 -0.14601837618E+03  0.47323024179E+03  0.49633504311E+03  0.47000000000E+01 0. -1.
          5    1    4    4  502    0  0.91576991844E+01  0.12631482641E+03  0.22828969621E+03  0.26110835724E+03  0.47000000000E+01 0. -1.
         -5    1    4    4    0  502  0.85716764856E+02  0.20874325026E+02  0.16867121509E+03  0.19040790431E+03  0.47000000000E+01 0. -1.
<mgrwt>
<rscale>  0 0.45011893E+03</rscale>
<asrwt>0</asrwt>
<pdfrwt beam="1">  1       21 0.18474586E+00 0.45011893E+03</pdfrwt>
<pdfrwt beam="2">  1       21 0.64892294E-02 0.45011893E+03</pdfrwt>
<totfact> 0.25925742E+04</totfact>
</mgrwt>
</event>
<event>
 8    1  0.9373234E-006  0.2850784E+03  0.7546771E-02  0.1092947E+00
         21   -1    0    0  504  503  0.00000000000E+00  0.00000000000E+00  0.58572608556E+03  0.58572608556E+03  0.00000000000E+00 0. -1.
         21   -1    0    0  503  504 -0.00000000000E+00 -0.00000000000E+00 -0.34687575677E+02  0.34687575677E+02  0.00000000000E+00 0. -1.
         25    2    1    2    0    0 -0.20806430274E+02  0.63766834362E+02  0.24525162595E+03  0.28332291274E+03  0.12499758457E+03 0.  0.
         25    2    1    2    0    0  0.20806430274E+02 -0.63766834362E+02  0.30578688394E+03  0.33709074850E+03  0.12500175051E+03 0.  0.
          5    1    3    3  501    0  0.38222070860E+02 -0.14862530230E+02  0.51500142127E+02  0.66001334416E+02  0.47000000000E+01 0.  1.
         -5    1    3    3    0  501 -0.59028501133E+02  0.78629364592E+02  0.19375148382E+03  0.21732157832E+03  0.47000000000E+01 0.  1.
          5    1    4    4  502    0 -0.33113450099E+02 -0.72097115958E+02  0.23177069818E+03  0.24501885895E+03  0.47000000000E+01 0.  1.
         -5    1    4    4    0  502  0.53919880373E+02  0.83302815963E+01  0.74016185763E+02  0.92071889553E+02  0.47000000000E+01 0.  1.
<mgrwt>
<rscale>  0 0.28507836E+03</rscale>
<asrwt>0</asrwt>
<pdfrwt beam="1">  1       21 0.90111698E-01 0.28507836E+03</pdfrwt>
<pdfrwt beam="2">  1       21 0.53365505E-02 0.28507836E+03</pdfrwt>
<totfact> 0.24580859E+05</totfact>
</mgrwt>
</event>
<event>
 8    1  0.9373234E-006  0.3107345E+03  0.7546771E-02  0.1079994E+00
         21   -1    0    0  504  503  0.00000000000E+00  0.00000000000E+00  0.21420866380E+03  0.21420866380E+03  0.00000000000E+00 0.  1.
         21   -1    0    0  503  504 -0.00000000000E+00 -0.00000000000E+00 -0.11268911674E+03  0.11268911674E+03  0.00000000000E+00 0.  1.
         25    2    1    2    0    0  0.90933735669E+02  0.76018299926E+01  0.36420412646E+02  0.15899980068E+03  0.12501103175E+03 0.  0.
         25    2    1    2    0    0 -0.90933735669E+02 -0.76018299926E+01  0.65099134417E+02  0.16789797986E+03  0.12500040894E+03 0.  0.
          5    1    3    3  501    0  0.25236791452E+02  0.30573686379E+02  0.70763684170E+02  0.81247984215E+02  0.47000000000E+01 0. -1.
         -5    1    3    3    0  501  0.65696944217E+02 -0.22971856386E+02 -0.34343271525E+02  0.77751816469E+02  0.47000000000E+01 0. -1.
          5    1    4    4  502    0 -0.10654871388E+03  0.12100928125E+02  0.10801920280E+02  0.10787878555E+03  0.47000000000E+01 0.  1.
         -5    1    4    4    0  502  0.15614978209E+02 -0.19702758118E+02  0.54297214136E+02  0.60019194304E+02  0.47000000000E+01 0.  1.
<mgrwt>
<rscale>  0 0.31073452E+03</rscale>
<asrwt>0</asrwt>
<pdfrwt beam="1">  1       21 0.32955179E-01 0.31073452E+03</pdfrwt>
<pdfrwt beam="2">  1       21 0.17336787E-01 0.31073452E+03</pdfrwt>
<totfact> 0.25927633E+05</totfact>
</mgrwt>
</event>
<event>
 8    1  0.9373234E-006  0.4672725E+03  0.7546771E-02  0.1022693E+00
         21   -1    0    0  504  503  0.00000000000E+00  0.00000000000E+00  0.69940138957E+03  0.69940138957E+03  0.00000000000E+00 0.  1.
         21   -1    0    0  503  504 -0.00000000000E+00 -0.00000000000E+00 -0.78046589369E+02  0.78046589369E+02  0.00000000000E+00 0.  1.
         25    2    1    2    0    0  0.29013147585E+02 -0.38219861894E+01 -0.14093738995E+02  0.12916052192E+03  0.12500974615E+03 0.  0.
         25    2    1    2    0    0 -0.29013147585E+02  0.38219861894E+01  0.63544853920E+03  0.64828745702E+03  0.12500164261E+03 0.  0.
          5    1    3    3  501    0  0.47591275421E+02  0.50351938308E+00  0.45744241143E+02  0.66180122588E+02  0.47000000000E+01 0.  1.
         -5    1    3    3    0  501 -0.18578127837E+02 -0.43255055725E+01 -0.59837980138E+02  0.62980399327E+02  0.47000000000E+01 0.  1.
          5    1    4    4  502    0 -0.66792623400E+02  0.22605477211E+02  0.22974046554E+03  0.24036437683E+03  0.47000000000E+01 0. -1.
         -5    1    4    4    0  502  0.37779475815E+02 -0.18783491021E+02  0.40570807366E+03  0.40792308020E+03  0.47000000000E+01 0. -1.
<mgrwt>
<rscale>  0 0.46727248E+03</rscale>
<asrwt>0</asrwt>
<pdfrwt beam="1">  1       21 0.10760021E+00 0.46727248E+03</pdfrwt>
<pdfrwt beam="2">  1       21 0.12007168E-01 0.46727248E+03</pdfrwt>
<totfact> 0.36625062E+04</totfact>
</mgrwt>
</event>
<event>
 8    1  0.9373234E-006  0.2658256E+03  0.7546771E-02  0.1103693E+00
         21   -1    0    0  504  503  0.00000000000E+00  0.00000000000E+00  0.61700553201E+02  0.61700553201E+02  0.00000000000E+00 0. -1.
         21   -1    0    0  503  504 -0.00000000000E+00 -0.00000000000E+00 -0.28631532350E+03  0.28631532350E+03  0.00000000000E+00 0. -1.
         25    2    1    2    0    0  0.43131283680E+02  0.11462692264E+02 -0.12145035851E+03  0.17990903696E+03  0.12500148420E+03 0.  0.
         25    2    1    2    0    0 -0.43131283680E+02 -0.11462692264E+02 -0.10316441179E+03  0.16810683973E+03  0.12500125103E+03 0.  0.
          5    1    3    3  501    0 -0.36621799113E+02 -0.23215892142E+02 -0.55912943969E+02  0.70911784080E+02  0.47000000000E+01 0. -1.
         -5    1    3    3    0  501  0.79753082793E+02  0.34678584407E+02 -0.65537414540E+02  0.10899725288E+03  0.47000000000E+01 0. -1.
          5    1    4    4  502    0 -0.17694147874E+02 -0.67809386723E+02 -0.47561861042E+02  0.84825800453E+02  0.47000000000E+01 0. -1.
         -5    1    4    4    0  502 -0.25437135806E+02  0.56346694459E+02 -0.55602550746E+02  0.83281039282E+02  0.47000000000E+01 0. -1.
<mgrwt>
<rscale>  0 0.26582561E+03</rscale>
<asrwt>0</asrwt>
<pdfrwt beam="1">  1       21 0.94923928E-02 0.26582561E+03</pdfrwt>
<pdfrwt beam="2">  1       21 0.44048511E-01 0.26582561E+03</pdfrwt>
<totfact> 0.43366718E+05</totfact>
</mgrwt>
</event>
<event>
 8    1  0.9373234E-006  0.4286729E+03  0.7546771E-02  0.1034280E+00
         21   -1    0    0  504  503  0.00000000000E+00  0.00000000000E+00  0.12890859605E+03  0.12890859605E+03  0.00000000000E+00 0.  1.
         21   -1    0    0  503  504 -0.00000000000E+00 -0.00000000000E+00 -0.35637742034E+03  0.35637742034E+03  0.00000000000E+00 0.  1.
         25    2    1    2    0    0  0.10810580467E+03  0.37160476318E+02 -0.26241057014E+03  0.31233188465E+03  0.12499653134E+03 0.  0.
         25    2    1    2    0    0 -0.10810580467E+03 -0.37160476318E+02  0.34941745852E+02  0.17295413174E+03  0.12499776030E+03 0.  0.
          5    1    3    3  501    0  0.95565906761E+02 -0.18616284541E+02 -0.98087897031E+02  0.13828497434E+03  0.47000000000E+01 0. -1.
         -5    1    3    3    0  501  0.12539897908E+02  0.55776760859E+02 -0.16432267310E+03  0.17404691031E+03  0.47000000000E+01 0. -1.
          5    1    4    4  502    0 -0.11991346033E+03 -0.59958554353E+02  0.49590989953E+02  0.14302315369E+03  0.47000000000E+01 0.  1.
         -5    1    4    4    0  502  0.11807655657E+02  0.22798078035E+02 -0.14649244100E+02  0.29930978048E+02  0.47000000000E+01 0.  1.
<mgrwt>
<rscale>  0 0.42867290E+03</rscale>
<asrwt>0</asrwt>
<pdfrwt beam="1">  1       21 0.19832092E-01 0.42867290E+03</pdfrwt>
<pdfrwt beam="2">  1       21 0.54827295E-01 0.42867290E+03</pdfrwt>
<totfact> 0.68488548E+04</totfact>
</mgrwt>
</event>
<event>
 8    1  0.9373234E-006  0.3289366E+03  0.7546771E-02  0.1071608E+00
         21   -1    0    0  504  503  0.00000000000E+00  0.00000000000E+00  0.49397995140E+02  0.49397995140E+02  0.00000000000E+00 0. -1.
         21   -1    0    0  503  504 -0.00000000000E+00 -0.00000000000E+00 -0.54758945904E+03  0.54758945904E+03  0.00000000000E+00 0. -1.
         25    2    1    2    0    0  0.10334422613E+03  0.20607544472E+02 -0.21662713733E+03  0.27139813347E+03  0.12499972104E+03 0.  0.
         25    2    1    2    0    0 -0.10334422613E+03 -0.20607544472E+02 -0.28156432658E+03  0.32558932071E+03  0.12500094319E+03 0.  0.
          5    1    3    3  501    0  0.13092643195E+03  0.82382101761E+01 -0.15928501280E+03  0.20640592044E+03  0.47000000000E+01 0. -1.
         -5    1    3    3    0  501 -0.27582205820E+02  0.12369334296E+02 -0.57342124528E+02  0.64992213027E+02  0.47000000000E+01 0. -1.
          5    1    4    4  502    0 -0.16960897620E+02  0.31608863352E+02 -0.17512921342E+03  0.17882707760E+03  0.47000000000E+01 0.  1.
         -5    1    4    4    0  502 -0.86383328514E+02 -0.52216407824E+02 -0.10643511316E+03  0.14676224312E+03  0.47000000000E+01 0.  1.
<mgrwt>
<rscale>  0 0.32893660E+03</rscale>
<asrwt>0</asrwt>
<pdfrwt beam="1">  1       21 0.75996917E-02 0.32893660E+03</pdfrwt>
<pdfrwt beam="2">  1       21 0.84244531E-01 0.32893660E+03</pdfrwt>
<totfact> 0.15408417E+05</totfact>
</mgrwt>
</event>
<event>
 8    1  0.9373234E-006  0.2724951E+03  0.7546771E-02  0.1099860E+00
         21   -1    0    0  504  503  0.00000000000E+00  0.00000000000E+00  0.46427991460E+02  0.46427991460E+02  0.00000000000E+00 0. -1.
         21   -1    0    0  503  504 -0.00000000000E+00 -0.00000000000E+00 -0.39983185620E+03  0.39983185620E+03  0.00000000000E+00 0. -1.
         25    2    1    2    0    0 -0.76929366572E+01 -0.53651183219E+02 -0.17556334120E+03  0.22222716272E+03  0.12499917737E+03 0.  0.
         25    2    1    2    0    0  0.76929366572E+01  0.53651183219E+02 -0.17784052354E+03  0.22403268494E+03  0.12500304546E+03 0.  0.
          5    1    3    3  501    0 -0.60257126756E+02 -0.47996948381E+02 -0.70563195618E+02  0.10457477208E+03  0.47000000000E+01 0. -1.
         -5    1    3    3    0  501  0.52564190099E+02 -0.56542348384E+01 -0.10500014558E+03  0.11765239065E+03  0.47000000000E+01 0. -1.
          5    1    4    4  502    0 -0.51593738206E+00 -0.34596024407E+02 -0.13846922598E+02  0.37562991915E+02  0.47000000000E+01 0. -1.
         -5    1    4    4    0  502  0.82088740393E+01  0.88247207626E+02 -0.16399360094E+03  0.18646969302E+03  0.47000000000E+01 0. -1.
<mgrwt>
<rscale>  0 0.27249506E+03</rscale>
<asrwt>0</asrwt>
<pdfrwt beam="1">  1       21 0.71427678E-02 0.27249506E+03</pdfrwt>
<pdfrwt beam="2">  1       21 0.61512594E-01 0.27249506E+03</pdfrwt>
<totfact> 0.35208024E+05</totfact>
</mgrwt>
</event>
<event>
 8    1  0.9373234E-006  0.2625147E+03  0.7546771E-02  0.1105642E+00
         21   -1    0    0  504  503  0.00000000000E+00  0.00000000000E+00  0.10548356881E+03  0.10548356881E+03  0.00000000000E+00 0.  1.
         21   -1    0    0  503  504 -0.00000000000E+00 -0.00000000000E+00 -0.16332868182E+03  0.16332868182E+03  0.00000000000E+00 0.  1.
         25    2    1    2    0    0  0.10285957962E+02 -0.29288717784E+02 -0.30387156102E+01  0.12883087609E+03  0.12499812367E+03 0.  0.
         25    2    1    2    0    0 -0.10285957962E+02  0.29288717784E+02 -0.54806397397E+02  0.13998137454E+03  0.12500965603E+03 0.  0.
          5    1    3    3  501    0 -0.25996220529E+02 -0.68590224471E+02  0.82476186877E+01  0.73963069087E+02  0.47000000000E+01 0.  1.
         -5    1    3    3    0  501  0.36282178491E+02  0.39301506686E+02 -0.11286334298E+02  0.54867807007E+02  0.47000000000E+01 0.  1.
          5    1    4    4  502    0  0.45072135846E+01  0.53029902931E+02 -0.83823825170E+02  0.99403265768E+02  0.47000000000E+01 0. -1.
         -5    1    4    4    0  502 -0.14793171547E+02 -0.23741185147E+02  0.29017427773E+02  0.40578108768E+02  0.47000000000E+01 0. -1.
<mgrwt>
<rscale>  0 0.26251470E+03</rscale>
<asrwt>0</asrwt>
<pdfrwt beam="1">  1       21 0.16228241E-01 0.26251470E+03</pdfrwt>
<pdfrwt beam="2">  1       21 0.25127490E-01 0.26251470E+03</pdfrwt>
<totfact> 0.50287706E+05</totfact>
</mgrwt>
</event>
<event>
 8    1  0.9373234E-006  0.2864619E+03  0.7546771E-02  0.1092211E+00
         21   -1    0    0  504  503  0.00000000000E+00  0.00000000000E+00  0.21344805792E+02  0.21344805792E+02  0.00000000000E+00 0. -1.
         21   -1    0    0  503  504 -0.00000000000E+00 -0.00000000000E+00 -0.96112877976E+03  0.96112877976E+03  0.00000000000E+00 0. -1.
         25    2    1    2    0    0  0.14492619297E+02 -0.12393323987E+02 -0.70062964672E+03  0.71194830675E+03  0.12499943654E+03 0.  0.
         25    2    1    2    0    0 -0.14492619297E+02  0.12393323987E+02 -0.23915432725E+03  0.27052527880E+03  0.12500201491E+03 0.  0.
          5    1    3    3  501    0  0.15163161819E+02  0.35057307093E+02 -0.59275822920E+03  0.59400618224E+03  0.47000000000E+01 0.  1.
         -5    1    3    3    0  501 -0.67054252278E+00 -0.47450631080E+02 -0.10787141752E+03  0.11794212451E+03  0.47000000000E+01 0.  1.
          5    1    4    4  502    0  0.12685480507E+02  0.37191328212E+02 -0.22854700873E+03  0.23194814401E+03  0.47000000000E+01 0. -1.
         -5    1    4    4    0  502 -0.27178099803E+02 -0.24798004225E+02 -0.10607318523E+02  0.38577134792E+02  0.47000000000E+01 0. -1.
<mgrwt>
<rscale>  0 0.28646191E+03</rscale>
<asrwt>0</asrwt>
<pdfrwt beam="1">  1       21 0.32838167E-02 0.28646191E+03</pdfrwt>
<pdfrwt beam="2">  1       21 0.14786595E+00 0.28646191E+03</pdfrwt>
<totfact> 0.16323237E+05</totfact>
</mgrwt>
</event>
<event>
 8    1  0.9373234E-006  0.2534308E+03  0.7546771E-02  0.1111156E+00
         21   -1    0    0  504  503  0.00000000000E+00  0.00000000000E+00  0.12664456502E+03  0.12664456502E+03  0.00000000000E+00 0.  1.
         21   -1    0    0  503  504 -0.00000000000E+00 -0.00000000000E+00 -0.12678624209E+03  0.12678624209E+03  0.00000000000E+00 0.  1.
         25    2    1    2    0    0 -0.40400307453E+01 -0.97421631814E+01  0.17832839963E+02  0.12670762014E+03  0.12500231690E+03 0.  0.
         25    2    1    2    0    0  0.40400307453E+01  0.97421631814E+01 -0.17974517031E+02  0.12672318697E+03  0.12499780502E+03 0.  0.
          5    1    3    3  501    0  0.23940575732E+02  0.50420557799E+02  0.21719774864E+02  0.60076804469E+02  0.47000000000E+01 0.  1.
         -5    1    3    3    0  501 -0.27980606478E+02 -0.60162720980E+02 -0.38869349004E+01  0.66630815675E+02  0.47000000000E+01 0.  1.
          5    1    4    4  502    0 -0.21562167676E+02  0.49126461930E+02  0.28109700501E+02  0.60750157193E+02  0.47000000000E+01 0.  1.
         -5    1    4    4    0  502  0.25602198422E+02 -0.39384298749E+02 -0.46084217533E+02  0.65973029774E+02  0.47000000000E+01 0.  1.
<mgrwt>
<rscale>  0 0.25343077E+03</rscale>
<asrwt>0</asrwt>
<pdfrwt beam="1">  1       21 0.19483779E-01 0.25343077E+03</pdfrwt>
<pdfrwt beam="2">  1       21 0.19505576E-01 0.25343077E+03</pdfrwt>
<totfact> 0.57989014E+05</totfact>
</mgrwt>
</event>
<event>
 8    1  0.9373234E-006  0.4033718E+03  0.7546771E-02  0.1042618E+00
         21   -1    0    0  504  503  0.00000000000E+00  0.00000000000E+00  0.88124283490E+03  0.88124283490E+03  0.00000000000E+00 0. -1.
         21   -1    0    0  503  504 -0.00000000000E+00 -0.00000000000E+00 -0.46158894537E+02  0.46158894537E+02  0.00000000000E+00 0. -1.
         25    2    1    2    0    0  0.15791717075E+03  0.72259685663E+01  0.39967612114E+03  0.44761031910E+03  0.12499579400E+03 0.  0.
         25    2    1    2    0    0 -0.15791717075E+03 -0.72259685663E+01  0.43540781922E+03  0.47979141033E+03  0.12501912233E+03 0.  0.
          5    1    3    3  501    0  0.43730777949E+02  0.90170177202E+01  0.27431881117E+03  0.27796868117E+03  0.47000000000E+01 0.  1.
         -5    1    3    3    0  501  0.11418639280E+03 -0.17910491540E+01  0.12535730997E+03  0.16964163794E+03  0.47000000000E+01 0.  1.
          5    1    4    4  502    0 -0.15246719648E+02  0.35578193538E+02  0.34436571493E+02  0.52021512585E+02  0.47000000000E+01 0.  1.
         -5    1    4    4    0  502 -0.14267045111E+03 -0.42804162104E+02  0.40097124773E+03  0.42776989774E+03  0.47000000000E+01 0.  1.
<mgrwt>
<rscale>  0 0.40337176E+03</rscale>
<asrwt>0</asrwt>
<pdfrwt beam="1">  1       21 0.13557581E+00 0.40337176E+03</pdfrwt>
<pdfrwt beam="2">  1       21 0.71013691E-02 0.40337176E+03</pdfrwt>
<totfact> 0.52925910E+04</totfact>
</mgrwt>
</event>
<event>
 8    1  0.9373234E-006  0.4028374E+03  0.7546771E-02  0.1042802E+00
         21   -1    0    0  504  503  0.00000000000E+00  0.00000000000E+00  0.23781002907E+04  0.23781002907E+04  0.00000000000E+00 0. -1.
         21   -1    0    0  503  504 -0.00000000000E+00 -0.00000000000E+00 -0.17059621301E+02  0.17059621301E+02  0.00000000000E+00 0. -1.
         25    2    1    2    0    0  0.22150105234E+02 -0.92804645662E+02  0.43217158230E+03  0.45989189765E+03  0.12499980623E+03 0.  0.
         25    2    1    2    0    0 -0.22150105234E+02  0.92804645662E+02  0.19288690871E+04  0.19352680144E+04  0.12499201088E+03 0.  0.
          5    1    3    3  501    0 -0.48806918499E+02 -0.61825848745E+02  0.24073540362E+03  0.25333806548E+03  0.47000000000E+01 0. -1.
         -5    1    3    3    0  501  0.70957023733E+02 -0.30978796917E+02  0.19143617868E+03  0.20655383217E+03  0.47000000000E+01 0. -1.
          5    1    4    4  502    0  0.18922767985E+02  0.10540167900E+03  0.10818868876E+04  0.10871839368E+04  0.47000000000E+01 0. -1.
         -5    1    4    4    0  502 -0.41072873219E+02 -0.12597033339E+02  0.84698219956E+03  0.84808407752E+03  0.47000000000E+01 0. -1.
<mgrwt>
<rscale>  0 0.40283739E+03</rscale>
<asrwt>0</asrwt>
<pdfrwt beam="1">  1       21 0.36586132E+00 0.40283739E+03</pdfrwt>
<pdfrwt beam="2">  1       21 0.26245590E-02 0.40283739E+03</pdfrwt>
<totfact> 0.93586541E+03</totfact>
</mgrwt>
</event>
<event>
 8    1  0.9373234E-006  0.3548131E+03  0.7546771E-02  0.1060657E+00
         21   -1    0    0  504  503  0.00000000000E+00  0.00000000000E+00  0.38000538937E+03  0.38000538937E+03  0.00000000000E+00 0. -1.
         21   -1    0    0  503  504 -0.00000000000E+00 -0.00000000000E+00 -0.82822723275E+02  0.82822723275E+02  0.00000000000E+00 0. -1.
         25    2    1    2    0    0  0.63989589607E+02 -0.17220253845E+02  0.89567994230E+01  0.14175119574E+03  0.12498788948E+03 0.  0.
         25    2    1    2    0    0 -0.63989589607E+02  0.17220253845E+02  0.28822586667E+03  0.32107691690E+03  0.12500012652E+03 0.  0.
          5    1    3    3  501    0  0.18327085014E+02 -0.17888946744E+02 -0.56261756316E+02  0.61994932733E+02  0.47000000000E+01 0.  1.
         -5    1    3    3    0  501  0.45662504592E+02  0.66869289959E+00  0.65218555739E+02  0.79756263005E+02  0.47000000000E+01 0.  1.
          5    1    4    4  502    0 -0.22291002864E+02  0.60880015918E+02  0.22208137382E+03  0.23139898821E+03  0.47000000000E+01 0.  1.
         -5    1    4    4    0  502 -0.41698586742E+02 -0.43659762074E+02  0.66144492850E+02  0.89677928695E+02  0.47000000000E+01 0.  1.
<mgrwt>
<rscale>  0 0.35481308E+03</rscale>
<asrwt>0</asrwt>
<pdfrwt beam="1">  1       21 0.58462367E-01 0.35481308E+03</pdfrwt>
<pdfrwt beam="2">  1       21 0.12741958E-01 0.35481308E+03</pdfrwt>
<totfact> 0.13787149E+05</totfact>
</mgrwt>
</event>
<event>
 8    1  0.9373234E-006  0.3093943E+03  0.7546771E-02  0.1080637E+00
         21   -1    0    0  504  503  0.00000000000E+00  0.00000000000E+00  0.15763518015E+04  0.15763518015E+04  0.00000000000E+00 0.  1.
         21   -1    0    0  503  504 -0.00000000000E+00 -0.00000000000E+00 -0.15181385181E+02  0.15181385181E+02  0.00000000000E+00 0.  1.
         25    2    1    2    0    0  0.50178393371E+02  0.53747225753E+02  0.50358673286E+03  0.52405383100E+03  0.12500473926E+03 0.  0.
         25    2    1    2    0    0 -0.50178393371E+02 -0.53747225753E+02  0.10575836834E+04  0.10674793556E+04  0.12498916690E+03 0.  0.
          5    1    3    3  501    0 -0.13446723520E+02  0.70897961859E+02  0.18379457771E+03  0.19750916983E+03  0.47000000000E+01 0.  1.
         -5    1    3    3    0  501  0.63625116892E+02 -0.17150736106E+02  0.31979215515E+03  0.32654466118E+03  0.47000000000E+01 0.  1.
          5    1    4    4  502    0 -0.69198677838E+01 -0.68996080924E+02  0.91478556083E+03  0.91742196184E+03  0.47000000000E+01 0. -1.
         -5    1    4    4    0  502 -0.43258525587E+02  0.15248855171E+02  0.14279812258E+03  0.15005739379E+03  0.47000000000E+01 0. -1.
<mgrwt>
<rscale>  0 0.30939427E+03</rscale>
<asrwt>0</asrwt>
<pdfrwt beam="1">  1       21 0.24251553E+00 0.30939427E+03</pdfrwt>
<pdfrwt beam="2">  1       21 0.23355990E-02 0.30939427E+03</pdfrwt>
<totfact> 0.65730849E+04</totfact>
</mgrwt>
</event>
<event>
 8    1  0.9373234E-006  0.5205198E+03  0.7546771E-02  0.1008558E+00
         21   -1    0    0  504  503  0.00000000000E+00  0.00000000000E+00  0.28130590311E+03  0.28130590311E+03  0.00000000000E+00 0.  1.
         21   -1    0    0  503  504 -0.00000000000E+00 -0.00000000000E+00 -0.24078849019E+03  0.24078849019E+03  0.00000000000E+00 0.  1.
         25    2    1    2    0    0  0.21257443168E+03 -0.42091366977E+02 -0.51722071375E+02  0.25545888433E+03  0.12499798694E+03 0.  0.
         25    2    1    2    0    0 -0.21257443168E+03  0.42091366977E+02  0.92239484292E+02  0.26663550897E+03  0.12500719979E+03 0.  0.
          5    1    3    3  501    0  0.10078438245E+03  0.46651637986E+01 -0.82426578827E+02  0.13036673808E+03  0.47000000000E+01 0. -1.
         -5    1    3    3    0  501  0.11179004923E+03 -0.46756530776E+02  0.30704507452E+02  0.12509214626E+03  0.47000000000E+01 0. -1.
          5    1    4    4  502    0 -0.11949081671E+03 -0.13656010832E+02 -0.55586056995E+01  0.12048871319E+03  0.47000000000E+01 0. -1.
         -5    1    4    4    0  502 -0.93083614976E+02  0.55747377809E+02  0.97798089991E+02  0.14614679578E+03  0.47000000000E+01 0. -1.
<mgrwt>
<rscale>  0 0.52051983E+03</rscale>
<asrwt>0</asrwt>
<pdfrwt beam="1">  1       21 0.43277831E-01 0.52051983E+03</pdfrwt>
<pdfrwt beam="2">  1       21 0.37044383E-01 0.52051983E+03</pdfrwt>
<totfact> 0.32456709E+04</totfact>
</mgrwt>
</event>
<event>
 8    1  0.9373234E-006  0.2861287E+03  0.7546771E-02  0.1092388E+00
         21   -1    0    0  504  503  0.00000000000E+00  0.00000000000E+00  0.12073618156E+03  0.12073618156E+03  0.00000000000E+00 0. -1.
         21   -1    0    0  503  504 -0.00000000000E+00 -0.00000000000E+00 -0.16952169123E+03  0.16952169123E+03  0.00000000000E+00 0. -1.
         25    2    1    2    0    0  0.61530638147E+02 -0.10469443076E+02  0.67033001967E+01  0.13993950850E+03  0.12506999295E+03 0.  0.
         25    2    1    2    0    0 -0.61530638147E+02  0.10469443076E+02 -0.55488809866E+02  0.15031836429E+03  0.12498389477E+03 0.  0.
          5    1    3    3  501    0 -0.17834463403E+02 -0.77056265571E+01 -0.42104443678E+02  0.46608142453E+02  0.47000000000E+01 0.  1.
         -5    1    3    3    0  501  0.79365101550E+02 -0.27638165189E+01  0.48807743875E+02  0.93331366046E+02  0.47000000000E+01 0.  1.
          5    1    4    4  502    0 -0.34475803025E+02 -0.57028498090E+02 -0.28011300061E+02  0.72439999446E+02  0.47000000000E+01 0.  1.
         -5    1    4    4    0  502 -0.27054835122E+02  0.67497941166E+02 -0.27477509804E+02  0.77878364840E+02  0.47000000000E+01 0.  1.
<mgrwt>
<rscale>  0 0.28612865E+03</rscale>
<asrwt>0</asrwt>
<pdfrwt beam="1">  1       21 0.18574797E-01 0.28612865E+03</pdfrwt>
<pdfrwt beam="2">  1       21 0.26080260E-01 0.28612865E+03</pdfrwt>
<totfact> 0.36262398E+05</totfact>
</mgrwt>
</event>
<event>
 8    1  0.9373234E-006  0.2967012E+03  0.7546771E-02  0.1086901E+00
         21   -1    0    0  504  503  0.00000000000E+00  0.00000000000E+00  0.49483921969E+02  0.49483921969E+02  0.00000000000E+00 0. -1.
         21   -1    0    0  503  504 -0.00000000000E+00 -0.00000000000E+00 -0.44474849206E+03  0.44474849206E+03  0.00000000000E+00 0. -1.
         25    2    1    2    0    0  0.57648826167E+02  0.41100137763E+02 -0.13596041475E+03  0.19779745404E+03  0.12500395978E+03 0.  0.
         25    2    1    2    0    0 -0.57648826167E+02 -0.41100137763E+02 -0.25930415534E+03  0.29643495999E+03  0.12498972777E+03 0.  0.
          5    1    3    3  501    0  0.71398460162E+02 -0.16222254130E+02 -0.36167378574E+02  0.81798966470E+02  0.47000000000E+01 0. -1.
         -5    1    3    3    0  501 -0.13749633995E+02  0.57322391893E+02 -0.99793036181E+02  0.11599848757E+03  0.47000000000E+01 0. -1.
          5    1    4    4  502    0  0.11434870018E+02 -0.67834467817E+02 -0.13690561006E+03  0.15328896680E+03  0.47000000000E+01 0. -1.
         -5    1    4    4    0  502 -0.69083696185E+02  0.26734330054E+02 -0.12239854527E+03  0.14314599319E+03  0.47000000000E+01 0. -1.
<mgrwt>
<rscale>  0 0.29670119E+03</rscale>
<asrwt>0</asrwt>
<pdfrwt beam="1">  1       21 0.76129108E-02 0.29670119E+03</pdfrwt>
<pdfrwt beam="2">  1       21 0.68422847E-01 0.29670119E+03</pdfrwt>
<totfact> 0.24798389E+05</totfact>
</mgrwt>
</event>
<event>
 8    1  0.9373234E-006  0.2678604E+03  0.7546771E-02  0.1102510E+00
         21   -1    0    0  504  503  0.00000000000E+00  0.00000000000E+00  0.80611821502E+03  0.80611821502E+03  0.00000000000E+00 0.  1.
         21   -1    0    0  503  504 -0.00000000000E+00 -0.00000000000E+00 -0.22251449557E+02  0.22251449557E+02  0.00000000000E+00 0.  1.
         25    2    1    2    0    0 -0.14408221007E+02 -0.33282199159E+02  0.48956743677E+03  0.50657388643E+03  0.12500210260E+03 0.  0.
         25    2    1    2    0    0  0.14408221007E+02  0.33282199159E+02  0.29429932869E+03  0.32179577815E+03  0.12500050540E+03 0.  0.
          5    1    3    3  501    0 -0.25363145185E+02 -0.83798127446E+01  0.14594716970E+02  0.30799450624E+02  0.47000000000E+01 0. -1.
         -5    1    3    3    0  501  0.10954924178E+02 -0.24902386414E+02  0.47497271980E+03  0.47577443581E+03  0.47000000000E+01 0. -1.
          5    1    4    4  502    0 -0.40185280427E+02  0.57389282624E+02  0.16425965585E+03  0.17863849267E+03  0.47000000000E+01 0.  1.
         -5    1    4    4    0  502  0.54593501434E+02 -0.24107083465E+02  0.13003967284E+03  0.14315728548E+03  0.47000000000E+01 0.  1.
<mgrwt>
<rscale>  0 0.26786040E+03</rscale>
<asrwt>0</asrwt>
<pdfrwt beam="1">  1       21 0.12401816E+00 0.26786040E+03</pdfrwt>
<pdfrwt beam="2">  1       21 0.34233005E-02 0.26786040E+03</pdfrwt>
<totfact> 0.24137043E+05</totfact>
</mgrwt>
</event>
<event>
 8    1  0.9373234E-006  0.3794363E+03  0.7546771E-02  0.1051142E+00
         21   -1    0    0  504  503  0.00000000000E+00  0.00000000000E+00  0.41957146790E+02  0.41957146790E+02  0.00000000000E+00 0.  1.
         21   -1    0    0  503  504 -0.00000000000E+00 -0.00000000000E+00 -0.85785080637E+03  0.85785080637E+03  0.00000000000E+00 0.  1.
         25    2    1    2    0    0  0.21471220246E+02 -0.49781483956E+02 -0.72102438531E+03  0.73378496377E+03  0.12499999762E+03 0.  0.
         25    2    1    2    0    0 -0.21471220246E+02  0.49781483956E+02 -0.94869274279E+02  0.16602298940E+03  0.12499697741E+03 0.  0.
          5    1    3    3  501    0  0.73993865485E+01  0.16101230336E+02 -0.54411899629E+03  0.54442774788E+03  0.47000000000E+01 0. -1.
         -5    1    3    3    0  501  0.14071833698E+02 -0.65882714292E+02 -0.17690538902E+03  0.18935721589E+03  0.47000000000E+01 0. -1.
          5    1    4    4  502    0  0.18141457189E+02 -0.26791281631E+02 -0.68242109469E+02  0.75670078269E+02  0.47000000000E+01 0. -1.
         -5    1    4    4    0  502 -0.39612677435E+02  0.76572765587E+02 -0.26627164810E+02  0.90352911126E+02  0.47000000000E+01 0. -1.
<mgrwt>
<rscale>  0 0.37943628E+03</rscale>
<asrwt>0</asrwt>
<pdfrwt beam="1">  1       21 0.64549468E-02 0.37943628E+03</pdfrwt>
<pdfrwt beam="2">  1       21 0.13197702E+00 0.37943628E+03</pdfrwt>
<totfact> 0.67519255E+04</totfact>
</mgrwt>
</event>
<event>
 8    1  0.9373234E-006  0.3278698E+03  0.7546771E-02  0.1072083E+00
         21   -1    0    0  504  503  0.00000000000E+00  0.00000000000E+00  0.13899011980E+04  0.13899011980E+04  0.00000000000E+00 0. -1.
         21   -1    0    0  503  504 -0.00000000000E+00 -0.00000000000E+00 -0.19335657124E+02  0.19335657124E+02  0.00000000000E+00 0. -1.
         25    2    1    2    0    0 -0.72418728285E+02 -0.32083691273E+01  0.10180795110E+04  0.10282823797E+04  0.12499598311E+03 0.  0.
         25    2    1    2    0    0  0.72418728285E+02  0.32083691273E+01  0.35248602984E+03  0.38095447542E+03  0.12500058106E+03 0.  0.
          5    1    3    3  501    0 -0.97059723015E+02  0.17973211470E+02  0.53235336285E+03  0.54144789140E+03  0.47000000000E+01 0. -1.
         -5    1    3    3    0  501  0.24640994730E+02 -0.21181580598E+02  0.48572614820E+03  0.48683448832E+03  0.47000000000E+01 0. -1.
          5    1    4    4  502    0 -0.60378802694E+01  0.49330172475E+02  0.16682536355E+03  0.17413418343E+03  0.47000000000E+01 0.  1.
         -5    1    4    4    0  502  0.78456608554E+02 -0.46121803348E+02  0.18566066629E+03  0.20682029199E+03  0.47000000000E+01 0.  1.
<mgrwt>
<rscale>  0 0.32786981E+03</rscale>
<asrwt>0</asrwt>
<pdfrwt beam="1">  1       21 0.21383087E+00 0.32786981E+03</pdfrwt>
<pdfrwt beam="2">  1       21 0.29747176E-02 0.32786981E+03</pdfrwt>
<totfact> 0.65750395E+04</totfact>
</mgrwt>
</event>
<event>
 8    1  0.9373234E-006  0.3314175E+03  0.7546771E-02  0.1070511E+00
         21   -1    0    0  504  503  0.00000000000E+00  0.00000000000E+00  0.33816788941E+02  0.33816788941E+02  0.00000000000E+00 0.  1.
         21   -1    0    0  503  504 -0.00000000000E+00 -0.00000000000E+00 -0.81200451183E+03  0.81200451183E+03  0.00000000000E+00 0.  1.
         25    2    1    2    0    0 -0.30186185262E+02  0.60055029846E+02 -0.17083299230E+03  0.22210132590E+03  0.12500910094E+03 0.  0.
         25    2    1    2    0    0  0.30186185262E+02 -0.60055029846E+02 -0.60735473059E+03  0.62371997487E+03  0.12501610253E+03 0.  0.
          5    1    3    3  501    0  0.33407520876E+02  0.63212160824E+02 -0.56888134479E+02  0.91488740136E+02  0.47000000000E+01 0.  1.
         -5    1    3    3    0  501 -0.63593706138E+02 -0.31571309776E+01 -0.11394485782E+03  0.13061258576E+03  0.47000000000E+01 0.  1.
          5    1    4    4  502    0 -0.65418383373E+01 -0.45139770311E+02 -0.55961288120E+03  0.56148825573E+03  0.47000000000E+01 0. -1.
         -5    1    4    4    0  502  0.36728023600E+02 -0.14915259535E+02 -0.47741849385E+02  0.62231719141E+02  0.47000000000E+01 0. -1.
<mgrwt>
<rscale>  0 0.33141747E+03</rscale>
<asrwt>0</asrwt>
<pdfrwt beam="1">  1       21 0.52025826E-02 0.33141747E+03</pdfrwt>
<pdfrwt beam="2">  1       21 0.12492378E+00 0.33141747E+03</pdfrwt>
<totfact> 0.11442749E+05</totfact>
</mgrwt>
</event>
<event>
 8    1  0.9373234E-006  0.3340953E+03  0.7546771E-02  0.1069339E+00
         21   -1    0    0  504  503  0.00000000000E+00  0.00000000000E+00  0.11664655705E+03  0.11664655705E+03  0.00000000000E+00 0.  1.
         21   -1    0    0  503  504 -0.00000000000E+00 -0.00000000000E+00 -0.23922628314E+03  0.23922628314E+03  0.00000000000E+00 0.  1.
         25    2    1    2    0    0 -0.13050493662E+02  0.85173331637E+02 -0.13551487485E+03  0.20350318835E+03  0.12499781820E+03 0.  0.
         25    2    1    2    0    0  0.13050493662E+02 -0.85173331637E+02  0.12935148763E+02  0.15236965185E+03  0.12499752367E+03 0.  0.
          5    1    3    3  501    0 -0.29668021880E+02 -0.75105318080E+01 -0.96718541187E+02  0.10155375827E+03  0.47000000000E+01 0. -1.
         -5    1    3    3    0  501  0.16617528218E+02  0.92683863445E+02 -0.38796333666E+02  0.10194943008E+03  0.47000000000E+01 0. -1.
          5    1    4    4  502    0  0.18537271323E+02  0.29174696685E+02  0.14513877449E+02  0.37782747297E+02  0.47000000000E+01 0.  1.
         -5    1    4    4    0  502 -0.54867776609E+01 -0.11434802832E+03 -0.15787286862E+01  0.11458690455E+03  0.47000000000E+01 0.  1.
<mgrwt>
<rscale>  0 0.33409533E+03</rscale>
<asrwt>0</asrwt>
<pdfrwt beam="1">  1       21 0.17945624E-01 0.33409533E+03</pdfrwt>
<pdfrwt beam="2">  1       21 0.36804043E-01 0.33409533E+03</pdfrwt>
<totfact> 0.19382857E+05</totfact>
</mgrwt>
</event>
<event>
 8    1  0.9373234E-006  0.2675878E+03  0.7546771E-02  0.1102668E+00
         21   -1    0    0  504  503  0.00000000000E+00  0.00000000000E+00  0.29076709989E+04  0.29076709989E+04  0.00000000000E+00 0. -1.
         21   -1    0    0  503  504 -0.00000000000E+00 -0.00000000000E+00 -0.61564091823E+01  0.61564091823E+01  0.00000000000E+00 0. -1.
         25    2    1    2    0    0  0.33646273245E+02 -0.33694998718E+02  0.14810129917E+04  0.14870411804E+04  0.12499826312E+03 0.  0.
         25    2    1    2    0    0 -0.33646273245E+02  0.33694998718E+02  0.14205015980E+04  0.14267862278E+04  0.12500690013E+03 0.  0.
          5    1    3    3  501    0  0.44944873324E+02  0.13217861830E+02  0.12551721941E+04  0.12560549671E+04  0.47000000000E+01 0. -1.
         -5    1    3    3    0  501 -0.11298600079E+02 -0.46912860548E+02  0.22584079765E+03  0.23098621329E+03  0.47000000000E+01 0. -1.
          5    1    4    4  502    0 -0.21559308872E+02 -0.24887355261E+02  0.11016201762E+03  0.11507364762E+03  0.47000000000E+01 0. -1.
         -5    1    4    4    0  502 -0.12086964373E+02  0.58582353979E+02  0.13103395804E+04  0.13117125801E+04  0.47000000000E+01 0. -1.
<mgrwt>
<rscale>  0 0.26758784E+03</rscale>
<asrwt>0</asrwt>
<pdfrwt beam="1">  1       21 0.44733290E+00 0.26758784E+03</pdfrwt>
<pdfrwt beam="2">  1       21 0.94714220E-03 0.26758784E+03</pdfrwt>
<totfact> 0.16341872E+04</totfact>
</mgrwt>
</event>
<event>
 8    1  0.9373234E-006  0.3550515E+03  0.7546771E-02  0.1060561E+00
         21   -1    0    0  504  503  0.00000000000E+00  0.00000000000E+00  0.21010650582E+02  0.21010650582E+02  0.00000000000E+00 0. -1.
         21   -1    0    0  503  504 -0.00000000000E+00 -0.00000000000E+00 -0.14999726040E+04  0.14999726040E+04  0.00000000000E+00 0. -1.
         25    2    1    2    0    0  0.21143919382E+02  0.99808690987E+02 -0.10566575565E+04  0.10689058019E+04  0.12500232615E+03 0.  0.
         25    2    1    2    0    0 -0.21143919382E+02 -0.99808690987E+02 -0.42230439696E+03  0.45207745271E+03  0.12499671767E+03 0.  0.
          5    1    3    3  501    0  0.29343105534E+02 -0.22427401738E+02 -0.18930978906E+03  0.19293598012E+03  0.47000000000E+01 0. -1.
         -5    1    3    3    0  501 -0.81991861521E+01  0.12223609273E+03 -0.86734776740E+03  0.87596982176E+03  0.47000000000E+01 0. -1.
          5    1    4    4  502    0  0.82177744243E+01  0.15873243836E+02 -0.67143696733E+01  0.19663785151E+02  0.47000000000E+01 0.  1.
         -5    1    4    4    0  502 -0.29361693806E+02 -0.11568193482E+03 -0.41559002729E+03  0.43241366755E+03  0.47000000000E+01 0.  1.
<mgrwt>
<rscale>  0 0.35505155E+03</rscale>
<asrwt>0</asrwt>
<pdfrwt beam="1">  1       21 0.32324064E-02 0.35505155E+03</pdfrwt>
<pdfrwt beam="2">  1       21 0.23076511E+00 0.35505155E+03</pdfrwt>
<totfact> 0.44268867E+04</totfact>
</mgrwt>
</event>
<event>
 8    1  0.9373234E-006  0.2990212E+03  0.7546771E-02  0.1085731E+00
         21   -1    0    0  504  503  0.00000000000E+00  0.00000000000E+00  0.67850549336E+02  0.67850549336E+02  0.00000000000E+00 0. -1.
         21   -1    0    0  503  504 -0.00000000000E+00 -0.00000000000E+00 -0.32945089644E+03  0.32945089644E+03  0.00000000000E+00 0. -1.
         25    2    1    2    0    0  0.27235462173E+02  0.19309635134E+02 -0.31258885283E+02  0.13310942455E+03  0.12500547423E+03 0.  0.
         25    2    1    2    0    0 -0.27235462173E+02 -0.19309635134E+02 -0.23034146182E+03  0.26419202122E+03  0.12500241052E+03 0.  0.
          5    1    3    3  501    0  0.10784262320E+02 -0.39806793208E+02 -0.53461947225E+02  0.67684199784E+02  0.47000000000E+01 0. -1.
         -5    1    3    3    0  501  0.16451199853E+02  0.59116428342E+02  0.22203061942E+02  0.65425224769E+02  0.47000000000E+01 0. -1.
          5    1    4    4  502    0 -0.97912737339E+01 -0.68031495366E+02 -0.82489864999E+02  0.10747474694E+03  0.47000000000E+01 0.  1.
         -5    1    4    4    0  502 -0.17444188440E+02  0.48721860231E+02 -0.14785159682E+03  0.15671727428E+03  0.47000000000E+01 0.  1.
<mgrwt>
<rscale>  0 0.29902123E+03</rscale>
<asrwt>0</asrwt>
<pdfrwt beam="1">  1       21 0.10438546E-01 0.29902123E+03</pdfrwt>
<pdfrwt beam="2">  1       21 0.50684753E-01 0.29902123E+03</pdfrwt>
<totfact> 0.27139299E+05</totfact>
</mgrwt>
</event>
<event>
 8    1  0.9373234E-006  0.4505395E+03  0.7546771E-02  0.1027561E+00
         21   -1    0    0  504  503  0.00000000000E+00  0.00000000000E+00  0.20656173950E+03  0.20656173950E+03  0.00000000000E+00 0.  1.
         21   -1    0    0  503  504 -0.00000000000E+00 -0.00000000000E+00 -0.24567208077E+03  0.24567208077E+03  0.00000000000E+00 0.  1.
         25    2    1    2    0    0 -0.17662129071E+03 -0.58726838092E+02 -0.41540556307E+02  0.22802189314E+03  0.12499777633E+03 0.  0.
         25    2    1    2    0    0  0.17662129071E+03  0.58726838092E+02  0.24302150340E+01  0.22421192714E+03  0.12498464098E+03 0.  0.
          5    1    3    3  501    0 -0.80194214028E+02 -0.36083791338E+02  0.42735700922E+02  0.97885556106E+02  0.47000000000E+01 0.  1.
         -5    1    3    3    0  501 -0.96427076682E+02 -0.22643046754E+02 -0.84276257229E+02  0.13013633703E+03  0.47000000000E+01 0.  1.
          5    1    4    4  502    0  0.19334801778E+02 -0.16444149645E+02 -0.37292880355E+02  0.45355193115E+02  0.47000000000E+01 0. -1.
         -5    1    4    4    0  502  0.15728648893E+03  0.75170987737E+02  0.39723095389E+02  0.17885673402E+03  0.47000000000E+01 0. -1.
<mgrwt>
<rscale>  0 0.45053946E+03</rscale>
<asrwt>0</asrwt>
<pdfrwt beam="1">  1       21 0.31778729E-01 0.45053946E+03</pdfrwt>
<pdfrwt beam="2">  1       21 0.37795705E-01 0.45053946E+03</pdfrwt>
<totfact> 0.59397536E+04</totfact>
</mgrwt>
</event>
<event>
 8    1  0.9373234E-006  0.3040389E+03  0.7546771E-02  0.1083239E+00
         21   -1    0    0  504  503  0.00000000000E+00  0.00000000000E+00  0.84245348317E+02  0.84245348317E+02  0.00000000000E+00 0. -1.
         21   -1    0    0  503  504 -0.00000000000E+00 -0.00000000000E+00 -0.27431687597E+03  0.27431687597E+03  0.00000000000E+00 0. -1.
         25    2    1    2    0    0  0.79345772795E+02  0.29066588127E+02 -0.73144780503E+02  0.16767385133E+03  0.12499497310E+03 0.  0.
         25    2    1    2    0    0 -0.79345772795E+02 -0.29066588127E+02 -0.11692674715E+03  0.19088837295E+03  0.12500355405E+03 0.  0.
          5    1    3    3  501    0  0.98112169493E+02 -0.63845503708E+01 -0.79834198702E+02  0.12673732508E+03  0.47000000000E+01 0.  1.
         -5    1    3    3    0  501 -0.18766396698E+02  0.35451138498E+02  0.66894181985E+01  0.40936526253E+02  0.47000000000E+01 0.  1.
          5    1    4    4  502    0 -0.99568183237E+02 -0.89348727051E+01 -0.12569379133E+03  0.16066945647E+03  0.47000000000E+01 0.  1.
         -5    1    4    4    0  502  0.20222410442E+02 -0.20131715422E+02  0.87670441789E+01  0.30218916485E+02  0.47000000000E+01 0.  1.
<mgrwt>
<rscale>  0 0.30403895E+03</rscale>
<asrwt>0</asrwt>
<pdfrwt beam="1">  1       21 0.12960823E-01 0.30403895E+03</pdfrwt>
<pdfrwt beam="2">  1       21 0.42202595E-01 0.30403895E+03</pdfrwt>
<totfact> 0.26881589E+05</totfact>
</mgrwt>
</event>
<event>
 8    1  0.9373234E-006  0.3317074E+03  0.7546771E-02  0.1070384E+00
         21   -1    0    0  504  503  0.00000000000E+00  0.00000000000E+00  0.61906151557E+02  0.61906151557E+02  0.00000000000E+00 0.  1.
         21   -1    0    0  503  504 -0.00000000000E+00 -0.00000000000E+00 -0.44434119676E+03  0.44434119676E+03  0.00000000000E+00 0.  1.
         25    2    1    2    0    0 -0.27201308809E+02 -0.66189520931E+02 -0.65753551024E+02  0.15834957125E+03  0.12502037178E+03 0.  0.
         25    2    1    2    0    0  0.27201308809E+02  0.66189520931E+02 -0.31668149418E+03  0.34789777707E+03  0.12499892260E+03 0.  0.
          5    1    3    3  501    0 -0.53528826984E+02  0.14800137931E+02 -0.10474659701E+02  0.56711444144E+02  0.47000000000E+01 0. -1.
         -5    1    3    3    0  501  0.26327518175E+02 -0.80989658861E+02 -0.55278891323E+02  0.10163812711E+03  0.47000000000E+01 0. -1.
          5    1    4    4  502    0 -0.63862206600E+01 -0.35446873006E+02 -0.94193887388E+02  0.10095465834E+03  0.47000000000E+01 0. -1.
         -5    1    4    4    0  502  0.33587529469E+02  0.10163639394E+03 -0.22248760679E+03  0.24694311872E+03  0.47000000000E+01 0. -1.
<mgrwt>
<rscale>  0 0.33170742E+03</rscale>
<asrwt>0</asrwt>
<pdfrwt beam="1">  1       21 0.95240231E-02 0.33170742E+03</pdfrwt>
<pdfrwt beam="2">  1       21 0.68360186E-01 0.33170742E+03</pdfrwt>
<totfact> 0.16599755E+05</totfact>
</mgrwt>
</event>
<event>
 8    1  0.9373234E-006  0.2596661E+03  0.7546771E-02  0.1107344E+00
         21   -1    0    0  504  503  0.00000000000E+00  0.00000000000E+00  0.96474472768E+02  0.96474472768E+02  0.00000000000E+00 0. -1.
         21   -1    0    0  503  504 -0.00000000000E+00 -0.00000000000E+00 -0.17472622253E+03  0.17472622253E+03  0.00000000000E+00 0. -1.
         25    2    1    2    0    0  0.12596542728E+02 -0.17802343028E+02 -0.67842645730E+02  0.14388763090E+03  0.12500171775E+03 0.  0.
         25    2    1    2    0    0 -0.12596542728E+02  0.17802343028E+02 -0.10409104029E+02  0.12731306440E+03  0.12499868245E+03 0.  0.
          5    1    3    3  501    0  0.48301611286E+02 -0.17445037923E+02  0.14872690646E+02  0.53671798256E+02  0.47000000000E+01 0. -1.
         -5    1    3    3    0  501 -0.35705068557E+02 -0.35730510458E+00 -0.82715336376E+02  0.90215832643E+02  0.47000000000E+01 0. -1.
          5    1    4    4  502    0  0.16328422292E+02  0.93243928746E+01  0.53279543943E+02  0.56695339137E+02  0.47000000000E+01 0. -1.
         -5    1    4    4    0  502 -0.28924965020E+02  0.84779501531E+01 -0.63688647972E+02  0.70617725259E+02  0.47000000000E+01 0. -1.
<mgrwt>
<rscale>  0 0.25966609E+03</rscale>
<asrwt>0</asrwt>
<pdfrwt beam="1">  1       21 0.14842227E-01 0.25966609E+03</pdfrwt>
<pdfrwt beam="2">  1       21 0.26880957E-01 0.25966609E+03</pdfrwt>
<totfact> 0.52048194E+05</totfact>
</mgrwt>
</event>
<event>
 8    1  0.9373234E-006  0.2855657E+03  0.7546771E-02  0.1092687E+00
         21   -1    0    0  504  503  0.00000000000E+00  0.00000000000E+00  0.16225326740E+03  0.16225326740E+03  0.00000000000E+00 0.  1.
         21   -1    0    0  503  504 -0.00000000000E+00 -0.00000000000E+00 -0.12564885167E+03  0.12564885167E+03  0.00000000000E+00 0.  1.
         25    2    1    2    0    0  0.55787325012E+01  0.13995575770E+02 -0.49594870848E+02  0.13531891992E+03  0.12499824190E+03 0.  0.
         25    2    1    2    0    0 -0.55787325012E+01 -0.13995575770E+02  0.86199286583E+02  0.15258319914E+03  0.12499726899E+03 0.  0.
          5    1    3    3  501    0  0.38620255249E+02  0.35195541327E+02  0.19287342261E+02  0.55895812153E+02  0.47000000000E+01 0.  1.
         -5    1    3    3    0  501 -0.33041522748E+02 -0.21199965557E+02 -0.68882213109E+02  0.79423107771E+02  0.47000000000E+01 0.  1.
          5    1    4    4  502    0  0.11352389444E+01  0.18269257490E+02 -0.27916135372E+02  0.33711350475E+02  0.47000000000E+01 0. -1.
         -5    1    4    4    0  502 -0.67139714457E+01 -0.32264833260E+02  0.11411542195E+03  0.11887184867E+03  0.47000000000E+01 0. -1.
<mgrwt>
<rscale>  0 0.28556566E+03</rscale>
<asrwt>0</asrwt>
<pdfrwt beam="1">  1       21 0.24962041E-01 0.28556566E+03</pdfrwt>
<pdfrwt beam="2">  1       21 0.19330593E-01 0.28556566E+03</pdfrwt>
<totfact> 0.36624105E+05</totfact>
</mgrwt>
</event>
<event>
 8    1  0.9373234E-006  0.2970374E+03  0.7546771E-02  0.1086731E+00
         21   -1    0    0  504  503  0.00000000000E+00  0.00000000000E+00  0.19848551030E+03  0.19848551030E+03  0.00000000000E+00 0. -1.
         21   -1    0    0  503  504 -0.00000000000E+00 -0.00000000000E+00 -0.11113052709E+03  0.11113052709E+03  0.00000000000E+00 0. -1.
         25    2    1    2    0    0 -0.53992716146E+02  0.57807899781E+02  0.29839051742E+02  0.15090429276E+03  0.12499907956E+03 0.  0.
         25    2    1    2    0    0  0.53992716146E+02 -0.57807899781E+02  0.57515931466E+02  0.15871174464E+03  0.12499747533E+03 0.  0.
          5    1    3    3  501    0 -0.26940464638E+02 -0.35754819234E+02  0.28707664828E+02  0.53389285004E+02  0.47000000000E+01 0. -1.
         -5    1    3    3    0  501 -0.27052251508E+02  0.93562719015E+02  0.11313869138E+01  0.97515007755E+02  0.47000000000E+01 0. -1.
          5    1    4    4  502    0  0.83030571931E+02 -0.53439041757E+02  0.57601546182E+01  0.99020585942E+02  0.47000000000E+01 0.  1.
         -5    1    4    4    0  502 -0.29037855785E+02 -0.43688580240E+01  0.51755776848E+02  0.59691158693E+02  0.47000000000E+01 0.  1.
<mgrwt>
<rscale>  0 0.29703737E+03</rscale>
<asrwt>0</asrwt>
<pdfrwt beam="1">  1       21 0.30536232E-01 0.29703737E+03</pdfrwt>
<pdfrwt beam="2">  1       21 0.17097004E-01 0.29703737E+03</pdfrwt>
<totfact> 0.31033171E+05</totfact>
</mgrwt>
</event>
<event>
 8    1  0.9373234E-006  0.2926797E+03  0.7546771E-02  0.1088958E+00
         21   -1    0    0  504  503  0.00000000000E+00  0.00000000000E+00  0.34386881255E+02  0.34386881255E+02  0.00000000000E+00 0. -1.
         21   -1    0    0  503  504 -0.00000000000E+00 -0.00000000000E+00 -0.62277699581E+03  0.62277699581E+03  0.00000000000E+00 0. -1.
         25    2    1    2    0    0 -0.47974618866E+02 -0.63851434723E+01 -0.42602279066E+03  0.44661341058E+03  0.12500314492E+03 0.  0.
         25    2    1    2    0    0  0.47974618866E+02  0.63851434723E+01 -0.16236732390E+03  0.21055046648E+03  0.12500406775E+03 0.  0.
          5    1    3    3  501    0  0.16013015357E+02 -0.40262435617E+02 -0.64256667914E+02  0.77643349710E+02  0.47000000000E+01 0. -1.
         -5    1    3    3    0  501 -0.63987634223E+02  0.33877292145E+02 -0.36176612274E+03  0.36897006087E+03  0.47000000000E+01 0. -1.
          5    1    4    4  502    0  0.58811959862E+02 -0.20924547872E+02 -0.20913645617E+02  0.66001165895E+02  0.47000000000E+01 0. -1.
         -5    1    4    4    0  502 -0.10837340997E+02  0.27309691344E+02 -0.14145367828E+03  0.14454930059E+03  0.47000000000E+01 0. -1.
<mgrwt>
<rscale>  0 0.29267975E+03</rscale>
<asrwt>0</asrwt>
<pdfrwt beam="1">  1       21 0.52902898E-02 0.29267975E+03</pdfrwt>
<pdfrwt beam="2">  1       21 0.95811839E-01 0.29267975E+03</pdfrwt>
<totfact> 0.21552517E+05</totfact>
</mgrwt>
</event>
<event>
 8    1  0.9373234E-006  0.3160578E+03  0.7546771E-02  0.1077478E+00
         21   -1    0    0  504  503  0.00000000000E+00  0.00000000000E+00  0.85676503977E+03  0.85676503977E+03  0.00000000000E+00 0.  1.
         21   -1    0    0  503  504 -0.00000000000E+00 -0.00000000000E+00 -0.29148161803E+02  0.29148161803E+02  0.00000000000E+00 0.  1.
         25    2    1    2    0    0  0.46380936412E+01  0.85474779220E+02  0.28781135717E+03  0.32525050281E+03  0.12500024987E+03 0.  0.
         25    2    1    2    0    0 -0.46380936412E+01 -0.85474779220E+02  0.53980552079E+03  0.56066269876E+03  0.12500084683E+03 0.  0.
          5    1    3    3  501    0 -0.38352149493E+02 -0.10702397080E+02  0.12498982206E+03  0.13126299667E+03  0.47000000000E+01 0.  1.
         -5    1    3    3    0  501  0.42990243134E+02  0.96177176300E+02  0.16282153511E+03  0.19398750615E+03  0.47000000000E+01 0.  1.
          5    1    4    4  502    0  0.38965674895E+02 -0.70153601123E+02  0.17110730473E+03  0.18904933563E+03  0.47000000000E+01 0. -1.
         -5    1    4    4    0  502 -0.43603768536E+02 -0.15321178097E+02  0.36869821606E+03  0.37161336312E+03  0.47000000000E+01 0. -1.
<mgrwt>
<rscale>  0 0.31605775E+03</rscale>
<asrwt>0</asrwt>
<pdfrwt beam="1">  1       21 0.13180999E+00 0.31605775E+03</pdfrwt>
<pdfrwt beam="2">  1       21 0.44843333E-02 0.31605775E+03</pdfrwt>
<totfact> 0.12916790E+05</totfact>
</mgrwt>
</event>
<event>
 8    1  0.9373234E-006  0.2937020E+03  0.7546771E-02  0.1088432E+00
         21   -1    0    0  504  503  0.00000000000E+00  0.00000000000E+00  0.12605416057E+03  0.12605416057E+03  0.00000000000E+00 0. -1.
         21   -1    0    0  503  504 -0.00000000000E+00 -0.00000000000E+00 -0.17107895125E+03  0.17107895125E+03  0.00000000000E+00 0. -1.
         25    2    1    2    0    0 -0.82344812236E+01  0.45317091649E+02 -0.85038461144E+02  0.15804165552E+03  0.12499671807E+03 0.  0.
         25    2    1    2    0    0  0.82344812236E+01 -0.45317091649E+02  0.40013670469E+02  0.13909145631E+03  0.12499557559E+03 0.  0.
          5    1    3    3  501    0  0.23790407291E+02  0.21767286388E+02 -0.10736943526E+03  0.11220554293E+03  0.47000000000E+01 0. -1.
         -5    1    3    3    0  501 -0.32024888515E+02  0.23549805261E+02  0.22330974115E+02  0.45836112588E+02  0.47000000000E+01 0. -1.
          5    1    4    4  502    0  0.34702711390E+02  0.19128803204E+02  0.54727521237E+02  0.67730206485E+02  0.47000000000E+01 0. -1.
         -5    1    4    4    0  502 -0.26468230166E+02 -0.64445894853E+02 -0.14713850768E+02  0.71361249821E+02  0.47000000000E+01 0. -1.
<mgrwt>
<rscale>  0 0.29370198E+03</rscale>
<asrwt>0</asrwt>
<pdfrwt beam="1">  1       21 0.19392948E-01 0.29370198E+03</pdfrwt>
<pdfrwt beam="2">  1       21 0.26319839E-01 0.29370198E+03</pdfrwt>
<totfact> 0.32811053E+05</totfact>
</mgrwt>
</event>
<event>
 8    1  0.9373234E-006  0.3059398E+03  0.7546771E-02  0.1082308E+00
         21   -1    0    0  504  503  0.00000000000E+00  0.00000000000E+00  0.19647420215E+03  0.19647420215E+03  0.00000000000E+00 0.  1.
         21   -1    0    0  503  504 -0.00000000000E+00 -0.00000000000E+00 -0.11909856321E+03  0.11909856321E+03  0.00000000000E+00 0.  1.
         25    2    1    2    0    0  0.32150466661E+02  0.82077547583E+02  0.40556739466E+02  0.15825152938E+03  0.12501328374E+03 0.  0.
         25    2    1    2    0    0 -0.32150466661E+02 -0.82077547583E+02  0.36818899476E+02  0.15732123598E+03  0.12499585437E+03 0.  0.
          5    1    3    3  501    0 -0.10528953442E+01 -0.32035751811E+02  0.18432850895E+02  0.37272751103E+02  0.47000000000E+01 0. -1.
         -5    1    3    3    0  501  0.33203362005E+02  0.11411329939E+03  0.22123888571E+02  0.12097877827E+03  0.47000000000E+01 0. -1.
          5    1    4    4  502    0 -0.38444720241E+02  0.12768104232E+02 -0.21095511844E+02  0.45914394476E+02  0.47000000000E+01 0.  1.
         -5    1    4    4    0  502  0.62942535804E+01 -0.94845651815E+02  0.57914411321E+02  0.11140684151E+03  0.47000000000E+01 0.  1.
<mgrwt>
<rscale>  0 0.30593983E+03</rscale>
<asrwt>0</asrwt>
<pdfrwt beam="1">  1       21 0.30226800E-01 0.30593983E+03</pdfrwt>
<pdfrwt beam="2">  1       21 0.18322856E-01 0.30593983E+03</pdfrwt>
<totfact> 0.27778618E+05</totfact>
</mgrwt>
</event>
<event>
 8    1  0.9373234E-006  0.2718332E+03  0.7546771E-02  0.1100235E+00
         21   -1    0    0  504  503  0.00000000000E+00  0.00000000000E+00  0.10500421789E+03  0.10500421789E+03  0.00000000000E+00 0.  1.
         21   -1    0    0  503  504 -0.00000000000E+00 -0.00000000000E+00 -0.17592930541E+03  0.17592930541E+03  0.00000000000E+00 0.  1.
         25    2    1    2    0    0 -0.42141073964E+02  0.32719482799E+02 -0.36756244091E+02  0.14079412406E+03  0.12500211686E+03 0.  0.
         25    2    1    2    0    0  0.42141073964E+02 -0.32719482799E+02 -0.34168843430E+02  0.14013939924E+03  0.12500042676E+03 0.  0.
          5    1    3    3  501    0 -0.10731793169E+02 -0.24696778206E+02  0.34442948649E+02  0.43971683502E+02  0.47000000000E+01 0. -1.
         -5    1    3    3    0  501 -0.31409280796E+02  0.57416261005E+02 -0.71199192740E+02  0.96822440553E+02  0.47000000000E+01 0. -1.
          5    1    4    4  502    0  0.39033352283E+02  0.43979468778E+02 -0.13841067449E+02  0.60592585459E+02  0.47000000000E+01 0.  1.
         -5    1    4    4    0  502  0.31077216814E+01 -0.76698951577E+02 -0.20327775982E+02  0.79546813785E+02  0.47000000000E+01 0.  1.
<mgrwt>
<rscale>  0 0.27183318E+03</rscale>
<asrwt>0</asrwt>
<pdfrwt beam="1">  1       21 0.16154495E-01 0.27183318E+03</pdfrwt>
<pdfrwt beam="2">  1       21 0.27066047E-01 0.27183318E+03</pdfrwt>
<totfact> 0.43857196E+05</totfact>
</mgrwt>
</event>
<event>
 8    1  0.9373234E-006  0.3603252E+03  0.7546771E-02  0.1058455E+00
         21   -1    0    0  504  503  0.00000000000E+00  0.00000000000E+00  0.86957849507E+02  0.86957849507E+02  0.00000000000E+00 0. -1.
         21   -1    0    0  503  504 -0.00000000000E+00 -0.00000000000E+00 -0.37326774907E+03  0.37326774907E+03  0.00000000000E+00 0. -1.
         25    2    1    2    0    0 -0.64196099566E+02  0.45729844905E+02 -0.11520969174E+02  0.14822208769E+03  0.12499878653E+03 0.  0.
         25    2    1    2    0    0  0.64196099566E+02 -0.45729844905E+02 -0.27478893039E+03  0.31200351089E+03  0.12499950651E+03 0.  0.
          5    1    3    3  501    0 -0.50395003008E+02  0.88185885087E+02  0.76604865034E+00  0.10168128386E+03  0.47000000000E+01 0. -1.
         -5    1    3    3    0  501 -0.13801096558E+02 -0.42456040182E+02 -0.12287017824E+02  0.46540803830E+02  0.47000000000E+01 0. -1.
          5    1    4    4  502    0  0.79398449494E+02  0.18097096925E+02 -0.14029907285E+03  0.16228844242E+03  0.47000000000E+01 0. -1.
         -5    1    4    4    0  502 -0.15202349927E+02 -0.63826941831E+02 -0.13448985754E+03  0.14971506847E+03  0.47000000000E+01 0. -1.
<mgrwt>
<rscale>  0 0.36032519E+03</rscale>
<asrwt>0</asrwt>
<pdfrwt beam="1">  1       21 0.13378131E-01 0.36032519E+03</pdfrwt>
<pdfrwt beam="2">  1       21 0.57425805E-01 0.36032519E+03</pdfrwt>
<totfact> 0.13096709E+05</totfact>
</mgrwt>
</event>
<event>
 8    1  0.9373234E-006  0.3016617E+03  0.7546771E-02  0.1084413E+00
         21   -1    0    0  504  503  0.00000000000E+00  0.00000000000E+00  0.15061708512E+04  0.15061708512E+04  0.00000000000E+00 0.  1.
         21   -1    0    0  503  504 -0.00000000000E+00 -0.00000000000E+00 -0.15104490316E+02  0.15104490316E+02  0.00000000000E+00 0.  1.
         25    2    1    2    0    0  0.70258736181E+02  0.20922128821E+02  0.53447748874E+03  0.55377289939E+03  0.12499685054E+03 0.  0.
         25    2    1    2    0    0 -0.70258736181E+02 -0.20922128821E+02  0.95658887210E+03  0.96750244208E+03  0.12499871890E+03 0.  0.
          5    1    3    3  501    0 -0.26275638674E+02  0.38318627002E+02  0.16979655216E+03  0.17610135005E+03  0.47000000000E+01 0.  1.
         -5    1    3    3    0  501  0.96534374855E+02 -0.17396498181E+02  0.36468093658E+03  0.37767154935E+03  0.47000000000E+01 0.  1.
          5    1    4    4  502    0 -0.53695462240E+02 -0.19398203084E+01  0.92611889520E+03  0.92768812842E+03  0.47000000000E+01 0. -1.
         -5    1    4    4    0  502 -0.16563273941E+02 -0.18982308513E+02  0.30469976905E+02  0.39814313666E+02  0.47000000000E+01 0. -1.
<mgrwt>
<rscale>  0 0.30166168E+03</rscale>
<asrwt>0</asrwt>
<pdfrwt beam="1">  1       21 0.23171847E+00 0.30166168E+03</pdfrwt>
<pdfrwt beam="2">  1       21 0.23237689E-02 0.30166168E+03</pdfrwt>
<totfact> 0.77443817E+04</totfact>
</mgrwt>
</event>
<event>
 8    1  0.9373234E-006  0.3026655E+03  0.7546771E-02  0.1083916E+00
         21   -1    0    0  504  503  0.00000000000E+00  0.00000000000E+00  0.13107390016E+03  0.13107390016E+03  0.00000000000E+00 0.  1.
         21   -1    0    0  503  504 -0.00000000000E+00 -0.00000000000E+00 -0.17472278312E+03  0.17472278312E+03  0.00000000000E+00 0.  1.
         25    2    1    2    0    0 -0.12566106575E+02 -0.72058654115E+01 -0.10676311920E+03  0.16501936070E+03  0.12499277681E+03 0.  0.
         25    2    1    2    0    0  0.12566106575E+02  0.72058654115E+01  0.63114236240E+02  0.14077732258E+03  0.12500006482E+03 0.  0.
          5    1    3    3  501    0  0.20422027413E+02  0.38365013039E+02 -0.98758294317E+02  0.10800103761E+03  0.47000000000E+01 0.  1.
         -5    1    3    3    0  501 -0.32988133987E+02 -0.45570878450E+02 -0.80048248798E+01  0.57018323091E+02  0.47000000000E+01 0.  1.
          5    1    4    4  502    0  0.55133280676E+02  0.69635413742E+01  0.77604990937E+02  0.95565653688E+02  0.47000000000E+01 0. -1.
         -5    1    4    4    0  502 -0.42567174101E+02  0.24232403723E+00 -0.14490754697E+02  0.45211668888E+02  0.47000000000E+01 0. -1.
<mgrwt>
<rscale>  0 0.30266547E+03</rscale>
<asrwt>0</asrwt>
<pdfrwt beam="1">  1       21 0.20165216E-01 0.30266547E+03</pdfrwt>
<pdfrwt beam="2">  1       21 0.26880428E-01 0.30266547E+03</pdfrwt>
<totfact> 0.29210622E+05</totfact>
</mgrwt>
</event>
<event>
 8    1  0.9373234E-006  0.2691240E+03  0.7546771E-02  0.1101782E+00
         21   -1    0    0  504  503  0.00000000000E+00  0.00000000000E+00  0.35704520206E+03  0.35704520206E+03  0.00000000000E+00 0. -1.
         21   -1    0    0  503  504 -0.00000000000E+00 -0.00000000000E+00 -0.50713291297E+02  0.50713291297E+02  0.00000000000E+00 0. -1.
         25    2    1    2    0    0 -0.40156135799E+02  0.44759966088E+01  0.10902810587E+03  0.17072184559E+03  0.12500508352E+03 0.  0.
         25    2    1    2    0    0  0.40156135799E+02 -0.44759966088E+01  0.19730380490E+03  0.23703664777E+03  0.12500012468E+03 0.  0.
          5    1    3    3  501    0 -0.70671244615E+02  0.38342256117E+02  0.90877714444E+02  0.12143064853E+03  0.47000000000E+01 0.  1.
         -5    1    3    3    0  501  0.30515108816E+02 -0.33866259508E+02  0.18150391426E+02  0.49291197064E+02  0.47000000000E+01 0.  1.
          5    1    4    4  502    0 -0.37626812937E+02  0.27352351564E+02  0.79924236336E+02  0.92595365660E+02  0.47000000000E+01 0. -1.
         -5    1    4    4    0  502  0.77782948736E+02 -0.31828348173E+02  0.11737956856E+03  0.14444128211E+03  0.47000000000E+01 0. -1.
<mgrwt>
<rscale>  0 0.26912404E+03</rscale>
<asrwt>0</asrwt>
<pdfrwt beam="1">  1       21 0.54930029E-01 0.26912404E+03</pdfrwt>
<pdfrwt beam="2">  1       21 0.78020451E-02 0.26912404E+03</pdfrwt>
<totfact> 0.38533547E+05</totfact>
</mgrwt>
</event>
<event>
 8    1  0.9373234E-006  0.3769429E+03  0.7546771E-02  0.1052070E+00
         21   -1    0    0  504  503  0.00000000000E+00  0.00000000000E+00  0.85925773157E+02  0.85925773157E+02  0.00000000000E+00 0. -1.
         21   -1    0    0  503  504 -0.00000000000E+00 -0.00000000000E+00 -0.41339730328E+03  0.41339730328E+03  0.00000000000E+00 0. -1.
         25    2    1    2    0    0 -0.80230258795E+02 -0.11234264983E+03 -0.12537422160E+03  0.22450290553E+03  0.12500037500E+03 0.  0.
         25    2    1    2    0    0  0.80230258795E+02  0.11234264983E+03 -0.20209730852E+03  0.27482017091E+03  0.12500015532E+03 0.  0.
          5    1    3    3  501    0 -0.59095930516E+02 -0.12995797254E+03 -0.13341532297E+03  0.19545624071E+03  0.47000000000E+01 0.  1.
         -5    1    3    3    0  501 -0.21134328280E+02  0.17615322703E+02  0.80411013664E+01  0.29046664816E+02  0.47000000000E+01 0.  1.
          5    1    4    4  502    0 -0.33183064310E+02  0.34660568584E+02 -0.61283252424E+02  0.77975623109E+02  0.47000000000E+01 0. -1.
         -5    1    4    4    0  502  0.11341332311E+03  0.77682081251E+02 -0.14081405610E+03  0.19684454780E+03  0.47000000000E+01 0. -1.
<mgrwt>
<rscale>  0 0.37694288E+03</rscale>
<asrwt>0</asrwt>
<pdfrwt beam="1">  1       21 0.13219350E-01 0.37694288E+03</pdfrwt>
<pdfrwt beam="2">  1       21 0.63599586E-01 0.37694288E+03</pdfrwt>
<totfact> 0.10670816E+05</totfact>
</mgrwt>
</event>
<event>
 8    1  0.9373234E-006  0.4206847E+03  0.7546771E-02  0.1036844E+00
         21   -1    0    0  504  503  0.00000000000E+00  0.00000000000E+00  0.41889700701E+03  0.41889700701E+03  0.00000000000E+00 0. -1.
         21   -1    0    0  503  504 -0.00000000000E+00 -0.00000000000E+00 -0.10561998349E+03  0.10561998349E+03  0.00000000000E+00 0. -1.
         25    2    1    2    0    0  0.16438601687E+03  0.39869205084E+02  0.15320190834E+03  0.26020582056E+03  0.12499571304E+03 0.  0.
         25    2    1    2    0    0 -0.16438601687E+03 -0.39869205084E+02  0.16007511519E+03  0.26431116994E+03  0.12499614392E+03 0.  0.
          5    1    3    3  501    0  0.13860244484E+03 -0.20760711133E+02  0.79335699162E+02  0.16111451829E+03  0.47000000000E+01 0. -1.
         -5    1    3    3    0  501  0.25783572033E+02  0.60629916217E+02  0.73866209178E+02  0.99091302270E+02  0.47000000000E+01 0. -1.
          5    1    4    4  502    0 -0.15146279175E+03  0.15448152299E+02  0.10465069632E+03  0.18480660415E+03  0.47000000000E+01 0.  1.
         -5    1    4    4    0  502 -0.12923225120E+02 -0.55317357383E+02  0.55424418865E+02  0.79504565792E+02  0.47000000000E+01 0.  1.
<mgrwt>
<rscale>  0 0.42068466E+03</rscale>
<asrwt>0</asrwt>
<pdfrwt beam="1">  1       21 0.64445693E-01 0.42068466E+03</pdfrwt>
<pdfrwt beam="2">  1       21 0.16249228E-01 0.42068466E+03</pdfrwt>
<totfact> 0.70113564E+04</totfact>
</mgrwt>
</event>
<event>
 8    1  0.9373234E-006  0.4835794E+03  0.7546771E-02  0.1018156E+00
         21   -1    0    0  504  503  0.00000000000E+00  0.00000000000E+00  0.63104227669E+02  0.63104227669E+02  0.00000000000E+00 0. -1.
         21   -1    0    0  503  504 -0.00000000000E+00 -0.00000000000E+00 -0.92643977650E+03  0.92643977650E+03  0.00000000000E+00 0. -1.
         25    2    1    2    0    0 -0.30565640402E+02  0.19070835300E+03 -0.58385673587E+03  0.62755259127E+03  0.12501852868E+03 0.  0.
         25    2    1    2    0    0  0.30565640402E+02 -0.19070835300E+03 -0.27947881296E+03  0.36199141290E+03  0.12500176736E+03 0.  0.
          5    1    3    3  501    0  0.11221716112E+02  0.24472838661E+02 -0.25699431111E+03  0.25844344195E+03  0.47000000000E+01 0. -1.
         -5    1    3    3    0  501 -0.41787356514E+02  0.16623551433E+03 -0.32686242476E+03  0.36910914932E+03  0.47000000000E+01 0. -1.
          5    1    4    4  502    0  0.74062250418E+01 -0.20036461474E+03 -0.22245908649E+03  0.29951788957E+03  0.47000000000E+01 0. -1.
         -5    1    4    4    0  502  0.23159415360E+02  0.96562617434E+01 -0.57019726474E+02  0.62473523335E+02  0.47000000000E+01 0. -1.
<mgrwt>
<rscale>  0 0.48357943E+03</rscale>
<asrwt>0</asrwt>
<pdfrwt beam="1">  1       21 0.97083429E-02 0.48357943E+03</pdfrwt>
<pdfrwt beam="2">  1       21 0.14252919E+00 0.48357943E+03</pdfrwt>
<totfact> 0.26041807E+04</totfact>
</mgrwt>
</event>
<event>
 8    1  0.9373234E-006  0.2726087E+03  0.7546771E-02  0.1099796E+00
         21   -1    0    0  504  503  0.00000000000E+00  0.00000000000E+00  0.12963262192E+03  0.12963262192E+03  0.00000000000E+00 0. -1.
         21   -1    0    0  503  504 -0.00000000000E+00 -0.00000000000E+00 -0.14331944051E+03  0.14331944051E+03  0.00000000000E+00 0. -1.
         25    2    1    2    0    0  0.50749755522E+02  0.16181931380E+02  0.40059109563E+01  0.13593366890E+03  0.12499808971E+03 0.  0.
         25    2    1    2    0    0 -0.50749755522E+02 -0.16181931380E+02 -0.17692729550E+02  0.13701839353E+03  0.12499445947E+03 0.  0.
          5    1    3    3  501    0 -0.41354137178E+02 -0.26597245829E+01  0.27631667480E+01  0.41796697084E+02  0.47000000000E+01 0.  1.
         -5    1    3    3    0  501  0.92103892701E+02  0.18841655963E+02  0.12427442083E+01  0.94136971819E+02  0.47000000000E+01 0.  1.
          5    1    4    4  502    0 -0.45163438807E+02 -0.12268422184E+02  0.50101238930E+02  0.68720262878E+02  0.47000000000E+01 0. -1.
         -5    1    4    4    0  502 -0.55863167154E+01 -0.39135091960E+01 -0.67793968479E+02  0.68298130654E+02  0.47000000000E+01 0. -1.
<mgrwt>
<rscale>  0 0.27260869E+03</rscale>
<asrwt>0</asrwt>
<pdfrwt beam="1">  1       21 0.19943480E-01 0.27260869E+03</pdfrwt>
<pdfrwt beam="2">  1       21 0.22049145E-01 0.27260869E+03</pdfrwt>
<totfact> 0.43893271E+05</totfact>
</mgrwt>
</event>
<event>
 8    1  0.9373234E-006  0.2887974E+03  0.7546771E-02  0.1090979E+00
         21   -1    0    0  504  503  0.00000000000E+00  0.00000000000E+00  0.33434332332E+02  0.33434332332E+02  0.00000000000E+00 0. -1.
         21   -1    0    0  503  504 -0.00000000000E+00 -0.00000000000E+00 -0.62363982419E+03  0.62363982419E+03  0.00000000000E+00 0. -1.
         25    2    1    2    0    0  0.31649038252E+02 -0.44413848183E+02 -0.40307394158E+03  0.42551781131E+03  0.12499021492E+03 0.  0.
         25    2    1    2    0    0 -0.31649038252E+02  0.44413848183E+02 -0.18713155028E+03  0.23155634521E+03  0.12500348942E+03 0.  0.
          5    1    3    3  501    0  0.17423270484E+02 -0.87781983706E+02 -0.28847667864E+03  0.30207636640E+03  0.47000000000E+01 0.  1.
         -5    1    3    3    0  501  0.14225767769E+02  0.43368135523E+02 -0.11459726295E+03  0.12344144491E+03  0.47000000000E+01 0.  1.
          5    1    4    4  502    0  0.44235409037E+02 -0.61459997988E+01 -0.67191474186E+02  0.80816637702E+02  0.47000000000E+01 0. -1.
         -5    1    4    4    0  502 -0.75884447289E+02  0.50559847982E+02 -0.11994007609E+03  0.15073970751E+03  0.47000000000E+01 0. -1.
<mgrwt>
<rscale>  0 0.28879738E+03</rscale>
<asrwt>0</asrwt>
<pdfrwt beam="1">  1       21 0.51437436E-02 0.28879738E+03</pdfrwt>
<pdfrwt beam="2">  1       21 0.95944585E-01 0.28879738E+03</pdfrwt>
<totfact> 0.22562953E+05</totfact>
</mgrwt>
</event>
<event>
 8    1  0.9373234E-006  0.2531676E+03  0.7546771E-02  0.1111319E+00
         21   -1    0    0  504  503  0.00000000000E+00  0.00000000000E+00  0.16374912160E+02  0.16374912160E+02  0.00000000000E+00 0.  1.
         21   -1    0    0  503  504 -0.00000000000E+00 -0.00000000000E+00 -0.97853697678E+03  0.97853697678E+03  0.00000000000E+00 0.  1.
         25    2    1    2    0    0 -0.21274025221E+01 -0.70583192227E+01 -0.40839551562E+03  0.42716305674E+03  0.12500813636E+03 0.  0.
         25    2    1    2    0    0  0.21274025221E+01  0.70583192227E+01 -0.55376654900E+03  0.56774883219E+03  0.12500799956E+03 0.  0.
          5    1    3    3  501    0  0.32867419035E+02 -0.27762920643E+02 -0.48725322899E+02  0.65171267352E+02  0.47000000000E+01 0.  1.
         -5    1    3    3    0  501 -0.34994821557E+02  0.20704601420E+02 -0.35967019272E+03  0.36199178939E+03  0.47000000000E+01 0.  1.
          5    1    4    4  502    0  0.60456993040E+02  0.18034623326E+02 -0.34049322774E+03  0.34632069500E+03  0.47000000000E+01 0.  1.
         -5    1    4    4    0  502 -0.58329590518E+02 -0.10976304104E+02 -0.21327332126E+03  0.22142813719E+03  0.47000000000E+01 0.  1.
<mgrwt>
<rscale>  0 0.25316759E+03</rscale>
<asrwt>0</asrwt>
<pdfrwt beam="1">  1       21 0.25192170E-02 0.25316759E+03</pdfrwt>
<pdfrwt beam="2">  1       21 0.15054416E+00 0.25316759E+03</pdfrwt>
<totfact> 0.24444050E+05</totfact>
</mgrwt>
</event>
<event>
 8    1  0.9373234E-006  0.3586929E+03  0.7546771E-02  0.1059103E+00
         21   -1    0    0  504  503  0.00000000000E+00  0.00000000000E+00  0.18579891896E+03  0.18579891896E+03  0.00000000000E+00 0. -1.
         21   -1    0    0  503  504 -0.00000000000E+00 -0.00000000000E+00 -0.17311808523E+03  0.17311808523E+03  0.00000000000E+00 0. -1.
         25    2    1    2    0    0 -0.13857816245E+02  0.10687797827E+03  0.76559784087E+02  0.18193962900E+03  0.12500274697E+03 0.  0.
         25    2    1    2    0    0  0.13857816245E+02 -0.10687797827E+03 -0.63878950359E+02  0.17697737520E+03  0.12500211888E+03 0.  0.
          5    1    3    3  501    0 -0.80441313185E+01  0.21691055856E+02 -0.34480370821E+02  0.41787509196E+02  0.47000000000E+01 0. -1.
         -5    1    3    3    0  501 -0.58136849268E+01  0.85186922411E+02  0.11104015491E+03  0.14015211980E+03  0.47000000000E+01 0. -1.
          5    1    4    4  502    0  0.10011541359E+02 -0.12370983299E+03 -0.15219724225E+02  0.12513226500E+03  0.47000000000E+01 0. -1.
         -5    1    4    4    0  502  0.38462748860E+01  0.16831854720E+02 -0.48659226134E+02  0.51845110202E+02  0.47000000000E+01 0. -1.
<mgrwt>
<rscale>  0 0.35869292E+03</rscale>
<asrwt>0</asrwt>
<pdfrwt beam="1">  1       21 0.28584449E-01 0.35869292E+03</pdfrwt>
<pdfrwt beam="2">  1       21 0.26633552E-01 0.35869292E+03</pdfrwt>
<totfact> 0.15020066E+05</totfact>
</mgrwt>
</event>
<event>
 8    1  0.9373234E-006  0.2990697E+03  0.7546771E-02  0.1085707E+00
         21   -1    0    0  504  503  0.00000000000E+00  0.00000000000E+00  0.80200599933E+03  0.80200599933E+03  0.00000000000E+00 0. -1.
         21   -1    0    0  503  504 -0.00000000000E+00 -0.00000000000E+00 -0.27880919786E+02  0.27880919786E+02  0.00000000000E+00 0. -1.
         25    2    1    2    0    0  0.24595550724E+02  0.15747984692E+02  0.59989414155E+03  0.61347450669E+03  0.12500019661E+03 0.  0.
         25    2    1    2    0    0 -0.24595550724E+02 -0.15747984692E+02  0.17423093799E+03  0.21641241243E+03  0.12499988945E+03 0.  0.
          5    1    3    3  501    0 -0.25388277167E+02  0.53068276223E+02  0.39054580731E+03  0.39497965032E+03  0.47000000000E+01 0. -1.
         -5    1    3    3    0  501  0.49983827891E+02 -0.37320291531E+02  0.20934833424E+03  0.21849485637E+03  0.47000000000E+01 0. -1.
          5    1    4    4  502    0 -0.55610220688E+02  0.90629615834E+01  0.24831364139E+02  0.61752089540E+02  0.47000000000E+01 0.  1.
         -5    1    4    4    0  502  0.31014669964E+02 -0.24810946275E+02  0.14939957385E+03  0.15466032289E+03  0.47000000000E+01 0.  1.
<mgrwt>
<rscale>  0 0.29906966E+03</rscale>
<asrwt>0</asrwt>
<pdfrwt beam="1">  1       21 0.12338552E+00 0.29906966E+03</pdfrwt>
<pdfrwt beam="2">  1       21 0.42893729E-02 0.29906966E+03</pdfrwt>
<totfact> 0.16568898E+05</totfact>
</mgrwt>
</event>
<event>
 8    1  0.9373234E-006  0.3643118E+03  0.7546771E-02  0.1056890E+00
         21   -1    0    0  504  503  0.00000000000E+00  0.00000000000E+00  0.94251067646E+02  0.94251067646E+02  0.00000000000E+00 0. -1.
         21   -1    0    0  503  504 -0.00000000000E+00 -0.00000000000E+00 -0.35204657135E+03  0.35204657135E+03  0.00000000000E+00 0. -1.
         25    2    1    2    0    0  0.18055863327E+02  0.14923161921E+02 -0.28867491876E+03  0.31543329207E+03  0.12496494734E+03 0.  0.
         25    2    1    2    0    0 -0.18055863327E+02 -0.14923161921E+02  0.30879415054E+02  0.13086434693E+03  0.12499289604E+03 0.  0.
          5    1    3    3  501    0  0.62363524185E+02  0.21451537741E+02 -0.89746409103E+02  0.11147145629E+03  0.47000000000E+01 0.  1.
         -5    1    3    3    0  501 -0.44307660858E+02 -0.65283758207E+01 -0.19892850966E+03  0.20396183578E+03  0.47000000000E+01 0.  1.
          5    1    4    4  502    0 -0.70018103418E+02 -0.23952485323E+02  0.15899808679E+02  0.75836338753E+02  0.47000000000E+01 0. -1.
         -5    1    4    4    0  502  0.51962240092E+02  0.90293234020E+01  0.14979606375E+02  0.55028008174E+02  0.47000000000E+01 0. -1.
<mgrwt>
<rscale>  0 0.36431176E+03</rscale>
<asrwt>0</asrwt>
<pdfrwt beam="1">  1       21 0.14500164E-01 0.36431176E+03</pdfrwt>
<pdfrwt beam="2">  1       21 0.54161010E-01 0.36431176E+03</pdfrwt>
<totfact> 0.12802763E+05</totfact>
</mgrwt>
</event>
<event>
 8    1  0.9373234E-006  0.2787992E+03  0.7546771E-02  0.1096347E+00
         21   -1    0    0  504  503  0.00000000000E+00  0.00000000000E+00  0.13445154766E+03  0.13445154766E+03  0.00000000000E+00 0. -1.
         21   -1    0    0  503  504 -0.00000000000E+00 -0.00000000000E+00 -0.14452972842E+03  0.14452972842E+03  0.00000000000E+00 0. -1.
         25    2    1    2    0    0 -0.29856479330E+02 -0.96940604354E+01 -0.58223831062E+02  0.14139855909E+03  0.12497261237E+03 0.  0.
         25    2    1    2    0    0  0.29856479330E+02  0.96940604354E+01  0.48145650308E+02  0.13758271699E+03  0.12500246480E+03 0.  0.
          5    1    3    3  501    0 -0.69848695333E+02  0.20525731449E+02 -0.13782810488E+02  0.74244203519E+02  0.47000000000E+01 0.  1.
         -5    1    3    3    0  501  0.39992216004E+02 -0.30219791884E+02 -0.44441020574E+02  0.67154355570E+02  0.47000000000E+01 0.  1.
          5    1    4    4  502    0  0.43991917734E+02  0.20452726980E+02 -0.30048117009E+02  0.57258905007E+02  0.47000000000E+01 0.  1.
         -5    1    4    4    0  502 -0.14135438404E+02 -0.10758666544E+02  0.78193767317E+02  0.80323811986E+02  0.47000000000E+01 0.  1.
<mgrwt>
<rscale>  0 0.27879918E+03</rscale>
<asrwt>0</asrwt>
<pdfrwt beam="1">  1       21 0.20684854E-01 0.27879918E+03</pdfrwt>
<pdfrwt beam="2">  1       21 0.22235343E-01 0.27879918E+03</pdfrwt>
<totfact> 0.40278665E+05</totfact>
</mgrwt>
</event>
<event>
 8    1  0.9373234E-006  0.2778006E+03  0.7546771E-02  0.1096896E+00
         21   -1    0    0  504  503  0.00000000000E+00  0.00000000000E+00  0.11559656620E+03  0.11559656620E+03  0.00000000000E+00 0. -1.
         21   -1    0    0  503  504 -0.00000000000E+00 -0.00000000000E+00 -0.16690198027E+03  0.16690198027E+03  0.00000000000E+00 0. -1.
         25    2    1    2    0    0  0.38624361809E+02  0.95841219335E+01  0.20788513148E+02  0.13280976894E+03  0.12499030254E+03 0.  0.
         25    2    1    2    0    0 -0.38624361809E+02 -0.95841219335E+01 -0.72093927221E+02  0.14968877753E+03  0.12500199622E+03 0.  0.
          5    1    3    3  501    0  0.50706632625E+02  0.12459585912E+01  0.66959860273E+02  0.84133393446E+02  0.47000000000E+01 0.  1.
         -5    1    3    3    0  501 -0.12082270816E+02  0.83381633423E+01 -0.46171347125E+02  0.48676375495E+02  0.47000000000E+01 0.  1.
          5    1    4    4  502    0 -0.20728166242E+01 -0.55019251992E+02  0.19862816429E+01  0.55294212837E+02  0.47000000000E+01 0.  1.
         -5    1    4    4    0  502 -0.36551545184E+02  0.45435130058E+02 -0.74080208864E+02  0.94394564696E+02  0.47000000000E+01 0.  1.
<mgrwt>
<rscale>  0 0.27780062E+03</rscale>
<asrwt>0</asrwt>
<pdfrwt beam="1">  1       21 0.17784087E-01 0.27780062E+03</pdfrwt>
<pdfrwt beam="2">  1       21 0.25677228E-01 0.27780062E+03</pdfrwt>
<totfact> 0.40594257E+05</totfact>
</mgrwt>
</event>
<event>
 8    1  0.9373234E-006  0.2612507E+03  0.7546771E-02  0.1106394E+00
         21   -1    0    0  504  503  0.00000000000E+00  0.00000000000E+00  0.22095972222E+03  0.22095972222E+03  0.00000000000E+00 0.  1.
         21   -1    0    0  503  504 -0.00000000000E+00 -0.00000000000E+00 -0.77222147605E+02  0.77222147605E+02  0.00000000000E+00 0.  1.
         25    2    1    2    0    0  0.88360663161E+01 -0.84114463517E+01  0.30879837859E+02  0.12933101066E+03  0.12499646969E+03 0.  0.
         25    2    1    2    0    0 -0.88360663161E+01  0.84114463517E+01  0.11285773676E+03  0.16885085917E+03  0.12499966159E+03 0.  0.
          5    1    3    3  501    0  0.97060384224E+01 -0.55136691057E+02 -0.20419645818E+02  0.59777201489E+02  0.47000000000E+01 0.  1.
         -5    1    3    3    0  501 -0.86997210629E+00  0.46725244705E+02  0.51299483677E+02  0.69553809168E+02  0.47000000000E+01 0.  1.
          5    1    4    4  502    0  0.38192239534E+02 -0.11018285433E+02 -0.50518653105E+01  0.40344282341E+02  0.47000000000E+01 0. -1.
         -5    1    4    4    0  502 -0.47028305850E+02  0.19429731785E+02  0.11790960207E+03  0.12850657683E+03  0.47000000000E+01 0. -1.
<mgrwt>
<rscale>  0 0.26125072E+03</rscale>
<asrwt>0</asrwt>
<pdfrwt beam="1">  1       21 0.33993803E-01 0.26125072E+03</pdfrwt>
<pdfrwt beam="2">  1       21 0.11880331E-01 0.26125072E+03</pdfrwt>
<totfact> 0.49145963E+05</totfact>
</mgrwt>
</event>
<event>
 8    1  0.9373234E-006  0.3175718E+03  0.7546771E-02  0.1076772E+00
         21   -1    0    0  504  503  0.00000000000E+00  0.00000000000E+00  0.50087307953E+03  0.50087307953E+03  0.00000000000E+00 0.  1.
         21   -1    0    0  503  504 -0.00000000000E+00 -0.00000000000E+00 -0.50338025365E+02  0.50338025365E+02  0.00000000000E+00 0.  1.
         25    2    1    2    0    0 -0.45607789481E+02 -0.59368603367E+01  0.75244581756E+02  0.15298821926E+03  0.12501332480E+03 0.  0.
         25    2    1    2    0    0  0.45607789481E+02  0.59368603367E+01  0.37529047241E+03  0.39822288563E+03  0.12499284455E+03 0.  0.
          5    1    3    3  501    0 -0.64081371584E+02 -0.52091941625E+02  0.53584470289E+02  0.98556471237E+02  0.47000000000E+01 0. -1.
         -5    1    3    3    0  501  0.18473582103E+02  0.46155081289E+02  0.21660111467E+02  0.54431748027E+02  0.47000000000E+01 0. -1.
          5    1    4    4  502    0  0.54840290771E+02 -0.51143923274E+02  0.20705173409E+03  0.22026272714E+03  0.47000000000E+01 0.  1.
         -5    1    4    4    0  502 -0.92325012903E+01  0.57080783611E+02  0.16823873832E+03  0.17796015849E+03  0.47000000000E+01 0.  1.
<mgrwt>
<rscale>  0 0.31757180E+03</rscale>
<asrwt>0</asrwt>
<pdfrwt beam="1">  1       21 0.77057394E-01 0.31757180E+03</pdfrwt>
<pdfrwt beam="2">  1       21 0.77443119E-02 0.31757180E+03</pdfrwt>
<totfact> 0.18340072E+05</totfact>
</mgrwt>
</event>
<event>
 8    1  0.9373234E-006  0.3741715E+03  0.7546771E-02  0.1053109E+00
         21   -1    0    0  504  503  0.00000000000E+00  0.00000000000E+00  0.10285414280E+04  0.10285414280E+04  0.00000000000E+00 0. -1.
         21   -1    0    0  503  504 -0.00000000000E+00 -0.00000000000E+00 -0.34029813814E+02  0.34029813814E+02  0.00000000000E+00 0. -1.
         25    2    1    2    0    0  0.11694540663E+03  0.63217091944E+02  0.37992140124E+03  0.42146345461E+03  0.12497417177E+03 0.  0.
         25    2    1    2    0    0 -0.11694540663E+03 -0.63217091944E+02  0.61459021291E+03  0.64110778716E+03  0.12500174443E+03 0.  0.
          5    1    3    3  501    0  0.53433487221E+01 -0.41056394944E+01  0.19502414897E+03  0.19519712174E+03  0.47000000000E+01 0.  1.
         -5    1    3    3    0  501  0.11160205791E+03  0.67322731439E+02  0.18489725226E+03  0.22626633287E+03  0.47000000000E+01 0.  1.
          5    1    4    4  502    0  0.25074952664E+02  0.29929807903E+01  0.90258783047E+02  0.93842682732E+02  0.47000000000E+01 0. -1.
         -5    1    4    4    0  502 -0.14202035930E+03 -0.66210072734E+02  0.52433142986E+03  0.54726510443E+03  0.47000000000E+01 0. -1.
<mgrwt>
<rscale>  0 0.37417148E+03</rscale>
<asrwt>0</asrwt>
<pdfrwt beam="1">  1       21 0.15823712E+00 0.37417148E+03</pdfrwt>
<pdfrwt beam="2">  1       21 0.52353568E-02 0.37417148E+03</pdfrwt>
<totfact> 0.59888783E+04</totfact>
</mgrwt>
</event>
<event>
 8    1  0.9373234E-006  0.3374441E+03  0.7546771E-02  0.1067890E+00
         21   -1    0    0  504  503  0.00000000000E+00  0.00000000000E+00  0.12422112581E+03  0.12422112581E+03  0.00000000000E+00 0. -1.
         21   -1    0    0  503  504 -0.00000000000E+00 -0.00000000000E+00 -0.22916490599E+03  0.22916490599E+03  0.00000000000E+00 0. -1.
         25    2    1    2    0    0  0.10968919104E+03  0.19060519376E+02 -0.30343134813E+02  0.17012296036E+03  0.12500437505E+03 0.  0.
         25    2    1    2    0    0 -0.10968919104E+03 -0.19060519376E+02 -0.74600645360E+02  0.18326307144E+03  0.12500030014E+03 0.  0.
          5    1    3    3  501    0  0.71083246742E+00  0.74244128698E+01  0.39239213049E+02  0.40217322511E+02  0.47000000000E+01 0.  1.
         -5    1    3    3    0  501  0.10897835857E+03  0.11636106506E+02 -0.69582347862E+02  0.12990563785E+03  0.47000000000E+01 0.  1.
          5    1    4    4  502    0 -0.54374524186E+02 -0.36289333134E+02  0.23172627873E+02  0.69516654568E+02  0.47000000000E+01 0.  1.
         -5    1    4    4    0  502 -0.55314666852E+02  0.17228813758E+02 -0.97773273234E+02  0.11374641687E+03  0.47000000000E+01 0.  1.
<mgrwt>
<rscale>  0 0.33744406E+03</rscale>
<asrwt>0</asrwt>
<pdfrwt beam="1">  1       21 0.19110942E-01 0.33744406E+03</pdfrwt>
<pdfrwt beam="2">  1       21 0.35256139E-01 0.33744406E+03</pdfrwt>
<totfact> 0.18770767E+05</totfact>
</mgrwt>
</event>
<event>
 8    1  0.9373234E-006  0.3668601E+03  0.7546771E-02  0.1055900E+00
         21   -1    0    0  504  503  0.00000000000E+00  0.00000000000E+00  0.39466161220E+02  0.39466161220E+02  0.00000000000E+00 0. -1.
         21   -1    0    0  503  504 -0.00000000000E+00 -0.00000000000E+00 -0.85254272985E+03  0.85254272985E+03  0.00000000000E+00 0. -1.
         25    2    1    2    0    0 -0.49374142262E+02 -0.11080479595E+03 -0.54634079507E+03  0.57343596028E+03  0.12500010978E+03 0.  0.
         25    2    1    2    0    0  0.49374142262E+02  0.11080479595E+03 -0.26673577355E+03  0.31857293079E+03  0.12500092244E+03 0.  0.
          5    1    3    3  501    0 -0.29976586773E+02 -0.52357297027E+02 -0.47599022943E+03  0.47982149891E+03  0.47000000000E+01 0.  1.
         -5    1    3    3    0  501 -0.19397555489E+02 -0.58447498926E+02 -0.70350565643E+02  0.93614461361E+02  0.47000000000E+01 0.  1.
          5    1    4    4  502    0 -0.16849877209E+02  0.76500981402E+00 -0.12903255001E+03  0.13021517793E+03  0.47000000000E+01 0.  1.
         -5    1    4    4    0  502  0.66224019471E+02  0.11003978614E+03 -0.13770322355E+03  0.18835775286E+03  0.47000000000E+01 0.  1.
<mgrwt>
<rscale>  0 0.36686013E+03</rscale>
<asrwt>0</asrwt>
<pdfrwt beam="1">  1       21 0.60717180E-02 0.36686013E+03</pdfrwt>
<pdfrwt beam="2">  1       21 0.13116040E+00 0.36686013E+03</pdfrwt>
<totfact> 0.76587097E+04</totfact>
</mgrwt>
</event>
<event>
 8    1  0.9373234E-006  0.2853820E+03  0.7546771E-02  0.1092785E+00
         21   -1    0    0  504  503  0.00000000000E+00  0.00000000000E+00  0.33111690545E+02  0.33111690545E+02  0.00000000000E+00 0. -1.
         21   -1    0    0  503  504 -0.00000000000E+00 -0.00000000000E+00 -0.61491051749E+03  0.61491051749E+03  0.00000000000E+00 0. -1.
         25    2    1    2    0    0 -0.56994594567E+02  0.31126401108E+02 -0.34257678379E+03  0.37041009642E+03  0.12501019989E+03 0.  0.
         25    2    1    2    0    0  0.56994594567E+02 -0.31126401108E+02 -0.23922204316E+03  0.27761211162E+03  0.12499624767E+03 0.  0.
          5    1    3    3  501    0 -0.76272281616E+02  0.21998871880E+02 -0.33909374145E+03  0.34829307601E+03  0.47000000000E+01 0. -1.
         -5    1    3    3    0  501  0.19277687049E+02  0.91275292285E+01 -0.34830423465E+01  0.22117020409E+02  0.47000000000E+01 0. -1.
          5    1    4    4  502    0  0.33215520902E+02  0.10084696066E+02 -0.22502875252E+03  0.22773888861E+03  0.47000000000E+01 0.  1.
         -5    1    4    4    0  502  0.23779073665E+02 -0.41211097174E+02 -0.14193290634E+02  0.49873223013E+02  0.47000000000E+01 0.  1.
<mgrwt>
<rscale>  0 0.28538204E+03</rscale>
<asrwt>0</asrwt>
<pdfrwt beam="1">  1       21 0.50941064E-02 0.28538204E+03</pdfrwt>
<pdfrwt beam="2">  1       21 0.94601615E-01 0.28538204E+03</pdfrwt>
<totfact> 0.23739600E+05</totfact>
</mgrwt>
</event>
<event>
 8    1  0.9373234E-006  0.3488053E+03  0.7546771E-02  0.1063106E+00
         21   -1    0    0  504  503  0.00000000000E+00  0.00000000000E+00  0.72427868593E+02  0.72427868593E+02  0.00000000000E+00 0. -1.
         21   -1    0    0  503  504 -0.00000000000E+00 -0.00000000000E+00 -0.41995266362E+03  0.41995266362E+03  0.00000000000E+00 0. -1.
         25    2    1    2    0    0  0.23819171868E+02  0.30874304107E+02 -0.33637225637E+03  0.36095905108E+03  0.12499826438E+03 0.  0.
         25    2    1    2    0    0 -0.23819171868E+02 -0.30874304107E+02 -0.11152538662E+02  0.13142148114E+03  0.12500660376E+03 0.  0.
          5    1    3    3  501    0  0.72947522075E+02  0.90381596559E+01 -0.23273729305E+03  0.24411424965E+03  0.47000000000E+01 0.  1.
         -5    1    3    3    0  501 -0.49128350207E+02  0.21836144451E+02 -0.10363496332E+03  0.11684480143E+03  0.47000000000E+01 0.  1.
          5    1    4    4  502    0  0.45739470820E+02 -0.74898042688E+01  0.21078971365E+02  0.51133251341E+02  0.47000000000E+01 0.  1.
         -5    1    4    4    0  502 -0.69558642688E+02 -0.23384499838E+02 -0.32231510027E+02  0.80288229797E+02  0.47000000000E+01 0.  1.
<mgrwt>
<rscale>  0 0.34880525E+03</rscale>
<asrwt>0</asrwt>
<pdfrwt beam="1">  1       21 0.11142749E-01 0.34880525E+03</pdfrwt>
<pdfrwt beam="2">  1       21 0.64608102E-01 0.34880525E+03</pdfrwt>
<totfact> 0.14144638E+05</totfact>
</mgrwt>
</event>
<event>
 8    1  0.9373234E-006  0.2512505E+03  0.7546771E-02  0.1112517E+00
         21   -1    0    0  504  503  0.00000000000E+00  0.00000000000E+00  0.76429479976E+03  0.76429479976E+03  0.00000000000E+00 0.  1.
         21   -1    0    0  503  504 -0.00000000000E+00 -0.00000000000E+00 -0.20648708155E+02  0.20648708155E+02  0.00000000000E+00 0.  1.
         25    2    1    2    0    0 -0.37164210165E+01 -0.10037012953E+02  0.39235382684E+03  0.41192337127E+03  0.12499913976E+03 0.  0.
         25    2    1    2    0    0  0.37164210165E+01  0.10037012953E+02  0.35129226476E+03  0.37302013665E+03  0.12499285440E+03 0.  0.
          5    1    3    3  501    0 -0.22266780056E+02  0.15144563013E+02  0.37471245989E+03  0.37570824436E+03  0.47000000000E+01 0.  1.
         -5    1    3    3    0  501  0.18550359039E+02 -0.25181575966E+02  0.17641366950E+02  0.36215126901E+02  0.47000000000E+01 0.  1.
          5    1    4    4  502    0  0.23366299776E+01 -0.21530208888E+02  0.33749685309E+03  0.33822363250E+03  0.47000000000E+01 0. -1.
         -5    1    4    4    0  502  0.13797910389E+01  0.31567221841E+02  0.13795411673E+02  0.34796504153E+02  0.47000000000E+01 0. -1.
<mgrwt>
<rscale>  0 0.25125047E+03</rscale>
<asrwt>0</asrwt>
<pdfrwt beam="1">  1       21 0.11758379E+00 0.25125047E+03</pdfrwt>
<pdfrwt beam="2">  1       21 0.31767249E-02 0.25125047E+03</pdfrwt>
<totfact> 0.31400684E+05</totfact>
</mgrwt>
</event>
<event>
 8    1  0.9373234E-006  0.2786722E+03  0.7546771E-02  0.1096416E+00
         21   -1    0    0  504  503  0.00000000000E+00  0.00000000000E+00  0.15824075905E+03  0.15824075905E+03  0.00000000000E+00 0.  1.
         21   -1    0    0  503  504 -0.00000000000E+00 -0.00000000000E+00 -0.12268997226E+03  0.12268997226E+03  0.00000000000E+00 0.  1.
         25    2    1    2    0    0  0.41647470860E+02  0.40633710406E+02 -0.25035627064E+01  0.13789714699E+03  0.12499498019E+03 0.  0.
         25    2    1    2    0    0 -0.41647470860E+02 -0.40633710406E+02  0.38054349499E+02  0.14303358432E+03  0.12499944991E+03 0.  0.
          5    1    3    3  501    0  0.14794436816E+02  0.77122172304E+02 -0.30566438470E+02  0.84398471446E+02  0.47000000000E+01 0. -1.
         -5    1    3    3    0  501  0.26853034043E+02 -0.36488461899E+02  0.28062875763E+02  0.53498675546E+02  0.47000000000E+01 0. -1.
          5    1    4    4  502    0 -0.63961694237E+02  0.16972879937E+02 -0.65896863011E+01  0.66668515422E+02  0.47000000000E+01 0. -1.
         -5    1    4    4    0  502  0.22314223377E+02 -0.57606590343E+02  0.44644035800E+02  0.76365068902E+02  0.47000000000E+01 0. -1.
<mgrwt>
<rscale>  0 0.27867224E+03</rscale>
<asrwt>0</asrwt>
<pdfrwt beam="1">  1       21 0.24344732E-01 0.27867224E+03</pdfrwt>
<pdfrwt beam="2">  1       21 0.18875380E-01 0.27867224E+03</pdfrwt>
<totfact> 0.40239798E+05</totfact>
</mgrwt>
</event>
<event>
 8    1  0.9373234E-006  0.3092089E+03  0.7546771E-02  0.1080726E+00
         21   -1    0    0  504  503  0.00000000000E+00  0.00000000000E+00  0.56627713696E+02  0.56627713696E+02  0.00000000000E+00 0. -1.
         21   -1    0    0  503  504 -0.00000000000E+00 -0.00000000000E+00 -0.42209973747E+03  0.42209973747E+03  0.00000000000E+00 0. -1.
         25    2    1    2    0    0  0.44322387786E+02 -0.67481066677E+02 -0.24783483856E+03  0.28903949874E+03  0.12491419537E+03 0.  0.
         25    2    1    2    0    0 -0.44322387786E+02  0.67481066677E+02 -0.11763718521E+03  0.18968795243E+03  0.12499937413E+03 0.  0.
          5    1    3    3  501    0  0.32647760202E+02 -0.97575818543E+02 -0.22965551058E+03  0.25169557038E+03  0.47000000000E+01 0.  1.
         -5    1    3    3    0  501  0.11674627584E+02  0.30094751866E+02 -0.18179327988E+02  0.37343928358E+02  0.47000000000E+01 0.  1.
          5    1    4    4  502    0 -0.14812188757E+02 -0.87363099293E+01  0.21698100418E+02  0.28082407459E+02  0.47000000000E+01 0. -1.
         -5    1    4    4    0  502 -0.29510199029E+02  0.76217376606E+02 -0.13933528563E+03  0.16160554497E+03  0.47000000000E+01 0. -1.
<mgrwt>
<rscale>  0 0.30920895E+03</rscale>
<asrwt>0</asrwt>
<pdfrwt beam="1">  1       21 0.87119558E-02 0.30920895E+03</pdfrwt>
<pdfrwt beam="2">  1       21 0.64938422E-01 0.30920895E+03</pdfrwt>
<totfact> 0.21895327E+05</totfact>
</mgrwt>
</event>
<event>
 8    1  0.9373234E-006  0.3808002E+03  0.7546771E-02  0.1050638E+00
         21   -1    0    0  504  503  0.00000000000E+00  0.00000000000E+00  0.52971899063E+02  0.52971899063E+02  0.00000000000E+00 0. -1.
         21   -1    0    0  503  504 -0.00000000000E+00 -0.00000000000E+00 -0.68436676922E+03  0.68436676922E+03  0.00000000000E+00 0. -1.
         25    2    1    2    0    0 -0.11651217724E+03 -0.79436645039E+02 -0.36845499619E+03  0.41384644399E+03  0.12499810782E+03 0.  0.
         25    2    1    2    0    0  0.11651217724E+03  0.79436645039E+02 -0.26293987397E+03  0.32349222430E+03  0.12499829535E+03 0.  0.
          5    1    3    3  501    0 -0.86058988606E+02 -0.95744072614E+02 -0.35288749201E+03  0.37566574103E+03  0.47000000000E+01 0.  1.
         -5    1    3    3    0  501 -0.30453188636E+02  0.16307427575E+02 -0.15567504181E+02  0.38180702962E+02  0.47000000000E+01 0.  1.
          5    1    4    4  502    0  0.11610737244E+03  0.55386223072E+02 -0.26902740543E+03  0.29823881457E+03  0.47000000000E+01 0.  1.
         -5    1    4    4    0  502  0.40480480432E+00  0.24050421967E+02  0.60875314663E+01  0.25253409732E+02  0.47000000000E+01 0.  1.
<mgrwt>
<rscale>  0 0.38080025E+03</rscale>
<asrwt>0</asrwt>
<pdfrwt beam="1">  1       21 0.81495233E-02 0.38080025E+03</pdfrwt>
<pdfrwt beam="2">  1       21 0.10528719E+00 0.38080025E+03</pdfrwt>
<totfact> 0.79128946E+04</totfact>
</mgrwt>
</event>
<event>
 8    1  0.9373234E-006  0.2643222E+03  0.7546771E-02  0.1104574E+00
         21   -1    0    0  504  503  0.00000000000E+00  0.00000000000E+00  0.26502039961E+02  0.26502039961E+02  0.00000000000E+00 0. -1.
         21   -1    0    0  503  504 -0.00000000000E+00 -0.00000000000E+00 -0.65906447258E+03  0.65906447258E+03  0.00000000000E+00 0. -1.
         25    2    1    2    0    0  0.30408529357E+02  0.28101144940E+02 -0.34561812165E+03  0.36985026181E+03  0.12499190832E+03 0.  0.
         25    2    1    2    0    0 -0.30408529357E+02 -0.28101144940E+02 -0.28694431098E+03  0.31571625073E+03  0.12500144148E+03 0.  0.
          5    1    3    3  501    0  0.23693303224E+02  0.29254839687E+02 -0.35518166405E+03  0.35720207550E+03  0.47000000000E+01 0. -1.
         -5    1    3    3    0  501  0.67152261333E+01 -0.11536947465E+01  0.95635424056E+01  0.12648186310E+02  0.47000000000E+01 0. -1.
          5    1    4    4  502    0 -0.91710248746E+01 -0.74550171117E+02 -0.12566029877E+03  0.14647332998E+03  0.47000000000E+01 0. -1.
         -5    1    4    4    0  502 -0.21237504482E+02  0.46449026177E+02 -0.16128401221E+03  0.16924292075E+03  0.47000000000E+01 0. -1.
<mgrwt>
<rscale>  0 0.26432217E+03</rscale>
<asrwt>0</asrwt>
<pdfrwt beam="1">  1       21 0.40772372E-02 0.26432217E+03</pdfrwt>
<pdfrwt beam="2">  1       21 0.10139453E+00 0.26432217E+03</pdfrwt>
<totfact> 0.29538593E+05</totfact>
</mgrwt>
</event>
<event>
 8    1  0.9373234E-006  0.3373472E+03  0.7546771E-02  0.1067931E+00
         21   -1    0    0  504  503  0.00000000000E+00  0.00000000000E+00  0.61874327387E+03  0.61874327387E+03  0.00000000000E+00 0. -1.
         21   -1    0    0  503  504 -0.00000000000E+00 -0.00000000000E+00 -0.45981568336E+02  0.45981568336E+02  0.00000000000E+00 0. -1.
         25    2    1    2    0    0 -0.96164569171E+02  0.59691611214E+02  0.29380671935E+03  0.33876348690E+03  0.12501039519E+03 0.  0.
         25    2    1    2    0    0  0.96164569171E+02 -0.59691611214E+02  0.27895498618E+03  0.32596135530E+03  0.12499683205E+03 0.  0.
          5    1    3    3  501    0 -0.71969794851E+02 -0.87614709065E+01  0.61040490148E+02  0.94891760342E+02  0.47000000000E+01 0. -1.
         -5    1    3    3    0  501 -0.24194774320E+02  0.68453082121E+02  0.23276622920E+03  0.24387172656E+03  0.47000000000E+01 0. -1.
          5    1    4    4  502    0 -0.22781784746E+02  0.14790974828E+02  0.35943957935E+02  0.45297248974E+02  0.47000000000E+01 0.  1.
         -5    1    4    4    0  502  0.11894635392E+03 -0.74482586042E+02  0.24301102824E+03  0.28066410633E+03  0.47000000000E+01 0.  1.
<mgrwt>
<rscale>  0 0.33734722E+03</rscale>
<asrwt>0</asrwt>
<pdfrwt beam="1">  1       21 0.95191267E-01 0.33734722E+03</pdfrwt>
<pdfrwt beam="2">  1       21 0.70740879E-02 0.33734722E+03</pdfrwt>
<totfact> 0.13087599E+05</totfact>
</mgrwt>
</event>
<event>
 8    1  0.9373234E-006  0.2689730E+03  0.7546771E-02  0.1101869E+00
         21   -1    0    0  504  503  0.00000000000E+00  0.00000000000E+00  0.97638551528E+02  0.97638551528E+02  0.00000000000E+00 0. -1.
         21   -1    0    0  503  504 -0.00000000000E+00 -0.00000000000E+00 -0.18524060202E+03  0.18524060202E+03  0.00000000000E+00 0. -1.
         25    2    1    2    0    0  0.25282085462E+02 -0.35175443748E+02 -0.69235297696E+02  0.14931401570E+03  0.12499861259E+03 0.  0.
         25    2    1    2    0    0 -0.25282085462E+02  0.35175443748E+02 -0.18366752792E+02  0.13356513784E+03  0.12500325096E+03 0.  0.
          5    1    3    3  501    0 -0.50089719335E+02 -0.23907664270E+02 -0.24817262510E+02  0.60979856612E+02  0.47000000000E+01 0.  1.
         -5    1    3    3    0  501  0.75371804797E+02 -0.11267779478E+02 -0.44418035186E+02  0.88334159092E+02  0.47000000000E+01 0.  1.
          5    1    4    4  502    0 -0.60835150787E+02 -0.21350763465E+02 -0.21185850047E+01  0.64678814725E+02  0.47000000000E+01 0.  1.
         -5    1    4    4    0  502  0.35553065325E+02  0.56526207213E+02 -0.16248167787E+02  0.68886323115E+02  0.47000000000E+01 0.  1.
<mgrwt>
<rscale>  0 0.26897304E+03</rscale>
<asrwt>0</asrwt>
<pdfrwt beam="1">  1       21 0.15021316E-01 0.26897304E+03</pdfrwt>
<pdfrwt beam="2">  1       21 0.28498554E-01 0.26897304E+03</pdfrwt>
<totfact> 0.45371025E+05</totfact>
</mgrwt>
</event>
<event>
 8    1  0.9373234E-006  0.3387512E+03  0.7546771E-02  0.1067329E+00
         21   -1    0    0  504  503  0.00000000000E+00  0.00000000000E+00  0.26952846523E+03  0.26952846523E+03  0.00000000000E+00 0.  1.
         21   -1    0    0  503  504 -0.00000000000E+00 -0.00000000000E+00 -0.10643808486E+03  0.10643808486E+03  0.00000000000E+00 0.  1.
         25    2    1    2    0    0  0.84834993766E+02 -0.72127152267E+02  0.53003143780E+02  0.17560845341E+03  0.12501877218E+03 0.  0.
         25    2    1    2    0    0 -0.84834993766E+02  0.72127152267E+02  0.11008723659E+03  0.20035809668E+03  0.12499945993E+03 0.  0.
          5    1    3    3  501    0  0.11276452302E+03 -0.34235314687E+02  0.24758528080E+02  0.12051128220E+03  0.47000000000E+01 0. -1.
         -5    1    3    3    0  501 -0.27929529256E+02 -0.37891837579E+02  0.28244615700E+02  0.55097171213E+02  0.47000000000E+01 0. -1.
          5    1    4    4  502    0 -0.10073118321E+03  0.43355516396E+02  0.30199809124E+02  0.11384458943E+03  0.47000000000E+01 0. -1.
         -5    1    4    4    0  502  0.15896189440E+02  0.28771635871E+02  0.79887427461E+02  0.86513507244E+02  0.47000000000E+01 0. -1.
<mgrwt>
<rscale>  0 0.33875120E+03</rscale>
<asrwt>0</asrwt>
<pdfrwt beam="1">  1       21 0.41465918E-01 0.33875120E+03</pdfrwt>
<pdfrwt beam="2">  1       21 0.16375090E-01 0.33875120E+03</pdfrwt>
<totfact> 0.18008889E+05</totfact>
</mgrwt>
</event>
<event>
 8    1  0.9373234E-006  0.3339916E+03  0.7546771E-02  0.1069384E+00
         21   -1    0    0  504  503  0.00000000000E+00  0.00000000000E+00  0.18096201011E+03  0.18096201011E+03  0.00000000000E+00 0. -1.
         21   -1    0    0  503  504 -0.00000000000E+00 -0.00000000000E+00 -0.15410751033E+03  0.15410751033E+03  0.00000000000E+00 0. -1.
         25    2    1    2    0    0  0.85592651656E+02 -0.47873419612E+02 -0.38167243316E+02  0.16339924724E+03  0.12499843684E+03 0.  0.
         25    2    1    2    0    0 -0.85592651656E+02  0.47873419612E+02  0.65021743092E+02  0.17167027320E+03  0.12499955721E+03 0.  0.
          5    1    3    3  501    0 -0.14344087451E+02  0.17105854153E+02  0.20307014013E+02  0.30542231569E+02  0.47000000000E+01 0.  1.
         -5    1    3    3    0  501  0.99936739107E+02 -0.64979273765E+02 -0.58474257329E+02  0.13285701567E+03  0.47000000000E+01 0.  1.
          5    1    4    4  502    0 -0.63521891516E+02  0.32747878493E+02  0.10270777733E+03  0.12521354468E+03  0.47000000000E+01 0. -1.
         -5    1    4    4    0  502 -0.22070760140E+02  0.15125541119E+02 -0.37686034242E+02  0.46456728514E+02  0.47000000000E+01 0. -1.
<mgrwt>
<rscale>  0 0.33399165E+03</rscale>
<asrwt>0</asrwt>
<pdfrwt beam="1">  1       21 0.27840309E-01 0.33399165E+03</pdfrwt>
<pdfrwt beam="2">  1       21 0.23708848E-01 0.33399165E+03</pdfrwt>
<totfact> 0.19913176E+05</totfact>
</mgrwt>
</event>
<event>
 8    1  0.9373234E-006  0.2798540E+03  0.7546771E-02  0.1095769E+00
         21   -1    0    0  504  503  0.00000000000E+00  0.00000000000E+00  0.34791963560E+03  0.34791963560E+03  0.00000000000E+00 0. -1.
         21   -1    0    0  503  504 -0.00000000000E+00 -0.00000000000E+00 -0.56276112562E+02  0.56276112562E+02  0.00000000000E+00 0. -1.
         25    2    1    2    0    0  0.53542954346E+02  0.18463177980E+02  0.10640739560E+03  0.17366302866E+03  0.12501430631E+03 0.  0.
         25    2    1    2    0    0 -0.53542954346E+02 -0.18463177980E+02  0.18523612744E+03  0.23053271951E+03  0.12500069981E+03 0.  0.
          5    1    3    3  501    0  0.93718649646E+02  0.18333302927E+02  0.84827913925E+02  0.12781690134E+03  0.47000000000E+01 0. -1.
         -5    1    3    3    0  501 -0.40175695301E+02  0.12987505299E+00  0.21579481679E+02  0.45846127317E+02  0.47000000000E+01 0. -1.
          5    1    4    4  502    0  0.35765815293E+02  0.17964027408E+02  0.62436954026E+02  0.74312603590E+02  0.47000000000E+01 0.  1.
         -5    1    4    4    0  502 -0.89308769638E+02 -0.36427205388E+02  0.12279917341E+03  0.15622011592E+03  0.47000000000E+01 0.  1.
<mgrwt>
<rscale>  0 0.27985399E+03</rscale>
<asrwt>0</asrwt>
<pdfrwt beam="1">  1       21 0.53526096E-01 0.27985399E+03</pdfrwt>
<pdfrwt beam="2">  1       21 0.86578637E-02 0.27985399E+03</pdfrwt>
<totfact> 0.33839043E+05</totfact>
</mgrwt>
</event>
<event>
 8    1  0.9373234E-006  0.2651632E+03  0.7546771E-02  0.1104080E+00
         21   -1    0    0  504  503  0.00000000000E+00  0.00000000000E+00  0.25518115237E+02  0.25518115237E+02  0.00000000000E+00 0. -1.
         21   -1    0    0  503  504 -0.00000000000E+00 -0.00000000000E+00 -0.68883943165E+03  0.68883943165E+03  0.00000000000E+00 0. -1.
         25    2    1    2    0    0  0.57407425535E+01  0.29536121727E+02 -0.24448686568E+03  0.27623217158E+03  0.12500018605E+03 0.  0.
         25    2    1    2    0    0 -0.57407425535E+01 -0.29536121727E+02 -0.41883445074E+03  0.43812537531E+03  0.12500483493E+03 0.  0.
          5    1    3    3  501    0 -0.58727801739E+02  0.40798278406E+01 -0.10881499476E+03  0.12380788657E+03  0.47000000000E+01 0. -1.
         -5    1    3    3    0  501  0.64468544293E+02  0.25456293887E+02 -0.13567187092E+03  0.15242428501E+03  0.47000000000E+01 0. -1.
          5    1    4    4  502    0 -0.55325382485E+02  0.38763743925E+01 -0.10737440792E+03  0.12094328300E+03  0.47000000000E+01 0. -1.
         -5    1    4    4    0  502  0.49584639932E+02 -0.33412496120E+02 -0.31146004282E+03  0.31718209231E+03  0.47000000000E+01 0. -1.
<mgrwt>
<rscale>  0 0.26516323E+03</rscale>
<asrwt>0</asrwt>
<pdfrwt beam="1">  1       21 0.39258639E-02 0.26516323E+03</pdfrwt>
<pdfrwt beam="2">  1       21 0.10597530E+00 0.26516323E+03</pdfrwt>
<totfact> 0.28289308E+05</totfact>
</mgrwt>
</event>
<event>
 8    1  0.9373234E-006  0.5300456E+03  0.7546771E-02  0.1006221E+00
         21   -1    0    0  504  503  0.00000000000E+00  0.00000000000E+00  0.74825791816E+03  0.74825791816E+03  0.00000000000E+00 0.  1.
         21   -1    0    0  503  504 -0.00000000000E+00 -0.00000000000E+00 -0.93867469327E+02  0.93867469327E+02  0.00000000000E+00 0.  1.
         25    2    1    2    0    0  0.21596897492E+03  0.84837355853E+02  0.28301478312E+03  0.38673019007E+03  0.12499158920E+03 0.  0.
         25    2    1    2    0    0 -0.21596897492E+03 -0.84837355853E+02  0.37137566571E+03  0.45539519742E+03  0.12499970266E+03 0.  0.
          5    1    3    3  501    0  0.21054830174E+03  0.10370966051E+03  0.28141999881E+03  0.36647726639E+03  0.47000000000E+01 0.  1.
         -5    1    3    3    0  501  0.54206731800E+01 -0.18872304658E+02  0.15947843150E+01  0.20252923686E+02  0.47000000000E+01 0.  1.
          5    1    4    4  502    0 -0.48281958627E+02 -0.79594478233E+02  0.10351920439E+03  0.13930091232E+03  0.47000000000E+01 0.  1.
         -5    1    4    4    0  502 -0.16768701630E+03 -0.52428776200E+01  0.26785646132E+03  0.31609428510E+03  0.47000000000E+01 0.  1.
<mgrwt>
<rscale>  0 0.53004557E+03</rscale>
<asrwt>0</asrwt>
<pdfrwt beam="1">  1       21 0.11511660E+00 0.53004557E+03</pdfrwt>
<pdfrwt beam="2">  1       21 0.14441150E-01 0.53004557E+03</pdfrwt>
<totfact> 0.21721066E+04</totfact>
</mgrwt>
</event>
<event>
 8    1  0.9373234E-006  0.3384588E+03  0.7546771E-02  0.1067454E+00
         21   -1    0    0  504  503  0.00000000000E+00  0.00000000000E+00  0.49742700243E+02  0.49742700243E+02  0.00000000000E+00 0.  1.
         21   -1    0    0  503  504 -0.00000000000E+00 -0.00000000000E+00 -0.57573445455E+03  0.57573445455E+03  0.00000000000E+00 0.  1.
         25    2    1    2    0    0 -0.27421123384E+02 -0.10091012130E+03 -0.17871447423E+03  0.24186299645E+03  0.12499630060E+03 0.  0.
         25    2    1    2    0    0  0.27421123384E+02  0.10091012130E+03 -0.34727728008E+03  0.38361415834E+03  0.12499417041E+03 0.  0.
          5    1    3    3  501    0 -0.39839392888E+02 -0.12350694127E+03 -0.11691315959E+03  0.17473385091E+03  0.47000000000E+01 0. -1.
         -5    1    3    3    0  501  0.12418269504E+02  0.22596819969E+02 -0.61801314639E+02  0.67129145542E+02  0.47000000000E+01 0. -1.
          5    1    4    4  502    0 -0.39232947172E+02  0.64976848570E+02 -0.24324411057E+03  0.25485486521E+03  0.47000000000E+01 0.  1.
         -5    1    4    4    0  502  0.66654070556E+02  0.35933272731E+02 -0.10403316950E+03  0.12875929313E+03  0.47000000000E+01 0.  1.
<mgrwt>
<rscale>  0 0.33845878E+03</rscale>
<asrwt>0</asrwt>
<pdfrwt beam="1">  1       21 0.76527232E-02 0.33845878E+03</pdfrwt>
<pdfrwt beam="2">  1       21 0.88574531E-01 0.33845878E+03</pdfrwt>
<totfact> 0.13512968E+05</totfact>
</mgrwt>
</event>
<event>
 8    1  0.9373234E-006  0.3555515E+03  0.7546771E-02  0.1060359E+00
         21   -1    0    0  504  503  0.00000000000E+00  0.00000000000E+00  0.32951713493E+03  0.32951713493E+03  0.00000000000E+00 0.  1.
         21   -1    0    0  503  504 -0.00000000000E+00 -0.00000000000E+00 -0.95910705752E+02  0.95910705752E+02  0.00000000000E+00 0.  1.
         25    2    1    2    0    0 -0.55692130532E+02 -0.11170575574E+03  0.92937159421E+02  0.19961511023E+03  0.12501634838E+03 0.  0.
         25    2    1    2    0    0  0.55692130532E+02  0.11170575574E+03  0.14066926976E+03  0.22581273046E+03  0.12499502595E+03 0.  0.
          5    1    3    3  501    0 -0.40920641826E+02 -0.70224087254E+02 -0.15148187728E+02  0.82809896447E+02  0.47000000000E+01 0. -1.
         -5    1    3    3    0  501 -0.14771488706E+02 -0.41481668481E+02  0.10808534715E+03  0.11680521378E+03  0.47000000000E+01 0. -1.
          5    1    4    4  502    0  0.39427413272E+02  0.12721620559E+03  0.15033440081E+03  0.20090048768E+03  0.47000000000E+01 0.  1.
         -5    1    4    4    0  502  0.16264717260E+02 -0.15510449853E+02 -0.96651310478E+01  0.24912242781E+02  0.47000000000E+01 0.  1.
<mgrwt>
<rscale>  0 0.35555152E+03</rscale>
<asrwt>0</asrwt>
<pdfrwt beam="1">  1       21 0.50694943E-01 0.35555152E+03</pdfrwt>
<pdfrwt beam="2">  1       21 0.14755493E-01 0.35555152E+03</pdfrwt>
<totfact> 0.14301284E+05</totfact>
</mgrwt>
</event>
<event>
 8    1  0.9373234E-006  0.4014926E+03  0.7546771E-02  0.1043264E+00
         21   -1    0    0  504  503  0.00000000000E+00  0.00000000000E+00  0.19682265268E+04  0.19682265268E+04  0.00000000000E+00 0. -1.
         21   -1    0    0  503  504 -0.00000000000E+00 -0.00000000000E+00 -0.20474812649E+02  0.20474812649E+02  0.00000000000E+00 0. -1.
         25    2    1    2    0    0 -0.86380563893E+02 -0.11835571412E+03  0.12543801814E+04  0.12690803768E+04  0.12500274620E+03 0.  0.
         25    2    1    2    0    0  0.86380563893E+02  0.11835571412E+03  0.69337153274E+03  0.71962096258E+03  0.12498228068E+03 0.  0.
          5    1    3    3  501    0 -0.54109713289E+02 -0.20830887065E+01  0.18257962265E+03  0.19049831741E+03  0.47000000000E+01 0.  1.
         -5    1    3    3    0  501 -0.32270850604E+02 -0.11627262541E+03  0.10718005587E+04  0.10785820594E+04  0.47000000000E+01 0.  1.
          5    1    4    4  502    0 -0.35725724268E+01 -0.23675807275E+02  0.88729189354E+02  0.92023182771E+02  0.47000000000E+01 0.  1.
         -5    1    4    4    0  502  0.89953136319E+02  0.14203152139E+03  0.60464234338E+03  0.62759777980E+03  0.47000000000E+01 0.  1.
<mgrwt>
<rscale>  0 0.40149256E+03</rscale>
<asrwt>0</asrwt>
<pdfrwt beam="1">  1       21 0.30280393E+00 0.40149256E+03</pdfrwt>
<pdfrwt beam="2">  1       21 0.31499727E-02 0.40149256E+03</pdfrwt>
<totfact> 0.16624311E+04</totfact>
</mgrwt>
</event>
<event>
 8    1  0.9373234E-006  0.2901034E+03  0.7546771E-02  0.1090295E+00
         21   -1    0    0  504  503  0.00000000000E+00  0.00000000000E+00  0.24702209370E+03  0.24702209370E+03  0.00000000000E+00 0.  1.
         21   -1    0    0  503  504 -0.00000000000E+00 -0.00000000000E+00 -0.85174528455E+02  0.85174528455E+02  0.00000000000E+00 0.  1.
         25    2    1    2    0    0  0.21650540442E+02 -0.70078166785E+02  0.87621508288E+02  0.16936039276E+03  0.12500287421E+03 0.  0.
         25    2    1    2    0    0 -0.21650540442E+02  0.70078166785E+02  0.74226056961E+02  0.16283622940E+03  0.12500573871E+03 0.  0.
          5    1    3    3  501    0  0.12846845983E+01 -0.35505992196E+01  0.98585902245E+02  0.98770072851E+02  0.47000000000E+01 0.  1.
         -5    1    3    3    0  501  0.20365855844E+02 -0.66527567565E+02 -0.10964393958E+02  0.70590319912E+02  0.47000000000E+01 0.  1.
          5    1    4    4  502    0 -0.48612763112E+02  0.45730890284E+01 -0.12634999003E+02  0.50654191144E+02  0.47000000000E+01 0. -1.
         -5    1    4    4    0  502  0.26962222670E+02  0.65505077756E+02  0.86861055964E+02  0.11218203825E+03  0.47000000000E+01 0. -1.
<mgrwt>
<rscale>  0 0.29010336E+03</rscale>
<asrwt>0</asrwt>
<pdfrwt beam="1">  1       21 0.38003399E-01 0.29010336E+03</pdfrwt>
<pdfrwt beam="2">  1       21 0.13103774E-01 0.29010336E+03</pdfrwt>
<totfact> 0.32727408E+05</totfact>
</mgrwt>
</event>
<event>
 8    1  0.9373234E-006  0.2630237E+03  0.7546771E-02  0.1105340E+00
         21   -1    0    0  504  503  0.00000000000E+00  0.00000000000E+00  0.13520752836E+03  0.13520752836E+03  0.00000000000E+00 0. -1.
         21   -1    0    0  503  504 -0.00000000000E+00 -0.00000000000E+00 -0.12791722784E+03  0.12791722784E+03  0.00000000000E+00 0. -1.
         25    2    1    2    0    0 -0.11583427707E+02 -0.38443658610E+02  0.11263069025E+02  0.13177729605E+03  0.12500523327E+03 0.  0.
         25    2    1    2    0    0  0.11583427707E+02  0.38443658610E+02 -0.39727685049E+01  0.13134746015E+03  0.12499712682E+03 0.  0.
          5    1    3    3  501    0 -0.30600106136E+02 -0.23740397890E+02  0.63247210042E+02  0.74311994763E+02  0.47000000000E+01 0.  1.
         -5    1    3    3    0  501  0.19016678430E+02 -0.14703260720E+02 -0.51984141017E+02  0.57465301283E+02  0.47000000000E+01 0.  1.
          5    1    4    4  502    0 -0.46096870965E+02 -0.11664803384E+02 -0.22153943905E+02  0.52667602767E+02  0.47000000000E+01 0.  1.
         -5    1    4    4    0  502  0.57680298671E+02  0.50108461994E+02  0.18181175400E+02  0.78679857379E+02  0.47000000000E+01 0.  1.
<mgrwt>
<rscale>  0 0.26302374E+03</rscale>
<asrwt>0</asrwt>
<pdfrwt beam="1">  1       21 0.20801158E-01 0.26302374E+03</pdfrwt>
<pdfrwt beam="2">  1       21 0.19679574E-01 0.26302374E+03</pdfrwt>
<totfact> 0.50342823E+05</totfact>
</mgrwt>
</event>
<event>
 8    1  0.9373234E-006  0.2568503E+03  0.7546771E-02  0.1109051E+00
         21   -1    0    0  504  503  0.00000000000E+00  0.00000000000E+00  0.11617319078E+03  0.11617319078E+03  0.00000000000E+00 0. -1.
         21   -1    0    0  503  504 -0.00000000000E+00 -0.00000000000E+00 -0.14196928106E+03  0.14196928106E+03  0.00000000000E+00 0. -1.
         25    2    1    2    0    0 -0.21409819345E+02 -0.10947013789E+02 -0.30006557370E+02  0.13078523602E+03  0.12500466792E+03 0.  0.
         25    2    1    2    0    0  0.21409819345E+02  0.10947013789E+02  0.42104670918E+01  0.12735723581E+03  0.12499567995E+03 0.  0.
          5    1    3    3  501    0 -0.62656831029E+02 -0.41511099119E+02 -0.23117378037E+02  0.78775332383E+02  0.47000000000E+01 0. -1.
         -5    1    3    3    0  501  0.41247011685E+02  0.30564085329E+02 -0.68891793330E+01  0.52009903642E+02  0.47000000000E+01 0. -1.
          5    1    4    4  502    0  0.48499045592E+02 -0.26504895171E+02  0.40270117195E+02  0.68545161976E+02  0.47000000000E+01 0. -1.
         -5    1    4    4    0  502 -0.27089226247E+02  0.37451908961E+02 -0.36059650103E+02  0.58812073837E+02  0.47000000000E+01 0. -1.
<mgrwt>
<rscale>  0 0.25685034E+03</rscale>
<asrwt>0</asrwt>
<pdfrwt beam="1">  1       21 0.17872799E-01 0.25685034E+03</pdfrwt>
<pdfrwt beam="2">  1       21 0.21841428E-01 0.25685034E+03</pdfrwt>
<totfact> 0.55012553E+05</totfact>
</mgrwt>
</event>
<event>
 8    1  0.9373234E-006  0.2594705E+03  0.7546771E-02  0.1107462E+00
         21   -1    0    0  504  503  0.00000000000E+00  0.00000000000E+00  0.42876146268E+02  0.42876146268E+02  0.00000000000E+00 0.  1.
         21   -1    0    0  503  504 -0.00000000000E+00 -0.00000000000E+00 -0.39255463839E+03  0.39255463839E+03  0.00000000000E+00 0.  1.
         25    2    1    2    0    0  0.18315540039E+02 -0.29261616850E+02 -0.16874687830E+03  0.21281989966E+03  0.12500039811E+03 0.  0.
         25    2    1    2    0    0 -0.18315540039E+02  0.29261616850E+02 -0.18093161383E+03  0.22261088500E+03  0.12501062360E+03 0.  0.
          5    1    3    3  501    0 -0.49195795852E+02  0.10566337821E+01 -0.10068498219E+03  0.11216460423E+03  0.47000000000E+01 0. -1.
         -5    1    3    3    0  501  0.67511335890E+02 -0.30318250632E+02 -0.68061896110E+02  0.10065529543E+03  0.47000000000E+01 0. -1.
          5    1    4    4  502    0  0.41807209009E+02  0.28372961606E+02 -0.14207506524E+03  0.15086511141E+03  0.47000000000E+01 0. -1.
         -5    1    4    4    0  502 -0.60122749048E+02  0.88865524372E+00 -0.38856548581E+02  0.71745773596E+02  0.47000000000E+01 0. -1.
<mgrwt>
<rscale>  0 0.25947046E+03</rscale>
<asrwt>0</asrwt>
<pdfrwt beam="1">  1       21 0.65963298E-02 0.25947046E+03</pdfrwt>
<pdfrwt beam="2">  1       21 0.60393025E-01 0.25947046E+03</pdfrwt>
<totfact> 0.42185120E+05</totfact>
</mgrwt>
</event>
<event>
 8    1  0.9373234E-006  0.3298024E+03  0.7546771E-02  0.1071224E+00
         21   -1    0    0  504  503  0.00000000000E+00  0.00000000000E+00  0.13074567540E+02  0.13074567540E+02  0.00000000000E+00 0.  1.
         21   -1    0    0  503  504 -0.00000000000E+00 -0.00000000000E+00 -0.20797935884E+04  0.20797935884E+04  0.00000000000E+00 0.  1.
         25    2    1    2    0    0  0.10532178052E+03 -0.20238636570E+02 -0.98190745182E+03  0.99562466471E+03  0.12499579659E+03 0.  0.
         25    2    1    2    0    0 -0.10532178052E+03  0.20238636570E+02 -0.10848115691E+04  0.10972434913E+04  0.12499943550E+03 0.  0.
          5    1    3    3  501    0  0.64653750371E+02 -0.59829640237E+01 -0.16226769667E+03  0.17483935106E+03  0.47000000000E+01 0.  1.
         -5    1    3    3    0  501  0.40668030150E+02 -0.14255672546E+02 -0.81963975515E+03  0.82078531365E+03  0.47000000000E+01 0.  1.
          5    1    4    4  502    0 -0.11884581049E+03 -0.79855174546E+01 -0.99301675385E+03  0.10001462186E+04  0.47000000000E+01 0.  1.
         -5    1    4    4    0  502  0.13524029971E+02  0.28224154025E+02 -0.91794815212E+02  0.97097272654E+02  0.47000000000E+01 0.  1.
<mgrwt>
<rscale>  0 0.32980238E+03</rscale>
<asrwt>0</asrwt>
<pdfrwt beam="1">  1       21 0.20114720E-02 0.32980238E+03</pdfrwt>
<pdfrwt beam="2">  1       21 0.31996824E+00 0.32980238E+03</pdfrwt>
<totfact> 0.28765805E+04</totfact>
</mgrwt>
</event>
<event>
 8    1  0.9373234E-006  0.3715928E+03  0.7546771E-02  0.1054086E+00
         21   -1    0    0  504  503  0.00000000000E+00  0.00000000000E+00  0.16026372208E+03  0.16026372208E+03  0.00000000000E+00 0. -1.
         21   -1    0    0  503  504 -0.00000000000E+00 -0.00000000000E+00 -0.21539688457E+03  0.21539688457E+03  0.00000000000E+00 0. -1.
         25    2    1    2    0    0 -0.20147030013E+02 -0.13502916760E+03 -0.11279874717E+02  0.18543145556E+03  0.12497523842E+03 0.  0.
         25    2    1    2    0    0  0.20147030013E+02  0.13502916760E+03 -0.43853287775E+02  0.19022915109E+03  0.12500096061E+03 0.  0.
          5    1    3    3  501    0  0.49662837957E+02 -0.64606740707E+02 -0.24646555010E+02  0.85264125472E+02  0.47000000000E+01 0. -1.
         -5    1    3    3    0  501 -0.69809867970E+02 -0.70422426895E+02  0.13366680293E+02  0.10016733009E+03  0.47000000000E+01 0. -1.
          5    1    4    4  502    0  0.87116246250E+00  0.56457189237E+02 -0.82790326997E+02  0.10032198854E+03  0.47000000000E+01 0. -1.
         -5    1    4    4    0  502  0.19275867551E+02  0.78571978365E+02  0.38937039222E+02  0.89907162548E+02  0.47000000000E+01 0. -1.
<mgrwt>
<rscale>  0 0.37159282E+03</rscale>
<asrwt>0</asrwt>
<pdfrwt beam="1">  1       21 0.24655957E-01 0.37159282E+03</pdfrwt>
<pdfrwt beam="2">  1       21 0.33137982E-01 0.37159282E+03</pdfrwt>
<totfact> 0.12978672E+05</totfact>
</mgrwt>
</event>
<event>
 8    1  0.9373234E-006  0.4067768E+03  0.7546771E-02  0.1041458E+00
         21   -1    0    0  504  503  0.00000000000E+00  0.00000000000E+00  0.13676291875E+03  0.13676291875E+03  0.00000000000E+00 0. -1.
         21   -1    0    0  503  504 -0.00000000000E+00 -0.00000000000E+00 -0.30247122762E+03  0.30247122762E+03  0.00000000000E+00 0. -1.
         25    2    1    2    0    0  0.11746263871E+03  0.10927558197E+03 -0.84136533235E+02  0.22009893719E+03  0.12500384643E+03 0.  0.
         25    2    1    2    0    0 -0.11746263871E+03 -0.10927558197E+03 -0.81571775639E+02  0.21913520918E+03  0.12501064362E+03 0.  0.
          5    1    3    3  501    0 -0.12951191379E+02  0.21761822658E+02 -0.54392564934E+02  0.60182650353E+02  0.47000000000E+01 0. -1.
         -5    1    3    3    0  501  0.13041383009E+03  0.87513759308E+02 -0.29743968301E+02  0.15991628684E+03  0.47000000000E+01 0. -1.
          5    1    4    4  502    0 -0.13931410910E+03 -0.11125038025E+03 -0.60428990731E+02  0.18830512744E+03  0.47000000000E+01 0. -1.
         -5    1    4    4    0  502  0.21851470395E+02  0.19747982796E+01 -0.21142784907E+02  0.30830081744E+02  0.47000000000E+01 0. -1.
<mgrwt>
<rscale>  0 0.40677683E+03</rscale>
<asrwt>0</asrwt>
<pdfrwt beam="1">  1       21 0.21040449E-01 0.40677683E+03</pdfrwt>
<pdfrwt beam="2">  1       21 0.46534035E-01 0.40677683E+03</pdfrwt>
<totfact> 0.87142382E+04</totfact>
</mgrwt>
</event>
<event>
 8    1  0.9373234E-006  0.3531628E+03  0.7546771E-02  0.1061324E+00
         21   -1    0    0  504  503  0.00000000000E+00  0.00000000000E+00  0.22732956941E+02  0.22732956941E+02  0.00000000000E+00 0.  1.
         21   -1    0    0  503  504 -0.00000000000E+00 -0.00000000000E+00 -0.13716205830E+04  0.13716205830E+04  0.00000000000E+00 0.  1.
         25    2    1    2    0    0 -0.59141972920E+02  0.10706908788E+03 -0.57822280281E+03  0.60409319840E+03  0.12500168046E+03 0.  0.
         25    2    1    2    0    0  0.59141972920E+02 -0.10706908788E+03 -0.77066482325E+03  0.79026034155E+03  0.12500230032E+03 0.  0.
          5    1    3    3  501    0 -0.31829458072E+02  0.67925036355E+02 -0.10885675979E+03  0.13228306436E+03  0.47000000000E+01 0.  1.
         -5    1    3    3    0  501 -0.27312514849E+02  0.39144051524E+02 -0.46936604302E+03  0.47181013404E+03  0.47000000000E+01 0.  1.
          5    1    4    4  502    0  0.56575961142E+02  0.53989336507E+01 -0.17531583668E+03  0.18435758854E+03  0.47000000000E+01 0. -1.
         -5    1    4    4    0  502  0.25660117783E+01 -0.11246802153E+03 -0.59534898658E+03  0.60590275301E+03  0.47000000000E+01 0. -1.
<mgrwt>
<rscale>  0 0.35316280E+03</rscale>
<asrwt>0</asrwt>
<pdfrwt beam="1">  1       21 0.34973778E-02 0.35316280E+03</pdfrwt>
<pdfrwt beam="2">  1       21 0.21101856E+00 0.35316280E+03</pdfrwt>
<totfact> 0.51710688E+04</totfact>
</mgrwt>
</event>
<event>
 8    1  0.9373234E-006  0.2843796E+03  0.7546771E-02  0.1093321E+00
         21   -1    0    0  504  503  0.00000000000E+00  0.00000000000E+00  0.13839879157E+03  0.13839879157E+03  0.00000000000E+00 0.  1.
         21   -1    0    0  503  504 -0.00000000000E+00 -0.00000000000E+00 -0.14608465070E+03  0.14608465070E+03  0.00000000000E+00 0.  1.
         25    2    1    2    0    0 -0.46494416109E+02  0.29623668716E+02  0.35598691740E+02  0.14117592392E+03  0.12499632860E+03 0.  0.
         25    2    1    2    0    0  0.46494416109E+02 -0.29623668716E+02 -0.43284550872E+02  0.14330751836E+03  0.12499679994E+03 0.  0.
          5    1    3    3  501    0 -0.66217812096E+02 -0.30009582415E+02  0.11585665251E+02  0.73767820320E+02  0.47000000000E+01 0.  1.
         -5    1    3    3    0  501  0.19723395987E+02  0.59633251131E+02  0.24013026490E+02  0.67408103599E+02  0.47000000000E+01 0.  1.
          5    1    4    4  502    0  0.74140646460E+02 -0.51564589013E+02 -0.43344396309E+01  0.90535184677E+02  0.47000000000E+01 0.  1.
         -5    1    4    4    0  502 -0.27646230352E+02  0.21940920297E+02 -0.38950111241E+02  0.52772333678E+02  0.47000000000E+01 0.  1.
<mgrwt>
<rscale>  0 0.28437960E+03</rscale>
<asrwt>0</asrwt>
<pdfrwt beam="1">  1       21 0.21292122E-01 0.28437960E+03</pdfrwt>
<pdfrwt beam="2">  1       21 0.22474562E-01 0.28437960E+03</pdfrwt>
<totfact> 0.37324267E+05</totfact>
</mgrwt>
</event>
<event>
 8    1  0.9373234E-006  0.2510931E+03  0.7546771E-02  0.1112616E+00
         21   -1    0    0  504  503  0.00000000000E+00  0.00000000000E+00  0.66506158713E+02  0.66506158713E+02  0.00000000000E+00 0. -1.
         21   -1    0    0  503  504 -0.00000000000E+00 -0.00000000000E+00 -0.23699972958E+03  0.23699972958E+03  0.00000000000E+00 0. -1.
         25    2    1    2    0    0  0.40340961821E+01 -0.10968281066E+02 -0.84795874343E+02  0.15149806822E+03  0.12499898899E+03 0.  0.
         25    2    1    2    0    0 -0.40340961821E+01  0.10968281066E+02 -0.85697696524E+02  0.15200782007E+03  0.12500282018E+03 0.  0.
          5    1    3    3  501    0  0.24770206988E+02 -0.53916556847E+02 -0.67344271417E+01  0.59899922917E+02  0.47000000000E+01 0.  1.
         -5    1    3    3    0  501 -0.20736110806E+02  0.42948275781E+02 -0.78061447202E+02  0.91598145304E+02  0.47000000000E+01 0.  1.
          5    1    4    4  502    0  0.52338967420E+02 -0.12376400162E+02 -0.10402794581E+02  0.54980459498E+02  0.47000000000E+01 0.  1.
         -5    1    4    4    0  502 -0.56373063602E+02  0.23344681228E+02 -0.75294901943E+02  0.97027360575E+02  0.47000000000E+01 0.  1.
<mgrwt>
<rscale>  0 0.25109314E+03</rscale>
<asrwt>0</asrwt>
<pdfrwt beam="1">  1       21 0.10231717E-01 0.25109314E+03</pdfrwt>
<pdfrwt beam="2">  1       21 0.36461497E-01 0.25109314E+03</pdfrwt>
<totfact> 0.55913634E+05</totfact>
</mgrwt>
</event>
<event>
 8    1  0.9373234E-006  0.2585160E+03  0.7546771E-02  0.1108038E+00
         21   -1    0    0  504  503  0.00000000000E+00  0.00000000000E+00  0.20235528492E+03  0.20235528492E+03  0.00000000000E+00 0. -1.
         21   -1    0    0  503  504 -0.00000000000E+00 -0.00000000000E+00 -0.82565803841E+02  0.82565803841E+02  0.00000000000E+00 0. -1.
         25    2    1    2    0    0 -0.20040591661E+02  0.22682186132E+02  0.45680262268E+02  0.13648146103E+03  0.12499758382E+03 0.  0.
         25    2    1    2    0    0  0.20040591661E+02 -0.22682186132E+02  0.74109218807E+02  0.14843962773E+03  0.12500415948E+03 0.  0.
          5    1    3    3  501    0 -0.20781106498E+02  0.69031116732E+02  0.52618335714E+02  0.89375213107E+02  0.47000000000E+01 0. -1.
         -5    1    3    3    0  501  0.74051483681E+00 -0.46348930600E+02 -0.69380734462E+01  0.47106247920E+02  0.47000000000E+01 0. -1.
          5    1    4    4  502    0 -0.22783969642E+02 -0.63709194557E+02  0.28923270673E+02  0.73733413933E+02  0.47000000000E+01 0. -1.
         -5    1    4    4    0  502  0.42824561303E+02  0.41027008425E+02  0.45185948134E+02  0.74706213797E+02  0.47000000000E+01 0. -1.
<mgrwt>
<rscale>  0 0.25851597E+03</rscale>
<asrwt>0</asrwt>
<pdfrwt beam="1">  1       21 0.31131582E-01 0.25851597E+03</pdfrwt>
<pdfrwt beam="2">  1       21 0.12702431E-01 0.25851597E+03</pdfrwt>
<totfact> 0.51874914E+05</totfact>
</mgrwt>
</event>
<event>
 8    1  0.9373234E-006  0.2875731E+03  0.7546771E-02  0.1091623E+00
         21   -1    0    0  504  503  0.00000000000E+00  0.00000000000E+00  0.66410292602E+03  0.66410292602E+03  0.00000000000E+00 0.  1.
         21   -1    0    0  503  504 -0.00000000000E+00 -0.00000000000E+00 -0.31131587340E+02  0.31131587340E+02  0.00000000000E+00 0.  1.
         25    2    1    2    0    0  0.25380707777E+02 -0.38285382883E+02  0.44757733199E+03  0.46696951582E+03  0.12500043888E+03 0.  0.
         25    2    1    2    0    0 -0.25380707777E+02  0.38285382883E+02  0.18539400669E+03  0.22826499754E+03  0.12499608200E+03 0.  0.
          5    1    3    3  501    0  0.57512735408E+02  0.34977667682E+01  0.36025379639E+03  0.36486276450E+03  0.47000000000E+01 0.  1.
         -5    1    3    3    0  501 -0.32132027632E+02 -0.41783149651E+02  0.87323535602E+02  0.10210675132E+03  0.47000000000E+01 0.  1.
          5    1    4    4  502    0  0.25365016017E+02  0.64165203674E+02  0.64620863893E+02  0.94649371104E+02  0.47000000000E+01 0.  1.
         -5    1    4    4    0  502 -0.50745723794E+02 -0.25879820791E+02  0.12077314279E+03  0.13361562644E+03  0.47000000000E+01 0.  1.
<mgrwt>
<rscale>  0 0.28757314E+03</rscale>
<asrwt>0</asrwt>
<pdfrwt beam="1">  1       21 0.10216967E+00 0.28757314E+03</pdfrwt>
<pdfrwt beam="2">  1       21 0.47894755E-02 0.28757314E+03</pdfrwt>
<totfact> 0.21935456E+05</totfact>
</mgrwt>
</event>
<event>
 8    1  0.9373234E-006  0.3171991E+03  0.7546771E-02  0.1076946E+00
         21   -1    0    0  504  503  0.00000000000E+00  0.00000000000E+00  0.16936079879E+03  0.16936079879E+03  0.00000000000E+00 0.  1.
         21   -1    0    0  503  504 -0.00000000000E+00 -0.00000000000E+00 -0.14852206642E+03  0.14852206642E+03  0.00000000000E+00 0.  1.
         25    2    1    2    0    0 -0.25304270309E+02  0.92103879622E+02  0.30677603356E+02  0.16027867264E+03  0.12499882726E+03 0.  0.
         25    2    1    2    0    0  0.25304270309E+02 -0.92103879622E+02 -0.98388709790E+01  0.15760419257E+03  0.12497538716E+03 0.  0.
          5    1    3    3  501    0  0.24892770320E+02 -0.21330694928E+02  0.83384210926E+01  0.34150663634E+02  0.47000000000E+01 0. -1.
         -5    1    3    3    0  501 -0.50197040629E+02  0.11343457455E+03  0.22339182263E+02  0.12612800900E+03  0.47000000000E+01 0. -1.
          5    1    4    4  502    0 -0.23771119759E+02  0.20777775593E+02  0.85902335139E+01  0.33055471635E+02  0.47000000000E+01 0.  1.
         -5    1    4    4    0  502  0.49075390068E+02 -0.11288165522E+03 -0.18429104493E+02  0.12454872094E+03  0.47000000000E+01 0.  1.
<mgrwt>
<rscale>  0 0.31719909E+03</rscale>
<asrwt>0</asrwt>
<pdfrwt beam="1">  1       21 0.26055508E-01 0.31719909E+03</pdfrwt>
<pdfrwt beam="2">  1       21 0.22849549E-01 0.31719909E+03</pdfrwt>
<totfact> 0.24401043E+05</totfact>
</mgrwt>
</event>
<event>
 8    1  0.9373234E-006  0.3570331E+03  0.7546771E-02  0.1059765E+00
         21   -1    0    0  504  503  0.00000000000E+00  0.00000000000E+00  0.42017485288E+02  0.42017485288E+02  0.00000000000E+00 0. -1.
         21   -1    0    0  503  504 -0.00000000000E+00 -0.00000000000E+00 -0.75845007721E+03  0.75845007721E+03  0.00000000000E+00 0. -1.
         25    2    1    2    0    0  0.56177432962E+02 -0.11245214747E+03 -0.31100668316E+03  0.35798377689E+03  0.12500335237E+03 0.  0.
         25    2    1    2    0    0 -0.56177432962E+02  0.11245214747E+03 -0.40542590877E+03  0.44248378561E+03  0.12498137294E+03 0.  0.
          5    1    3    3  501    0 -0.36636232313E+02 -0.56152396975E+02 -0.97534907485E+02  0.11845021478E+03  0.47000000000E+01 0.  1.
         -5    1    3    3    0  501  0.92813665275E+02 -0.56299750496E+02 -0.21347177567E+03  0.23953356211E+03  0.47000000000E+01 0.  1.
          5    1    4    4  502    0 -0.48314901663E+02 -0.13639095283E+02 -0.10232536288E+03  0.11407420625E+03  0.47000000000E+01 0. -1.
         -5    1    4    4    0  502 -0.78625312989E+01  0.12609124275E+03 -0.30310054588E+03  0.32840957935E+03  0.47000000000E+01 0. -1.
<mgrwt>
<rscale>  0 0.35703314E+03</rscale>
<asrwt>0</asrwt>
<pdfrwt beam="1">  1       21 0.64642291E-02 0.35703314E+03</pdfrwt>
<pdfrwt beam="2">  1       21 0.11668462E+00 0.35703314E+03</pdfrwt>
<totfact> 0.92739771E+04</totfact>
</mgrwt>
</event>
<event>
 8    1  0.9373234E-006  0.2772168E+03  0.7546771E-02  0.1097219E+00
         21   -1    0    0  504  503  0.00000000000E+00  0.00000000000E+00  0.78390094929E+02  0.78390094929E+02  0.00000000000E+00 0. -1.
         21   -1    0    0  503  504 -0.00000000000E+00 -0.00000000000E+00 -0.24508567002E+03  0.24508567002E+03  0.00000000000E+00 0. -1.
         25    2    1    2    0    0  0.12681310775E+02  0.25918967051E+02 -0.22109235176E+02  0.13017992503E+03  0.12500154441E+03 0.  0.
         25    2    1    2    0    0 -0.12681310775E+02 -0.25918967051E+02 -0.14458633991E+03  0.19329583992E+03  0.12500185416E+03 0.  0.
          5    1    3    3  501    0 -0.14244741702E+02 -0.24492103320E+02 -0.56452254090E+02  0.63338162139E+02  0.47000000000E+01 0.  1.
         -5    1    3    3    0  501  0.26926052477E+02  0.50411070371E+02  0.34343018914E+02  0.66841762889E+02  0.47000000000E+01 0.  1.
          5    1    4    4  502    0 -0.35172138033E+02  0.41193172446E+02 -0.42627142459E+02  0.69087770439E+02  0.47000000000E+01 0.  1.
         -5    1    4    4    0  502  0.22490827258E+02 -0.67112139496E+02 -0.10195919745E+03  0.12420806948E+03  0.47000000000E+01 0.  1.
<mgrwt>
<rscale>  0 0.27721680E+03</rscale>
<asrwt>0</asrwt>
<pdfrwt beam="1">  1       21 0.12060014E-01 0.27721680E+03</pdfrwt>
<pdfrwt beam="2">  1       21 0.37705488E-01 0.27721680E+03</pdfrwt>
<totfact> 0.38742060E+05</totfact>
</mgrwt>
</event>
<event>
 8    1  0.9373234E-006  0.2935354E+03  0.7546771E-02  0.1088518E+00
         21   -1    0    0  504  503  0.00000000000E+00  0.00000000000E+00  0.69803859101E+02  0.69803859101E+02  0.00000000000E+00 0.  1.
         21   -1    0    0  503  504 -0.00000000000E+00 -0.00000000000E+00 -0.30858972119E+03  0.30858972119E+03  0.00000000000E+00 0.  1.
         25    2    1    2    0    0  0.65201787313E+02 -0.29321313404E+02 -0.15597450297E+03  0.21228152002E+03  0.12499754268E+03 0.  0.
         25    2    1    2    0    0 -0.65201787313E+02  0.29321313404E+02 -0.82811359120E+02  0.16611206028E+03  0.12499793151E+03 0.  0.
          5    1    3    3  501    0  0.29072593315E+02 -0.12763418262E+02 -0.16756965744E+03  0.17061594481E+03  0.47000000000E+01 0. -1.
         -5    1    3    3    0  501  0.36129193998E+02 -0.16557895142E+02  0.11595154470E+02  0.41665575211E+02  0.47000000000E+01 0. -1.
          5    1    4    4  502    0 -0.19022538196E+02 -0.20534367364E+02  0.25503297913E+02  0.38157900975E+02  0.47000000000E+01 0.  1.
         -5    1    4    4    0  502 -0.46179249118E+02  0.49855680768E+02 -0.10831465703E+03  0.12795415930E+03  0.47000000000E+01 0.  1.
<mgrwt>
<rscale>  0 0.29353537E+03</rscale>
<asrwt>0</asrwt>
<pdfrwt beam="1">  1       21 0.10739056E-01 0.29353537E+03</pdfrwt>
<pdfrwt beam="2">  1       21 0.47475341E-01 0.29353537E+03</pdfrwt>
<totfact> 0.29628279E+05</totfact>
</mgrwt>
</event>
<event>
 8    1  0.9373234E-006  0.2762629E+03  0.7546771E-02  0.1097748E+00
         21   -1    0    0  504  503  0.00000000000E+00  0.00000000000E+00  0.93578782838E+03  0.93578782838E+03  0.00000000000E+00 0.  1.
         21   -1    0    0  503  504 -0.00000000000E+00 -0.00000000000E+00 -0.20389552701E+02  0.20389552701E+02  0.00000000000E+00 0.  1.
         25    2    1    2    0    0 -0.27679768669E+02 -0.28657726273E+02  0.30821268226E+03  0.33497855204E+03  0.12501255119E+03 0.  0.
         25    2    1    2    0    0  0.27679768669E+02  0.28657726273E+02  0.60718559342E+03  0.62119882904E+03  0.12500482179E+03 0.  0.
          5    1    3    3  501    0 -0.65803000874E+02  0.20139427787E+02  0.15472612493E+03  0.16940453126E+03  0.47000000000E+01 0.  1.
         -5    1    3    3    0  501  0.38123232205E+02 -0.48797154060E+02  0.15348655733E+03  0.16557402079E+03  0.47000000000E+01 0.  1.
          5    1    4    4  502    0 -0.37185723137E+02 -0.17648159690E+02  0.33482242935E+03  0.33737573229E+03  0.47000000000E+01 0. -1.
         -5    1    4    4    0  502  0.64865491806E+02  0.46305885963E+02  0.27236316408E+03  0.28382309675E+03  0.47000000000E+01 0. -1.
<mgrwt>
<rscale>  0 0.27626288E+03</rscale>
<asrwt>0</asrwt>
<pdfrwt beam="1">  1       21 0.14396733E+00 0.27626288E+03</pdfrwt>
<pdfrwt beam="2">  1       21 0.31368550E-02 0.27626288E+03</pdfrwt>
<totfact> 0.18975977E+05</totfact>
</mgrwt>
</event>
<event>
 8    1  0.9373234E-006  0.2854631E+03  0.7546771E-02  0.1092742E+00
         21   -1    0    0  504  503  0.00000000000E+00  0.00000000000E+00  0.79194365254E+02  0.79194365254E+02  0.00000000000E+00 0. -1.
         21   -1    0    0  503  504 -0.00000000000E+00 -0.00000000000E+00 -0.25724425933E+03  0.25724425933E+03  0.00000000000E+00 0. -1.
         25    2    1    2    0    0 -0.55310656554E+02 -0.39025452523E+02 -0.73583047007E+02  0.16003010108E+03  0.12495164574E+03 0.  0.
         25    2    1    2    0    0  0.55310656554E+02  0.39025452523E+02 -0.10446684707E+03  0.17640852350E+03  0.12499756139E+03 0.  0.
          5    1    3    3  501    0 -0.29428424382E+02  0.33951550847E+02  0.97112901868E+01  0.46207565654E+02  0.47000000000E+01 0. -1.
         -5    1    3    3    0  501 -0.25882232172E+02 -0.72977003370E+02 -0.83294337194E+02  0.11382253543E+03  0.47000000000E+01 0. -1.
          5    1    4    4  502    0 -0.30444100162E+02 -0.13794937817E+02 -0.53941177610E+02  0.63630843040E+02  0.47000000000E+01 0. -1.
         -5    1    4    4    0  502  0.85754756716E+02  0.52820390340E+02 -0.50525669455E+02  0.11277768046E+03  0.47000000000E+01 0. -1.
<mgrwt>
<rscale>  0 0.28546310E+03</rscale>
<asrwt>0</asrwt>
<pdfrwt beam="1">  1       21 0.12183748E-01 0.28546310E+03</pdfrwt>
<pdfrwt beam="2">  1       21 0.39576040E-01 0.28546310E+03</pdfrwt>
<totfact> 0.34423005E+05</totfact>
</mgrwt>
</event>
<event>
 8    1  0.9373234E-006  0.5650282E+03  0.7546771E-02  0.9980741E-01
         21   -1    0    0  504  503  0.00000000000E+00  0.00000000000E+00  0.10073399519E+03  0.10073399519E+03  0.00000000000E+00 0.  1.
         21   -1    0    0  503  504 -0.00000000000E+00 -0.00000000000E+00 -0.79232654212E+03  0.79232654212E+03  0.00000000000E+00 0.  1.
         25    2    1    2    0    0 -0.17816405708E+03  0.68488688416E+01 -0.63029817624E+03  0.66684981616E+03  0.12499419226E+03 0.  0.
         25    2    1    2    0    0  0.17816405708E+03 -0.68488688416E+01 -0.61294370692E+02  0.22621072115E+03  0.12499980897E+03 0.  0.
          5    1    3    3  501    0 -0.10845138068E+03  0.55804778062E+02 -0.26556781863E+03  0.29227424026E+03  0.47000000000E+01 0.  1.
         -5    1    3    3    0  501 -0.69712676396E+02 -0.48955909220E+02 -0.36473035761E+03  0.37457557590E+03  0.47000000000E+01 0.  1.
          5    1    4    4  502    0  0.10567635426E+03  0.56798748722E+02 -0.22629645505E+02  0.12217929678E+03  0.47000000000E+01 0.  1.
         -5    1    4    4    0  502  0.72487702824E+02 -0.63647617564E+02 -0.38664725187E+02  0.10403142437E+03  0.47000000000E+01 0.  1.
<mgrwt>
<rscale>  0 0.56502820E+03</rscale>
<asrwt>0</asrwt>
<pdfrwt beam="1">  1       21 0.15497538E-01 0.56502820E+03</pdfrwt>
<pdfrwt beam="2">  1       21 0.12189639E+00 0.56502820E+03</pdfrwt>
<totfact> 0.16336018E+04</totfact>
</mgrwt>
</event>
<event>
 8    1  0.9373234E-006  0.2774901E+03  0.7546771E-02  0.1097068E+00
         21   -1    0    0  504  503  0.00000000000E+00  0.00000000000E+00  0.74815460903E+03  0.74815460903E+03  0.00000000000E+00 0.  1.
         21   -1    0    0  503  504 -0.00000000000E+00 -0.00000000000E+00 -0.25730230519E+02  0.25730230519E+02  0.00000000000E+00 0.  1.
         25    2    1    2    0    0 -0.22548524945E+02 -0.38938483137E+02  0.24962787831E+03  0.28277833927E+03  0.12499948034E+03 0.  0.
         25    2    1    2    0    0  0.22548524945E+02  0.38938483137E+02  0.47279650020E+03  0.49110650027E+03  0.12499769024E+03 0.  0.
          5    1    3    3  501    0  0.17492690157E+02  0.17298665983E+02  0.18938183045E+03  0.19103090263E+03  0.47000000000E+01 0. -1.
         -5    1    3    3    0  501 -0.40041215102E+02 -0.56237149120E+02  0.60246047854E+02  0.91747436640E+02  0.47000000000E+01 0. -1.
          5    1    4    4  502    0 -0.13778270214E+02 -0.21251452775E+02  0.33822999847E+03  0.33920950288E+03  0.47000000000E+01 0.  1.
         -5    1    4    4    0  502  0.36326795159E+02  0.60189935911E+02  0.13456650173E+03  0.15189699740E+03  0.47000000000E+01 0.  1.
<mgrwt>
<rscale>  0 0.27749011E+03</rscale>
<asrwt>0</asrwt>
<pdfrwt beam="1">  1       21 0.11510069E+00 0.27749011E+03</pdfrwt>
<pdfrwt beam="2">  1       21 0.39584976E-02 0.27749011E+03</pdfrwt>
<totfact> 0.22717152E+05</totfact>
</mgrwt>
</event>
<event>
 8    1  0.9373234E-006  0.3049220E+03  0.7546771E-02  0.1082806E+00
         21   -1    0    0  504  503  0.00000000000E+00  0.00000000000E+00  0.14876299861E+03  0.14876299861E+03  0.00000000000E+00 0.  1.
         21   -1    0    0  503  504 -0.00000000000E+00 -0.00000000000E+00 -0.15625090188E+03  0.15625090188E+03  0.00000000000E+00 0.  1.
         25    2    1    2    0    0  0.35669745615E+02 -0.53032030547E+02  0.55734375916E+02  0.15104739740E+03  0.12499707432E+03 0.  0.
         25    2    1    2    0    0 -0.35669745615E+02  0.53032030547E+02 -0.63222279182E+02  0.15396650309E+03  0.12499560181E+03 0.  0.
          5    1    3    3  501    0  0.96973912173E+01 -0.72853207362E+02 -0.13012713489E+02  0.74786696222E+02  0.47000000000E+01 0. -1.
         -5    1    3    3    0  501  0.25972354397E+02  0.19821176815E+02  0.68747089405E+02  0.76260701183E+02  0.47000000000E+01 0. -1.
          5    1    4    4  502    0 -0.45453827728E+02  0.59596880336E+01  0.25703410676E+02  0.52766690791E+02  0.47000000000E+01 0.  1.
         -5    1    4    4    0  502  0.97840821135E+01  0.47072342513E+02 -0.88925689858E+02  0.10119981230E+03  0.47000000000E+01 0.  1.
<mgrwt>
<rscale>  0 0.30492197E+03</rscale>
<asrwt>0</asrwt>
<pdfrwt beam="1">  1       21 0.22886615E-01 0.30492197E+03</pdfrwt>
<pdfrwt beam="2">  1       21 0.24038600E-01 0.30492197E+03</pdfrwt>
<totfact> 0.28487638E+05</totfact>
</mgrwt>
</event>
<event>
 8    1  0.9373234E-006  0.3529914E+03  0.7546771E-02  0.1061394E+00
         21   -1    0    0  504  503  0.00000000000E+00  0.00000000000E+00  0.94920665231E+02  0.94920665231E+02  0.00000000000E+00 0.  1.
         21   -1    0    0  503  504 -0.00000000000E+00 -0.00000000000E+00 -0.32817643151E+03  0.32817643151E+03  0.00000000000E+00 0.  1.
         25    2    1    2    0    0 -0.82175201009E+02  0.56731311392E+01 -0.22868148134E+03  0.27333006739E+03  0.12501662990E+03 0.  0.
         25    2    1    2    0    0  0.82175201009E+02 -0.56731311392E+01 -0.45742849307E+01  0.14976702935E+03  0.12499716365E+03 0.  0.
          5    1    3    3  501    0 -0.12503742064E+02  0.59855287407E+02 -0.94085678852E+02  0.11230852132E+03  0.47000000000E+01 0.  1.
         -5    1    3    3    0  501 -0.69671458945E+02 -0.54182156267E+02 -0.13459580249E+03  0.16102154607E+03  0.47000000000E+01 0.  1.
          5    1    4    4  502    0  0.65127139554E+02  0.18778858475E+02 -0.57390525577E+02  0.88937912377E+02  0.47000000000E+01 0.  1.
         -5    1    4    4    0  502  0.17048061456E+02 -0.24451989614E+02  0.52816240646E+02  0.60829116971E+02  0.47000000000E+01 0.  1.
<mgrwt>
<rscale>  0 0.35299136E+03</rscale>
<asrwt>0</asrwt>
<pdfrwt beam="1">  1       21 0.14603180E-01 0.35299136E+03</pdfrwt>
<pdfrwt beam="2">  1       21 0.50488681E-01 0.35299136E+03</pdfrwt>
<totfact> 0.14711882E+05</totfact>
</mgrwt>
</event>
<event>
 8    1  0.9373234E-006  0.4001521E+03  0.7546771E-02  0.1043727E+00
         21   -1    0    0  504  503  0.00000000000E+00  0.00000000000E+00  0.46179462373E+02  0.46179462373E+02  0.00000000000E+00 0.  1.
         21   -1    0    0  503  504 -0.00000000000E+00 -0.00000000000E+00 -0.86684485138E+03  0.86684485138E+03  0.00000000000E+00 0.  1.
         25    2    1    2    0    0 -0.12455140840E+02  0.66816996545E+02 -0.89386267184E+02  0.16803208564E+03  0.12500094193E+03 0.  0.
         25    2    1    2    0    0  0.12455140840E+02 -0.66816996545E+02 -0.73127912182E+03  0.74499222811E+03  0.12499849748E+03 0.  0.
          5    1    3    3  501    0 -0.58496169113E+02  0.71369464046E+02 -0.76003070452E+02  0.11964095836E+03  0.47000000000E+01 0. -1.
         -5    1    3    3    0  501  0.46041028274E+02 -0.45524675012E+01 -0.13383196732E+02  0.48391127282E+02  0.47000000000E+01 0. -1.
          5    1    4    4  502    0  0.66944950983E+02 -0.40924689211E+02 -0.48862008860E+03  0.49490214955E+03  0.47000000000E+01 0. -1.
         -5    1    4    4    0  502 -0.54489810144E+02 -0.25892307333E+02 -0.24265903322E+03  0.25009007856E+03  0.47000000000E+01 0. -1.
<mgrwt>
<rscale>  0 0.40015212E+03</rscale>
<asrwt>0</asrwt>
<pdfrwt beam="1">  1       21 0.71045336E-02 0.40015212E+03</pdfrwt>
<pdfrwt beam="2">  1       21 0.13336073E+00 0.40015212E+03</pdfrwt>
<totfact> 0.55252482E+04</totfact>
</mgrwt>
</event>
<event>
 8    1  0.9373234E-006  0.3473564E+03  0.7546771E-02  0.1063705E+00
         21   -1    0    0  504  503  0.00000000000E+00  0.00000000000E+00  0.60463232068E+02  0.60463232068E+02  0.00000000000E+00 0.  1.
         21   -1    0    0  503  504 -0.00000000000E+00 -0.00000000000E+00 -0.49888378040E+03  0.49888378040E+03  0.00000000000E+00 0.  1.
         25    2    1    2    0    0  0.10321001519E+03 -0.58346830122E+02 -0.25460464205E+03  0.30741471462E+03  0.12499449264E+03 0.  0.
         25    2    1    2    0    0 -0.10321001519E+03  0.58346830122E+02 -0.18381590628E+03  0.25193229785E+03  0.12499974190E+03 0.  0.
          5    1    3    3  501    0  0.26599322913E+02  0.39088767527E+02 -0.58334779933E+02  0.75236243102E+02  0.47000000000E+01 0.  1.
         -5    1    3    3    0  501  0.76610692278E+02 -0.97435597649E+02 -0.19626986212E+03  0.23217847152E+03  0.47000000000E+01 0.  1.
          5    1    4    4  502    0 -0.12854782937E+03  0.43246681077E+02 -0.17363419979E+03  0.22037637169E+03  0.47000000000E+01 0.  1.
         -5    1    4    4    0  502  0.25337814182E+02  0.15100149045E+02 -0.10181706483E+02  0.31555926157E+02  0.47000000000E+01 0.  1.
<mgrwt>
<rscale>  0 0.34735645E+03</rscale>
<asrwt>0</asrwt>
<pdfrwt beam="1">  1       21 0.93020358E-02 0.34735645E+03</pdfrwt>
<pdfrwt beam="2">  1       21 0.76751350E-01 0.34735645E+03</pdfrwt>
<totfact> 0.13292877E+05</totfact>
</mgrwt>
</event>
<event>
 8    1  0.9373234E-006  0.3140904E+03  0.7546771E-02  0.1078402E+00
         21   -1    0    0  504  503  0.00000000000E+00  0.00000000000E+00  0.18947211427E+04  0.18947211427E+04  0.00000000000E+00 0. -1.
         21   -1    0    0  503  504 -0.00000000000E+00 -0.00000000000E+00 -0.13016795785E+02  0.13016795785E+02  0.00000000000E+00 0. -1.
         25    2    1    2    0    0 -0.75255182521E+02 -0.30120631459E+02  0.12425738443E+04  0.12514729492E+04  0.12499675698E+03 0.  0.
         25    2    1    2    0    0  0.75255182521E+02  0.30120631459E+02  0.63913050268E+03  0.65626498929E+03  0.12500136709E+03 0.  0.
          5    1    3    3  501    0 -0.88216142617E+02 -0.45511940588E+02  0.57112272179E+03  0.57970395711E+03  0.47000000000E+01 0. -1.
         -5    1    3    3    0  501  0.12960960096E+02  0.15391309129E+02  0.67145112248E+03  0.67176899211E+03  0.47000000000E+01 0. -1.
          5    1    4    4  502    0 -0.11070440653E+02 -0.27419040042E+02  0.51856673993E+02  0.59879571230E+02  0.47000000000E+01 0.  1.
         -5    1    4    4    0  502  0.86325623174E+02  0.57539671501E+02  0.58727382868E+03  0.59638541806E+03  0.47000000000E+01 0.  1.
<mgrwt>
<rscale>  0 0.31409042E+03</rscale>
<asrwt>0</asrwt>
<pdfrwt beam="1">  1       21 0.29149534E+00 0.31409042E+03</pdfrwt>
<pdfrwt beam="2">  1       21 0.20025855E-02 0.31409042E+03</pdfrwt>
<totfact> 0.43112387E+04</totfact>
</mgrwt>
</event>
<event>
 8    1  0.9373234E-006  0.2735140E+03  0.7546771E-02  0.1099285E+00
         21   -1    0    0  504  503  0.00000000000E+00  0.00000000000E+00  0.18586006272E+03  0.18586006272E+03  0.00000000000E+00 0. -1.
         21   -1    0    0  503  504 -0.00000000000E+00 -0.00000000000E+00 -0.10062665192E+03  0.10062665192E+03  0.00000000000E+00 0. -1.
         25    2    1    2    0    0 -0.46549666303E+02  0.40985232701E+01  0.11239326554E+02  0.13389502396E+03  0.12497153938E+03 0.  0.
         25    2    1    2    0    0  0.46549666303E+02 -0.40985232701E+01  0.73994084244E+02  0.15259169068E+03  0.12500172092E+03 0.  0.
          5    1    3    3  501    0 -0.27119674508E+02 -0.24554741311E+02 -0.50750051503E+02  0.62738104800E+02  0.47000000000E+01 0. -1.
         -5    1    3    3    0  501 -0.19429991794E+02  0.28653264581E+02  0.61989378058E+02  0.71156919160E+02  0.47000000000E+01 0. -1.
          5    1    4    4  502    0  0.87053520049E+02  0.11634193007E+02  0.37342680087E+02  0.95552266095E+02  0.47000000000E+01 0.  1.
         -5    1    4    4    0  502 -0.40503853746E+02 -0.15732716278E+02  0.36651404157E+02  0.57039424580E+02  0.47000000000E+01 0.  1.
<mgrwt>
<rscale>  0 0.27351399E+03</rscale>
<asrwt>0</asrwt>
<pdfrwt beam="1">  1       21 0.28593856E-01 0.27351399E+03</pdfrwt>
<pdfrwt beam="2">  1       21 0.15481023E-01 0.27351399E+03</pdfrwt>
<totfact> 0.42612593E+05</totfact>
</mgrwt>
</event>
<event>
 8    1  0.9373234E-006  0.2876252E+03  0.7546771E-02  0.1091596E+00
         21   -1    0    0  504  503  0.00000000000E+00  0.00000000000E+00  0.68600036303E+03  0.68600036303E+03  0.00000000000E+00 0. -1.
         21   -1    0    0  503  504 -0.00000000000E+00 -0.00000000000E+00 -0.30148762296E+02  0.30148762296E+02  0.00000000000E+00 0. -1.
         25    2    1    2    0    0  0.36990019537E+02  0.10380198357E+02  0.17889355210E+03  0.22159516103E+03  0.12500200937E+03 0.  0.
         25    2    1    2    0    0 -0.36990019537E+02 -0.10380198357E+02  0.47695804863E+03  0.49455396429E+03  0.12497453093E+03 0.  0.
          5    1    3    3  501    0  0.17111164038E+02  0.30397838418E+02 -0.49462429444E+01  0.35543998573E+02  0.47000000000E+01 0.  1.
         -5    1    3    3    0  501  0.19878855499E+02 -0.20017640062E+02  0.18383979505E+03  0.18605116246E+03  0.47000000000E+01 0.  1.
          5    1    4    4  502    0  0.29781420742E+02  0.16237406685E+02  0.32032897039E+03  0.32215419548E+03  0.47000000000E+01 0. -1.
         -5    1    4    4    0  502 -0.66771440278E+02 -0.26617605042E+02  0.15662907824E+03  0.17239976881E+03  0.47000000000E+01 0. -1.
<mgrwt>
<rscale>  0 0.28762519E+03</rscale>
<asrwt>0</asrwt>
<pdfrwt beam="1">  1       21 0.10553851E+00 0.28762519E+03</pdfrwt>
<pdfrwt beam="2">  1       21 0.46382716E-02 0.28762519E+03</pdfrwt>
<totfact> 0.21415465E+05</totfact>
</mgrwt>
</event>
<event>
 8    1  0.9373234E-006  0.2953129E+03  0.7546771E-02  0.1087607E+00
         21   -1    0    0  504  503  0.00000000000E+00  0.00000000000E+00  0.30273309959E+03  0.30273309959E+03  0.00000000000E+00 0.  1.
         21   -1    0    0  503  504 -0.00000000000E+00 -0.00000000000E+00 -0.72018667063E+02  0.72018667063E+02  0.00000000000E+00 0.  1.
         25    2    1    2    0    0 -0.72213092438E+01  0.69166266008E+02  0.16181142424E+03  0.21597291974E+03  0.12500098154E+03 0.  0.
         25    2    1    2    0    0  0.72213092438E+01 -0.69166266008E+02  0.68903008281E+02  0.15877884691E+03  0.12500791181E+03 0.  0.
          5    1    3    3  501    0  0.17086602814E+02  0.98927655764E+02  0.92539093481E+02  0.13661700807E+03  0.47000000000E+01 0. -1.
         -5    1    3    3    0  501 -0.24307912058E+02 -0.29761389757E+02  0.69272330761E+02  0.79355911676E+02  0.47000000000E+01 0. -1.
          5    1    4    4  502    0  0.27355324208E+02 -0.71883753399E+02  0.96941487755E+02  0.12383589873E+03  0.47000000000E+01 0. -1.
         -5    1    4    4    0  502 -0.20134014964E+02  0.27174873909E+01 -0.28038479474E+02  0.34942948180E+02  0.47000000000E+01 0. -1.
<mgrwt>
<rscale>  0 0.29531295E+03</rscale>
<asrwt>0</asrwt>
<pdfrwt beam="1">  1       21 0.46574322E-01 0.29531295E+03</pdfrwt>
<pdfrwt beam="2">  1       21 0.11079795E-01 0.29531295E+03</pdfrwt>
<totfact> 0.29146654E+05</totfact>
</mgrwt>
</event>
<event>
 8    1  0.9373234E-006  0.2959897E+03  0.7546771E-02  0.1087263E+00
         21   -1    0    0  504  503  0.00000000000E+00  0.00000000000E+00  0.73910509505E+02  0.73910509505E+02  0.00000000000E+00 0. -1.
         21   -1    0    0  503  504 -0.00000000000E+00 -0.00000000000E+00 -0.29633780168E+03  0.29633780168E+03  0.00000000000E+00 0. -1.
         25    2    1    2    0    0  0.15328705489E+02  0.70269217693E+02 -0.15282780814E+03  0.21013142062E+03  0.12500457122E+03 0.  0.
         25    2    1    2    0    0 -0.15328705489E+02 -0.70269217693E+02 -0.69599484038E+02  0.16011689057E+03  0.12498239195E+03 0.  0.
          5    1    3    3  501    0  0.16904667159E+02 -0.23520742852E+02  0.15974920821E+01  0.29387669132E+02  0.47000000000E+01 0.  1.
         -5    1    3    3    0  501 -0.15759616702E+01  0.93789960545E+02 -0.15442530022E+03  0.18074375149E+03  0.47000000000E+01 0.  1.
          5    1    4    4  502    0  0.32683982755E+01 -0.35788370117E+02 -0.10251489610E+03  0.10873308505E+03  0.47000000000E+01 0. -1.
         -5    1    4    4    0  502 -0.18597103764E+02 -0.34480847575E+02  0.32915412060E+02  0.51383805513E+02  0.47000000000E+01 0. -1.
<mgrwt>
<rscale>  0 0.29598972E+03</rscale>
<asrwt>0</asrwt>
<pdfrwt beam="1">  1       21 0.11370848E-01 0.29598972E+03</pdfrwt>
<pdfrwt beam="2">  1       21 0.45590431E-01 0.29598972E+03</pdfrwt>
<totfact> 0.29079807E+05</totfact>
</mgrwt>
</event>
<event>
 8    1  0.9373234E-006  0.3709332E+03  0.7546771E-02  0.1054337E+00
         21   -1    0    0  504  503  0.00000000000E+00  0.00000000000E+00  0.82200746597E+02  0.82200746597E+02  0.00000000000E+00 0. -1.
         21   -1    0    0  503  504 -0.00000000000E+00 -0.00000000000E+00 -0.41846175188E+03  0.41846175188E+03  0.00000000000E+00 0. -1.
         25    2    1    2    0    0  0.56063744513E+02 -0.48294829382E+02 -0.32375515678E+03  0.35484380160E+03  0.12498475105E+03 0.  0.
         25    2    1    2    0    0 -0.56063744513E+02  0.48294829382E+02 -0.12505848497E+02  0.14581869688E+03  0.12502464604E+03 0.  0.
          5    1    3    3  501    0  0.88041826373E+02 -0.48029805358E+01 -0.16569751875E+03  0.18775566445E+03  0.47000000000E+01 0.  1.
         -5    1    3    3    0  501 -0.31978081860E+02 -0.43491848846E+02 -0.15805763804E+03  0.16708813715E+03  0.47000000000E+01 0.  1.
          5    1    4    4  502    0  0.23370036756E+01  0.71436338384E+02 -0.33959711034E+02  0.79271457672E+02  0.47000000000E+01 0. -1.
         -5    1    4    4    0  502 -0.58400748189E+02 -0.23141509002E+02  0.21453862537E+02  0.66547239204E+02  0.47000000000E+01 0. -1.
<mgrwt>
<rscale>  0 0.37093325E+03</rscale>
<asrwt>0</asrwt>
<pdfrwt beam="1">  1       21 0.12646269E-01 0.37093325E+03</pdfrwt>
<pdfrwt beam="2">  1       21 0.64378730E-01 0.37093325E+03</pdfrwt>
<totfact> 0.11278471E+05</totfact>
</mgrwt>
</event>
<event>
 8    1  0.9373234E-006  0.2686902E+03  0.7546771E-02  0.1102032E+00
         21   -1    0    0  504  503  0.00000000000E+00  0.00000000000E+00  0.23912290091E+02  0.23912290091E+02  0.00000000000E+00 0.  1.
         21   -1    0    0  503  504 -0.00000000000E+00 -0.00000000000E+00 -0.75478361447E+03  0.75478361447E+03  0.00000000000E+00 0.  1.
         25    2    1    2    0    0 -0.69310583598E+01 -0.41101377082E+02 -0.28951338046E+03  0.31808990504E+03  0.12500330979E+03 0.  0.
         25    2    1    2    0    0  0.69310583598E+01  0.41101377082E+02 -0.44135794393E+03  0.46060599952E+03  0.12499475734E+03 0.  0.
          5    1    3    3  501    0  0.21404610149E+02 -0.16640527175E+02 -0.14373400100E+01  0.27553954826E+02  0.47000000000E+01 0.  1.
         -5    1    3    3    0  501 -0.28335668508E+02 -0.24460849908E+02 -0.28807604045E+03  0.29053595022E+03  0.47000000000E+01 0.  1.
          5    1    4    4  502    0  0.59378936343E+02  0.40753774656E+02 -0.17874825026E+03  0.19276865720E+03  0.47000000000E+01 0. -1.
         -5    1    4    4    0  502 -0.52447877983E+02  0.34760242623E+00 -0.26260969367E+03  0.26783734232E+03  0.47000000000E+01 0. -1.
<mgrwt>
<rscale>  0 0.26869019E+03</rscale>
<asrwt>0</asrwt>
<pdfrwt beam="1">  1       21 0.36788143E-02 0.26869019E+03</pdfrwt>
<pdfrwt beam="2">  1       21 0.11612054E+00 0.26869019E+03</pdfrwt>
<totfact> 0.25209473E+05</totfact>
</mgrwt>
</event>
<event>
 8    1  0.9373234E-006  0.2597008E+03  0.7546771E-02  0.1107323E+00
         21   -1    0    0  504  503  0.00000000000E+00  0.00000000000E+00  0.89974364635E+01  0.89974364635E+01  0.00000000000E+00 0.  1.
         21   -1    0    0  503  504 -0.00000000000E+00 -0.00000000000E+00 -0.18739927282E+04  0.18739927282E+04  0.00000000000E+00 0.  1.
         25    2    1    2    0    0 -0.21832727718E+02  0.12977378963E+02 -0.75660260691E+03  0.76728116377E+03  0.12501119600E+03 0.  0.
         25    2    1    2    0    0  0.21832727718E+02 -0.12977378963E+02 -0.11083926848E+04  0.11157090008E+04  0.12500860186E+03 0.  0.
          5    1    3    3  501    0 -0.10406245077E+02  0.10083250045E+02 -0.56898460808E+01  0.16261187426E+02  0.47000000000E+01 0.  1.
         -5    1    3    3    0  501 -0.11426482641E+02  0.28941289172E+01 -0.75091276083E+03  0.75101997634E+03  0.47000000000E+01 0.  1.
          5    1    4    4  502    0 -0.50255234979E+02 -0.76254405569E+01 -0.32631240140E+03  0.33028110648E+03  0.47000000000E+01 0.  1.
         -5    1    4    4    0  502  0.72087962697E+02 -0.53519384057E+01 -0.78208028338E+03  0.78542789437E+03  0.47000000000E+01 0.  1.
<mgrwt>
<rscale>  0 0.25970083E+03</rscale>
<asrwt>0</asrwt>
<pdfrwt beam="1">  1       21 0.13842213E-02 0.25970083E+03</pdfrwt>
<pdfrwt beam="2">  1       21 0.28830650E+00 0.25970083E+03</pdfrwt>
<totfact> 0.84812623E+04</totfact>
</mgrwt>
</event>
<event>
 8    1  0.9373234E-006  0.2954425E+03  0.7546771E-02  0.1087541E+00
         21   -1    0    0  504  503  0.00000000000E+00  0.00000000000E+00  0.71402763600E+02  0.71402763600E+02  0.00000000000E+00 0. -1.
         21   -1    0    0  503  504 -0.00000000000E+00 -0.00000000000E+00 -0.30561243610E+03  0.30561243610E+03  0.00000000000E+00 0. -1.
         25    2    1    2    0    0  0.24910537731E+02  0.41875571519E+02 -0.19601691348E+03  0.23752642963E+03  0.12498830354E+03 0.  0.
         25    2    1    2    0    0 -0.24910537731E+02 -0.41875571519E+02 -0.38192759018E+02  0.13948877007E+03  0.12499732699E+03 0.  0.
          5    1    3    3  501    0  0.41024188237E+02  0.75886716107E+02 -0.89215502795E+02  0.12419047323E+03  0.47000000000E+01 0. -1.
         -5    1    3    3    0  501 -0.16113650506E+02 -0.34011144588E+02 -0.10680141068E+03  0.11333595640E+03  0.47000000000E+01 0. -1.
          5    1    4    4  502    0 -0.26309069219E+02  0.40180505525E+02 -0.30132721738E+02  0.56892100213E+02  0.47000000000E+01 0. -1.
         -5    1    4    4    0  502  0.13985314873E+01 -0.82056077043E+02 -0.80600372800E+01  0.82596669854E+02  0.47000000000E+01 0. -1.
<mgrwt>
<rscale>  0 0.29544253E+03</rscale>
<asrwt>0</asrwt>
<pdfrwt beam="1">  1       21 0.10985040E-01 0.29544253E+03</pdfrwt>
<pdfrwt beam="2">  1       21 0.47017299E-01 0.29544253E+03</pdfrwt>
<totfact> 0.29019938E+05</totfact>
</mgrwt>
</event>
<event>
 8    1  0.9373234E-006  0.2857890E+03  0.7546771E-02  0.1092568E+00
         21   -1    0    0  504  503  0.00000000000E+00  0.00000000000E+00  0.11684377115E+03  0.11684377115E+03  0.00000000000E+00 0. -1.
         21   -1    0    0  503  504 -0.00000000000E+00 -0.00000000000E+00 -0.17475334608E+03  0.17475334608E+03  0.00000000000E+00 0. -1.
         25    2    1    2    0    0  0.14492287698E+02  0.54660748844E+02  0.11790757936E+02  0.13771212321E+03  0.12501113166E+03 0.  0.
         25    2    1    2    0    0 -0.14492287698E+02 -0.54660748844E+02 -0.69700332860E+02  0.15388499401E+03  0.12499852445E+03 0.  0.
          5    1    3    3  501    0 -0.18775598977E+02  0.87087870595E+02 -0.12834798437E+01  0.89221957175E+02  0.47000000000E+01 0. -1.
         -5    1    3    3    0  501  0.33267886675E+02 -0.32427121750E+02  0.13074237780E+02  0.48490166038E+02  0.47000000000E+01 0. -1.
          5    1    4    4  502    0 -0.44483379916E+02 -0.20050154068E+02  0.20093247495E+02  0.52977432571E+02  0.47000000000E+01 0.  1.
         -5    1    4    4    0  502  0.29991092218E+02 -0.34610594777E+02 -0.89793580355E+02  0.10090756144E+03  0.47000000000E+01 0.  1.
<mgrwt>
<rscale>  0 0.28578901E+03</rscale>
<asrwt>0</asrwt>
<pdfrwt beam="1">  1       21 0.17975965E-01 0.28578901E+03</pdfrwt>
<pdfrwt beam="2">  1       21 0.26885130E-01 0.28578901E+03</pdfrwt>
<totfact> 0.36348266E+05</totfact>
</mgrwt>
</event>
<event>
 8    1  0.9373234E-006  0.2695152E+03  0.7546771E-02  0.1101557E+00
         21   -1    0    0  504  503  0.00000000000E+00  0.00000000000E+00  0.10929673722E+03  0.10929673722E+03  0.00000000000E+00 0. -1.
         21   -1    0    0  503  504 -0.00000000000E+00 -0.00000000000E+00 -0.16614957875E+03  0.16614957875E+03  0.00000000000E+00 0. -1.
         25    2    1    2    0    0  0.33523285892E+02 -0.33779918506E+02 -0.11613295115E+02  0.13424882047E+03  0.12499193407E+03 0.  0.
         25    2    1    2    0    0 -0.33523285892E+02  0.33779918506E+02 -0.45239546413E+02  0.14119749549E+03  0.12500089033E+03 0.  0.
          5    1    3    3  501    0 -0.17829498469E+02 -0.75064379289E+01  0.47510946625E+02  0.51513276689E+02  0.47000000000E+01 0.  1.
         -5    1    3    3    0  501  0.51352784360E+02 -0.26273480577E+02 -0.59124241740E+02  0.82735543780E+02  0.47000000000E+01 0.  1.
          5    1    4    4  502    0 -0.55179870510E+02  0.52426949686E+02  0.11856784203E+02  0.77175621115E+02  0.47000000000E+01 0.  1.
         -5    1    4    4    0  502  0.21656584618E+02 -0.18647031180E+02 -0.57096330616E+02  0.64021874379E+02  0.47000000000E+01 0.  1.
<mgrwt>
<rscale>  0 0.26951517E+03</rscale>
<asrwt>0</asrwt>
<pdfrwt beam="1">  1       21 0.16814883E-01 0.26951517E+03</pdfrwt>
<pdfrwt beam="2">  1       21 0.25561474E-01 0.26951517E+03</pdfrwt>
<totfact> 0.45508637E+05</totfact>
</mgrwt>
</event>
<event>
 8    1  0.9373234E-006  0.2623465E+03  0.7546771E-02  0.1105742E+00
         21   -1    0    0  504  503  0.00000000000E+00  0.00000000000E+00  0.14885485780E+03  0.14885485780E+03  0.00000000000E+00 0. -1.
         21   -1    0    0  503  504 -0.00000000000E+00 -0.00000000000E+00 -0.11559191347E+03  0.11559191347E+03  0.00000000000E+00 0. -1.
         25    2    1    2    0    0  0.39301454354E+02 -0.60403526173E+00  0.10812209234E+02  0.13147586884E+03  0.12499612413E+03 0.  0.
         25    2    1    2    0    0 -0.39301454354E+02  0.60403526173E+00  0.22450735103E+02  0.13297090243E+03  0.12502902148E+03 0.  0.
          5    1    3    3  501    0  0.57665218131E+02 -0.32481806119E+02 -0.32974666166E+02  0.74092939742E+02  0.47000000000E+01 0.  1.
         -5    1    3    3    0  501 -0.18363763778E+02  0.31877770857E+02  0.43786875400E+02  0.57382929100E+02  0.47000000000E+01 0.  1.
          5    1    4    4  502    0 -0.75696012097E+01 -0.60973346166E+02  0.97701800691E+01  0.62390658144E+02  0.47000000000E+01 0.  1.
         -5    1    4    4    0  502 -0.31731853144E+02  0.61577381427E+02  0.12680555034E+02  0.70580244285E+02  0.47000000000E+01 0.  1.
<mgrwt>
<rscale>  0 0.26234647E+03</rscale>
<asrwt>0</asrwt>
<pdfrwt beam="1">  1       21 0.22900747E-01 0.26234647E+03</pdfrwt>
<pdfrwt beam="2">  1       21 0.17783371E-01 0.26234647E+03</pdfrwt>
<totfact> 0.50700044E+05</totfact>
</mgrwt>
</event>
<event>
 8    1  0.9373234E-006  0.2621968E+03  0.7546771E-02  0.1105831E+00
         21   -1    0    0  504  503  0.00000000000E+00  0.00000000000E+00  0.25691227243E+03  0.25691227243E+03  0.00000000000E+00 0. -1.
         21   -1    0    0  503  504 -0.00000000000E+00 -0.00000000000E+00 -0.66897483470E+02  0.66897483470E+02  0.00000000000E+00 0. -1.
         25    2    1    2    0    0  0.53805476326E+01  0.27875662446E+02  0.61006900106E+02  0.14194844485E+03  0.12498606437E+03 0.  0.
         25    2    1    2    0    0 -0.53805476326E+01 -0.27875662446E+02  0.12900788886E+03  0.18186131105E+03  0.12499799286E+03 0.  0.
          5    1    3    3  501    0 -0.15262422600E+02 -0.13729595986E+01 -0.35476951391E+02  0.38929816872E+02  0.47000000000E+01 0. -1.
         -5    1    3    3    0  501  0.20642970232E+02  0.29248622044E+02  0.96483851497E+02  0.10301862798E+03  0.47000000000E+01 0. -1.
          5    1    4    4  502    0 -0.15357789670E+02  0.23146092762E+02  0.12650193428E+03  0.12960105204E+03  0.47000000000E+01 0.  1.
         -5    1    4    4    0  502  0.99772420372E+01 -0.51021755208E+02  0.25059545769E+01  0.52260259007E+02  0.47000000000E+01 0.  1.
<mgrwt>
<rscale>  0 0.26219675E+03</rscale>
<asrwt>0</asrwt>
<pdfrwt beam="1">  1       21 0.39524964E-01 0.26219675E+03</pdfrwt>
<pdfrwt beam="2">  1       21 0.10291921E-01 0.26219675E+03</pdfrwt>
<totfact> 0.46922720E+05</totfact>
</mgrwt>
</event>
<event>
 8    1  0.9373234E-006  0.2711758E+03  0.7546771E-02  0.1100609E+00
         21   -1    0    0  504  503  0.00000000000E+00  0.00000000000E+00  0.86186444815E+03  0.86186444815E+03  0.00000000000E+00 0. -1.
         21   -1    0    0  503  504 -0.00000000000E+00 -0.00000000000E+00 -0.21330594167E+02  0.21330594167E+02  0.00000000000E+00 0. -1.
         25    2    1    2    0    0  0.15970942638E+02 -0.46618206591E+01  0.25788718401E+03  0.28705918104E+03  0.12498147927E+03 0.  0.
         25    2    1    2    0    0 -0.15970942638E+02  0.46618206591E+01  0.58264666997E+03  0.59613586128E+03  0.12499607792E+03 0.  0.
          5    1    3    3  501    0  0.46510959557E+02 -0.45171662126E+02  0.86153396741E+02  0.10792704104E+03  0.47000000000E+01 0.  1.
         -5    1    3    3    0  501 -0.30540016919E+02  0.40509841467E+02  0.17173378727E+03  0.17913214000E+03  0.47000000000E+01 0.  1.
          5    1    4    4  502    0  0.13830385743E+02  0.37764853012E+01  0.26065172641E+01  0.15310955009E+02  0.47000000000E+01 0.  1.
         -5    1    4    4    0  502 -0.29801328381E+02  0.88533535794E+00  0.58004015271E+03  0.58082490627E+03  0.47000000000E+01 0.  1.
<mgrwt>
<rscale>  0 0.27117582E+03</rscale>
<asrwt>0</asrwt>
<pdfrwt beam="1">  1       21 0.13259450E+00 0.27117582E+03</pdfrwt>
<pdfrwt beam="2">  1       21 0.32816305E-02 0.27117582E+03</pdfrwt>
<totfact> 0.21832888E+05</totfact>
</mgrwt>
</event>
<event>
 8    1  0.9373234E-006  0.3356266E+03  0.7546771E-02  0.1068674E+00
         21   -1    0    0  504  503  0.00000000000E+00  0.00000000000E+00  0.25506868249E+03  0.25506868249E+03  0.00000000000E+00 0.  1.
         21   -1    0    0  503  504 -0.00000000000E+00 -0.00000000000E+00 -0.11040676502E+03  0.11040676502E+03  0.00000000000E+00 0.  1.
         25    2    1    2    0    0  0.57491905234E+02 -0.32586937709E+02  0.17074801815E+03  0.22169197554E+03  0.12500087456E+03 0.  0.
         25    2    1    2    0    0 -0.57491905234E+02  0.32586937709E+02 -0.26086100684E+02  0.14378347196E+03  0.12500389787E+03 0.  0.
          5    1    3    3  501    0  0.23446711421E+02 -0.31929687302E+02  0.18137682285E+03  0.18571186035E+03  0.47000000000E+01 0.  1.
         -5    1    3    3    0  501  0.34045193813E+02 -0.65725040712E+00 -0.10628804700E+02  0.35980115192E+02  0.47000000000E+01 0.  1.
          5    1    4    4  502    0 -0.14823540959E+02 -0.54644019634E+01 -0.69763489189E+02  0.71684248474E+02  0.47000000000E+01 0.  1.
         -5    1    4    4    0  502 -0.42668364275E+02  0.38051339673E+02  0.43677388505E+02  0.72099223487E+02  0.47000000000E+01 0.  1.
<mgrwt>
<rscale>  0 0.33562663E+03</rscale>
<asrwt>0</asrwt>
<pdfrwt beam="1">  1       21 0.39241335E-01 0.33562663E+03</pdfrwt>
<pdfrwt beam="2">  1       21 0.16985656E-01 0.33562663E+03</pdfrwt>
<totfact> 0.18848729E+05</totfact>
</mgrwt>
</event>
<event>
 8    1  0.9373234E-006  0.4607211E+03  0.7546771E-02  0.1024572E+00
         21   -1    0    0  504  503  0.00000000000E+00  0.00000000000E+00  0.95614231397E+02  0.95614231397E+02  0.00000000000E+00 0. -1.
         21   -1    0    0  503  504 -0.00000000000E+00 -0.00000000000E+00 -0.55500086335E+03  0.55500086335E+03  0.00000000000E+00 0. -1.
         25    2    1    2    0    0  0.12516496898E+03  0.30552101937E+02 -0.25827607594E+02  0.18136326480E+03  0.12500347240E+03 0.  0.
         25    2    1    2    0    0 -0.12516496898E+03 -0.30552101937E+02 -0.43355902435E+03  0.46925182995E+03  0.12499660762E+03 0.  0.
          5    1    3    3  501    0  0.17597146864E+01  0.32233994681E+02  0.31367621506E+02  0.45256432557E+02  0.47000000000E+01 0.  1.
         -5    1    3    3    0  501  0.12340525429E+03 -0.16818927435E+01 -0.57195229100E+02  0.13610683224E+03  0.47000000000E+01 0.  1.
          5    1    4    4  502    0 -0.11973803341E+03 -0.36059942618E+02 -0.44044754493E+03  0.45787951029E+03  0.47000000000E+01 0.  1.
         -5    1    4    4    0  502 -0.54269355734E+01  0.55078406806E+01  0.68885205767E+01  0.11372319659E+02  0.47000000000E+01 0.  1.
<mgrwt>
<rscale>  0 0.46072109E+03</rscale>
<asrwt>0</asrwt>
<pdfrwt beam="1">  1       21 0.14709882E-01 0.46072109E+03</pdfrwt>
<pdfrwt beam="2">  1       21 0.85384747E-01 0.46072109E+03</pdfrwt>
<totfact> 0.44070622E+04</totfact>
</mgrwt>
</event>
<event>
 8    1  0.9373234E-006  0.3194155E+03  0.7546771E-02  0.1075919E+00
         21   -1    0    0  504  503  0.00000000000E+00  0.00000000000E+00  0.41702703544E+02  0.41702703544E+02  0.00000000000E+00 0. -1.
         21   -1    0    0  503  504 -0.00000000000E+00 -0.00000000000E+00 -0.61162848463E+03  0.61162848463E+03  0.00000000000E+00 0. -1.
         25    2    1    2    0    0 -0.58230821940E+01  0.82629486502E+02 -0.39758995168E+03  0.42493262019E+03  0.12501368605E+03 0.  0.
         25    2    1    2    0    0  0.58230821940E+01 -0.82629486502E+02 -0.17233582940E+03  0.22839856798E+03  0.12491888341E+03 0.  0.
          5    1    3    3  501    0  0.16108726899E+02  0.33005634551E+02 -0.17486479392E+02  0.40947893180E+02  0.47000000000E+01 0.  1.
         -5    1    3    3    0  501 -0.21931809093E+02  0.49623851951E+02 -0.38010347229E+03  0.38398472701E+03  0.47000000000E+01 0.  1.
          5    1    4    4  502    0  0.41956656321E+02 -0.25775101916E+02 -0.71968109977E+01  0.49986007811E+02  0.47000000000E+01 0. -1.
         -5    1    4    4    0  502 -0.36133574127E+02 -0.56854384586E+02 -0.16513901841E+03  0.17841256017E+03  0.47000000000E+01 0. -1.
<mgrwt>
<rscale>  0 0.31941547E+03</rscale>
<asrwt>0</asrwt>
<pdfrwt beam="1">  1       21 0.64158006E-02 0.31941547E+03</pdfrwt>
<pdfrwt beam="2">  1       21 0.94096689E-01 0.31941547E+03</pdfrwt>
<totfact> 0.16019741E+05</totfact>
</mgrwt>
</event>
<event>
 8    1  0.9373234E-006  0.6350625E+03  0.7546771E-02  0.9835219E-01
         21   -1    0    0  504  503  0.00000000000E+00  0.00000000000E+00  0.46902963226E+03  0.46902963226E+03  0.00000000000E+00 0.  1.
         21   -1    0    0  503  504 -0.00000000000E+00 -0.00000000000E+00 -0.21496741731E+03  0.21496741731E+03  0.00000000000E+00 0.  1.
         25    2    1    2    0    0 -0.23049994664E+03  0.94717506370E+01 -0.65582751753E+02  0.27045533006E+03  0.12500019508E+03 0.  0.
         25    2    1    2    0    0  0.23049994664E+03 -0.94717506370E+01  0.31964496671E+03  0.41354171951E+03  0.12499563820E+03 0.  0.
          5    1    3    3  501    0 -0.15202795548E+03 -0.40204219702E+02 -0.79760673054E+02  0.17638801971E+03  0.47000000000E+01 0.  1.
         -5    1    3    3    0  501 -0.78471991154E+02  0.49675970338E+02  0.14177921300E+02  0.94067310354E+02  0.47000000000E+01 0.  1.
          5    1    4    4  502    0  0.18457394980E+03 -0.43113241048E+02  0.29643464444E+03  0.35188333709E+03  0.47000000000E+01 0.  1.
         -5    1    4    4    0  502  0.45925996838E+02  0.33641490411E+02  0.23210322277E+02  0.61658382422E+02  0.47000000000E+01 0.  1.
<mgrwt>
<rscale>  0 0.63506248E+03</rscale>
<asrwt>0</asrwt>
<pdfrwt beam="1">  1       21 0.72158405E-01 0.63506248E+03</pdfrwt>
<pdfrwt beam="2">  1       21 0.33071911E-01 0.63506248E+03</pdfrwt>
<totfact> 0.13110024E+04</totfact>
</mgrwt>
</event>
<event>
 8    1  0.9373234E-006  0.4455400E+03  0.7546771E-02  0.1029060E+00
         21   -1    0    0  504  503  0.00000000000E+00  0.00000000000E+00  0.13795983528E+04  0.13795983528E+04  0.00000000000E+00 0. -1.
         21   -1    0    0  503  504 -0.00000000000E+00 -0.00000000000E+00 -0.35971674524E+02  0.35971674524E+02  0.00000000000E+00 0. -1.
         25    2    1    2    0    0 -0.13527339411E+03 -0.91038029432E+02  0.94541804399E+03  0.96748478241E+03  0.12499884931E+03 0.  0.
         25    2    1    2    0    0  0.13527339411E+03  0.91038029432E+02  0.39820863431E+03  0.44808524494E+03  0.12499382521E+03 0.  0.
          5    1    3    3  501    0 -0.36301253504E+02  0.50502730255E+01  0.53924742679E+02  0.65370131839E+02  0.47000000000E+01 0. -1.
         -5    1    3    3    0  501 -0.98972140602E+02 -0.96088302457E+02  0.89149330131E+03  0.90211465057E+03  0.47000000000E+01 0. -1.
          5    1    4    4  502    0  0.45086681158E+02  0.51081139251E+02  0.46118454553E+02  0.82408090958E+02  0.47000000000E+01 0.  1.
         -5    1    4    4    0  502  0.90186712947E+02  0.39956890181E+02  0.35209017976E+03  0.36567715399E+03  0.47000000000E+01 0.  1.
<mgrwt>
<rscale>  0 0.44553996E+03</rscale>
<asrwt>0</asrwt>
<pdfrwt beam="1">  1       21 0.21224586E+00 0.44553996E+03</pdfrwt>
<pdfrwt beam="2">  1       21 0.55341048E-02 0.44553996E+03</pdfrwt>
<totfact> 0.22417604E+04</totfact>
</mgrwt>
</event>
<event>
 8    1  0.9373234E-006  0.2893829E+03  0.7546771E-02  0.1090672E+00
         21   -1    0    0  504  503  0.00000000000E+00  0.00000000000E+00  0.75777070691E+03  0.75777070691E+03  0.00000000000E+00 0.  1.
         21   -1    0    0  503  504 -0.00000000000E+00 -0.00000000000E+00 -0.27627911169E+02  0.27627911169E+02  0.00000000000E+00 0.  1.
         25    2    1    2    0    0 -0.39943494256E+02 -0.19656266761E+02  0.52165746998E+03  0.53826829731E+03  0.12499756938E+03 0.  0.
         25    2    1    2    0    0  0.39943494256E+02  0.19656266761E+02  0.20848532576E+03  0.24713032077E+03  0.12500165130E+03 0.  0.
          5    1    3    3  501    0 -0.28407993550E+01  0.22752111293E+02  0.13591538184E+02  0.27065635397E+02  0.47000000000E+01 0.  1.
         -5    1    3    3    0  501 -0.37102694901E+02 -0.42408378054E+02  0.50806593179E+03  0.51120266191E+03  0.47000000000E+01 0.  1.
          5    1    4    4  502    0  0.10211289045E+02 -0.48206265248E+02  0.12995779217E+03  0.13906556792E+03  0.47000000000E+01 0. -1.
         -5    1    4    4    0  502  0.29732205212E+02  0.67862532009E+02  0.78527533591E+02  0.10806475285E+03  0.47000000000E+01 0. -1.
<mgrwt>
<rscale>  0 0.28938294E+03</rscale>
<asrwt>0</asrwt>
<pdfrwt beam="1">  1       21 0.11658009E+00 0.28938294E+03</pdfrwt>
<pdfrwt beam="2">  1       21 0.42504484E-02 0.28938294E+03</pdfrwt>
<totfact> 0.19452119E+05</totfact>
</mgrwt>
</event>
<event>
 8    1  0.9373234E-006  0.3256257E+03  0.7546771E-02  0.1073089E+00
         21   -1    0    0  504  503  0.00000000000E+00  0.00000000000E+00  0.68964176772E+02  0.68964176772E+02  0.00000000000E+00 0. -1.
         21   -1    0    0  503  504 -0.00000000000E+00 -0.00000000000E+00 -0.38437386058E+03  0.38437386058E+03  0.00000000000E+00 0. -1.
         25    2    1    2    0    0 -0.35522480932E+02 -0.98049375571E+02 -0.16161510091E+03  0.22939032780E+03  0.12499981977E+03 0.  0.
         25    2    1    2    0    0  0.35522480932E+02  0.98049375571E+02 -0.15379458290E+03  0.22394770956E+03  0.12499710471E+03 0.  0.
          5    1    3    3  501    0  0.43258873877E+02 -0.45508875766E+02 -0.37783069528E+02  0.73430499696E+02  0.47000000000E+01 0. -1.
         -5    1    3    3    0  501 -0.78781354810E+02 -0.52540499805E+02 -0.12383203138E+03  0.15595982810E+03  0.47000000000E+01 0. -1.
          5    1    4    4  502    0  0.78911149120E+02  0.41396384708E+02 -0.10272815932E+03  0.13607275568E+03  0.47000000000E+01 0. -1.
         -5    1    4    4    0  502 -0.43388668188E+02  0.56652990862E+02 -0.51066423584E+02  0.87874953875E+02  0.47000000000E+01 0. -1.
<mgrwt>
<rscale>  0 0.32562572E+03</rscale>
<asrwt>0</asrwt>
<pdfrwt beam="1">  1       21 0.10609874E-01 0.32562572E+03</pdfrwt>
<pdfrwt beam="2">  1       21 0.59134438E-01 0.32562572E+03</pdfrwt>
<totfact> 0.18845331E+05</totfact>
</mgrwt>
</event>
<event>
 8    1  0.9373234E-006  0.4714868E+03  0.7546771E-02  0.1021501E+00
         21   -1    0    0  504  503  0.00000000000E+00  0.00000000000E+00  0.32088867677E+02  0.32088867677E+02  0.00000000000E+00 0.  1.
         21   -1    0    0  503  504 -0.00000000000E+00 -0.00000000000E+00 -0.17319073907E+04  0.17319073907E+04  0.00000000000E+00 0.  1.
         25    2    1    2    0    0 -0.60011076365E+02 -0.71531144307E+02 -0.18874281245E+03  0.24488391878E+03  0.12500500203E+03 0.  0.
         25    2    1    2    0    0  0.60011076365E+02  0.71531144307E+02 -0.15110757105E+04  0.15191123396E+04  0.12503784765E+03 0.  0.
          5    1    3    3  501    0  0.20065792270E+02  0.12071337135E+02 -0.55578481914E+00  0.23890418507E+02  0.47000000000E+01 0. -1.
         -5    1    3    3    0  501 -0.80076868636E+02 -0.83602481443E+02 -0.18818702763E+03  0.22099350027E+03  0.47000000000E+01 0. -1.
          5    1    4    4  502    0  0.12707735977E+02  0.99738261783E+02 -0.94617325494E+03  0.95151202083E+03  0.47000000000E+01 0.  1.
         -5    1    4    4    0  502  0.47303340388E+02 -0.28207117475E+02 -0.56490245561E+03  0.56760031874E+03  0.47000000000E+01 0.  1.
<mgrwt>
<rscale>  0 0.47148678E+03</rscale>
<asrwt>0</asrwt>
<pdfrwt beam="1">  1       21 0.49367486E-02 0.47148678E+03</pdfrwt>
<pdfrwt beam="2">  1       21 0.26644730E+00 0.47148678E+03</pdfrwt>
<totfact> 0.12420599E+04</totfact>
</mgrwt>
</event>
<event>
 8    1  0.9373234E-006  0.3470395E+03  0.7546771E-02  0.1063837E+00
         21   -1    0    0  504  503  0.00000000000E+00  0.00000000000E+00  0.66794402023E+02  0.66794402023E+02  0.00000000000E+00 0.  1.
         21   -1    0    0  503  504 -0.00000000000E+00 -0.00000000000E+00 -0.45077296366E+03  0.45077296366E+03  0.00000000000E+00 0.  1.
         25    2    1    2    0    0  0.10555551946E+03  0.51974389066E+02 -0.15417146800E+03  0.23073208883E+03  0.12500060185E+03 0.  0.
         25    2    1    2    0    0 -0.10555551946E+03 -0.51974389066E+02 -0.22980709364E+03  0.28683527686E+03  0.12497948214E+03 0.  0.
          5    1    3    3  501    0  0.96834137574E+02  0.88270747457E+02 -0.13614100381E+03  0.18901068217E+03  0.47000000000E+01 0.  1.
         -5    1    3    3    0  501  0.87213818854E+01 -0.36296358391E+02 -0.18030464191E+02  0.41721406656E+02  0.47000000000E+01 0.  1.
          5    1    4    4  502    0  0.62695251357E+01 -0.46744293375E+02 -0.12390823379E+03  0.13266377166E+03  0.47000000000E+01 0. -1.
         -5    1    4    4    0  502 -0.11182504459E+03 -0.52300956905E+01 -0.10589885985E+03  0.15417150520E+03  0.47000000000E+01 0. -1.
<mgrwt>
<rscale>  0 0.34703954E+03</rscale>
<asrwt>0</asrwt>
<pdfrwt beam="1">  1       21 0.10276062E-01 0.34703954E+03</pdfrwt>
<pdfrwt beam="2">  1       21 0.69349685E-01 0.34703954E+03</pdfrwt>
<totfact> 0.13986082E+05</totfact>
</mgrwt>
</event>
<event>
 8    1  0.9373234E-006  0.3393052E+03  0.7546771E-02  0.1067092E+00
         21   -1    0    0  504  503  0.00000000000E+00  0.00000000000E+00  0.18449035026E+03  0.18449035026E+03  0.00000000000E+00 0. -1.
         21   -1    0    0  503  504 -0.00000000000E+00 -0.00000000000E+00 -0.15600816889E+03  0.15600816889E+03  0.00000000000E+00 0. -1.
         25    2    1    2    0    0 -0.84890661356E+02  0.61006140614E+02 -0.33146296589E+02  0.16628233747E+03  0.12499186054E+03 0.  0.
         25    2    1    2    0    0  0.84890661356E+02 -0.61006140614E+02  0.61628477954E+02  0.17421618167E+03  0.12500014033E+03 0.  0.
          5    1    3    3  501    0 -0.61412207081E+02 -0.29908393277E+02 -0.20154595445E+02  0.71374147172E+02  0.47000000000E+01 0. -1.
         -5    1    3    3    0  501 -0.23478454275E+02  0.90914533891E+02 -0.12991701144E+02  0.94908190302E+02  0.47000000000E+01 0. -1.
          5    1    4    4  502    0  0.66596213904E+02 -0.51140989377E+02 -0.22804607135E+02  0.87135507156E+02  0.47000000000E+01 0.  1.
         -5    1    4    4    0  502  0.18294447453E+02 -0.98651512373E+01  0.84433085089E+02  0.87080674516E+02  0.47000000000E+01 0.  1.
<mgrwt>
<rscale>  0 0.33930518E+03</rscale>
<asrwt>0</asrwt>
<pdfrwt beam="1">  1       21 0.28383131E-01 0.33930518E+03</pdfrwt>
<pdfrwt beam="2">  1       21 0.24001257E-01 0.33930518E+03</pdfrwt>
<totfact> 0.18706547E+05</totfact>
</mgrwt>
</event>
<event>
 8    1  0.9373234E-006  0.3173782E+03  0.7546771E-02  0.1076862E+00
         21   -1    0    0  504  503  0.00000000000E+00  0.00000000000E+00  0.89902467557E+02  0.89902467557E+02  0.00000000000E+00 0.  1.
         21   -1    0    0  503  504 -0.00000000000E+00 -0.00000000000E+00 -0.28010610437E+03  0.28010610437E+03  0.00000000000E+00 0.  1.
         25    2    1    2    0    0  0.92193421486E+02 -0.96205056244E+01 -0.58876540551E+02  0.16638207733E+03  0.12499747011E+03 0.  0.
         25    2    1    2    0    0 -0.92193421486E+02  0.96205056244E+01 -0.13132709627E+03  0.20362649460E+03  0.12499904799E+03 0.  0.
          5    1    3    3  501    0 -0.86876988533E+01  0.55476320674E+01 -0.63161018058E+02  0.64168968630E+02  0.47000000000E+01 0.  1.
         -5    1    3    3    0  501  0.10088112034E+03 -0.15168137692E+02  0.42844775074E+01  0.10221310870E+03  0.47000000000E+01 0.  1.
          5    1    4    4  502    0 -0.27685711463E+02 -0.42815925370E+02 -0.10412148451E+03  0.11603049436E+03  0.47000000000E+01 0.  1.
         -5    1    4    4    0  502 -0.64507710023E+02  0.52436430995E+02 -0.27205611756E+02  0.87596000245E+02  0.47000000000E+01 0.  1.
<mgrwt>
<rscale>  0 0.31737820E+03</rscale>
<asrwt>0</asrwt>
<pdfrwt beam="1">  1       21 0.13831149E-01 0.31737820E+03</pdfrwt>
<pdfrwt beam="2">  1       21 0.43093246E-01 0.31737820E+03</pdfrwt>
<totfact> 0.22808173E+05</totfact>
</mgrwt>
</event>
<event>
 8    1  0.9373234E-006  0.3056180E+03  0.7546771E-02  0.1082465E+00
         21   -1    0    0  504  503  0.00000000000E+00  0.00000000000E+00  0.27751282263E+03  0.27751282263E+03  0.00000000000E+00 0. -1.
         21   -1    0    0  503  504 -0.00000000000E+00 -0.00000000000E+00 -0.84142403138E+02  0.84142403138E+02  0.00000000000E+00 0. -1.
         25    2    1    2    0    0  0.21124290024E+02  0.32824048830E+02  0.18988483426E+03  0.23066246945E+03  0.12500108288E+03 0.  0.
         25    2    1    2    0    0 -0.21124290024E+02 -0.32824048830E+02  0.34855852379E+01  0.13099275632E+03  0.12499319619E+03 0.  0.
          5    1    3    3  501    0  0.84989790673E+01 -0.30289875186E+02  0.18515419145E+01  0.31862633153E+02  0.47000000000E+01 0.  1.
         -5    1    3    3    0  501  0.12625310957E+02  0.63113924016E+02  0.18803329234E+03  0.19879983629E+03  0.47000000000E+01 0.  1.
          5    1    4    4  502    0  0.33476767161E+02  0.10975566821E+02  0.38658499306E+02  0.52514060737E+02  0.47000000000E+01 0.  1.
         -5    1    4    4    0  502 -0.54601057185E+02 -0.43799615651E+02 -0.35172914068E+02  0.78478695586E+02  0.47000000000E+01 0.  1.
<mgrwt>
<rscale>  0 0.30561803E+03</rscale>
<asrwt>0</asrwt>
<pdfrwt beam="1">  1       21 0.42694280E-01 0.30561803E+03</pdfrwt>
<pdfrwt beam="2">  1       21 0.12944985E-01 0.30561803E+03</pdfrwt>
<totfact> 0.26297960E+05</totfact>
</mgrwt>
</event>
<event>
 8    1  0.9373234E-006  0.2870682E+03  0.7546771E-02  0.1091890E+00
         21   -1    0    0  504  503  0.00000000000E+00  0.00000000000E+00  0.13098153164E+03  0.13098153164E+03  0.00000000000E+00 0.  1.
         21   -1    0    0  503  504 -0.00000000000E+00 -0.00000000000E+00 -0.15728963155E+03  0.15728963155E+03  0.00000000000E+00 0.  1.
         25    2    1    2    0    0 -0.41085613373E+01  0.22230171722E+02 -0.80234254632E+02  0.15025204175E+03  0.12500831821E+03 0.  0.
         25    2    1    2    0    0  0.41085613373E+01 -0.22230171722E+02  0.53926154724E+02  0.13801912143E+03  0.12502074591E+03 0.  0.
          5    1    3    3  501    0  0.25175239227E+02  0.34124921756E+02 -0.10268674473E+03  0.11119784395E+03  0.47000000000E+01 0.  1.
         -5    1    3    3    0  501 -0.29283800564E+02 -0.11894750034E+02  0.22452490102E+02  0.39054197798E+02  0.47000000000E+01 0.  1.
          5    1    4    4  502    0  0.30175129619E+01  0.38508837497E+02 -0.18739217749E+02  0.43188936450E+02  0.47000000000E+01 0.  1.
         -5    1    4    4    0  502  0.10910483754E+01 -0.60739009218E+02  0.72665372472E+02  0.94830184983E+02  0.47000000000E+01 0.  1.
<mgrwt>
<rscale>  0 0.28706819E+03</rscale>
<asrwt>0</asrwt>
<pdfrwt beam="1">  1       21 0.20151005E-01 0.28706819E+03</pdfrwt>
<pdfrwt beam="2">  1       21 0.24198405E-01 0.28706819E+03</pdfrwt>
<totfact> 0.35942743E+05</totfact>
</mgrwt>
</event>
<event>
 8    1  0.9373234E-006  0.3168174E+03  0.7546771E-02  0.1077123E+00
         21   -1    0    0  504  503  0.00000000000E+00  0.00000000000E+00  0.15035913367E+03  0.15035913367E+03  0.00000000000E+00 0. -1.
         21   -1    0    0  503  504 -0.00000000000E+00 -0.00000000000E+00 -0.16688923781E+03  0.16688923781E+03  0.00000000000E+00 0. -1.
         25    2    1    2    0    0 -0.89817338938E+01  0.25208751797E+02  0.85405293954E+02  0.15375206275E+03  0.12501791813E+03 0.  0.
         25    2    1    2    0    0  0.89817338938E+01 -0.25208751797E+02 -0.10193539809E+03  0.16349630874E+03  0.12499625944E+03 0.  0.
          5    1    3    3  501    0 -0.16775085811E+00  0.74359090063E+02  0.33887515142E+02  0.81852037835E+02  0.47000000000E+01 0.  1.
         -5    1    3    3    0  501 -0.88139830357E+01 -0.49150338266E+02  0.51517778812E+02  0.71900024912E+02  0.47000000000E+01 0.  1.
          5    1    4    4  502    0 -0.53245468367E+02 -0.38406161752E+01 -0.75156848193E+02  0.92306403161E+02  0.47000000000E+01 0.  1.
         -5    1    4    4    0  502  0.62227202261E+02 -0.21368135622E+02 -0.26778549901E+02  0.71189905576E+02  0.47000000000E+01 0.  1.
<mgrwt>
<rscale>  0 0.31681743E+03</rscale>
<asrwt>0</asrwt>
<pdfrwt beam="1">  1       21 0.23132175E-01 0.31681743E+03</pdfrwt>
<pdfrwt beam="2">  1       21 0.25675267E-01 0.31681743E+03</pdfrwt>
<totfact> 0.24524017E+05</totfact>
</mgrwt>
</event>
<event>
 8    1  0.9373234E-006  0.3591533E+03  0.7546771E-02  0.1058920E+00
         21   -1    0    0  504  503  0.00000000000E+00  0.00000000000E+00  0.62048521795E+03  0.62048521795E+03  0.00000000000E+00 0.  1.
         21   -1    0    0  503  504 -0.00000000000E+00 -0.00000000000E+00 -0.51971873994E+02  0.51971873994E+02  0.00000000000E+00 0.  1.
         25    2    1    2    0    0  0.15345624191E+01 -0.55421939546E+01  0.52542076306E+03  0.54011376748E+03  0.12499133077E+03 0.  0.
         25    2    1    2    0    0 -0.15345624191E+01  0.55421939546E+01  0.43092580898E+02  0.13234332447E+03  0.12499885682E+03 0.  0.
          5    1    3    3  501    0 -0.54599027719E+02  0.19752793820E+02  0.33212115778E+03  0.33719101432E+03  0.47000000000E+01 0. -1.
         -5    1    3    3    0  501  0.56133590138E+02 -0.25294987774E+02  0.19329960528E+03  0.20292275316E+03  0.47000000000E+01 0. -1.
          5    1    4    4  502    0 -0.33559357475E+02  0.55177846064E+02  0.13653194781E+02  0.66176467858E+02  0.47000000000E+01 0.  1.
         -5    1    4    4    0  502  0.32024795056E+02 -0.49635652110E+02  0.29439386116E+02  0.66166856610E+02  0.47000000000E+01 0.  1.
<mgrwt>
<rscale>  0 0.35915334E+03</rscale>
<asrwt>0</asrwt>
<pdfrwt beam="1">  1       21 0.95459259E-01 0.35915334E+03</pdfrwt>
<pdfrwt beam="2">  1       21 0.79956733E-02 0.35915334E+03</pdfrwt>
<totfact> 0.10428438E+05</totfact>
</mgrwt>
</event>
<event>
 8    1  0.9373234E-006  0.3018514E+03  0.7546771E-02  0.1084319E+00
         21   -1    0    0  504  503  0.00000000000E+00  0.00000000000E+00  0.32301914675E+03  0.32301914675E+03  0.00000000000E+00 0.  1.
         21   -1    0    0  503  504 -0.00000000000E+00 -0.00000000000E+00 -0.70517682987E+02  0.70517682987E+02  0.00000000000E+00 0.  1.
         25    2    1    2    0    0  0.40545542059E+02 -0.74182245035E+02  0.12897898501E+03  0.19852509455E+03  0.12501875112E+03 0.  0.
         25    2    1    2    0    0 -0.40545542059E+02  0.74182245035E+02  0.12352247875E+03  0.19501173519E+03  0.12499931058E+03 0.  0.
          5    1    3    3  501    0  0.71135174357E+02 -0.78870973094E+02  0.58360394587E+02  0.12128012650E+03  0.47000000000E+01 0.  1.
         -5    1    3    3    0  501 -0.30589632298E+02  0.46887280597E+01  0.70618590427E+02  0.77244968049E+02  0.47000000000E+01 0.  1.
          5    1    4    4  502    0 -0.11800138704E+02  0.96605529260E+02  0.12467705457E+03  0.15823504509E+03  0.47000000000E+01 0.  1.
         -5    1    4    4    0  502 -0.28745403355E+02 -0.22423284225E+02 -0.11545758215E+01  0.36776690102E+02  0.47000000000E+01 0.  1.
<mgrwt>
<rscale>  0 0.30185137E+03</rscale>
<asrwt>0</asrwt>
<pdfrwt beam="1">  1       21 0.49695253E-01 0.30185137E+03</pdfrwt>
<pdfrwt beam="2">  1       21 0.10848874E-01 0.30185137E+03</pdfrwt>
<totfact> 0.26387764E+05</totfact>
</mgrwt>
</event>
<event>
 8    1  0.9373234E-006  0.2574744E+03  0.7546771E-02  0.1108670E+00
         21   -1    0    0  504  503  0.00000000000E+00  0.00000000000E+00  0.25384007078E+02  0.25384007078E+02  0.00000000000E+00 0.  1.
         21   -1    0    0  503  504 -0.00000000000E+00 -0.00000000000E+00 -0.65290185179E+03  0.65290185179E+03  0.00000000000E+00 0.  1.
         25    2    1    2    0    0 -0.13951846687E+01 -0.30705082507E+02 -0.31724829551E+03  0.34237411478E+03  0.12501521840E+03 0.  0.
         25    2    1    2    0    0  0.13951846687E+01  0.30705082507E+02 -0.31026954920E+03  0.33591174409E+03  0.12499903210E+03 0.  0.
          5    1    3    3  501    0  0.34711855514E+02 -0.66317214603E+02 -0.22255790758E+03  0.23485527052E+03  0.47000000000E+01 0.  1.
         -5    1    3    3    0  501 -0.36107040183E+02  0.35612132096E+02 -0.94690387935E+02  0.10751884426E+03  0.47000000000E+01 0.  1.
          5    1    4    4  502    0  0.24161661737E+02  0.35774123867E+02 -0.30905199207E+03  0.31208780437E+03  0.47000000000E+01 0. -1.
         -5    1    4    4    0  502 -0.22766477068E+02 -0.50690413602E+01 -0.12175571334E+01  0.23823939720E+02  0.47000000000E+01 0. -1.
<mgrwt>
<rscale>  0 0.25747439E+03</rscale>
<asrwt>0</asrwt>
<pdfrwt beam="1">  1       21 0.39052326E-02 0.25747439E+03</pdfrwt>
<pdfrwt beam="2">  1       21 0.10044642E+00 0.25747439E+03</pdfrwt>
<totfact> 0.32547632E+05</totfact>
</mgrwt>
</event>
<event>
 8    1  0.9373234E-006  0.2925152E+03  0.7546771E-02  0.1089043E+00
         21   -1    0    0  504  503  0.00000000000E+00  0.00000000000E+00  0.29248659524E+03  0.29248659524E+03  0.00000000000E+00 0.  1.
         21   -1    0    0  503  504 -0.00000000000E+00 -0.00000000000E+00 -0.73135954330E+02  0.73135954330E+02  0.00000000000E+00 0.  1.
         25    2    1    2    0    0 -0.54774537008E+02  0.51538111437E+02  0.12280322582E+03  0.19069151951E+03  0.12500478593E+03 0.  0.
         25    2    1    2    0    0  0.54774537008E+02 -0.51538111437E+02  0.96547415083E+02  0.17493103006E+03  0.12499214008E+03 0.  0.
          5    1    3    3  501    0 -0.81171792642E+01  0.49291373895E+02 -0.88210307893E+01  0.50945350366E+02  0.47000000000E+01 0.  1.
         -5    1    3    3    0  501 -0.46657357744E+02  0.22467375420E+01  0.13162425661E+03  0.13974616914E+03  0.47000000000E+01 0.  1.
          5    1    4    4  502    0 -0.18690763598E+01 -0.81419253812E+02  0.56968601770E+02  0.99499245853E+02  0.47000000000E+01 0.  1.
         -5    1    4    4    0  502  0.56643613368E+02  0.29881142374E+02  0.39578813313E+02  0.75431784204E+02  0.47000000000E+01 0.  1.
<mgrwt>
<rscale>  0 0.29251520E+03</rscale>
<asrwt>0</asrwt>
<pdfrwt beam="1">  1       21 0.44997937E-01 0.29251520E+03</pdfrwt>
<pdfrwt beam="2">  1       21 0.11251685E-01 0.29251520E+03</pdfrwt>
<totfact> 0.30473381E+05</totfact>
</mgrwt>
</event>
<event>
 8    1  0.9373234E-006  0.3309250E+03  0.7546771E-02  0.1070728E+00
         21   -1    0    0  504  503  0.00000000000E+00  0.00000000000E+00  0.80917077635E+03  0.80917077635E+03  0.00000000000E+00 0. -1.
         21   -1    0    0  503  504 -0.00000000000E+00 -0.00000000000E+00 -0.33834434440E+02  0.33834434440E+02  0.00000000000E+00 0. -1.
         25    2    1    2    0    0  0.80711082982E+02 -0.22579547952E+02  0.56283348181E+03  0.58260727301E+03  0.12500236564E+03 0.  0.
         25    2    1    2    0    0 -0.80711082982E+02  0.22579547952E+02  0.21250286010E+03  0.26039793778E+03  0.12500202218E+03 0.  0.
          5    1    3    3  501    0  0.63843728525E+02  0.30549008756E+02  0.14913833987E+03  0.16514720109E+03  0.47000000000E+01 0.  1.
         -5    1    3    3    0  501  0.16867354457E+02 -0.53128556708E+02  0.41369514194E+03  0.41746007192E+03  0.47000000000E+01 0.  1.
          5    1    4    4  502    0 -0.11292788607E+03  0.29637616547E+02  0.15785011170E+03  0.19639206585E+03  0.47000000000E+01 0.  1.
         -5    1    4    4    0  502  0.32216803087E+02 -0.70580685951E+01  0.54652748404E+02  0.64005871930E+02  0.47000000000E+01 0.  1.
<mgrwt>
<rscale>  0 0.33092498E+03</rscale>
<asrwt>0</asrwt>
<pdfrwt beam="1">  1       21 0.12448780E+00 0.33092498E+03</pdfrwt>
<pdfrwt beam="2">  1       21 0.52052982E-02 0.33092498E+03</pdfrwt>
<totfact> 0.11536295E+05</totfact>
</mgrwt>
</event>
<event>
 8    1  0.9373234E-006  0.3033990E+03  0.7546771E-02  0.1083554E+00
         21   -1    0    0  504  503  0.00000000000E+00  0.00000000000E+00  0.66716320565E+02  0.66716320565E+02  0.00000000000E+00 0.  1.
         21   -1    0    0  503  504 -0.00000000000E+00 -0.00000000000E+00 -0.34493424850E+03  0.34493424850E+03  0.00000000000E+00 0.  1.
         25    2    1    2    0    0  0.48275434233E+02  0.72584239366E+01 -0.43126428214E+02  0.14095446906E+03  0.12500028507E+03 0.  0.
         25    2    1    2    0    0 -0.48275434233E+02 -0.72584239366E+01 -0.23509149972E+03  0.27069610000E+03  0.12500065219E+03 0.  0.
          5    1    3    3  501    0  0.86697595131E+02  0.82402078827E+01 -0.61782656177E+01  0.87433603343E+02  0.47000000000E+01 0.  1.
         -5    1    3    3    0  501 -0.38422160898E+02 -0.98178394602E+00 -0.36948162596E+02  0.53520865716E+02  0.47000000000E+01 0.  1.
          5    1    4    4  502    0 -0.68347017855E+02  0.34557199113E+02 -0.89847281125E+02  0.11815303122E+03  0.47000000000E+01 0.  1.
         -5    1    4    4    0  502  0.20071583622E+02 -0.41815623049E+02 -0.14524421859E+03  0.15254306879E+03  0.47000000000E+01 0.  1.
<mgrwt>
<rscale>  0 0.30339904E+03</rscale>
<asrwt>0</asrwt>
<pdfrwt beam="1">  1       21 0.10264049E-01 0.30339904E+03</pdfrwt>
<pdfrwt beam="2">  1       21 0.53066808E-01 0.30339904E+03</pdfrwt>
<totfact> 0.25352613E+05</totfact>
</mgrwt>
</event>
<event>
 8    1  0.9373234E-006  0.3159477E+03  0.7546771E-02  0.1077530E+00
         21   -1    0    0  504  503  0.00000000000E+00  0.00000000000E+00  0.21831795416E+02  0.21831795416E+02  0.00000000000E+00 0. -1.
         21   -1    0    0  503  504 -0.00000000000E+00 -0.00000000000E+00 -0.11430913905E+04  0.11430913905E+04  0.00000000000E+00 0. -1.
         25    2    1    2    0    0 -0.74905328409E+02  0.11973845404E+02 -0.34005762176E+03  0.37015842282E+03  0.12499556261E+03 0.  0.
         25    2    1    2    0    0  0.74905328409E+02 -0.11973845404E+02 -0.78120197336E+03  0.79476476313E+03  0.12498129594E+03 0.  0.
          5    1    3    3  501    0 -0.28888016963E+02 -0.22692660132E+02 -0.14927870017E+02  0.39930009406E+02  0.47000000000E+01 0.  1.
         -5    1    3    3    0  501 -0.46017311445E+02  0.34666505536E+02 -0.32512975175E+03  0.33022841342E+03  0.47000000000E+01 0.  1.
          5    1    4    4  502    0  0.10734448804E+02 -0.15679008101E+02 -0.12195952500E+02  0.23062760969E+02  0.47000000000E+01 0.  1.
         -5    1    4    4    0  502  0.64170879604E+02  0.37051626970E+01 -0.76900602086E+03  0.77170200216E+03  0.47000000000E+01 0.  1.
<mgrwt>
<rscale>  0 0.31594770E+03</rscale>
<asrwt>0</asrwt>
<pdfrwt beam="1">  1       21 0.33587384E-02 0.31594770E+03</pdfrwt>
<pdfrwt beam="2">  1       21 0.17586018E+00 0.31594770E+03</pdfrwt>
<totfact> 0.96600338E+04</totfact>
</mgrwt>
</event>
<event>
 8    1  0.9373234E-006  0.3093710E+03  0.7546771E-02  0.1080648E+00
         21   -1    0    0  504  503  0.00000000000E+00  0.00000000000E+00  0.32022431765E+03  0.32022431765E+03  0.00000000000E+00 0. -1.
         21   -1    0    0  503  504 -0.00000000000E+00 -0.00000000000E+00 -0.74721383653E+02  0.74721383653E+02  0.00000000000E+00 0. -1.
         25    2    1    2    0    0 -0.64394749134E+02 -0.41550162411E+02  0.18566244669E+03  0.23658314734E+03  0.12501176658E+03 0.  0.
         25    2    1    2    0    0  0.64394749134E+02  0.41550162411E+02  0.59840487306E+02  0.15836255396E+03  0.12499885945E+03 0.  0.
          5    1    3    3  501    0 -0.97996752799E+02 -0.79003229161E+01  0.11640925701E+03  0.15244337893E+03  0.47000000000E+01 0.  1.
         -5    1    3    3    0  501  0.33602003664E+02 -0.33649839495E+02  0.69253189680E+02  0.84139768417E+02  0.47000000000E+01 0.  1.
          5    1    4    4  502    0  0.15615143374E+02 -0.31757357249E+02 -0.18679265215E+02  0.40291033630E+02  0.47000000000E+01 0.  1.
         -5    1    4    4    0  502  0.48779605760E+02  0.73307519659E+02  0.78519752521E+02  0.11807152033E+03  0.47000000000E+01 0.  1.
<mgrwt>
<rscale>  0 0.30937100E+03</rscale>
<asrwt>0</asrwt>
<pdfrwt beam="1">  1       21 0.49265279E-01 0.30937100E+03</pdfrwt>
<pdfrwt beam="2">  1       21 0.11495598E-01 0.30937100E+03</pdfrwt>
<totfact> 0.24179779E+05</totfact>
</mgrwt>
</event>
<event>
 8    1  0.9373234E-006  0.2765614E+03  0.7546771E-02  0.1097582E+00
         21   -1    0    0  504  503  0.00000000000E+00  0.00000000000E+00  0.16948973771E+03  0.16948973771E+03  0.00000000000E+00 0. -1.
         21   -1    0    0  503  504 -0.00000000000E+00 -0.00000000000E+00 -0.11281838561E+03  0.11281838561E+03  0.00000000000E+00 0. -1.
         25    2    1    2    0    0 -0.51605248076E+02  0.60592830465E+01  0.57133593286E+02  0.14694375276E+03  0.12501360907E+03 0.  0.
         25    2    1    2    0    0  0.51605248076E+02 -0.60592830465E+01 -0.46224118607E+00  0.13536437056E+03  0.12499393029E+03 0.  0.
          5    1    3    3  501    0 -0.70106301877E-02  0.36084629110E+02  0.75913729024E+02  0.84184825007E+02  0.47000000000E+01 0.  1.
         -5    1    3    3    0  501 -0.51598237446E+02 -0.30025346064E+02 -0.18780135738E+02  0.62758927749E+02  0.47000000000E+01 0.  1.
          5    1    4    4  502    0 -0.81525317697E+01  0.52529210502E+01  0.53101929677E+02  0.54184517062E+02  0.47000000000E+01 0.  1.
         -5    1    4    4    0  502  0.59757779846E+02 -0.11312204097E+02 -0.53564170863E+02  0.81179853497E+02  0.47000000000E+01 0.  1.
<mgrwt>
<rscale>  0 0.27656145E+03</rscale>
<asrwt>0</asrwt>
<pdfrwt beam="1">  1       21 0.26075344E-01 0.27656145E+03</pdfrwt>
<pdfrwt beam="2">  1       21 0.17356675E-01 0.27656145E+03</pdfrwt>
<totfact> 0.41238706E+05</totfact>
</mgrwt>
</event>
<event>
 8    1  0.9373234E-006  0.2607506E+03  0.7546771E-02  0.1106693E+00
         21   -1    0    0  504  503  0.00000000000E+00  0.00000000000E+00  0.98805606734E+02  0.98805606734E+02  0.00000000000E+00 0. -1.
         21   -1    0    0  503  504 -0.00000000000E+00 -0.00000000000E+00 -0.17203189635E+03  0.17203189635E+03  0.00000000000E+00 0. -1.
         25    2    1    2    0    0  0.28092413545E+02 -0.92079585577E+01 -0.13404381957E+02  0.12914038772E+03  0.12499436821E+03 0.  0.
         25    2    1    2    0    0 -0.28092413545E+02  0.92079585577E+01 -0.59821907660E+02  0.14169711537E+03  0.12500176666E+03 0.  0.
          5    1    3    3  501    0  0.21399217413E+02  0.53119460448E+02  0.16136976084E+02  0.59683293989E+02  0.47000000000E+01 0.  1.
         -5    1    3    3    0  501  0.66931961320E+01 -0.62327419006E+02 -0.29541358041E+02  0.69457093729E+02  0.47000000000E+01 0.  1.
          5    1    4    4  502    0  0.93486438920E+01  0.16555603918E+02  0.34594763568E+02  0.39753903331E+02  0.47000000000E+01 0.  1.
         -5    1    4    4    0  502 -0.37441057437E+02 -0.73476453603E+01 -0.94416671228E+02  0.10194321204E+03  0.47000000000E+01 0.  1.
<mgrwt>
<rscale>  0 0.26075058E+03</rscale>
<asrwt>0</asrwt>
<pdfrwt beam="1">  1       21 0.15200863E-01 0.26075058E+03</pdfrwt>
<pdfrwt beam="2">  1       21 0.26466445E-01 0.26075058E+03</pdfrwt>
<totfact> 0.51330613E+05</totfact>
</mgrwt>
</event>
<event>
 8    1  0.9373234E-006  0.3479898E+03  0.7546771E-02  0.1063443E+00
         21   -1    0    0  504  503  0.00000000000E+00  0.00000000000E+00  0.69441112963E+03  0.69441112963E+03  0.00000000000E+00 0. -1.
         21   -1    0    0  503  504 -0.00000000000E+00 -0.00000000000E+00 -0.43596972936E+02  0.43596972936E+02  0.00000000000E+00 0. -1.
         25    2    1    2    0    0  0.83561760246E+02  0.77501156475E+02  0.23900473536E+03  0.29280520461E+03  0.12499050882E+03 0.  0.
         25    2    1    2    0    0 -0.83561760246E+02 -0.77501156475E+02  0.41180942134E+03  0.44520289795E+03  0.12501849389E+03 0.  0.
          5    1    3    3  501    0 -0.32762602437E+02  0.23323517946E+02  0.50667570857E+02  0.64858826264E+02  0.47000000000E+01 0. -1.
         -5    1    3    3    0  501  0.11632436268E+03  0.54177638529E+02  0.18833716450E+03  0.22794637835E+03  0.47000000000E+01 0. -1.
          5    1    4    4  502    0 -0.80105651459E+02 -0.45399803823E+02  0.11877853593E+03  0.15036119240E+03  0.47000000000E+01 0. -1.
         -5    1    4    4    0  502 -0.34561087877E+01 -0.32101352651E+02  0.29303088541E+03  0.29484170555E+03  0.47000000000E+01 0. -1.
<mgrwt>
<rscale>  0 0.34798979E+03</rscale>
<asrwt>0</asrwt>
<pdfrwt beam="1">  1       21 0.10683247E+00 0.34798979E+03</pdfrwt>
<pdfrwt beam="2">  1       21 0.67072271E-02 0.34798979E+03</pdfrwt>
<totfact> 0.10839000E+05</totfact>
</mgrwt>
</event>
<event>
 8    1  0.9373234E-006  0.3287509E+03  0.7546771E-02  0.1071691E+00
         21   -1    0    0  504  503  0.00000000000E+00  0.00000000000E+00  0.38999415777E+02  0.38999415777E+02  0.00000000000E+00 0.  1.
         21   -1    0    0  503  504 -0.00000000000E+00 -0.00000000000E+00 -0.69281249518E+03  0.69281249518E+03  0.00000000000E+00 0.  1.
         25    2    1    2    0    0  0.56789875014E+02  0.27807512627E+02 -0.13546359245E+03  0.19486753054E+03  0.12499848766E+03 0.  0.
         25    2    1    2    0    0 -0.56789875014E+02 -0.27807512627E+02 -0.51834948695E+03  0.53694438042E+03  0.12499891749E+03 0.  0.
          5    1    3    3  501    0 -0.43884363782E+01 -0.27033931748E+01 -0.12541501535E+03  0.12560884835E+03  0.47000000000E+01 0. -1.
         -5    1    3    3    0  501  0.61178311392E+02  0.30510905802E+02 -0.10048577104E+02  0.69258682195E+02  0.47000000000E+01 0. -1.
          5    1    4    4  502    0 -0.55920709826E+02  0.19923953385E+02 -0.10411945882E+03  0.11994599372E+03  0.47000000000E+01 0.  1.
         -5    1    4    4    0  502 -0.86916518780E+00 -0.47731466012E+02 -0.41423002813E+03  0.41699838669E+03  0.47000000000E+01 0.  1.
<mgrwt>
<rscale>  0 0.32875086E+03</rscale>
<asrwt>0</asrwt>
<pdfrwt beam="1">  1       21 0.59999101E-02 0.32875086E+03</pdfrwt>
<pdfrwt beam="2">  1       21 0.10658654E+00 0.32875086E+03</pdfrwt>
<totfact> 0.13295594E+05</totfact>
</mgrwt>
</event>
<event>
 8    1  0.9373234E-006  0.4175754E+03  0.7546771E-02  0.1037858E+00
         21   -1    0    0  504  503  0.00000000000E+00  0.00000000000E+00  0.75035524837E+03  0.75035524837E+03  0.00000000000E+00 0.  1.
         21   -1    0    0  503  504 -0.00000000000E+00 -0.00000000000E+00 -0.58095559946E+02  0.58095559946E+02  0.00000000000E+00 0.  1.
         25    2    1    2    0    0  0.66161539312E+02 -0.14106527723E+03  0.22852283308E+03  0.30352079618E+03  0.12500170701E+03 0.  0.
         25    2    1    2    0    0 -0.66161539312E+02  0.14106527723E+03  0.46373685534E+03  0.50493001213E+03  0.12500273765E+03 0.  0.
          5    1    3    3  501    0  0.78726837577E+01 -0.14052709041E+03  0.15199325740E+03  0.20720492895E+03  0.47000000000E+01 0.  1.
         -5    1    3    3    0  501  0.58288855554E+02 -0.53818682191E+00  0.76529575680E+02  0.96315867231E+02  0.47000000000E+01 0.  1.
          5    1    4    4  502    0  0.27474077582E+02  0.76382403730E+02  0.14206566700E+03  0.16368824111E+03  0.47000000000E+01 0. -1.
         -5    1    4    4    0  502 -0.93635616894E+02  0.64682873500E+02  0.32167118834E+03  0.34124177102E+03  0.47000000000E+01 0. -1.
<mgrwt>
<rscale>  0 0.41757542E+03</rscale>
<asrwt>0</asrwt>
<pdfrwt beam="1">  1       21 0.11543926E+00 0.41757542E+03</pdfrwt>
<pdfrwt beam="2">  1       21 0.89377790E-02 0.41757542E+03</pdfrwt>
<totfact> 0.52996384E+04</totfact>
</mgrwt>
</event>
<event>
 8    1  0.9373234E-006  0.3698965E+03  0.7546771E-02  0.1054733E+00
         21   -1    0    0  504  503  0.00000000000E+00  0.00000000000E+00  0.29398069206E+03  0.29398069206E+03  0.00000000000E+00 0. -1.
         21   -1    0    0  503  504 -0.00000000000E+00 -0.00000000000E+00 -0.11635409677E+03  0.11635409677E+03  0.00000000000E+00 0. -1.
         25    2    1    2    0    0  0.10544934401E+03  0.85462248263E+02  0.74869747153E+02  0.19913123755E+03  0.12499764278E+03 0.  0.
         25    2    1    2    0    0 -0.10544934401E+03 -0.85462248263E+02  0.10275684813E+03  0.21120355128E+03  0.12499844081E+03 0.  0.
          5    1    3    3  501    0  0.28714573050E+02  0.12209827871E+02 -0.34456747215E+02  0.46722200619E+02  0.47000000000E+01 0.  1.
         -5    1    3    3    0  501  0.76734770955E+02  0.73252420392E+02  0.10932649437E+03  0.15240903693E+03  0.47000000000E+01 0.  1.
          5    1    4    4  502    0 -0.46220111724E+02  0.29552536677E+02  0.29975693502E+02  0.62691971997E+02  0.47000000000E+01 0. -1.
         -5    1    4    4    0  502 -0.59229232281E+02 -0.11501478494E+03  0.72781154632E+02  0.14851157928E+03  0.47000000000E+01 0. -1.
<mgrwt>
<rscale>  0 0.36989651E+03</rscale>
<asrwt>0</asrwt>
<pdfrwt beam="1">  1       21 0.45227799E-01 0.36989651E+03</pdfrwt>
<pdfrwt beam="2">  1       21 0.17900630E-01 0.36989651E+03</pdfrwt>
<totfact> 0.12656110E+05</totfact>
</mgrwt>
</event>
<event>
 8    1  0.9373234E-006  0.6389721E+03  0.7546771E-02  0.9827695E-01
         21   -1    0    0  504  503  0.00000000000E+00  0.00000000000E+00  0.11036737866E+03  0.11036737866E+03  0.00000000000E+00 0. -1.
         21   -1    0    0  503  504 -0.00000000000E+00 -0.00000000000E+00 -0.92483249058E+03  0.92483249058E+03  0.00000000000E+00 0. -1.
         25    2    1    2    0    0  0.15104025364E+03  0.14284705026E+03 -0.74406768268E+03  0.78261155888E+03  0.12500279075E+03 0.  0.
         25    2    1    2    0    0 -0.15104025364E+03 -0.14284705026E+03 -0.70397429237E+02  0.25258831037E+03  0.12500647385E+03 0.  0.
          5    1    3    3  501    0  0.16706428640E+03  0.13006941368E+03 -0.58488000776E+03  0.62204118967E+03  0.47000000000E+01 0.  1.
         -5    1    3    3    0  501 -0.16024032762E+02  0.12777636579E+02 -0.15918767492E+03  0.16057036921E+03  0.47000000000E+01 0.  1.
          5    1    4    4  502    0 -0.64062432403E+02 -0.13361108411E+03 -0.72374593320E+02  0.16497299415E+03  0.47000000000E+01 0. -1.
         -5    1    4    4    0  502 -0.86977821234E+02 -0.92359661504E+01  0.19771640822E+01  0.87615316214E+02  0.47000000000E+01 0. -1.
<mgrwt>
<rscale>  0 0.63897210E+03</rscale>
<asrwt>0</asrwt>
<pdfrwt beam="1">  1       21 0.16979596E-01 0.63897210E+03</pdfrwt>
<pdfrwt beam="2">  1       21 0.14228193E+00 0.63897210E+03</pdfrwt>
<totfact> 0.90103667E+03</totfact>
</mgrwt>
</event>
<event>
 8    1  0.9373234E-006  0.2557606E+03  0.7546771E-02  0.1109717E+00
         21   -1    0    0  504  503  0.00000000000E+00  0.00000000000E+00  0.90837894133E+03  0.90837894133E+03  0.00000000000E+00 0. -1.
         21   -1    0    0  503  504 -0.00000000000E+00 -0.00000000000E+00 -0.18002804091E+02  0.18002804091E+02  0.00000000000E+00 0. -1.
         25    2    1    2    0    0 -0.12126651561E+02  0.23393971029E+02  0.46675079020E+03  0.48391343193E+03  0.12498630285E+03 0.  0.
         25    2    1    2    0    0  0.12126651561E+02 -0.23393971029E+02  0.42362534704E+03  0.44246831349E+03  0.12500176088E+03 0.  0.
          5    1    3    3  501    0 -0.13468017751E+02 -0.39642141292E+02  0.66659242873E+02  0.78857032208E+02  0.47000000000E+01 0. -1.
         -5    1    3    3    0  501  0.13413661907E+01  0.63036112321E+02  0.40009154732E+03  0.40505639973E+03  0.47000000000E+01 0. -1.
          5    1    4    4  502    0  0.58125940064E+02 -0.11205975487E+02  0.34773749736E+03  0.35277139321E+03  0.47000000000E+01 0.  1.
         -5    1    4    4    0  502 -0.45999288503E+02 -0.12187995542E+02  0.75887849681E+02  0.89696920278E+02  0.47000000000E+01 0.  1.
<mgrwt>
<rscale>  0 0.25576058E+03</rscale>
<asrwt>0</asrwt>
<pdfrwt beam="1">  1       21 0.13975057E+00 0.25576058E+03</pdfrwt>
<pdfrwt beam="2">  1       21 0.27696629E-02 0.25576058E+03</pdfrwt>
<totfact> 0.25400983E+05</totfact>
</mgrwt>
</event>
<event>
 8    1  0.9373234E-006  0.2646676E+03  0.7546771E-02  0.1104371E+00
         21   -1    0    0  504  503  0.00000000000E+00  0.00000000000E+00  0.10379738055E+03  0.10379738055E+03  0.00000000000E+00 0.  1.
         21   -1    0    0  503  504 -0.00000000000E+00 -0.00000000000E+00 -0.16871552206E+03  0.16871552206E+03  0.00000000000E+00 0.  1.
         25    2    1    2    0    0 -0.20988293647E+00  0.11944161305E+02  0.10542680175E+02  0.12601662603E+03  0.12500533945E+03 0.  0.
         25    2    1    2    0    0  0.20988293647E+00 -0.11944161305E+02 -0.75460821684E+02  0.14649627658E+03  0.12499646556E+03 0.  0.
          5    1    3    3  501    0 -0.18363630442E+02  0.40789873638E+02  0.54199342931E+02  0.70432204911E+02  0.47000000000E+01 0. -1.
         -5    1    3    3    0  501  0.18153747506E+02 -0.28845712334E+02 -0.43656662755E+02  0.55584421122E+02  0.47000000000E+01 0. -1.
          5    1    4    4  502    0 -0.36087282275E+02 -0.56887169559E+02 -0.38105150936E+02  0.77540534756E+02  0.47000000000E+01 0. -1.
         -5    1    4    4    0  502  0.36297165211E+02  0.44943008255E+02 -0.37355670748E+02  0.68955741824E+02  0.47000000000E+01 0. -1.
<mgrwt>
<rscale>  0 0.26466756E+03</rscale>
<asrwt>0</asrwt>
<pdfrwt beam="1">  1       21 0.15968828E-01 0.26466756E+03</pdfrwt>
<pdfrwt beam="2">  1       21 0.25956234E-01 0.26466756E+03</pdfrwt>
<totfact> 0.48646045E+05</totfact>
</mgrwt>
</event>
<event>
 8    1  0.9373234E-006  0.3977296E+03  0.7546771E-02  0.1044569E+00
         21   -1    0    0  504  503  0.00000000000E+00  0.00000000000E+00  0.89730867455E+02  0.89730867455E+02  0.00000000000E+00 0.  1.
         21   -1    0    0  503  504 -0.00000000000E+00 -0.00000000000E+00 -0.44073131503E+03  0.44073131503E+03  0.00000000000E+00 0.  1.
         25    2    1    2    0    0 -0.80324498773E+02  0.70248352840E+02 -0.32482161020E+03  0.36403551580E+03  0.12500368848E+03 0.  0.
         25    2    1    2    0    0  0.80324498773E+02 -0.70248352840E+02 -0.26178837374E+02  0.16642666668E+03  0.12500259067E+03 0.  0.
          5    1    3    3  501    0 -0.10362078893E+03  0.37083591820E+02 -0.29061749852E+03  0.31079427461E+03  0.47000000000E+01 0.  1.
         -5    1    3    3    0  501  0.23296290157E+02  0.33164761021E+02 -0.34204111676E+02  0.53241241197E+02  0.47000000000E+01 0.  1.
          5    1    4    4  502    0  0.35750396882E+02 -0.54722613311E+02  0.45992593270E+02  0.80062874795E+02  0.47000000000E+01 0. -1.
         -5    1    4    4    0  502  0.44574101891E+02 -0.15525739530E+02 -0.72171430643E+02  0.86363791883E+02  0.47000000000E+01 0. -1.
<mgrwt>
<rscale>  0 0.39772957E+03</rscale>
<asrwt>0</asrwt>
<pdfrwt beam="1">  1       21 0.13804749E-01 0.39772957E+03</pdfrwt>
<pdfrwt beam="2">  1       21 0.67804818E-01 0.39772957E+03</pdfrwt>
<totfact> 0.85113558E+04</totfact>
</mgrwt>
</event>
<event>
 8    1  0.9373234E-006  0.2684633E+03  0.7546771E-02  0.1102162E+00
         21   -1    0    0  504  503  0.00000000000E+00  0.00000000000E+00  0.40354557581E+02  0.40354557581E+02  0.00000000000E+00 0.  1.
         21   -1    0    0  503  504 -0.00000000000E+00 -0.00000000000E+00 -0.44649571728E+03  0.44649571728E+03  0.00000000000E+00 0.  1.
         25    2    1    2    0    0  0.30864041106E+02  0.67916667586E+01 -0.27091631444E+03  0.30001124261E+03  0.12494951177E+03 0.  0.
         25    2    1    2    0    0 -0.30864041106E+02 -0.67916667586E+01 -0.13522484526E+03  0.18683903226E+03  0.12499739768E+03 0.  0.
          5    1    3    3  501    0 -0.44130491753E+02 -0.12420579200E+01 -0.15815973990E+03  0.16427305420E+03  0.47000000000E+01 0.  1.
         -5    1    3    3    0  501  0.74994532859E+02  0.80337246785E+01 -0.11275657454E+03  0.13573818841E+03  0.47000000000E+01 0.  1.
          5    1    4    4  502    0 -0.39002814134E+02  0.47011470068E+02 -0.11164223650E+03  0.12734746483E+03  0.47000000000E+01 0. -1.
         -5    1    4    4    0  502  0.81387730276E+01 -0.53803136826E+02 -0.23582608763E+02  0.59491567426E+02  0.47000000000E+01 0. -1.
<mgrwt>
<rscale>  0 0.26846331E+03</rscale>
<asrwt>0</asrwt>
<pdfrwt beam="1">  1       21 0.62083935E-02 0.26846331E+03</pdfrwt>
<pdfrwt beam="2">  1       21 0.68691648E-01 0.26846331E+03</pdfrwt>
<totfact> 0.35269886E+05</totfact>
</mgrwt>
</event>
<event>
 8    1  0.9373234E-006  0.5105685E+03  0.7546771E-02  0.1011057E+00
         21   -1    0    0  504  503  0.00000000000E+00  0.00000000000E+00  0.12112883699E+03  0.12112883699E+03  0.00000000000E+00 0. -1.
         21   -1    0    0  503  504 -0.00000000000E+00 -0.00000000000E+00 -0.53802252953E+03  0.53802252953E+03  0.00000000000E+00 0. -1.
         25    2    1    2    0    0 -0.12859573790E+03 -0.17885922056E+03 -0.24964948256E+03  0.35563606808E+03  0.12499865677E+03 0.  0.
         25    2    1    2    0    0  0.12859573790E+03  0.17885922056E+03 -0.16724420998E+03  0.30351529844E+03  0.12499370396E+03 0.  0.
          5    1    3    3  501    0 -0.48477985329E+02 -0.16976367302E+02 -0.54600547195E+01  0.51867275867E+02  0.47000000000E+01 0.  1.
         -5    1    3    3    0  501 -0.80117752570E+02 -0.16188285326E+03 -0.24418942784E+03  0.30376879221E+03  0.47000000000E+01 0.  1.
          5    1    4    4  502    0  0.14665996831E+03  0.11438535015E+03 -0.11897421905E+03  0.22083955586E+03  0.47000000000E+01 0.  1.
         -5    1    4    4    0  502 -0.18064230412E+02  0.64473870416E+02 -0.48269990935E+02  0.82675742583E+02  0.47000000000E+01 0.  1.
<mgrwt>
<rscale>  0 0.51056848E+03</rscale>
<asrwt>0</asrwt>
<pdfrwt beam="1">  1       21 0.18635206E-01 0.51056848E+03</pdfrwt>
<pdfrwt beam="2">  1       21 0.82772696E-01 0.51056848E+03</pdfrwt>
<totfact> 0.30096017E+04</totfact>
</mgrwt>
</event>
<event>
 8    1  0.9373234E-006  0.2596702E+03  0.7546771E-02  0.1107342E+00
         21   -1    0    0  504  503  0.00000000000E+00  0.00000000000E+00  0.20503897710E+03  0.20503897710E+03  0.00000000000E+00 0. -1.
         21   -1    0    0  503  504 -0.00000000000E+00 -0.00000000000E+00 -0.82214411945E+02  0.82214411945E+02  0.00000000000E+00 0. -1.
         25    2    1    2    0    0 -0.19235905119E+02 -0.67291859121E+01  0.93052243375E+02  0.15716042297E+03  0.12500150624E+03 0.  0.
         25    2    1    2    0    0  0.19235905119E+02  0.67291859121E+01  0.29772321781E+02  0.13009296608E+03  0.12498994636E+03 0.  0.
          5    1    3    3  501    0  0.12070378810E+02  0.41954611482E+02  0.88642907480E+02  0.98921880875E+02  0.47000000000E+01 0. -1.
         -5    1    3    3    0  501 -0.31306283929E+02 -0.48683797394E+02  0.44093358947E+01  0.58238542094E+02  0.47000000000E+01 0. -1.
          5    1    4    4  502    0  0.44282942161E+02  0.54094240343E+01  0.69592605265E+02  0.82797714596E+02  0.47000000000E+01 0.  1.
         -5    1    4    4    0  502 -0.25047037041E+02  0.13197618778E+01 -0.39820283484E+02  0.47295251482E+02  0.47000000000E+01 0.  1.
<mgrwt>
<rscale>  0 0.25967024E+03</rscale>
<asrwt>0</asrwt>
<pdfrwt beam="1">  1       21 0.31544458E-01 0.25967024E+03</pdfrwt>
<pdfrwt beam="2">  1       21 0.12648371E-01 0.25967024E+03</pdfrwt>
<totfact> 0.50925222E+05</totfact>
</mgrwt>
</event>
<event>
 8    1  0.9373234E-006  0.3881537E+03  0.7546771E-02  0.1047961E+00
         21   -1    0    0  504  503  0.00000000000E+00  0.00000000000E+00  0.11054916319E+03  0.11054916319E+03  0.00000000000E+00 0.  1.
         21   -1    0    0  503  504 -0.00000000000E+00 -0.00000000000E+00 -0.34071551537E+03  0.34071551537E+03  0.00000000000E+00 0.  1.
         25    2    1    2    0    0  0.75482803412E+02 -0.83743386373E+02 -0.27807036690E+01  0.16835173663E+03  0.12499586610E+03 0.  0.
         25    2    1    2    0    0 -0.75482803412E+02  0.83743386373E+02 -0.22738564851E+03  0.28291294193E+03  0.12499956476E+03 0.  0.
          5    1    3    3  501    0  0.93468190540E+02 -0.10431310841E+03 -0.69566328519E+01  0.14031397639E+03  0.47000000000E+01 0. -1.
         -5    1    3    3    0  501 -0.17985387128E+02  0.20569722040E+02  0.41759291829E+01  0.28037760244E+02  0.47000000000E+01 0. -1.
          5    1    4    4  502    0 -0.10619938762E+03  0.39535516238E+02 -0.16709078786E+03  0.20194748912E+03  0.47000000000E+01 0.  1.
         -5    1    4    4    0  502  0.30716584208E+02  0.44207870135E+02 -0.60294860655E+02  0.80965452810E+02  0.47000000000E+01 0.  1.
<mgrwt>
<rscale>  0 0.38815366E+03</rscale>
<asrwt>0</asrwt>
<pdfrwt beam="1">  1       21 0.17007564E-01 0.38815366E+03</pdfrwt>
<pdfrwt beam="2">  1       21 0.52417771E-01 0.38815366E+03</pdfrwt>
<totfact> 0.10161740E+05</totfact>
</mgrwt>
</event>
<event>
 8    1  0.9373234E-006  0.3254900E+03  0.7546771E-02  0.1073150E+00
         21   -1    0    0  504  503  0.00000000000E+00  0.00000000000E+00  0.12593076118E+04  0.12593076118E+04  0.00000000000E+00 0. -1.
         21   -1    0    0  503  504 -0.00000000000E+00 -0.00000000000E+00 -0.21032142793E+02  0.21032142793E+02  0.00000000000E+00 0. -1.
         25    2    1    2    0    0 -0.16034848921E+02 -0.10084559963E+03  0.53719831527E+03  0.56092288802E+03  0.12500202009E+03 0.  0.
         25    2    1    2    0    0  0.16034848921E+02  0.10084559963E+03  0.70107715373E+03  0.71941686657E+03  0.12499800431E+03 0.  0.
          5    1    3    3  501    0  0.84673178477E+01  0.14822161686E+02  0.94451742083E+01  0.20067218651E+02  0.47000000000E+01 0.  1.
         -5    1    3    3    0  501 -0.24502166768E+02 -0.11566776131E+03  0.52775314106E+03  0.54085566937E+03  0.47000000000E+01 0.  1.
          5    1    4    4  502    0 -0.33301726699E+02  0.22050358400E+02  0.44733895427E+03  0.44914302101E+03  0.47000000000E+01 0.  1.
         -5    1    4    4    0  502  0.49336575620E+02  0.78795241226E+02  0.25373819946E+03  0.27027384557E+03  0.47000000000E+01 0.  1.
<mgrwt>
<rscale>  0 0.32549002E+03</rscale>
<asrwt>0</asrwt>
<pdfrwt beam="1">  1       21 0.19373957E+00 0.32549002E+03</pdfrwt>
<pdfrwt beam="2">  1       21 0.32357152E-02 0.32549002E+03</pdfrwt>
<totfact> 0.77295217E+04</totfact>
</mgrwt>
</event>
<event>
 8    1  0.9373234E-006  0.3257772E+03  0.7546771E-02  0.1073021E+00
         21   -1    0    0  504  503  0.00000000000E+00  0.00000000000E+00  0.25539176145E+02  0.25539176145E+02  0.00000000000E+00 0.  1.
         21   -1    0    0  503  504 -0.00000000000E+00 -0.00000000000E+00 -0.10389020757E+04  0.10389020757E+04  0.00000000000E+00 0.  1.
         25    2    1    2    0    0  0.73314868655E+02 -0.54678792319E+02 -0.34191912595E+03  0.37536464305E+03  0.12500034508E+03 0.  0.
         25    2    1    2    0    0 -0.73314868655E+02  0.54678792319E+02 -0.67144377360E+03  0.68907660878E+03  0.12499996549E+03 0.  0.
          5    1    3    3  501    0  0.35243861102E+02 -0.90016438982E+02 -0.16900579175E+03  0.19475660882E+03  0.47000000000E+01 0.  1.
         -5    1    3    3    0  501  0.38071007553E+02  0.35337646663E+02 -0.17291333419E+03  0.18060803423E+03  0.47000000000E+01 0.  1.
          5    1    4    4  502    0 -0.88930052692E+02  0.19586239308E+02 -0.60772946335E+03  0.61453182640E+03  0.47000000000E+01 0. -1.
         -5    1    4    4    0  502  0.15615184037E+02  0.35092553011E+02 -0.63714310249E+02  0.74544782379E+02  0.47000000000E+01 0. -1.
<mgrwt>
<rscale>  0 0.32577724E+03</rscale>
<asrwt>0</asrwt>
<pdfrwt beam="1">  1       21 0.39291049E-02 0.32577724E+03</pdfrwt>
<pdfrwt beam="2">  1       21 0.15983105E+00 0.32577724E+03</pdfrwt>
<totfact> 0.96560424E+04</totfact>
</mgrwt>
</event>
<event>
 8    1  0.9373234E-006  0.3079381E+03  0.7546771E-02  0.1081338E+00
         21   -1    0    0  504  503  0.00000000000E+00  0.00000000000E+00  0.62672124777E+03  0.62672124777E+03  0.00000000000E+00 0.  1.
         21   -1    0    0  503  504 -0.00000000000E+00 -0.00000000000E+00 -0.37826172632E+02  0.37826172632E+02  0.00000000000E+00 0.  1.
         25    2    1    2    0    0  0.37657374200E+02 -0.34906130557E+02  0.45368898474E+03  0.47337860926E+03  0.12496838420E+03 0.  0.
         25    2    1    2    0    0 -0.37657374200E+02  0.34906130557E+02  0.13520609040E+03  0.19116881114E+03  0.12501324606E+03 0.  0.
          5    1    3    3  501    0  0.46800677582E+02  0.34389178057E+02  0.13426343920E+03  0.14636147066E+03  0.47000000000E+01 0. -1.
         -5    1    3    3    0  501 -0.91433033821E+01 -0.69295308613E+02  0.31942554554E+03  0.32701713859E+03  0.47000000000E+01 0. -1.
          5    1    4    4  502    0 -0.56325423369E+02 -0.10071806442E+02  0.12066144477E+02  0.58665803031E+02  0.47000000000E+01 0. -1.
         -5    1    4    4    0  502  0.18668049169E+02  0.44977936999E+02  0.12313994593E+03  0.13250300811E+03  0.47000000000E+01 0. -1.
<mgrwt>
<rscale>  0 0.30793809E+03</rscale>
<asrwt>0</asrwt>
<pdfrwt beam="1">  1       21 0.96418646E-01 0.30793809E+03</pdfrwt>
<pdfrwt beam="2">  1       21 0.58194116E-02 0.30793809E+03</pdfrwt>
<totfact> 0.17951917E+05</totfact>
</mgrwt>
</event>
<event>
 8    1  0.9373234E-006  0.3355679E+03  0.7546771E-02  0.1068699E+00
         21   -1    0    0  504  503  0.00000000000E+00  0.00000000000E+00  0.26072999494E+03  0.26072999494E+03  0.00000000000E+00 0.  1.
         21   -1    0    0  503  504 -0.00000000000E+00 -0.00000000000E+00 -0.10797167127E+03  0.10797167127E+03  0.00000000000E+00 0.  1.
         25    2    1    2    0    0 -0.10768948674E+03  0.12440934663E+02  0.10693424414E+03  0.19700839943E+03  0.12500229783E+03 0.  0.
         25    2    1    2    0    0  0.10768948674E+03 -0.12440934663E+02  0.45824079524E+02  0.17169326678E+03  0.12500771650E+03 0.  0.
          5    1    3    3  501    0 -0.35863128109E+02 -0.47588953999E+01 -0.26043837520E+02  0.44823905630E+02  0.47000000000E+01 0. -1.
         -5    1    3    3    0  501 -0.71826358635E+02  0.17199830063E+02  0.13297808166E+03  0.15218449379E+03  0.47000000000E+01 0. -1.
          5    1    4    4  502    0 -0.16900689654E+02  0.20590053240E+02  0.32112077127E+02  0.41986415668E+02  0.47000000000E+01 0.  1.
         -5    1    4    4    0  502  0.12459017640E+03 -0.33030987903E+02  0.13712002397E+02  0.12970685112E+03  0.47000000000E+01 0.  1.
<mgrwt>
<rscale>  0 0.33556790E+03</rscale>
<asrwt>0</asrwt>
<pdfrwt beam="1">  1       21 0.40112307E-01 0.33556790E+03</pdfrwt>
<pdfrwt beam="2">  1       21 0.16611026E-01 0.33556790E+03</pdfrwt>
<totfact> 0.18785317E+05</totfact>
</mgrwt>
</event>
<event>
 8    1  0.9373234E-006  0.3006063E+03  0.7546771E-02  0.1084938E+00
         21   -1    0    0  504  503  0.00000000000E+00  0.00000000000E+00  0.18271531970E+03  0.18271531970E+03  0.00000000000E+00 0. -1.
         21   -1    0    0  503  504 -0.00000000000E+00 -0.00000000000E+00 -0.12364060931E+03  0.12364060931E+03  0.00000000000E+00 0. -1.
         25    2    1    2    0    0 -0.50799883553E+02  0.59447431722E+02 -0.25252156497E+00  0.14744323948E+03  0.12499927918E+03 0.  0.
         25    2    1    2    0    0  0.50799883553E+02 -0.59447431722E+02  0.59327231953E+02  0.15891268953E+03  0.12497558616E+03 0.  0.
          5    1    3    3  501    0  0.25270032969E+02 -0.20654789792E+02  0.14264532709E+02  0.35927173574E+02  0.47000000000E+01 0. -1.
         -5    1    3    3    0  501 -0.76069916523E+02  0.80102221514E+02 -0.14517054274E+02  0.11151606591E+03  0.47000000000E+01 0. -1.
          5    1    4    4  502    0  0.54698414788E+02 -0.92512143483E+02  0.24154828600E+02  0.11025406576E+03  0.47000000000E+01 0. -1.
         -5    1    4    4    0  502 -0.38985312350E+01  0.33064711761E+02  0.35172403353E+02  0.48658623771E+02  0.47000000000E+01 0. -1.
<mgrwt>
<rscale>  0 0.30060628E+03</rscale>
<asrwt>0</asrwt>
<pdfrwt beam="1">  1       21 0.28110049E-01 0.30060628E+03</pdfrwt>
<pdfrwt beam="2">  1       21 0.19021632E-01 0.30060628E+03</pdfrwt>
<totfact> 0.29894755E+05</totfact>
</mgrwt>
</event>
<event>
 8    1  0.9373234E-006  0.2853680E+03  0.7546771E-02  0.1092793E+00
         21   -1    0    0  504  503  0.00000000000E+00  0.00000000000E+00  0.31811143919E+02  0.31811143919E+02  0.00000000000E+00 0. -1.
         21   -1    0    0  503  504 -0.00000000000E+00 -0.00000000000E+00 -0.63998700822E+03  0.63998700822E+03  0.00000000000E+00 0. -1.
         25    2    1    2    0    0  0.54233135890E+02  0.41175857333E+02 -0.28085453356E+03  0.31486544135E+03  0.12499717150E+03 0.  0.
         25    2    1    2    0    0 -0.54233135890E+02 -0.41175857333E+02 -0.32732133074E+03  0.35693271078E+03  0.12500008885E+03 0.  0.
          5    1    3    3  501    0  0.67338936129E+02 -0.23205626483E+02 -0.10397172883E+03  0.12611599350E+03  0.47000000000E+01 0.  1.
         -5    1    3    3    0  501 -0.13105800239E+02  0.64381483817E+02 -0.17688280472E+03  0.18874944785E+03  0.47000000000E+01 0.  1.
          5    1    4    4  502    0  0.18976208958E+02  0.75604321539E+01 -0.33791112006E+01  0.21231227786E+02  0.47000000000E+01 0.  1.
         -5    1    4    4    0  502 -0.73209344848E+02 -0.48736289487E+02 -0.32394221954E+03  0.33570148300E+03  0.47000000000E+01 0.  1.
<mgrwt>
<rscale>  0 0.28536796E+03</rscale>
<asrwt>0</asrwt>
<pdfrwt beam="1">  1       21 0.48940226E-02 0.28536796E+03</pdfrwt>
<pdfrwt beam="2">  1       21 0.98459530E-01 0.28536796E+03</pdfrwt>
<totfact> 0.23119615E+05</totfact>
</mgrwt>
</event>
<event>
 8    1  0.9373234E-006  0.2515561E+03  0.7546771E-02  0.1112325E+00
         21   -1    0    0  504  503  0.00000000000E+00  0.00000000000E+00  0.13582127249E+03  0.13582127249E+03  0.00000000000E+00 0.  1.
         21   -1    0    0  503  504 -0.00000000000E+00 -0.00000000000E+00 -0.11647751020E+03  0.11647751020E+03  0.00000000000E+00 0.  1.
         25    2    1    2    0    0 -0.70424094328E+01 -0.38522924631E+01 -0.16678950820E+01  0.12527041308E+03  0.12500183531E+03 0.  0.
         25    2    1    2    0    0  0.70424094328E+01  0.38522924631E+01  0.21011657376E+02  0.12702836961E+03  0.12502112322E+03 0.  0.
          5    1    3    3  501    0  0.36173366654E+02 -0.48463799554E+02  0.11157060395E+02  0.61675135338E+02  0.47000000000E+01 0.  1.
         -5    1    3    3    0  501 -0.43215776087E+02  0.44611507091E+02 -0.12824955477E+02  0.63595277739E+02  0.47000000000E+01 0.  1.
          5    1    4    4  502    0 -0.42445480421E+02  0.28552507889E+02 -0.22906739328E+02  0.56246539641E+02  0.47000000000E+01 0. -1.
         -5    1    4    4    0  502  0.49487889854E+02 -0.24700215426E+02  0.43918396704E+02  0.70781829966E+02  0.47000000000E+01 0. -1.
<mgrwt>
<rscale>  0 0.25155615E+03</rscale>
<asrwt>0</asrwt>
<pdfrwt beam="1">  1       21 0.20895580E-01 0.25155615E+03</pdfrwt>
<pdfrwt beam="2">  1       21 0.17919617E-01 0.25155615E+03</pdfrwt>
<totfact> 0.59579965E+05</totfact>
</mgrwt>
</event>
<event>
 8    1  0.9373234E-006  0.7838798E+03  0.7546771E-02  0.9583648E-01
         21   -1    0    0  504  503  0.00000000000E+00  0.00000000000E+00  0.12815930021E+04  0.12815930021E+04  0.00000000000E+00 0. -1.
         21   -1    0    0  503  504 -0.00000000000E+00 -0.00000000000E+00 -0.11986402376E+03  0.11986402376E+03  0.00000000000E+00 0. -1.
         25    2    1    2    0    0 -0.27415355799E+03  0.99063338604E+02  0.16920100052E+03  0.35948330722E+03  0.12500220468E+03 0.  0.
         25    2    1    2    0    0  0.27415355799E+03 -0.99063338604E+02  0.99252797782E+03  0.10419737186E+04  0.12499490053E+03 0.  0.
          5    1    3    3  501    0 -0.17878996484E+03  0.78899942100E-01  0.82999990348E+02  0.19717237675E+03  0.47000000000E+01 0. -1.
         -5    1    3    3    0  501 -0.95363593149E+02  0.98984438662E+02  0.86201010172E+02  0.16231093047E+03  0.47000000000E+01 0. -1.
          5    1    4    4  502    0  0.32296214410E+02  0.20338795682E+02  0.60474043650E+02  0.71665277718E+02  0.47000000000E+01 0. -1.
         -5    1    4    4    0  502  0.24185734358E+03 -0.11940213429E+03  0.93205393417E+03  0.97030844092E+03  0.47000000000E+01 0. -1.
<mgrwt>
<rscale>  0 0.78387982E+03</rscale>
<asrwt>0</asrwt>
<pdfrwt beam="1">  1       21 0.19716814E+00 0.78387982E+03</pdfrwt>
<pdfrwt beam="2">  1       21 0.18440620E-01 0.78387982E+03</pdfrwt>
<totfact> 0.29068890E+03</totfact>
</mgrwt>
</event>
<event>
 8    1  0.9373234E-006  0.2572332E+03  0.7546771E-02  0.1108817E+00
         21   -1    0    0  504  503  0.00000000000E+00  0.00000000000E+00  0.85899798507E+01  0.85899798507E+01  0.00000000000E+00 0. -1.
         21   -1    0    0  503  504 -0.00000000000E+00 -0.00000000000E+00 -0.19257582399E+04  0.19257582399E+04  0.00000000000E+00 0. -1.
         25    2    1    2    0    0 -0.45239618220E+01  0.29847235416E+02 -0.97989464894E+03  0.98829491314E+03  0.12498795394E+03 0.  0.
         25    2    1    2    0    0  0.45239618220E+01 -0.29847235416E+02 -0.93727361107E+03  0.94605330657E+03  0.12499485257E+03 0.  0.
          5    1    3    3  501    0  0.30690058482E+02 -0.36247084197E+02 -0.24698213801E+03  0.25155118226E+03  0.47000000000E+01 0. -1.
         -5    1    3    3    0  501 -0.35214020305E+02  0.66094319612E+02 -0.73291251093E+03  0.73674373088E+03  0.47000000000E+01 0. -1.
          5    1    4    4  502    0 -0.18167773790E+02  0.45392958115E+02 -0.41071804411E+03  0.41364476355E+03  0.47000000000E+01 0.  1.
         -5    1    4    4    0  502  0.22691735612E+02 -0.75240193531E+02 -0.52655556696E+03  0.53240854302E+03  0.47000000000E+01 0.  1.
<mgrwt>
<rscale>  0 0.25723316E+03</rscale>
<asrwt>0</asrwt>
<pdfrwt beam="1">  1       21 0.13215361E-02 0.25723316E+03</pdfrwt>
<pdfrwt beam="2">  1       21 0.29627034E+00 0.25723316E+03</pdfrwt>
<totfact> 0.82230645E+04</totfact>
</mgrwt>
</event>
<event>
 8    1  0.9373234E-006  0.2940177E+03  0.7546771E-02  0.1088270E+00
         21   -1    0    0  504  503  0.00000000000E+00  0.00000000000E+00  0.15802820669E+04  0.15802820669E+04  0.00000000000E+00 0.  1.
         21   -1    0    0  503  504 -0.00000000000E+00 -0.00000000000E+00 -0.13675785776E+02  0.13675785776E+02  0.00000000000E+00 0.  1.
         25    2    1    2    0    0 -0.43772284284E+02 -0.33049364057E+02  0.48749996519E+03  0.50625241208E+03  0.12500806112E+03 0.  0.
         25    2    1    2    0    0  0.43772284284E+02  0.33049364057E+02  0.10791063159E+04  0.10877054406E+04  0.12499764425E+03 0.  0.
          5    1    3    3  501    0 -0.53407124153E+02 -0.75271659282E+02  0.30971388574E+03  0.32320724716E+03  0.47000000000E+01 0. -1.
         -5    1    3    3    0  501  0.96348398687E+01  0.42222295226E+02  0.17778607945E+03  0.18304516492E+03  0.47000000000E+01 0. -1.
          5    1    4    4  502    0  0.65879082988E+02 -0.27570893516E+02  0.53481704782E+03  0.53958462949E+03  0.47000000000E+01 0. -1.
         -5    1    4    4    0  502 -0.22106798704E+02  0.60620257573E+02  0.54428926807E+03  0.54812081106E+03  0.47000000000E+01 0. -1.
<mgrwt>
<rscale>  0 0.29401768E+03</rscale>
<asrwt>0</asrwt>
<pdfrwt beam="1">  1       21 0.24312017E+00 0.29401768E+03</pdfrwt>
<pdfrwt beam="2">  1       21 0.21039683E-02 0.29401768E+03</pdfrwt>
<totfact> 0.77987765E+04</totfact>
</mgrwt>
</event>
<event>
 8    1  0.9373234E-006  0.8889167E+03  0.7546771E-02  0.9439543E-01
         21   -1    0    0  504  503  0.00000000000E+00  0.00000000000E+00  0.22890497777E+04  0.22890497777E+04  0.00000000000E+00 0. -1.
         21   -1    0    0  503  504 -0.00000000000E+00 -0.00000000000E+00 -0.86299227135E+02  0.86299227135E+02  0.00000000000E+00 0. -1.
         25    2    1    2    0    0  0.15195802254E+03  0.13088566181E+03  0.95495339655E+02  0.25488367512E+03  0.12499612340E+03 0.  0.
         25    2    1    2    0    0 -0.15195802254E+03 -0.13088566181E+03  0.21072552110E+04  0.21204653298E+04  0.12500557394E+03 0.  0.
          5    1    3    3  501    0  0.12347370775E+03  0.26980837442E+02  0.67985980241E+02  0.14358936452E+03  0.47000000000E+01 0. -1.
         -5    1    3    3    0  501  0.28484314790E+02  0.10390482437E+03  0.27509359414E+02  0.11129431060E+03  0.47000000000E+01 0. -1.
          5    1    4    4  502    0 -0.98133782914E+01  0.17870055206E+02  0.76537653747E+02  0.79345722680E+02  0.47000000000E+01 0. -1.
         -5    1    4    4    0  502 -0.14214464425E+03 -0.14875571702E+03  0.20307175572E+04  0.20411196071E+04  0.47000000000E+01 0. -1.
<mgrwt>
<rscale>  0 0.88891670E+03</rscale>
<asrwt>0</asrwt>
<pdfrwt beam="1">  1       21 0.35216146E+00 0.88891670E+03</pdfrwt>
<pdfrwt beam="2">  1       21 0.13276806E-01 0.88891670E+03</pdfrwt>
<totfact> 0.54939616E+02</totfact>
</mgrwt>
</event>
<event>
 8    1  0.9373234E-006  0.3582709E+03  0.7546771E-02  0.1059271E+00
         21   -1    0    0  504  503  0.00000000000E+00  0.00000000000E+00  0.23690546114E+03  0.23690546114E+03  0.00000000000E+00 0. -1.
         21   -1    0    0  503  504 -0.00000000000E+00 -0.00000000000E+00 -0.13545282452E+03  0.13545282452E+03  0.00000000000E+00 0. -1.
         25    2    1    2    0    0  0.39020833103E+02  0.30723899431E+02  0.17368778949E+03  0.21968208259E+03  0.12500474303E+03 0.  0.
         25    2    1    2    0    0 -0.39020833103E+02 -0.30723899431E+02 -0.72235152869E+02  0.15267620308E+03  0.12500208904E+03 0.  0.
          5    1    3    3  501    0 -0.38441698526E+02 -0.17610239778E+02  0.64566549376E+02  0.77322791135E+02  0.47000000000E+01 0. -1.
         -5    1    3    3    0  501  0.77462531629E+02  0.48334139209E+02  0.10912124011E+03  0.14235929145E+03  0.47000000000E+01 0. -1.
          5    1    4    4  502    0 -0.57215331691E+02 -0.37762804572E+02 -0.98204307351E+02  0.11985741350E+03  0.47000000000E+01 0. -1.
         -5    1    4    4    0  502  0.18194498588E+02  0.70389051417E+01  0.25969154482E+02  0.32818789572E+02  0.47000000000E+01 0. -1.
<mgrwt>
<rscale>  0 0.35827092E+03</rscale>
<asrwt>0</asrwt>
<pdfrwt beam="1">  1       21 0.36446994E-01 0.35827092E+03</pdfrwt>
<pdfrwt beam="2">  1       21 0.20838896E-01 0.35827092E+03</pdfrwt>
<totfact> 0.14836947E+05</totfact>
</mgrwt>
</event>
<event>
 8    1  0.9373234E-006  0.3124234E+03  0.7546771E-02  0.1079190E+00
         21   -1    0    0  504  503  0.00000000000E+00  0.00000000000E+00  0.19312550735E+03  0.19312550735E+03  0.00000000000E+00 0.  1.
         21   -1    0    0  503  504 -0.00000000000E+00 -0.00000000000E+00 -0.12635353654E+03  0.12635353654E+03  0.00000000000E+00 0.  1.
         25    2    1    2    0    0  0.80239905963E+02 -0.41501344770E+02  0.58764738015E+02  0.16504064326E+03  0.12499726144E+03 0.  0.
         25    2    1    2    0    0 -0.80239905963E+02  0.41501344770E+02  0.80072327938E+01  0.15443840063E+03  0.12500519863E+03 0.  0.
          5    1    3    3  501    0  0.32079629091E+02  0.17780295864E+02  0.77839252537E+02  0.86175871096E+02  0.47000000000E+01 0.  1.
         -5    1    3    3    0  501  0.48160276872E+02 -0.59281640634E+02 -0.19074514522E+02  0.78864772167E+02  0.47000000000E+01 0.  1.
          5    1    4    4  502    0 -0.56368273983E+02 -0.22650137261E+02 -0.38020229222E+02  0.71819488023E+02  0.47000000000E+01 0. -1.
         -5    1    4    4    0  502 -0.23871631980E+02  0.64151482031E+02  0.46027462015E+02  0.82618912603E+02  0.47000000000E+01 0. -1.
<mgrwt>
<rscale>  0 0.31242337E+03</rscale>
<asrwt>0</asrwt>
<pdfrwt beam="1">  1       21 0.29711617E-01 0.31242337E+03</pdfrwt>
<pdfrwt beam="2">  1       21 0.19439006E-01 0.31242337E+03</pdfrwt>
<totfact> 0.25683216E+05</totfact>
</mgrwt>
</event>
<event>
 8    1  0.9373234E-006  0.3876976E+03  0.7546771E-02  0.1048125E+00
         21   -1    0    0  504  503  0.00000000000E+00  0.00000000000E+00  0.64192397077E+02  0.64192397077E+02  0.00000000000E+00 0. -1.
         21   -1    0    0  503  504 -0.00000000000E+00 -0.00000000000E+00 -0.58538656491E+03  0.58538656491E+03  0.00000000000E+00 0. -1.
         25    2    1    2    0    0 -0.14223705741E+03  0.18580881924E+02 -0.32278949467E+03  0.37469083575E+03  0.12499413926E+03 0.  0.
         25    2    1    2    0    0  0.14223705741E+03 -0.18580881924E+02 -0.19840467317E+03  0.27488812624E+03  0.12498975134E+03 0.  0.
          5    1    3    3  501    0 -0.14698509130E+03  0.28678211662E+02 -0.32868503882E+03  0.36122430930E+03  0.47000000000E+01 0.  1.
         -5    1    3    3    0  501  0.47480338915E+01 -0.10097329738E+02  0.58955441471E+01  0.13466526444E+02  0.47000000000E+01 0.  1.
          5    1    4    4  502    0  0.55132428927E+02 -0.65328462763E+02 -0.59195131661E+02  0.10408432341E+03  0.47000000000E+01 0. -1.
         -5    1    4    4    0  502  0.87104628486E+02  0.46747580839E+02 -0.13920954151E+03  0.17080380284E+03  0.47000000000E+01 0. -1.
<mgrwt>
<rscale>  0 0.38769765E+03</rscale>
<asrwt>0</asrwt>
<pdfrwt beam="1">  1       21 0.98757535E-02 0.38769765E+03</pdfrwt>
<pdfrwt beam="2">  1       21 0.90059470E-01 0.38769765E+03</pdfrwt>
<totfact> 0.81691070E+04</totfact>
</mgrwt>
</event>
<event>
 8    1  0.9373234E-006  0.2626483E+03  0.7546771E-02  0.1105562E+00
         21   -1    0    0  504  503  0.00000000000E+00  0.00000000000E+00  0.75218909170E+03  0.75218909170E+03  0.00000000000E+00 0. -1.
         21   -1    0    0  503  504 -0.00000000000E+00 -0.00000000000E+00 -0.22927781114E+02  0.22927781114E+02  0.00000000000E+00 0. -1.
         25    2    1    2    0    0 -0.84514447128E+01 -0.38521383175E+02  0.38834040013E+03  0.40986636029E+03  0.12500737198E+03 0.  0.
         25    2    1    2    0    0  0.84514447128E+01  0.38521383175E+02  0.34092091046E+03  0.36525051252E+03  0.12500218330E+03 0.  0.
          5    1    3    3  501    0 -0.46828982874E+02 -0.49469298950E+02  0.34100702430E+03  0.34777585568E+03  0.47000000000E+01 0.  1.
         -5    1    3    3    0  501  0.38377538161E+02  0.10947915776E+02  0.47333375830E+02  0.62090504609E+02  0.47000000000E+01 0.  1.
          5    1    4    4  502    0 -0.35126411167E+02  0.14561667766E+01  0.23193154186E+02  0.42379211700E+02  0.47000000000E+01 0. -1.
         -5    1    4    4    0  502  0.43577855880E+02  0.37065216398E+02  0.31772775627E+03  0.32287130082E+03  0.47000000000E+01 0. -1.
<mgrwt>
<rscale>  0 0.26264826E+03</rscale>
<asrwt>0</asrwt>
<pdfrwt beam="1">  1       21 0.11572138E+00 0.26264826E+03</pdfrwt>
<pdfrwt beam="2">  1       21 0.35273515E-02 0.26264826E+03</pdfrwt>
<totfact> 0.27329513E+05</totfact>
</mgrwt>
</event>
<event>
 8    1  0.9373234E-006  0.2748222E+03  0.7546771E-02  0.1098551E+00
         21   -1    0    0  504  503  0.00000000000E+00  0.00000000000E+00  0.19508981417E+02  0.19508981417E+02  0.00000000000E+00 0.  1.
         21   -1    0    0  503  504 -0.00000000000E+00 -0.00000000000E+00 -0.96785222429E+03  0.96785222429E+03  0.00000000000E+00 0.  1.
         25    2    1    2    0    0  0.41465752389E+02 -0.39127603407E+02 -0.48317826353E+03  0.50233180443E+03  0.12500251765E+03 0.  0.
         25    2    1    2    0    0 -0.41465752389E+02  0.39127603407E+02 -0.46516497934E+03  0.48502940128E+03  0.12499873652E+03 0.  0.
          5    1    3    3  501    0  0.81960947103E+02 -0.30088846421E+01 -0.31606640333E+03  0.32656808104E+03  0.47000000000E+01 0. -1.
         -5    1    3    3    0  501 -0.40495194714E+02 -0.36118718765E+02 -0.16711186020E+03  0.17576372339E+03  0.47000000000E+01 0. -1.
          5    1    4    4  502    0 -0.85981321199E+02  0.20618680208E+02 -0.31805303925E+03  0.33014806276E+03  0.47000000000E+01 0. -1.
         -5    1    4    4    0  502  0.44515568810E+02  0.18508923199E+02 -0.14711194009E+03  0.15488133852E+03  0.47000000000E+01 0. -1.
<mgrwt>
<rscale>  0 0.27482220E+03</rscale>
<asrwt>0</asrwt>
<pdfrwt beam="1">  1       21 0.30013826E-02 0.27482220E+03</pdfrwt>
<pdfrwt beam="2">  1       21 0.14890030E+00 0.27482220E+03</pdfrwt>
<totfact> 0.18690759E+05</totfact>
</mgrwt>
</event>
<event>
 8    1  0.9373234E-006  0.3648410E+03  0.7546771E-02  0.1056683E+00
         21   -1    0    0  504  503  0.00000000000E+00  0.00000000000E+00  0.71294017785E+02  0.71294017785E+02  0.00000000000E+00 0.  1.
         21   -1    0    0  503  504 -0.00000000000E+00 -0.00000000000E+00 -0.46676049078E+03  0.46676049078E+03  0.00000000000E+00 0.  1.
         25    2    1    2    0    0  0.13098361865E+03  0.20806928213E+02 -0.20936869575E+03  0.27758169940E+03  0.12500684969E+03 0.  0.
         25    2    1    2    0    0 -0.13098361865E+03 -0.20806928213E+02 -0.18609777724E+03  0.26047280916E+03  0.12499625995E+03 0.  0.
          5    1    3    3  501    0  0.46235271191E+02  0.35639381158E+02 -0.17547500374E+03  0.18499035848E+03  0.47000000000E+01 0. -1.
         -5    1    3    3    0  501  0.84748347455E+02 -0.14832452945E+02 -0.33893692009E+02  0.92591340927E+02  0.47000000000E+01 0. -1.
          5    1    4    4  502    0 -0.13219195532E+03  0.86050389958E+01 -0.18863927300E+03  0.23055503696E+03  0.47000000000E+01 0. -1.
         -5    1    4    4    0  502  0.12083366757E+01 -0.29411967209E+02  0.25414957622E+01  0.29917772199E+02  0.47000000000E+01 0. -1.
<mgrwt>
<rscale>  0 0.36484096E+03</rscale>
<asrwt>0</asrwt>
<pdfrwt beam="1">  1       21 0.10968311E-01 0.36484096E+03</pdfrwt>
<pdfrwt beam="2">  1       21 0.71809303E-01 0.36484096E+03</pdfrwt>
<totfact> 0.11458091E+05</totfact>
</mgrwt>
</event>
<event>
 8    1  0.9373234E-006  0.3658842E+03  0.7546771E-02  0.1056278E+00
         21   -1    0    0  504  503  0.00000000000E+00  0.00000000000E+00  0.22334989858E+03  0.22334989858E+03  0.00000000000E+00 0.  1.
         21   -1    0    0  503  504 -0.00000000000E+00 -0.00000000000E+00 -0.14984478565E+03  0.14984478565E+03  0.00000000000E+00 0.  1.
         25    2    1    2    0    0 -0.10031903735E+03 -0.53900497946E+02 -0.34457593964E+02  0.17257337315E+03  0.12500028162E+03 0.  0.
         25    2    1    2    0    0  0.10031903735E+03  0.53900497946E+02  0.10796270690E+03  0.20062131108E+03  0.12499516568E+03 0.  0.
          5    1    3    3  501    0 -0.25967762060E+02 -0.77590831559E+02  0.10124743023E+02  0.82578824342E+02  0.47000000000E+01 0.  1.
         -5    1    3    3    0  501 -0.74351275293E+02  0.23690333613E+02 -0.44582336987E+02  0.89994548810E+02  0.47000000000E+01 0.  1.
          5    1    4    4  502    0  0.89735650965E+02  0.64498155197E+02  0.13181013640E+03  0.17207120949E+03  0.47000000000E+01 0. -1.
         -5    1    4    4    0  502  0.10583386388E+02 -0.10597657251E+02 -0.23847429502E+02  0.28550101584E+02  0.47000000000E+01 0. -1.
<mgrwt>
<rscale>  0 0.36588423E+03</rscale>
<asrwt>0</asrwt>
<pdfrwt beam="1">  1       21 0.34361523E-01 0.36588423E+03</pdfrwt>
<pdfrwt beam="2">  1       21 0.23053044E-01 0.36588423E+03</pdfrwt>
<totfact> 0.13754580E+05</totfact>
</mgrwt>
</event>
<event>
 8    1  0.9373234E-006  0.2651341E+03  0.7546771E-02  0.1104097E+00
         21   -1    0    0  504  503  0.00000000000E+00  0.00000000000E+00  0.13556439736E+04  0.13556439736E+04  0.00000000000E+00 0. -1.
         21   -1    0    0  503  504 -0.00000000000E+00 -0.00000000000E+00 -0.12963593702E+02  0.12963593702E+02  0.00000000000E+00 0. -1.
         25    2    1    2    0    0 -0.22847251532E+02 -0.27468956784E+02  0.53741456559E+03  0.55291545651E+03  0.12499818498E+03 0.  0.
         25    2    1    2    0    0  0.22847251532E+02  0.27468956784E+02  0.80526581428E+03  0.81569211077E+03  0.12499618965E+03 0.  0.
          5    1    3    3  501    0 -0.44686189468E+02 -0.52533955002E+02  0.16372587626E+03  0.17772148018E+03  0.47000000000E+01 0.  1.
         -5    1    3    3    0  501  0.21838937936E+02  0.25064998218E+02  0.37368868933E+03  0.37519397633E+03  0.47000000000E+01 0.  1.
          5    1    4    4  502    0 -0.29426014582E+02  0.13389596669E+02  0.65650380764E+03  0.65731614242E+03  0.47000000000E+01 0.  1.
         -5    1    4    4    0  502  0.52273266114E+02  0.14079360115E+02  0.14876200663E+03  0.15837596835E+03  0.47000000000E+01 0.  1.
<mgrwt>
<rscale>  0 0.26513406E+03</rscale>
<asrwt>0</asrwt>
<pdfrwt beam="1">  1       21 0.20856050E+00 0.26513406E+03</pdfrwt>
<pdfrwt beam="2">  1       21 0.19944001E-02 0.26513406E+03</pdfrwt>
<totfact> 0.14132041E+05</totfact>
</mgrwt>
</event>
<event>
 8    1  0.9373234E-006  0.3352934E+03  0.7546771E-02  0.1068818E+00
         21   -1    0    0  504  503  0.00000000000E+00  0.00000000000E+00  0.28283622705E+03  0.28283622705E+03  0.00000000000E+00 0.  1.
         21   -1    0    0  503  504 -0.00000000000E+00 -0.00000000000E+00 -0.99369918532E+02  0.99369918532E+02  0.00000000000E+00 0.  1.
         25    2    1    2    0    0 -0.78195176049E+02 -0.37742831755E+02  0.11622103494E+02  0.15265233378E+03  0.12501461839E+03 0.  0.
         25    2    1    2    0    0  0.78195176049E+02  0.37742831755E+02  0.17184420503E+03  0.22955381181E+03  0.12500205921E+03 0.  0.
          5    1    3    3  501    0 -0.33260712343E+02 -0.82213931365E+02  0.63010266487E+01  0.89034815847E+02  0.47000000000E+01 0.  1.
         -5    1    3    3    0  501 -0.44934463705E+02  0.44471099610E+02  0.53210768449E+01  0.63617517932E+02  0.47000000000E+01 0.  1.
          5    1    4    4  502    0 -0.20291557335E+02 -0.13682280184E+02  0.84649043869E+02  0.88241162266E+02  0.47000000000E+01 0.  1.
         -5    1    4    4    0  502  0.98486733384E+02  0.51425111939E+02  0.87195161156E+02  0.14131264954E+03  0.47000000000E+01 0.  1.
<mgrwt>
<rscale>  0 0.33529338E+03</rscale>
<asrwt>0</asrwt>
<pdfrwt beam="1">  1       21 0.43513265E-01 0.33529338E+03</pdfrwt>
<pdfrwt beam="2">  1       21 0.15287680E-01 0.33529338E+03</pdfrwt>
<totfact> 0.18528985E+05</totfact>
</mgrwt>
</event>
<event>
 8    1  0.9373234E-006  0.4209105E+03  0.7546771E-02  0.1036770E+00
         21   -1    0    0  504  503  0.00000000000E+00  0.00000000000E+00  0.41891312383E+03  0.41891312383E+03  0.00000000000E+00 0.  1.
         21   -1    0    0  503  504 -0.00000000000E+00 -0.00000000000E+00 -0.10572934522E+03  0.10572934522E+03  0.00000000000E+00 0.  1.
         25    2    1    2    0    0 -0.15700608474E+02  0.11575162816E+03  0.38055945040E+01  0.17111242426E+03  0.12498012105E+03 0.  0.
         25    2    1    2    0    0  0.15700608474E+02 -0.11575162816E+03  0.30937818411E+03  0.35353004479E+03  0.12499473282E+03 0.  0.
          5    1    3    3  501    0 -0.48696002748E+02 -0.57333714120E+00 -0.78329126912E+01  0.49548702509E+02  0.47000000000E+01 0. -1.
         -5    1    3    3    0  501  0.32995394274E+02  0.11632496530E+03  0.11638507195E+02  0.12156372175E+03  0.47000000000E+01 0. -1.
          5    1    4    4  502    0  0.58581066486E+02 -0.13907508039E+02  0.11464405735E+03  0.12957820039E+03  0.47000000000E+01 0. -1.
         -5    1    4    4    0  502 -0.42880458012E+02 -0.10184412012E+03  0.19473412677E+03  0.22395184440E+03  0.47000000000E+01 0. -1.
<mgrwt>
<rscale>  0 0.42091049E+03</rscale>
<asrwt>0</asrwt>
<pdfrwt beam="1">  1       21 0.64448172E-01 0.42091049E+03</pdfrwt>
<pdfrwt beam="2">  1       21 0.16266053E-01 0.42091049E+03</pdfrwt>
<totfact> 0.69968986E+04</totfact>
</mgrwt>
</event>
<event>
 8    1  0.9373234E-006  0.4621750E+03  0.7546771E-02  0.1024152E+00
         21   -1    0    0  504  503  0.00000000000E+00  0.00000000000E+00  0.82665923257E+02  0.82665923257E+02  0.00000000000E+00 0.  1.
         21   -1    0    0  503  504 -0.00000000000E+00 -0.00000000000E+00 -0.64599081654E+03  0.64599081654E+03  0.00000000000E+00 0.  1.
         25    2    1    2    0    0  0.15520606658E+03  0.11553824197E+03 -0.25286265237E+03  0.34205784893E+03  0.12500417031E+03 0.  0.
         25    2    1    2    0    0 -0.15520606658E+03 -0.11553824197E+03 -0.31046224091E+03  0.38659889086E+03  0.12503555864E+03 0.  0.
          5    1    3    3  501    0  0.62687932211E+02 -0.23068855881E+01 -0.14295807777E+03  0.15618642888E+03  0.47000000000E+01 0.  1.
         -5    1    3    3    0  501  0.92518134366E+02  0.11784512756E+03 -0.10990457460E+03  0.18587142005E+03  0.47000000000E+01 0.  1.
          5    1    4    4  502    0 -0.15922596447E+03 -0.12274087292E+03 -0.31676249179E+03  0.37520500510E+03  0.47000000000E+01 0. -1.
         -5    1    4    4    0  502  0.40198978942E+01  0.72026309574E+01  0.63002508727E+01  0.11393885766E+02  0.47000000000E+01 0. -1.
<mgrwt>
<rscale>  0 0.46217498E+03</rscale>
<asrwt>0</asrwt>
<pdfrwt beam="1">  1       21 0.12717834E-01 0.46217498E+03</pdfrwt>
<pdfrwt beam="2">  1       21 0.99383202E-01 0.46217498E+03</pdfrwt>
<totfact> 0.40119201E+04</totfact>
</mgrwt>
</event>
<event>
 8    1  0.9373234E-006  0.2813399E+03  0.7546771E-02  0.1094959E+00
         21   -1    0    0  504  503  0.00000000000E+00  0.00000000000E+00  0.75876479255E+02  0.75876479255E+02  0.00000000000E+00 0.  1.
         21   -1    0    0  503  504 -0.00000000000E+00 -0.00000000000E+00 -0.26079265172E+03  0.26079265172E+03  0.00000000000E+00 0.  1.
         25    2    1    2    0    0  0.26577704702E+02 -0.57996964165E+02 -0.80865064372E+02  0.16196953983E+03  0.12499980383E+03 0.  0.
         25    2    1    2    0    0 -0.26577704702E+02  0.57996964165E+02 -0.10405110809E+03  0.17469959115E+03  0.12499316706E+03 0.  0.
          5    1    3    3  501    0  0.93614263671E+01  0.29574549896E+01 -0.96051254271E+02  0.96666003800E+02  0.47000000000E+01 0. -1.
         -5    1    3    3    0  501  0.17216278335E+02 -0.60954419154E+02  0.15186189899E+02  0.65303536028E+02  0.47000000000E+01 0. -1.
          5    1    4    4  502    0  0.10217693583E+02  0.48040332202E+01  0.26357476279E+02  0.29056609457E+02  0.47000000000E+01 0.  1.
         -5    1    4    4    0  502 -0.36795398285E+02  0.53192930944E+02 -0.13040858437E+03  0.14564298169E+03  0.47000000000E+01 0.  1.
<mgrwt>
<rscale>  0 0.28133985E+03</rscale>
<asrwt>0</asrwt>
<pdfrwt beam="1">  1       21 0.11673305E-01 0.28133985E+03</pdfrwt>
<pdfrwt beam="2">  1       21 0.40121946E-01 0.28133985E+03</pdfrwt>
<totfact> 0.36190578E+05</totfact>
</mgrwt>
</event>
<event>
 8    1  0.9373234E-006  0.2930093E+03  0.7546771E-02  0.1088788E+00
         21   -1    0    0  504  503  0.00000000000E+00  0.00000000000E+00  0.72023517604E+02  0.72023517604E+02  0.00000000000E+00 0. -1.
         21   -1    0    0  503  504 -0.00000000000E+00 -0.00000000000E+00 -0.29800835065E+03  0.29800835065E+03  0.00000000000E+00 0. -1.
         25    2    1    2    0    0  0.10412738437E+02 -0.34930260757E+02 -0.28173149213E+02  0.13321549834E+03  0.12499637764E+03 0.  0.
         25    2    1    2    0    0 -0.10412738437E+02  0.34930260757E+02 -0.19781168383E+03  0.23681636991E+03  0.12499593017E+03 0.  0.
          5    1    3    3  501    0 -0.53327985086E+02 -0.15151023455E+02  0.94863889862E+01  0.56440314325E+02  0.47000000000E+01 0. -1.
         -5    1    3    3    0  501  0.63740723523E+02 -0.19779237302E+02 -0.37659538200E+02  0.76775184017E+02  0.47000000000E+01 0. -1.
          5    1    4    4  502    0 -0.23874717523E+02  0.60448869901E+02 -0.19708196313E+03  0.20757518686E+03  0.47000000000E+01 0. -1.
         -5    1    4    4    0  502  0.13461979086E+02 -0.25518609144E+02 -0.72972069689E+00  0.29241183045E+02  0.47000000000E+01 0. -1.
<mgrwt>
<rscale>  0 0.29300928E+03</rscale>
<asrwt>0</asrwt>
<pdfrwt beam="1">  1       21 0.11080541E-01 0.29300928E+03</pdfrwt>
<pdfrwt beam="2">  1       21 0.45847438E-01 0.29300928E+03</pdfrwt>
<totfact> 0.30127619E+05</totfact>
</mgrwt>
</event>
<event>
 8    1  0.9373234E-006  0.3085771E+03  0.7546771E-02  0.1081030E+00
         21   -1    0    0  504  503  0.00000000000E+00  0.00000000000E+00  0.12789516799E+03  0.12789516799E+03  0.00000000000E+00 0. -1.
         21   -1    0    0  503  504 -0.00000000000E+00 -0.00000000000E+00 -0.18612867437E+03  0.18612867437E+03  0.00000000000E+00 0. -1.
         25    2    1    2    0    0 -0.19663387847E+01 -0.90272836785E+02 -0.34342771004E+02  0.15798022746E+03  0.12500109919E+03 0.  0.
         25    2    1    2    0    0  0.19663387847E+01  0.90272836785E+02 -0.23890735377E+02  0.15604361490E+03  0.12500316382E+03 0.  0.
          5    1    3    3  501    0 -0.54983119385E+02 -0.83480063897E+02 -0.28232274158E+02  0.10397699644E+03  0.47000000000E+01 0. -1.
         -5    1    3    3    0  501  0.53016780600E+02 -0.67927728876E+01 -0.61104968459E+01  0.54003231018E+02  0.47000000000E+01 0. -1.
          5    1    4    4  502    0 -0.41471588241E+02 -0.35539496541E+01 -0.31281213209E+02  0.52279321813E+02  0.47000000000E+01 0. -1.
         -5    1    4    4    0  502  0.43437927026E+02  0.93826786439E+02  0.73904778319E+01  0.10376429309E+03  0.47000000000E+01 0. -1.
<mgrwt>
<rscale>  0 0.30857711E+03</rscale>
<asrwt>0</asrwt>
<pdfrwt beam="1">  1       21 0.19676180E-01 0.30857711E+03</pdfrwt>
<pdfrwt beam="2">  1       21 0.28635181E-01 0.30857711E+03</pdfrwt>
<totfact> 0.27010749E+05</totfact>
</mgrwt>
</event>
<event>
 8    1  0.9373234E-006  0.3165509E+03  0.7546771E-02  0.1077248E+00
         21   -1    0    0  504  503  0.00000000000E+00  0.00000000000E+00  0.20233472361E+04  0.20233472361E+04  0.00000000000E+00 0.  1.
         21   -1    0    0  503  504 -0.00000000000E+00 -0.00000000000E+00 -0.12381031036E+02  0.12381031036E+02  0.00000000000E+00 0.  1.
         25    2    1    2    0    0 -0.48120234283E+01 -0.96302710421E+02  0.10783743946E+04  0.10898686020E+04  0.12499946838E+03 0.  0.
         25    2    1    2    0    0  0.48120234283E+01  0.96302710421E+02  0.93259181043E+03  0.94585966510E+03  0.12500261429E+03 0.  0.
          5    1    3    3  501    0  0.90056191957E+01 -0.10454186154E+03  0.10592278023E+04  0.10644227211E+04  0.47000000000E+01 0.  1.
         -5    1    3    3    0  501 -0.13817642624E+02  0.82391511183E+01  0.19146592284E+02  0.25445880903E+02  0.47000000000E+01 0.  1.
          5    1    4    4  502    0  0.44798942279E+02  0.10282886157E+03  0.77436896474E+03  0.78246412285E+03  0.47000000000E+01 0.  1.
         -5    1    4    4    0  502 -0.39986918850E+02 -0.65261511493E+01  0.15822284569E+03  0.16339554225E+03  0.47000000000E+01 0.  1.
<mgrwt>
<rscale>  0 0.31655094E+03</rscale>
<asrwt>0</asrwt>
<pdfrwt beam="1">  1       21 0.31128393E+00 0.31655094E+03</pdfrwt>
<pdfrwt beam="2">  1       21 0.19047756E-02 0.31655094E+03</pdfrwt>
<totfact> 0.35703355E+04</totfact>
</mgrwt>
</event>
<event>
 8    1  0.9373234E-006  0.2632027E+03  0.7546771E-02  0.1105234E+00
         21   -1    0    0  504  503  0.00000000000E+00  0.00000000000E+00  0.28336129957E+03  0.28336129957E+03  0.00000000000E+00 0. -1.
         21   -1    0    0  503  504 -0.00000000000E+00 -0.00000000000E+00 -0.61119559194E+02  0.61119559194E+02  0.00000000000E+00 0. -1.
         25    2    1    2    0    0 -0.17757744805E+02  0.34693771305E+02  0.94146279490E+02  0.16127347576E+03  0.12500646693E+03 0.  0.
         25    2    1    2    0    0  0.17757744805E+02 -0.34693771305E+02  0.12809546089E+03  0.18320738301E+03  0.12505000128E+03 0.  0.
          5    1    3    3  501    0 -0.22091146741E+02 -0.35582300213E+02 -0.17858211368E+01  0.42182911350E+02  0.47000000000E+01 0. -1.
         -5    1    3    3    0  501  0.43334019359E+01  0.70276071518E+02  0.95932100627E+02  0.11909056441E+03  0.47000000000E+01 0. -1.
          5    1    4    4  502    0 -0.23746972582E+02 -0.64255527614E+02  0.10851940303E+03  0.12841823223E+03  0.47000000000E+01 0.  1.
         -5    1    4    4    0  502  0.41504717387E+02  0.29561756308E+02  0.19576057858E+02  0.54789150775E+02  0.47000000000E+01 0.  1.
<mgrwt>
<rscale>  0 0.26320272E+03</rscale>
<asrwt>0</asrwt>
<pdfrwt beam="1">  1       21 0.43594045E-01 0.26320272E+03</pdfrwt>
<pdfrwt beam="2">  1       21 0.94030093E-02 0.26320272E+03</pdfrwt>
<totfact> 0.45075214E+05</totfact>
</mgrwt>
</event>
<event>
 8    1  0.9373234E-006  0.2702219E+03  0.7546771E-02  0.1101153E+00
         21   -1    0    0  504  503  0.00000000000E+00  0.00000000000E+00  0.73804196763E+02  0.73804196763E+02  0.00000000000E+00 0.  1.
         21   -1    0    0  503  504 -0.00000000000E+00 -0.00000000000E+00 -0.24734321990E+03  0.24734321990E+03  0.00000000000E+00 0.  1.
         25    2    1    2    0    0  0.47222828588E+02  0.19032162632E+02 -0.79593591346E+02  0.15669141342E+03  0.12499936201E+03 0.  0.
         25    2    1    2    0    0 -0.47222828588E+02 -0.19032162632E+02 -0.93945431786E+02  0.16445600324E+03  0.12501125587E+03 0.  0.
          5    1    3    3  501    0  0.23342675577E+02 -0.28397928741E+02  0.21180606644E+02  0.42685254570E+02  0.47000000000E+01 0. -1.
         -5    1    3    3    0  501  0.23880153011E+02  0.47430091373E+02 -0.10077419799E+03  0.11400615885E+03  0.47000000000E+01 0. -1.
          5    1    4    4  502    0 -0.25941534337E+02  0.79621956453E+01 -0.11868908167E+03  0.12184230739E+03  0.47000000000E+01 0. -1.
         -5    1    4    4    0  502 -0.21281294251E+02 -0.26994358277E+02  0.24743649885E+02  0.42613695843E+02  0.47000000000E+01 0. -1.
<mgrwt>
<rscale>  0 0.27022189E+03</rscale>
<asrwt>0</asrwt>
<pdfrwt beam="1">  1       21 0.11354492E-01 0.27022189E+03</pdfrwt>
<pdfrwt beam="2">  1       21 0.38052803E-01 0.27022189E+03</pdfrwt>
<totfact> 0.42444244E+05</totfact>
</mgrwt>
</event>
<event>
 8    1  0.9373234E-006  0.3272419E+03  0.7546771E-02  0.1072364E+00
         21   -1    0    0  504  503  0.00000000000E+00  0.00000000000E+00  0.49650612284E+03  0.49650612284E+03  0.00000000000E+00 0.  1.
         21   -1    0    0  503  504 -0.00000000000E+00 -0.00000000000E+00 -0.53920398964E+02  0.53920398964E+02  0.00000000000E+00 0.  1.
         25    2    1    2    0    0  0.29262465075E+02 -0.10138435539E+03  0.21545317541E+03  0.27051697185E+03  0.12499712751E+03 0.  0.
         25    2    1    2    0    0 -0.29262465075E+02  0.10138435539E+03  0.22713254846E+03  0.27990954995E+03  0.12500032881E+03 0.  0.
          5    1    3    3  501    0 -0.26707501343E+02  0.69487236726E+01  0.95057277641E+02  0.99093649751E+02  0.47000000000E+01 0. -1.
         -5    1    3    3    0  501  0.55969966418E+02 -0.10833307906E+03  0.12039589777E+03  0.17142332210E+03  0.47000000000E+01 0. -1.
          5    1    4    4  502    0 -0.77890030900E+02  0.61436374903E+02  0.15477064999E+03  0.18389488621E+03  0.47000000000E+01 0.  1.
         -5    1    4    4    0  502  0.48627565825E+02  0.39947980485E+02  0.72361898474E+02  0.96014663743E+02  0.47000000000E+01 0.  1.
<mgrwt>
<rscale>  0 0.32724186E+03</rscale>
<asrwt>0</asrwt>
<pdfrwt beam="1">  1       21 0.76385554E-01 0.32724186E+03</pdfrwt>
<pdfrwt beam="2">  1       21 0.82954463E-02 0.32724186E+03</pdfrwt>
<totfact> 0.16539187E+05</totfact>
</mgrwt>
</event>
<event>
 8    1  0.9373234E-006  0.2583479E+03  0.7546771E-02  0.1108140E+00
         21   -1    0    0  504  503  0.00000000000E+00  0.00000000000E+00  0.19990544757E+03  0.19990544757E+03  0.00000000000E+00 0.  1.
         21   -1    0    0  503  504 -0.00000000000E+00 -0.00000000000E+00 -0.83469018688E+02  0.83469018688E+02  0.00000000000E+00 0.  1.
         25    2    1    2    0    0  0.25070287203E+02  0.16165862271E+02  0.72667126568E+02  0.14762348807E+03  0.12498931371E+03 0.  0.
         25    2    1    2    0    0 -0.25070287203E+02 -0.16165862271E+02  0.43769302315E+02  0.13575097819E+03  0.12499088707E+03 0.  0.
          5    1    3    3  501    0  0.38524999954E+02 -0.41452859422E+02  0.40983893753E+01  0.56933311613E+02  0.47000000000E+01 0.  1.
         -5    1    3    3    0  501 -0.13454712751E+02  0.57618721693E+02  0.68568737193E+02  0.90690176453E+02  0.47000000000E+01 0.  1.
          5    1    4    4  502    0 -0.53908467765E+02  0.21555375372E+02  0.61633067657E+02  0.84802606877E+02  0.47000000000E+01 0.  1.
         -5    1    4    4    0  502  0.28838180562E+02 -0.37721237643E+02 -0.17863765343E+02  0.50948371315E+02  0.47000000000E+01 0.  1.
<mgrwt>
<rscale>  0 0.25834792E+03</rscale>
<asrwt>0</asrwt>
<pdfrwt beam="1">  1       21 0.30754684E-01 0.25834792E+03</pdfrwt>
<pdfrwt beam="2">  1       21 0.12841388E-01 0.25834792E+03</pdfrwt>
<totfact> 0.52100309E+05</totfact>
</mgrwt>
</event>
<event>
 8    1  0.9373234E-006  0.2848685E+03  0.7546771E-02  0.1093059E+00
         21   -1    0    0  504  503  0.00000000000E+00  0.00000000000E+00  0.11119956440E+03  0.11119956440E+03  0.00000000000E+00 0.  1.
         21   -1    0    0  503  504 -0.00000000000E+00 -0.00000000000E+00 -0.18244246502E+03  0.18244246502E+03  0.00000000000E+00 0.  1.
         25    2    1    2    0    0  0.40778365875E+02 -0.35414519511E+02  0.74460202571E+01  0.13637550317E+03  0.12500308529E+03 0.  0.
         25    2    1    2    0    0 -0.40778365875E+02  0.35414519511E+02 -0.78688920876E+02  0.15726652625E+03  0.12499500268E+03 0.  0.
          5    1    3    3  501    0  0.26200134057E+02  0.42622332060E+02 -0.17207512532E+02  0.53115898772E+02  0.47000000000E+01 0.  1.
         -5    1    3    3    0  501  0.14578231818E+02 -0.78036851570E+02  0.24653532789E+02  0.83259604401E+02  0.47000000000E+01 0.  1.
          5    1    4    4  502    0 -0.83805996031E+02  0.66642511209E+01 -0.48385799946E+02  0.97114019843E+02  0.47000000000E+01 0.  1.
         -5    1    4    4    0  502  0.43027630155E+02  0.28750268390E+02 -0.30303120930E+02  0.60152506410E+02  0.47000000000E+01 0.  1.
<mgrwt>
<rscale>  0 0.28486855E+03</rscale>
<asrwt>0</asrwt>
<pdfrwt beam="1">  1       21 0.17107625E-01 0.28486855E+03</pdfrwt>
<pdfrwt beam="2">  1       21 0.28068072E-01 0.28486855E+03</pdfrwt>
<totfact> 0.36657852E+05</totfact>
</mgrwt>
</event>
<event>
 8    1  0.9373234E-006  0.3165558E+03  0.7546771E-02  0.1077245E+00
         21   -1    0    0  504  503  0.00000000000E+00  0.00000000000E+00  0.46354719164E+03  0.46354719164E+03  0.00000000000E+00 0.  1.
         21   -1    0    0  503  504 -0.00000000000E+00 -0.00000000000E+00 -0.54043877682E+02  0.54043877682E+02  0.00000000000E+00 0.  1.
         25    2    1    2    0    0 -0.80234044430E+02 -0.33774870911E+02  0.13441872721E+03  0.20315052520E+03  0.12499399135E+03 0.  0.
         25    2    1    2    0    0  0.80234044430E+02  0.33774870911E+02  0.27508458674E+03  0.31444054411E+03  0.12499232828E+03 0.  0.
          5    1    3    3  501    0 -0.99307057331E+02 -0.32325506523E+02  0.14655096881E+03  0.18001696161E+03  0.47000000000E+01 0. -1.
         -5    1    3    3    0  501  0.19073012901E+02 -0.14493643875E+01 -0.12132241600E+02  0.23133563593E+02  0.47000000000E+01 0. -1.
          5    1    4    4  502    0  0.32421725480E+02  0.33997107368E+02  0.25975502889E+03  0.26401086460E+03  0.47000000000E+01 0.  1.
         -5    1    4    4    0  502  0.47812318949E+02 -0.22223645692E+00  0.15329557855E+02  0.50429679519E+02  0.47000000000E+01 0.  1.
<mgrwt>
<rscale>  0 0.31655576E+03</rscale>
<asrwt>0</asrwt>
<pdfrwt beam="1">  1       21 0.71314950E-01 0.31655576E+03</pdfrwt>
<pdfrwt beam="2">  1       21 0.83144430E-02 0.31655576E+03</pdfrwt>
<totfact> 0.19280108E+05</totfact>
</mgrwt>
</event>
<event>
 8    1  0.9373234E-006  0.2714347E+03  0.7546771E-02  0.1100461E+00
         21   -1    0    0  504  503  0.00000000000E+00  0.00000000000E+00  0.36239638272E+02  0.36239638272E+02  0.00000000000E+00 0. -1.
         21   -1    0    0  503  504 -0.00000000000E+00 -0.00000000000E+00 -0.50826107537E+03  0.50826107537E+03  0.00000000000E+00 0. -1.
         25    2    1    2    0    0  0.29973490933E+02 -0.19540107620E+02 -0.31404227435E+03  0.33989510563E+03  0.12500362710E+03 0.  0.
         25    2    1    2    0    0 -0.29973490933E+02  0.19540107620E+02 -0.15797916275E+03  0.20460560801E+03  0.12500325197E+03 0.  0.
          5    1    3    3  501    0  0.27736297321E+02 -0.57882502146E+02 -0.79987456657E+02  0.10266337938E+03  0.47000000000E+01 0.  1.
         -5    1    3    3    0  501  0.22371936112E+01  0.38342394525E+02 -0.23405481769E+03  0.23723172625E+03  0.47000000000E+01 0.  1.
          5    1    4    4  502    0 -0.72539159536E+01  0.66686222267E+02 -0.12674357596E+03  0.14347716050E+03  0.47000000000E+01 0. -1.
         -5    1    4    4    0  502 -0.22719574979E+02 -0.47146114646E+02 -0.31235586782E+02  0.61128447511E+02  0.47000000000E+01 0. -1.
<mgrwt>
<rscale>  0 0.27143469E+03</rscale>
<asrwt>0</asrwt>
<pdfrwt beam="1">  1       21 0.55753295E-02 0.27143469E+03</pdfrwt>
<pdfrwt beam="2">  1       21 0.78194004E-01 0.27143469E+03</pdfrwt>
<totfact> 0.31721534E+05</totfact>
</mgrwt>
</event>
<event>
 8    1  0.9373234E-006  0.2911154E+03  0.7546771E-02  0.1089768E+00
         21   -1    0    0  504  503  0.00000000000E+00  0.00000000000E+00  0.90291465010E+02  0.90291465010E+02  0.00000000000E+00 0.  1.
         21   -1    0    0  503  504 -0.00000000000E+00 -0.00000000000E+00 -0.23465160490E+03  0.23465160490E+03  0.00000000000E+00 0.  1.
         25    2    1    2    0    0  0.70370822725E+02  0.11892914948E+02 -0.96345038306E+02  0.17320699159E+03  0.12499920565E+03 0.  0.
         25    2    1    2    0    0 -0.70370822725E+02 -0.11892914948E+02 -0.48015101588E+02  0.15173607832E+03  0.12499957347E+03 0.  0.
          5    1    3    3  501    0 -0.17555450781E+02 -0.24842661515E+02 -0.66437683519E+02  0.73221632559E+02  0.47000000000E+01 0. -1.
         -5    1    3    3    0  501  0.87926273505E+02  0.36735576464E+02 -0.29907354787E+02  0.99985359034E+02  0.47000000000E+01 0. -1.
          5    1    4    4  502    0  0.14409523985E+01 -0.30502699361E+02  0.30640778330E+02  0.43513656578E+02  0.47000000000E+01 0.  1.
         -5    1    4    4    0  502 -0.71811775123E+02  0.18609784413E+02 -0.78655879919E+02  0.10822242174E+03  0.47000000000E+01 0.  1.
<mgrwt>
<rscale>  0 0.29111535E+03</rscale>
<asrwt>0</asrwt>
<pdfrwt beam="1">  1       21 0.13890995E-01 0.29111535E+03</pdfrwt>
<pdfrwt beam="2">  1       21 0.36100247E-01 0.29111535E+03</pdfrwt>
<totfact> 0.32634981E+05</totfact>
</mgrwt>
</event>
<event>
 8    1  0.9373234E-006  0.2962362E+03  0.7546771E-02  0.1087137E+00
         21   -1    0    0  504  503  0.00000000000E+00  0.00000000000E+00  0.29719266075E+03  0.29719266075E+03  0.00000000000E+00 0.  1.
         21   -1    0    0  503  504 -0.00000000000E+00 -0.00000000000E+00 -0.73820698829E+02  0.73820698829E+02  0.00000000000E+00 0.  1.
         25    2    1    2    0    0 -0.17499822324E+01  0.52505217129E+02  0.37020905515E+02  0.14055033409E+03  0.12499595475E+03 0.  0.
         25    2    1    2    0    0  0.17499822324E+01 -0.52505217129E+02  0.18635105640E+03  0.23046302549E+03  0.12500651836E+03 0.  0.
          5    1    3    3  501    0  0.89632271059E+01  0.92648521530E+02  0.31474460858E+02  0.98370827323E+02  0.47000000000E+01 0.  1.
         -5    1    3    3    0  501 -0.10713209338E+02 -0.40143304401E+02  0.55464446570E+01  0.42179506764E+02  0.47000000000E+01 0.  1.
          5    1    4    4  502    0  0.49685731540E+02 -0.52651849606E+02  0.15972366107E+03  0.17542698507E+03  0.47000000000E+01 0. -1.
         -5    1    4    4    0  502 -0.47935749307E+02  0.14663247659E+00  0.26627395332E+02  0.55036040418E+02  0.47000000000E+01 0. -1.
<mgrwt>
<rscale>  0 0.29623619E+03</rscale>
<asrwt>0</asrwt>
<pdfrwt beam="1">  1       21 0.45721947E-01 0.29623619E+03</pdfrwt>
<pdfrwt beam="2">  1       21 0.11357031E-01 0.29623619E+03</pdfrwt>
<totfact> 0.28968018E+05</totfact>
</mgrwt>
</event>
<event>
 8    1  0.9373234E-006  0.3497660E+03  0.7546771E-02  0.1062711E+00
         21   -1    0    0  504  503  0.00000000000E+00  0.00000000000E+00  0.52543844291E+02  0.52543844291E+02  0.00000000000E+00 0. -1.
         21   -1    0    0  503  504 -0.00000000000E+00 -0.00000000000E+00 -0.58206761673E+03  0.58206761673E+03  0.00000000000E+00 0. -1.
         25    2    1    2    0    0  0.71749183502E+02 -0.84189259274E+02 -0.17003575391E+03  0.23825423607E+03  0.12496858279E+03 0.  0.
         25    2    1    2    0    0 -0.71749183502E+02  0.84189259274E+02 -0.35948801853E+03  0.39635722495E+03  0.12502654758E+03 0.  0.
          5    1    3    3  501    0 -0.17812730922E+02  0.16742595024E+02 -0.56873085806E+02  0.62082572112E+02  0.47000000000E+01 0. -1.
         -5    1    3    3    0  501  0.89561914424E+02 -0.10093185430E+03 -0.11316266811E+03  0.17617166395E+03  0.47000000000E+01 0. -1.
          5    1    4    4  502    0  0.17808940282E+02  0.62927197301E+02 -0.88626512244E+02  0.11024399842E+03  0.47000000000E+01 0.  1.
         -5    1    4    4    0  502 -0.89558123783E+02  0.21262061973E+02 -0.27086150628E+03  0.28611322654E+03  0.47000000000E+01 0.  1.
<mgrwt>
<rscale>  0 0.34976604E+03</rscale>
<asrwt>0</asrwt>
<pdfrwt beam="1">  1       21 0.80836681E-02 0.34976604E+03</pdfrwt>
<pdfrwt beam="2">  1       21 0.89548867E-01 0.34976604E+03</pdfrwt>
<totfact> 0.11927067E+05</totfact>
</mgrwt>
</event>
<event>
 8    1  0.9373234E-006  0.3479246E+03  0.7546771E-02  0.1063470E+00
         21   -1    0    0  504  503  0.00000000000E+00  0.00000000000E+00  0.15862515182E+03  0.15862515182E+03  0.00000000000E+00 0.  1.
         21   -1    0    0  503  504 -0.00000000000E+00 -0.00000000000E+00 -0.19078234487E+03  0.19078234487E+03  0.00000000000E+00 0.  1.
         25    2    1    2    0    0  0.37371032702E+02 -0.38885750331E+02 -0.12482992433E+03  0.18471179455E+03  0.12500896518E+03 0.  0.
         25    2    1    2    0    0 -0.37371032702E+02  0.38885750331E+02  0.92672731282E+02  0.16469570214E+03  0.12501097358E+03 0.  0.
          5    1    3    3  501    0  0.34652556381E+02  0.14634523573E+02 -0.12530603278E+03  0.13091470809E+03  0.47000000000E+01 0.  1.
         -5    1    3    3    0  501  0.27184763213E+01 -0.53520273904E+02  0.47610845007E+00  0.53797086459E+02  0.47000000000E+01 0.  1.
          5    1    4    4  502    0  0.43643355804E+02  0.29129317477E+02  0.49365963200E+02  0.72196592477E+02  0.47000000000E+01 0. -1.
         -5    1    4    4    0  502 -0.81014388506E+02  0.97564328532E+01  0.43306768082E+02  0.92499109664E+02  0.47000000000E+01 0. -1.
<mgrwt>
<rscale>  0 0.34792458E+03</rscale>
<asrwt>0</asrwt>
<pdfrwt beam="1">  1       21 0.24403870E-01 0.34792458E+03</pdfrwt>
<pdfrwt beam="2">  1       21 0.29351130E-01 0.34792458E+03</pdfrwt>
<totfact> 0.16929929E+05</totfact>
</mgrwt>
</event>
<event>
 8    1  0.9373234E-006  0.2687339E+03  0.7546771E-02  0.1102006E+00
         21   -1    0    0  504  503  0.00000000000E+00  0.00000000000E+00  0.21427522364E+03  0.21427522364E+03  0.00000000000E+00 0. -1.
         21   -1    0    0  503  504 -0.00000000000E+00 -0.00000000000E+00 -0.84258355361E+02  0.84258355361E+02  0.00000000000E+00 0. -1.
         25    2    1    2    0    0  0.16888154607E+02  0.12123147334E+02  0.11463922161E+03  0.17088311404E+03  0.12500682807E+03 0.  0.
         25    2    1    2    0    0 -0.16888154607E+02 -0.12123147334E+02  0.15377646670E+02  0.12765046497E+03  0.12500395482E+03 0.  0.
          5    1    3    3  501    0  0.43961424673E+02  0.21464623523E+00 -0.77470154943E+01  0.44886068900E+02  0.47000000000E+01 0. -1.
         -5    1    3    3    0  501 -0.27073270065E+02  0.11908501098E+02  0.12238623711E+03  0.12599704514E+03  0.47000000000E+01 0. -1.
          5    1    4    4  502    0 -0.42739533115E+02 -0.57413369102E+02  0.21627444073E+02  0.74918615708E+02  0.47000000000E+01 0.  1.
         -5    1    4    4    0  502  0.25851378508E+02  0.45290221768E+02 -0.62497974034E+01  0.52731849258E+02  0.47000000000E+01 0.  1.
<mgrwt>
<rscale>  0 0.26873391E+03</rscale>
<asrwt>0</asrwt>
<pdfrwt beam="1">  1       21 0.32965419E-01 0.26873391E+03</pdfrwt>
<pdfrwt beam="2">  1       21 0.12962824E-01 0.26873391E+03</pdfrwt>
<totfact> 0.44569362E+05</totfact>
</mgrwt>
</event>
<event>
 8    1  0.9373234E-006  0.4590081E+03  0.7546771E-02  0.1025069E+00
         21   -1    0    0  504  503  0.00000000000E+00  0.00000000000E+00  0.46957455020E+02  0.46957455020E+02  0.00000000000E+00 0. -1.
         21   -1    0    0  503  504 -0.00000000000E+00 -0.00000000000E+00 -0.11216987356E+04  0.11216987356E+04  0.00000000000E+00 0. -1.
         25    2    1    2    0    0 -0.97726489101E+02  0.14489370182E+03 -0.33208487626E+03  0.39553685958E+03  0.12499756297E+03 0.  0.
         25    2    1    2    0    0  0.97726489101E+02 -0.14489370182E+03 -0.74265640434E+03  0.77311933105E+03  0.12502125277E+03 0.  0.
          5    1    3    3  501    0 -0.90374865059E+02  0.82958387153E+02 -0.30226484732E+03  0.32624505844E+03  0.47000000000E+01 0.  1.
         -5    1    3    3    0  501 -0.73516240423E+01  0.61935314671E+02 -0.29820028940E+02  0.69291801141E+02  0.47000000000E+01 0.  1.
          5    1    4    4  502    0  0.44700744389E+02 -0.31970092483E+01 -0.33961960074E+03  0.34259588530E+03  0.47000000000E+01 0. -1.
         -5    1    4    4    0  502  0.53025744712E+02 -0.14169669258E+03 -0.40303680360E+03  0.43052344575E+03  0.47000000000E+01 0. -1.
<mgrwt>
<rscale>  0 0.45900814E+03</rscale>
<asrwt>0</asrwt>
<pdfrwt beam="1">  1       21 0.72242240E-02 0.45900814E+03</pdfrwt>
<pdfrwt beam="2">  1       21 0.17256903E+00 0.45900814E+03</pdfrwt>
<totfact> 0.26122645E+04</totfact>
</mgrwt>
</event>
<event>
 8    1  0.9373234E-006  0.3827335E+03  0.7546771E-02  0.1049928E+00
         21   -1    0    0  504  503  0.00000000000E+00  0.00000000000E+00  0.15648070524E+03  0.15648070524E+03  0.00000000000E+00 0. -1.
         21   -1    0    0  503  504 -0.00000000000E+00 -0.00000000000E+00 -0.23403038474E+03  0.23403038474E+03  0.00000000000E+00 0. -1.
         25    2    1    2    0    0  0.37328814512E+02  0.13838894241E+03 -0.60436746432E+02  0.19955815463E+03  0.12500366790E+03 0.  0.
         25    2    1    2    0    0 -0.37328814512E+02 -0.13838894241E+03 -0.17112933061E+02  0.19095293534E+03  0.12500092506E+03 0.  0.
          5    1    3    3  501    0 -0.37518472871E+02  0.84105861367E+02 -0.65695993080E+01  0.92448263142E+02  0.47000000000E+01 0.  1.
         -5    1    3    3    0  501  0.74847287383E+02  0.54283081042E+02 -0.53867147124E+02  0.10710989149E+03  0.47000000000E+01 0.  1.
          5    1    4    4  502    0  0.38673134522E+02 -0.94583932257E+02 -0.71635621462E+01  0.10254334790E+03  0.47000000000E+01 0. -1.
         -5    1    4    4    0  502 -0.76001949034E+02 -0.43805010152E+02 -0.99493709145E+01  0.88409587449E+02  0.47000000000E+01 0. -1.
<mgrwt>
<rscale>  0 0.38273353E+03</rscale>
<asrwt>0</asrwt>
<pdfrwt beam="1">  1       21 0.24073955E-01 0.38273353E+03</pdfrwt>
<pdfrwt beam="2">  1       21 0.36004674E-01 0.38273353E+03</pdfrwt>
<totfact> 0.11475098E+05</totfact>
</mgrwt>
</event>
<event>
 8    1  0.9373234E-006  0.5268304E+03  0.7546771E-02  0.1007004E+00
         21   -1    0    0  504  503  0.00000000000E+00  0.00000000000E+00  0.67336600635E+03  0.67336600635E+03  0.00000000000E+00 0.  1.
         21   -1    0    0  503  504 -0.00000000000E+00 -0.00000000000E+00 -0.10304582529E+03  0.10304582529E+03  0.00000000000E+00 0.  1.
         25    2    1    2    0    0 -0.11485361069E+03 -0.18538107242E+03  0.16909977106E+03  0.30295728048E+03  0.12502354706E+03 0.  0.
         25    2    1    2    0    0  0.11485361069E+03  0.18538107242E+03  0.40122041000E+03  0.47345455116E+03  0.12499560278E+03 0.  0.
          5    1    3    3  501    0 -0.10060117919E+03 -0.10785341902E+03  0.16851021550E+03  0.22398825857E+03  0.47000000000E+01 0. -1.
         -5    1    3    3    0  501 -0.14252431497E+02 -0.77527653400E+02  0.58955556661E+00  0.78969021908E+02  0.47000000000E+01 0. -1.
          5    1    4    4  502    0  0.42128041082E+02  0.93421791374E+01  0.21112190292E+02  0.48268651684E+02  0.47000000000E+01 0. -1.
         -5    1    4    4    0  502  0.72725569603E+02  0.17603889329E+03  0.38010821971E+03  0.42518589947E+03  0.47000000000E+01 0. -1.
<mgrwt>
<rscale>  0 0.52683036E+03</rscale>
<asrwt>0</asrwt>
<pdfrwt beam="1">  1       21 0.10359477E+00 0.52683036E+03</pdfrwt>
<pdfrwt beam="2">  1       21 0.15853204E-01 0.52683036E+03</pdfrwt>
<totfact> 0.23754171E+04</totfact>
</mgrwt>
</event>
<event>
 8    1  0.9373234E-006  0.3491542E+03  0.7546771E-02  0.1062963E+00
         21   -1    0    0  504  503  0.00000000000E+00  0.00000000000E+00  0.11183699342E+03  0.11183699342E+03  0.00000000000E+00 0.  1.
         21   -1    0    0  503  504 -0.00000000000E+00 -0.00000000000E+00 -0.27251419601E+03  0.27251419601E+03  0.00000000000E+00 0.  1.
         25    2    1    2    0    0 -0.30257810789E+02  0.63290906838E+02  0.29361655233E+02  0.14633008602E+03  0.12501645201E+03 0.  0.
         25    2    1    2    0    0  0.30257810789E+02 -0.63290906838E+02 -0.19003885783E+03  0.23802110341E+03  0.12497201360E+03 0.  0.
          5    1    3    3  501    0 -0.25024533919E+02 -0.31345958582E+02  0.31798813680E+02  0.51400884902E+02  0.47000000000E+01 0.  1.
         -5    1    3    3    0  501 -0.52332768706E+01  0.94636865420E+02 -0.24371584476E+01  0.94929201117E+02  0.47000000000E+01 0.  1.
          5    1    4    4  502    0  0.67710740630E+02 -0.32824166531E+02 -0.51682350277E+02  0.91407470347E+02  0.47000000000E+01 0. -1.
         -5    1    4    4    0  502 -0.37452929840E+02 -0.30466740307E+02 -0.13835650755E+03  0.14661363306E+03  0.47000000000E+01 0. -1.
<mgrwt>
<rscale>  0 0.34915423E+03</rscale>
<asrwt>0</asrwt>
<pdfrwt beam="1">  1       21 0.17205691E-01 0.34915423E+03</pdfrwt>
<pdfrwt beam="2">  1       21 0.41925261E-01 0.34915423E+03</pdfrwt>
<totfact> 0.16020667E+05</totfact>
</mgrwt>
</event>
<event>
 8    1  0.9373234E-006  0.2811301E+03  0.7546771E-02  0.1095073E+00
         21   -1    0    0  504  503  0.00000000000E+00  0.00000000000E+00  0.58347177030E+02  0.58347177030E+02  0.00000000000E+00 0. -1.
         21   -1    0    0  503  504 -0.00000000000E+00 -0.00000000000E+00 -0.33863728307E+03  0.33863728307E+03  0.00000000000E+00 0. -1.
         25    2    1    2    0    0 -0.60836182961E+02 -0.93347899270E+01 -0.16642837649E+03  0.21705118201E+03  0.12499852660E+03 0.  0.
         25    2    1    2    0    0  0.60836182961E+02  0.93347899270E+01 -0.11386172955E+03  0.17993327809E+03  0.12499324640E+03 0.  0.
          5    1    3    3  501    0  0.24479544740E+02  0.31265866472E+00 -0.11322046361E+03  0.11593234771E+03  0.47000000000E+01 0.  1.
         -5    1    3    3    0  501 -0.85315727701E+02 -0.96474485917E+01 -0.53207912881E+02  0.10111883430E+03  0.47000000000E+01 0.  1.
          5    1    4    4  502    0  0.26818000687E+02 -0.19219048412E+02  0.19966082155E+02  0.38849857392E+02  0.47000000000E+01 0.  1.
         -5    1    4    4    0  502  0.34018182274E+02  0.28553838339E+02 -0.13382781171E+03  0.14108342070E+03  0.47000000000E+01 0.  1.
<mgrwt>
<rscale>  0 0.28113007E+03</rscale>
<asrwt>0</asrwt>
<pdfrwt beam="1">  1       21 0.89764887E-02 0.28113007E+03</pdfrwt>
<pdfrwt beam="2">  1       21 0.52098044E-01 0.28113007E+03</pdfrwt>
<totfact> 0.33612955E+05</totfact>
</mgrwt>
</event>
<event>
 8    1  0.9373234E-006  0.2613798E+03  0.7546771E-02  0.1106317E+00
         21   -1    0    0  504  503  0.00000000000E+00  0.00000000000E+00  0.24620886357E+03  0.24620886357E+03  0.00000000000E+00 0.  1.
         21   -1    0    0  503  504 -0.00000000000E+00 -0.00000000000E+00 -0.69371373108E+02  0.69371373108E+02  0.00000000000E+00 0.  1.
         25    2    1    2    0    0 -0.16535272948E+02 -0.18141539610E+02  0.12366142080E+03  0.17753931176E+03  0.12500211803E+03 0.  0.
         25    2    1    2    0    0  0.16535272948E+02  0.18141539610E+02  0.53176069662E+02  0.13804092493E+03  0.12500028744E+03 0.  0.
          5    1    3    3  501    0 -0.12749692138E+01  0.11028655307E+02  0.13997887272E+03  0.14049708749E+03  0.47000000000E+01 0.  1.
         -5    1    3    3    0  501 -0.15260303734E+02 -0.29170194918E+02 -0.16317451917E+02  0.37042224267E+02  0.47000000000E+01 0.  1.
          5    1    4    4  502    0  0.30385906852E+02 -0.42490959498E+02  0.54522975840E+02  0.75654675128E+02  0.47000000000E+01 0.  1.
         -5    1    4    4    0  502 -0.13850633904E+02  0.60632499109E+02 -0.13469061783E+01  0.62386249799E+02  0.47000000000E+01 0.  1.
<mgrwt>
<rscale>  0 0.26137978E+03</rscale>
<asrwt>0</asrwt>
<pdfrwt beam="1">  1       21 0.37878286E-01 0.26137978E+03</pdfrwt>
<pdfrwt beam="2">  1       21 0.10672519E-01 0.26137978E+03</pdfrwt>
<totfact> 0.47943677E+05</totfact>
</mgrwt>
</event>
<event>
 8    1  0.9373234E-006  0.2880017E+03  0.7546771E-02  0.1091397E+00
         21   -1    0    0  504  503  0.00000000000E+00  0.00000000000E+00  0.33099166981E+03  0.33099166981E+03  0.00000000000E+00 0.  1.
         21   -1    0    0  503  504 -0.00000000000E+00 -0.00000000000E+00 -0.62648855109E+02  0.62648855109E+02  0.00000000000E+00 0.  1.
         25    2    1    2    0    0  0.29152484979E+02  0.55693618501E+01  0.22307127335E+03  0.25742321461E+03  0.12500013302E+03 0.  0.
         25    2    1    2    0    0 -0.29152484979E+02 -0.55693618501E+01  0.45271541343E+02  0.13621731030E+03  0.12499903199E+03 0.  0.
          5    1    3    3  501    0  0.50962364379E+02  0.11970881912E+02  0.22775798437E+03  0.23374399253E+03  0.47000000000E+01 0.  1.
         -5    1    3    3    0  501 -0.21809879399E+02 -0.64015200621E+01 -0.46867110179E+01  0.23679222088E+02  0.47000000000E+01 0.  1.
          5    1    4    4  502    0 -0.38185469377E+02 -0.23611737077E+02  0.82254318205E+02  0.93827006041E+02  0.47000000000E+01 0. -1.
         -5    1    4    4    0  502  0.90329843978E+01  0.18042375227E+02 -0.36982776861E+02  0.42390304261E+02  0.47000000000E+01 0. -1.
<mgrwt>
<rscale>  0 0.28800173E+03</rscale>
<asrwt>0</asrwt>
<pdfrwt beam="1">  1       21 0.50921794E-01 0.28800173E+03</pdfrwt>
<pdfrwt beam="2">  1       21 0.96382856E-02 0.28800173E+03</pdfrwt>
<totfact> 0.31051519E+05</totfact>
</mgrwt>
</event>
<event>
 8    1  0.9373234E-006  0.3458105E+03  0.7546771E-02  0.1064348E+00
         21   -1    0    0  504  503  0.00000000000E+00  0.00000000000E+00  0.29093794462E+02  0.29093794462E+02  0.00000000000E+00 0. -1.
         21   -1    0    0  503  504 -0.00000000000E+00 -0.00000000000E+00 -0.10275810611E+04  0.10275810611E+04  0.00000000000E+00 0. -1.
         25    2    1    2    0    0  0.70450658548E+02 -0.23239620096E+02 -0.21313466828E+03  0.25798254842E+03  0.12500093292E+03 0.  0.
         25    2    1    2    0    0 -0.70450658548E+02  0.23239620096E+02 -0.78535259833E+03  0.79869230712E+03  0.12500928971E+03 0.  0.
          5    1    3    3  501    0 -0.25024337621E+02  0.22609421821E+02 -0.85679479920E+02  0.92197975617E+02  0.47000000000E+01 0. -1.
         -5    1    3    3    0  501  0.95474996169E+02 -0.45849041917E+02 -0.12745518836E+03  0.16578457280E+03  0.47000000000E+01 0. -1.
          5    1    4    4  502    0 -0.67647860319E+02  0.59456262243E+02 -0.33741151671E+03  0.34925621216E+03  0.47000000000E+01 0. -1.
         -5    1    4    4    0  502 -0.28027982283E+01 -0.36216642147E+02 -0.44794108162E+03  0.44943609495E+03  0.47000000000E+01 0. -1.
<mgrwt>
<rscale>  0 0.34581054E+03</rscale>
<asrwt>0</asrwt>
<pdfrwt beam="1">  1       21 0.44759688E-02 0.34581054E+03</pdfrwt>
<pdfrwt beam="2">  1       21 0.15808938E+00 0.34581054E+03</pdfrwt>
<totfact> 0.79236573E+04</totfact>
</mgrwt>
</event>
<event>
 8    1  0.9373234E-006  0.3422320E+03  0.7546771E-02  0.1065849E+00
         21   -1    0    0  504  503  0.00000000000E+00  0.00000000000E+00  0.59554490165E+03  0.59554490165E+03  0.00000000000E+00 0.  1.
         21   -1    0    0  503  504 -0.00000000000E+00 -0.00000000000E+00 -0.49166201739E+02  0.49166201739E+02  0.00000000000E+00 0.  1.
         25    2    1    2    0    0 -0.42213448228E+02 -0.10257364287E+03  0.34246132811E+03  0.38106280911E+03  0.12500310320E+03 0.  0.
         25    2    1    2    0    0  0.42213448228E+02  0.10257364287E+03  0.20391737180E+03  0.26364829428E+03  0.12499920453E+03 0.  0.
          5    1    3    3  501    0  0.98871808759E+01  0.14032252370E+02  0.26256715506E+01  0.17990125162E+02  0.47000000000E+01 0. -1.
         -5    1    3    3    0  501 -0.52100629104E+02 -0.11660589524E+03  0.33983565656E+03  0.36307268395E+03  0.47000000000E+01 0. -1.
          5    1    4    4  502    0 -0.11528696916E+02  0.98510055197E+02  0.76901578713E+02  0.12559094170E+03  0.47000000000E+01 0.  1.
         -5    1    4    4    0  502  0.53742145144E+02  0.40635876699E+01  0.12701579309E+03  0.13805735258E+03  0.47000000000E+01 0.  1.
<mgrwt>
<rscale>  0 0.34223197E+03</rscale>
<asrwt>0</asrwt>
<pdfrwt beam="1">  1       21 0.91622288E-01 0.34223197E+03</pdfrwt>
<pdfrwt beam="2">  1       21 0.75640314E-02 0.34223197E+03</pdfrwt>
<totfact> 0.12726225E+05</totfact>
</mgrwt>
</event>
<event>
 8    1  0.9373234E-006  0.3593924E+03  0.7546771E-02  0.1058825E+00
         21   -1    0    0  504  503  0.00000000000E+00  0.00000000000E+00  0.53707503703E+03  0.53707503703E+03  0.00000000000E+00 0. -1.
         21   -1    0    0  503  504 -0.00000000000E+00 -0.00000000000E+00 -0.60123286336E+02  0.60123286336E+02  0.00000000000E+00 0. -1.
         25    2    1    2    0    0 -0.59203414284E+02 -0.17901569993E+02  0.42676883736E+03  0.44897882847E+03  0.12499934959E+03 0.  0.
         25    2    1    2    0    0  0.59203414284E+02  0.17901569993E+02  0.50182913333E+02  0.14821949490E+03  0.12500073363E+03 0.  0.
          5    1    3    3  501    0 -0.82982592484E+02  0.12726633671E+02  0.17447470017E+03  0.19367908730E+03  0.47000000000E+01 0. -1.
         -5    1    3    3    0  501  0.23779178200E+02 -0.30628203664E+02  0.25229413720E+03  0.25529974117E+03  0.47000000000E+01 0. -1.
          5    1    4    4  502    0  0.93243960063E+02  0.26145857172E+01  0.11228166064E+02  0.94071429562E+02  0.47000000000E+01 0.  1.
         -5    1    4    4    0  502 -0.34040545779E+02  0.15286984276E+02  0.38954747269E+02  0.54148065339E+02  0.47000000000E+01 0.  1.
<mgrwt>
<rscale>  0 0.35939236E+03</rscale>
<asrwt>0</asrwt>
<pdfrwt beam="1">  1       21 0.82626926E-01 0.35939236E+03</pdfrwt>
<pdfrwt beam="2">  1       21 0.92497367E-02 0.35939236E+03</pdfrwt>
<totfact> 0.11305010E+05</totfact>
</mgrwt>
</event>
<event>
 8    1  0.9373234E-006  0.2591309E+03  0.7546771E-02  0.1107667E+00
         21   -1    0    0  504  503  0.00000000000E+00  0.00000000000E+00  0.68977359280E+03  0.68977359280E+03  0.00000000000E+00 0.  1.
         21   -1    0    0  503  504 -0.00000000000E+00 -0.00000000000E+00 -0.24337274269E+02  0.24337274269E+02  0.00000000000E+00 0.  1.
         25    2    1    2    0    0  0.37417718829E+00 -0.13621134531E+02  0.41881921919E+03  0.43728863864E+03  0.12500455913E+03 0.  0.
         25    2    1    2    0    0 -0.37417718829E+00  0.13621134531E+02  0.24661709934E+03  0.27682222843E+03  0.12499950861E+03 0.  0.
          5    1    3    3  501    0  0.36854237787E+02 -0.45860540742E+02  0.33568084712E+03  0.34083008254E+03  0.47000000000E+01 0. -1.
         -5    1    3    3    0  501 -0.36480060599E+02  0.32239406211E+02  0.83138372073E+02  0.96458556101E+02  0.47000000000E+01 0. -1.
          5    1    4    4  502    0  0.52246649248E+02  0.29683220232E+02  0.73174094507E+02  0.94801603509E+02  0.47000000000E+01 0.  1.
         -5    1    4    4    0  502 -0.52620826436E+02 -0.16062085701E+02  0.17344300483E+03  0.18202062492E+03  0.47000000000E+01 0.  1.
<mgrwt>
<rscale>  0 0.25913093E+03</rscale>
<asrwt>0</asrwt>
<pdfrwt beam="1">  1       21 0.10611900E+00 0.25913093E+03</pdfrwt>
<pdfrwt beam="2">  1       21 0.37441966E-02 0.25913093E+03</pdfrwt>
<totfact> 0.30585598E+05</totfact>
</mgrwt>
</event>
<event>
 8    1  0.9373234E-006  0.3228916E+03  0.7546771E-02  0.1074326E+00
         21   -1    0    0  504  503  0.00000000000E+00  0.00000000000E+00  0.62099537289E+03  0.62099537289E+03  0.00000000000E+00 0.  1.
         21   -1    0    0  503  504 -0.00000000000E+00 -0.00000000000E+00 -0.41972539983E+02  0.41972539983E+02  0.00000000000E+00 0.  1.
         25    2    1    2    0    0  0.61271608181E+02  0.81405767269E+02  0.30489932278E+03  0.34492651705E+03  0.12501838353E+03 0.  0.
         25    2    1    2    0    0 -0.61271608181E+02 -0.81405767269E+02  0.27412351013E+03  0.31804139583E+03  0.12500208693E+03 0.  0.
          5    1    3    3  501    0 -0.27153645556E+02  0.44965039123E+02  0.50151019639E+02  0.72776300958E+02  0.47000000000E+01 0.  1.
         -5    1    3    3    0  501  0.88425253737E+02  0.36440728146E+02  0.25474830314E+03  0.27215021609E+03  0.47000000000E+01 0.  1.
          5    1    4    4  502    0 -0.31658958562E+02  0.25737457725E+02  0.12770802527E+03  0.13414967800E+03  0.47000000000E+01 0.  1.
         -5    1    4    4    0  502 -0.29612649619E+02 -0.10714322499E+03  0.14641548486E+03  0.18389171783E+03  0.47000000000E+01 0.  1.
<mgrwt>
<rscale>  0 0.32289164E+03</rscale>
<asrwt>0</asrwt>
<pdfrwt beam="1">  1       21 0.95537743E-01 0.32289164E+03</pdfrwt>
<pdfrwt beam="2">  1       21 0.64573143E-02 0.32289164E+03</pdfrwt>
<totfact> 0.15266649E+05</totfact>
</mgrwt>
</event>
<event>
 8    1  0.9373234E-006  0.2812006E+03  0.7546771E-02  0.1095035E+00
         21   -1    0    0  504  503  0.00000000000E+00  0.00000000000E+00  0.38268493087E+03  0.38268493087E+03  0.00000000000E+00 0. -1.
         21   -1    0    0  503  504 -0.00000000000E+00 -0.00000000000E+00 -0.51657218941E+02  0.51657218941E+02  0.00000000000E+00 0. -1.
         25    2    1    2    0    0 -0.85048375210E+01  0.48559266343E+02  0.10146221531E+03  0.16833925289E+03  0.12495274434E+03 0.  0.
         25    2    1    2    0    0  0.85048375210E+01 -0.48559266343E+02  0.22956549662E+03  0.26600289693E+03  0.12500755708E+03 0.  0.
          5    1    3    3  501    0  0.31677636453E+02  0.68044247656E+02  0.97680135211E+02  0.12327607678E+03  0.47000000000E+01 0.  1.
         -5    1    3    3    0  501 -0.40182473974E+02 -0.19484981313E+02  0.37820801039E+01  0.45063176112E+02  0.47000000000E+01 0.  1.
          5    1    4    4  502    0  0.50425350550E+02 -0.57752027659E+02  0.19841707080E+03  0.21276615487E+03  0.47000000000E+01 0. -1.
         -5    1    4    4    0  502 -0.41920513029E+02  0.91927613155E+01  0.31148425821E+02  0.53236742052E+02  0.47000000000E+01 0. -1.
<mgrwt>
<rscale>  0 0.28120056E+03</rscale>
<asrwt>0</asrwt>
<pdfrwt beam="1">  1       21 0.58874603E-01 0.28120056E+03</pdfrwt>
<pdfrwt beam="2">  1       21 0.79472647E-02 0.28120056E+03</pdfrwt>
<totfact> 0.32069325E+05</totfact>
</mgrwt>
</event>
<event>
 8    1  0.9373234E-006  0.3014637E+03  0.7546771E-02  0.1084511E+00
         21   -1    0    0  504  503  0.00000000000E+00  0.00000000000E+00  0.11010018676E+04  0.11010018676E+04  0.00000000000E+00 0.  1.
         21   -1    0    0  503  504 -0.00000000000E+00 -0.00000000000E+00 -0.20635830341E+02  0.20635830341E+02  0.00000000000E+00 0.  1.
         25    2    1    2    0    0 -0.72035018682E+02  0.36819271076E+02  0.45288084546E+03  0.47672905255E+03  0.12499930689E+03 0.  0.
         25    2    1    2    0    0  0.72035018682E+02 -0.36819271076E+02  0.62748519183E+03  0.64490864542E+03  0.12499916933E+03 0.  0.
          5    1    3    3  501    0 -0.58376607668E+01 -0.37348513815E+02  0.22298408737E+03  0.22621446237E+03  0.47000000000E+01 0. -1.
         -5    1    3    3    0  501 -0.66197357915E+02  0.74167784891E+02  0.22989675809E+03  0.25051459017E+03  0.47000000000E+01 0. -1.
          5    1    4    4  502    0 -0.10452803752E+02 -0.90671158417E+01  0.41480335606E+03  0.41506070387E+03  0.47000000000E+01 0.  1.
         -5    1    4    4    0  502  0.82487822435E+02 -0.27752155234E+02  0.21268183577E+03  0.22984794155E+03  0.47000000000E+01 0.  1.
<mgrwt>
<rscale>  0 0.30146368E+03</rscale>
<asrwt>0</asrwt>
<pdfrwt beam="1">  1       21 0.16938486E+00 0.30146368E+03</pdfrwt>
<pdfrwt beam="2">  1       21 0.31747440E-02 0.30146368E+03</pdfrwt>
<totfact> 0.11863533E+05</totfact>
</mgrwt>
</event>
<event>
 8    1  0.9373234E-006  0.2732463E+03  0.7546771E-02  0.1099436E+00
         21   -1    0    0  504  503  0.00000000000E+00  0.00000000000E+00  0.37761284666E+02  0.37761284666E+02  0.00000000000E+00 0.  1.
         21   -1    0    0  503  504 -0.00000000000E+00 -0.00000000000E+00 -0.49431290590E+03  0.49431290590E+03  0.00000000000E+00 0.  1.
         25    2    1    2    0    0 -0.45875049226E+02 -0.29286890397E+02 -0.24483365334E+03  0.28023261748E+03  0.12499823997E+03 0.  0.
         25    2    1    2    0    0  0.45875049226E+02  0.29286890397E+02 -0.21171796789E+03  0.25184157309E+03  0.12504974178E+03 0.  0.
          5    1    3    3  501    0  0.96465754339E+01  0.43363443818E+02 -0.85494742520E+02  0.96461835333E+02  0.47000000000E+01 0.  1.
         -5    1    3    3    0  501 -0.55521624660E+02 -0.72650334215E+02 -0.15933891082E+03  0.18377078214E+03  0.47000000000E+01 0.  1.
          5    1    4    4  502    0  0.35893183456E+02  0.29696242273E+02 -0.22767375844E+03  0.23243841702E+03  0.47000000000E+01 0.  1.
         -5    1    4    4    0  502  0.99818657708E+01 -0.40935187604E+00  0.15955790554E+02  0.19403156069E+02  0.47000000000E+01 0.  1.
<mgrwt>
<rscale>  0 0.27324634E+03</rscale>
<asrwt>0</asrwt>
<pdfrwt beam="1">  1       21 0.58094278E-02 0.27324634E+03</pdfrwt>
<pdfrwt beam="2">  1       21 0.76048148E-01 0.27324634E+03</pdfrwt>
<totfact> 0.31465542E+05</totfact>
</mgrwt>
</event>
<event>
 8    1  0.9373234E-006  0.3078436E+03  0.7546771E-02  0.1081384E+00
         21   -1    0    0  504  503  0.00000000000E+00  0.00000000000E+00  0.18748455017E+02  0.18748455017E+02  0.00000000000E+00 0.  1.
         21   -1    0    0  503  504 -0.00000000000E+00 -0.00000000000E+00 -0.12636729793E+04  0.12636729793E+04  0.00000000000E+00 0.  1.
         25    2    1    2    0    0  0.80622578433E+01 -0.64072487590E+02 -0.36239210028E+03  0.38874424024E+03  0.12499506513E+03 0.  0.
         25    2    1    2    0    0 -0.80622578433E+01  0.64072487590E+02 -0.88253242402E+03  0.89367719409E+03  0.12500065652E+03 0.  0.
          5    1    3    3  501    0 -0.45779280215E+02 -0.31129275347E+02 -0.27663084241E+03  0.28215507660E+03  0.47000000000E+01 0. -1.
         -5    1    3    3    0  501  0.53841538058E+02 -0.32943212243E+02 -0.85761257872E+02  0.10658916364E+03  0.47000000000E+01 0. -1.
          5    1    4    4  502    0 -0.39142051957E+02  0.90691781078E+02 -0.58333280882E+03  0.59165560526E+03  0.47000000000E+01 0.  1.
         -5    1    4    4    0  502  0.31079794113E+02 -0.26619293488E+02 -0.29919961520E+03  0.30202158884E+03  0.47000000000E+01 0.  1.
<mgrwt>
<rscale>  0 0.30784357E+03</rscale>
<asrwt>0</asrwt>
<pdfrwt beam="1">  1       21 0.28843782E-02 0.30784357E+03</pdfrwt>
<pdfrwt beam="2">  1       21 0.19441119E+00 0.30784357E+03</pdfrwt>
<totfact> 0.93342621E+04</totfact>
</mgrwt>
</event>
<event>
 8    1  0.9373234E-006  0.2756797E+03  0.7546771E-02  0.1098072E+00
         21   -1    0    0  504  503  0.00000000000E+00  0.00000000000E+00  0.34079453870E+03  0.34079453870E+03  0.00000000000E+00 0. -1.
         21   -1    0    0  503  504 -0.00000000000E+00 -0.00000000000E+00 -0.55751549010E+02  0.55751549010E+02  0.00000000000E+00 0. -1.
         25    2    1    2    0    0  0.89273049026E+01  0.28391113335E+02  0.70789254064E+02  0.14671221271E+03  0.12501041068E+03 0.  0.
         25    2    1    2    0    0 -0.89273049026E+01 -0.28391113335E+02  0.21425373562E+03  0.24983387499E+03  0.12500619896E+03 0.  0.
          5    1    3    3  501    0 -0.20706055259E+02  0.31412612811E+02 -0.25578374008E+02  0.45736595686E+02  0.47000000000E+01 0.  1.
         -5    1    3    3    0  501  0.29633360161E+02 -0.30214994765E+01  0.96367628073E+02  0.10097561703E+03  0.47000000000E+01 0.  1.
          5    1    4    4  502    0  0.37507965636E+01  0.37953199576E+02  0.18396066851E+02  0.42603041071E+02  0.47000000000E+01 0. -1.
         -5    1    4    4    0  502 -0.12678101466E+02 -0.66344312910E+02  0.19585766877E+03  0.20723083392E+03  0.47000000000E+01 0. -1.
<mgrwt>
<rscale>  0 0.27567969E+03</rscale>
<asrwt>0</asrwt>
<pdfrwt beam="1">  1       21 0.52429928E-01 0.27567969E+03</pdfrwt>
<pdfrwt beam="2">  1       21 0.85771616E-02 0.27567969E+03</pdfrwt>
<totfact> 0.35976786E+05</totfact>
</mgrwt>
</event>
<event>
 8    1  0.9373234E-006  0.4861208E+03  0.7546771E-02  0.1017466E+00
         21   -1    0    0  504  503  0.00000000000E+00  0.00000000000E+00  0.11487816665E+04  0.11487816665E+04  0.00000000000E+00 0.  1.
         21   -1    0    0  503  504 -0.00000000000E+00 -0.00000000000E+00 -0.51426957779E+02  0.51426957779E+02  0.00000000000E+00 0.  1.
         25    2    1    2    0    0 -0.29583389088E+02 -0.75083657714E+02  0.10231696592E+04  0.10339225520E+04  0.12492781715E+03 0.  0.
         25    2    1    2    0    0  0.29583389088E+02  0.75083657714E+02  0.74185049510E+02  0.16628607225E+03  0.12503960848E+03 0.  0.
          5    1    3    3  501    0  0.31896997756E+02 -0.76725364709E+02  0.46858306078E+03  0.47591635285E+03  0.47000000000E+01 0.  1.
         -5    1    3    3    0  501 -0.61480386844E+02  0.16417069956E+01  0.55458659838E+03  0.55800619914E+03  0.47000000000E+01 0.  1.
          5    1    4    4  502    0  0.68463372351E+02  0.77905535195E+02  0.31964056862E+02  0.10862917057E+03  0.47000000000E+01 0.  1.
         -5    1    4    4    0  502 -0.38879983263E+02 -0.28218774815E+01  0.42220992648E+02  0.57656901679E+02  0.47000000000E+01 0.  1.
<mgrwt>
<rscale>  0 0.48612075E+03</rscale>
<asrwt>0</asrwt>
<pdfrwt beam="1">  1       21 0.17673562E+00 0.48612075E+03</pdfrwt>
<pdfrwt beam="2">  1       21 0.79118405E-02 0.48612075E+03</pdfrwt>
<totfact> 0.20600138E+04</totfact>
</mgrwt>
</event>
<event>
 8    1  0.9373234E-006  0.2758950E+03  0.7546771E-02  0.1097952E+00
         21   -1    0    0  504  503  0.00000000000E+00  0.00000000000E+00  0.90205559607E+02  0.90205559607E+02  0.00000000000E+00 0. -1.
         21   -1    0    0  503  504 -0.00000000000E+00 -0.00000000000E+00 -0.21095717372E+03  0.21095717372E+03  0.00000000000E+00 0. -1.
         25    2    1    2    0    0  0.27549278824E+02  0.43691767079E+02 -0.30755672904E+02  0.13870458275E+03  0.12500046634E+03 0.  0.
         25    2    1    2    0    0 -0.27549278824E+02 -0.43691767079E+02 -0.89995941213E+02  0.16245815058E+03  0.12500179191E+03 0.  0.
          5    1    3    3  501    0  0.42547581895E+01  0.86240786107E+02 -0.21343601045E+02  0.89068599749E+02  0.47000000000E+01 0.  1.
         -5    1    3    3    0  501  0.23294520635E+02 -0.42549019028E+02 -0.94120718591E+01  0.49635983002E+02  0.47000000000E+01 0.  1.
          5    1    4    4  502    0  0.64145446559E+01  0.27782210208E+01  0.28994849677E+02  0.30193645076E+02  0.47000000000E+01 0. -1.
         -5    1    4    4    0  502 -0.33963823480E+02 -0.46469988100E+02 -0.11899079089E+03  0.13226450550E+03  0.47000000000E+01 0. -1.
<mgrwt>
<rscale>  0 0.27589498E+03</rscale>
<asrwt>0</asrwt>
<pdfrwt beam="1">  1       21 0.13877778E-01 0.27589498E+03</pdfrwt>
<pdfrwt beam="2">  1       21 0.32454950E-01 0.27589498E+03</pdfrwt>
<totfact> 0.40554728E+05</totfact>
</mgrwt>
</event>
<event>
 8    1  0.9373234E-006  0.2626303E+03  0.7546771E-02  0.1105573E+00
         21   -1    0    0  504  503  0.00000000000E+00  0.00000000000E+00  0.36897403251E+02  0.36897403251E+02  0.00000000000E+00 0. -1.
         21   -1    0    0  503  504 -0.00000000000E+00 -0.00000000000E+00 -0.46734104290E+03  0.46734104290E+03  0.00000000000E+00 0. -1.
         25    2    1    2    0    0 -0.42689536487E+01  0.26236278308E+02 -0.27328867215E+03  0.30168229522E+03  0.12497576828E+03 0.  0.
         25    2    1    2    0    0  0.42689536487E+01 -0.26236278308E+02 -0.15715496749E+03  0.20255615093E+03  0.12499897682E+03 0.  0.
          5    1    3    3  501    0  0.43146332703E+01 -0.35095262304E+02 -0.20009354592E+02  0.40899361457E+02  0.47000000000E+01 0.  1.
         -5    1    3    3    0  501 -0.85835869190E+01  0.61331540612E+02 -0.25327931756E+03  0.26078293376E+03  0.47000000000E+01 0.  1.
          5    1    4    4  502    0 -0.53682082845E+01 -0.36339592825E+01 -0.17284240148E+03  0.17302776965E+03  0.47000000000E+01 0. -1.
         -5    1    4    4    0  502  0.96371619332E+01 -0.22602319025E+02  0.15687433991E+02  0.29528381274E+02  0.47000000000E+01 0. -1.
<mgrwt>
<rscale>  0 0.26263032E+03</rscale>
<asrwt>0</asrwt>
<pdfrwt beam="1">  1       21 0.56765238E-02 0.26263032E+03</pdfrwt>
<pdfrwt beam="2">  1       21 0.71898619E-01 0.26263032E+03</pdfrwt>
<totfact> 0.37227199E+05</totfact>
</mgrwt>
</event>
<event>
 8    1  0.9373234E-006  0.2909453E+03  0.7546771E-02  0.1089857E+00
         21   -1    0    0  504  503  0.00000000000E+00  0.00000000000E+00  0.54374975666E+03  0.54374975666E+03  0.00000000000E+00 0.  1.
         21   -1    0    0  503  504 -0.00000000000E+00 -0.00000000000E+00 -0.38919185153E+02  0.38919185153E+02  0.00000000000E+00 0.  1.
         25    2    1    2    0    0  0.31273236759E+02 -0.40741025673E+02  0.36023475985E+03  0.38475025180E+03  0.12500331012E+03 0.  0.
         25    2    1    2    0    0 -0.31273236759E+02  0.40741025673E+02  0.14459581165E+03  0.19791869002E+03  0.12500405033E+03 0.  0.
          5    1    3    3  501    0  0.11907753957E+02  0.37448407027E+02  0.47764283532E+02  0.62029787799E+02  0.47000000000E+01 0. -1.
         -5    1    3    3    0  501  0.19365482802E+02 -0.78189432700E+02  0.31247047632E+03  0.32272046400E+03  0.47000000000E+01 0. -1.
          5    1    4    4  502    0 -0.42427566972E+02  0.75376816731E+01 -0.55212776138E+01  0.43697706926E+02  0.47000000000E+01 0.  1.
         -5    1    4    4    0  502  0.11154330213E+02  0.33203344000E+02  0.15011708927E+03  0.15422098309E+03  0.47000000000E+01 0.  1.
<mgrwt>
<rscale>  0 0.29094534E+03</rscale>
<asrwt>0</asrwt>
<pdfrwt beam="1">  1       21 0.83653803E-01 0.29094534E+03</pdfrwt>
<pdfrwt beam="2">  1       21 0.59875673E-02 0.29094534E+03</pdfrwt>
<totfact> 0.23933113E+05</totfact>
</mgrwt>
</event>
<event>
 8    1  0.9373234E-006  0.2550329E+03  0.7546771E-02  0.1110165E+00
         21   -1    0    0  504  503  0.00000000000E+00  0.00000000000E+00  0.13546723627E+03  0.13546723627E+03  0.00000000000E+00 0.  1.
         21   -1    0    0  503  504 -0.00000000000E+00 -0.00000000000E+00 -0.12003233045E+03  0.12003233045E+03  0.00000000000E+00 0.  1.
         25    2    1    2    0    0  0.17952181813E+02  0.16849749514E+02  0.13172262349E+02  0.12808013392E+03  0.12499926927E+03 0.  0.
         25    2    1    2    0    0 -0.17952181813E+02 -0.16849749514E+02  0.22626434740E+01  0.12741943279E+03  0.12499758961E+03 0.  0.
          5    1    3    3  501    0 -0.30433641303E+02 -0.38341478309E+02 -0.11500539800E+02  0.50503741422E+02  0.47000000000E+01 0. -1.
         -5    1    3    3    0  501  0.48385823116E+02  0.55191227823E+02  0.24672802149E+02  0.77576392499E+02  0.47000000000E+01 0. -1.
          5    1    4    4  502    0  0.25840432794E+02 -0.10036351584E+02  0.52933375318E+02  0.59937371836E+02  0.47000000000E+01 0.  1.
         -5    1    4    4    0  502 -0.43792614607E+02 -0.68133979299E+01 -0.50670731844E+02  0.67482060957E+02  0.47000000000E+01 0.  1.
<mgrwt>
<rscale>  0 0.25503292E+03</rscale>
<asrwt>0</asrwt>
<pdfrwt beam="1">  1       21 0.20841113E-01 0.25503292E+03</pdfrwt>
<pdfrwt beam="2">  1       21 0.18466512E-01 0.25503292E+03</pdfrwt>
<totfact> 0.56581817E+05</totfact>
</mgrwt>
</event>
<event>
 8    1  0.9373234E-006  0.3094244E+03  0.7546771E-02  0.1080622E+00
         21   -1    0    0  504  503  0.00000000000E+00  0.00000000000E+00  0.17580958339E+04  0.17580958339E+04  0.00000000000E+00 0.  1.
         21   -1    0    0  503  504 -0.00000000000E+00 -0.00000000000E+00 -0.13614650782E+02  0.13614650782E+02  0.00000000000E+00 0.  1.
         25    2    1    2    0    0  0.29400518126E+01  0.56471274873E+02  0.46279308551E+03  0.48270065561E+03  0.12499933657E+03 0.  0.
         25    2    1    2    0    0 -0.29400518126E+01 -0.56471274873E+02  0.12816880976E+04  0.12890098291E+04  0.12499724434E+03 0.  0.
          5    1    3    3  501    0  0.10284431990E+02 -0.18764538488E+02  0.32271404973E+03  0.32345683691E+03  0.47000000000E+01 0.  1.
         -5    1    3    3    0  501 -0.73443801770E+01  0.75235813362E+02  0.14007903577E+03  0.15924381870E+03  0.47000000000E+01 0.  1.
          5    1    4    4  502    0  0.16229321942E+01  0.32463603205E+02  0.67546259268E+03  0.67626054414E+03  0.47000000000E+01 0.  1.
         -5    1    4    4    0  502 -0.45629840068E+01 -0.88934878078E+02  0.60622550493E+03  0.61274928494E+03  0.47000000000E+01 0.  1.
<mgrwt>
<rscale>  0 0.30942437E+03</rscale>
<asrwt>0</asrwt>
<pdfrwt beam="1">  1       21 0.27047610E+00 0.30942437E+03</pdfrwt>
<pdfrwt beam="2">  1       21 0.20945630E-02 0.30942437E+03</pdfrwt>
<totfact> 0.53462106E+04</totfact>
</mgrwt>
</event>
<event>
 8    1  0.9373234E-006  0.2556748E+03  0.7546771E-02  0.1109770E+00
         21   -1    0    0  504  503  0.00000000000E+00  0.00000000000E+00  0.28291581795E+02  0.28291581795E+02  0.00000000000E+00 0. -1.
         21   -1    0    0  503  504 -0.00000000000E+00 -0.00000000000E+00 -0.57764160880E+03  0.57764160880E+03  0.00000000000E+00 0. -1.
         25    2    1    2    0    0 -0.20640170365E+02 -0.16860659480E+02 -0.26823720993E+03  0.29713006825E+03  0.12499911277E+03 0.  0.
         25    2    1    2    0    0  0.20640170365E+02  0.16860659480E+02 -0.28111281708E+03  0.30880312235E+03  0.12499861590E+03 0.  0.
          5    1    3    3  501    0 -0.68415758969E+00 -0.55686694062E+02 -0.23634472564E+03  0.24286291463E+03  0.47000000000E+01 0.  1.
         -5    1    3    3    0  501 -0.19956012775E+02  0.38826034582E+02 -0.31892484299E+02  0.54267153620E+02  0.47000000000E+01 0.  1.
          5    1    4    4  502    0 -0.18230132863E+02  0.27301591132E+02 -0.99421334019E+01  0.34621534327E+02  0.47000000000E+01 0.  1.
         -5    1    4    4    0  502  0.38870303228E+02 -0.10440931652E+02 -0.27117068367E+03  0.27418158802E+03  0.47000000000E+01 0.  1.
<mgrwt>
<rscale>  0 0.25567475E+03</rscale>
<asrwt>0</asrwt>
<pdfrwt beam="1">  1       21 0.43525513E-02 0.25567475E+03</pdfrwt>
<pdfrwt beam="2">  1       21 0.88867935E-01 0.25567475E+03</pdfrwt>
<totfact> 0.36189857E+05</totfact>
</mgrwt>
</event>
<event>
 8    1  0.9373234E-006  0.5334042E+03  0.7546771E-02  0.1005410E+00
         21   -1    0    0  504  503  0.00000000000E+00  0.00000000000E+00  0.17843798662E+04  0.17843798662E+04  0.00000000000E+00 0.  1.
         21   -1    0    0  503  504 -0.00000000000E+00 -0.00000000000E+00 -0.39862600748E+02  0.39862600748E+02  0.00000000000E+00 0.  1.
         25    2    1    2    0    0  0.17845322479E+03 -0.48227219422E+02  0.13717804044E+04  0.13898106105E+04  0.12498254712E+03 0.  0.
         25    2    1    2    0    0 -0.17845322479E+03  0.48227219422E+02  0.37273686109E+03  0.43443185646E+03  0.12500740845E+03 0.  0.
          5    1    3    3  501    0  0.16960679676E+03 -0.22689524521E+02  0.83692590937E+03  0.85425309352E+03  0.47000000000E+01 0. -1.
         -5    1    3    3    0  501  0.88464280291E+01 -0.25537694901E+02  0.53485449504E+03  0.53555751700E+03  0.47000000000E+01 0. -1.
          5    1    4    4  502    0 -0.81953443104E+00 -0.19688780910E+02  0.99209652551E+02  0.10125692514E+03  0.47000000000E+01 0. -1.
         -5    1    4    4    0  502 -0.17763369036E+03  0.67916000332E+02  0.27352720854E+03  0.33317493132E+03  0.47000000000E+01 0. -1.
<mgrwt>
<rscale>  0 0.53340425E+03</rscale>
<asrwt>0</asrwt>
<pdfrwt beam="1">  1       21 0.27451992E+00 0.53340425E+03</pdfrwt>
<pdfrwt beam="2">  1       21 0.61327092E-02 0.53340425E+03</pdfrwt>
<totfact> 0.74376871E+03</totfact>
</mgrwt>
</event>
<event>
 8    1  0.9373234E-006  0.4115208E+03  0.7546771E-02  0.1039862E+00
         21   -1    0    0  504  503  0.00000000000E+00  0.00000000000E+00  0.11987835613E+04  0.11987835613E+04  0.00000000000E+00 0. -1.
         21   -1    0    0  503  504 -0.00000000000E+00 -0.00000000000E+00 -0.35316918569E+02  0.35316918569E+02  0.00000000000E+00 0. -1.
         25    2    1    2    0    0  0.10804998228E+03  0.35105017365E+02  0.93411156759E+03  0.94925477776E+03  0.12495219676E+03 0.  0.
         25    2    1    2    0    0 -0.10804998228E+03 -0.35105017365E+02  0.22935507511E+03  0.28484570208E+03  0.12500465031E+03 0.  0.
          5    1    3    3  501    0  0.52236581974E+02 -0.44621071657E+02  0.47076076382E+03  0.47577041447E+03  0.47000000000E+01 0. -1.
         -5    1    3    3    0  501  0.55813400309E+02  0.79726089022E+02  0.46335080378E+03  0.47348436329E+03  0.47000000000E+01 0. -1.
          5    1    4    4  502    0 -0.40102207390E+02 -0.52883355594E+02  0.19593332969E+03  0.20692219799E+03  0.47000000000E+01 0. -1.
         -5    1    4    4    0  502 -0.67947774893E+02  0.17778338228E+02  0.33421745421E+02  0.77923504092E+02  0.47000000000E+01 0. -1.
<mgrwt>
<rscale>  0 0.41152080E+03</rscale>
<asrwt>0</asrwt>
<pdfrwt beam="1">  1       21 0.18442821E+00 0.41152080E+03</pdfrwt>
<pdfrwt beam="2">  1       21 0.54333730E-02 0.41152080E+03</pdfrwt>
<totfact> 0.35914095E+04</totfact>
</mgrwt>
</event>
<event>
 8    1  0.9373234E-006  0.3819213E+03  0.7546771E-02  0.1050226E+00
         21   -1    0    0  504  503  0.00000000000E+00  0.00000000000E+00  0.89270233431E+02  0.89270233431E+02  0.00000000000E+00 0. -1.
         21   -1    0    0  503  504 -0.00000000000E+00 -0.00000000000E+00 -0.40848977010E+03  0.40848977010E+03  0.00000000000E+00 0. -1.
         25    2    1    2    0    0 -0.12773030612E+03 -0.40812903320E+02 -0.22931487449E+03  0.29357949916E+03  0.12499154566E+03 0.  0.
         25    2    1    2    0    0  0.12773030612E+03  0.40812903320E+02 -0.89904662181E+02  0.20418050437E+03  0.12500442354E+03 0.  0.
          5    1    3    3  501    0 -0.40045673035E+02 -0.14543536983E+02 -0.18838554281E+03  0.19320034456E+03  0.47000000000E+01 0.  1.
         -5    1    3    3    0  501 -0.87684633082E+02 -0.26269366337E+02 -0.40929331671E+02  0.10037915460E+03  0.47000000000E+01 0.  1.
          5    1    4    4  502    0  0.15005286434E+03  0.18791791525E+02 -0.78774558500E+02  0.17057700488E+03  0.47000000000E+01 0. -1.
         -5    1    4    4    0  502 -0.22322558224E+02  0.22021111796E+02 -0.11130103680E+02  0.33603499495E+02  0.47000000000E+01 0. -1.
<mgrwt>
<rscale>  0 0.38192134E+03</rscale>
<asrwt>0</asrwt>
<pdfrwt beam="1">  1       21 0.13733882E-01 0.38192134E+03</pdfrwt>
<pdfrwt beam="2">  1       21 0.62844580E-01 0.38192134E+03</pdfrwt>
<totfact> 0.10203537E+05</totfact>
</mgrwt>
</event>
<event>
 8    1  0.9373234E-006  0.2700623E+03  0.7546771E-02  0.1101244E+00
         21   -1    0    0  504  503  0.00000000000E+00  0.00000000000E+00  0.27025835589E+02  0.27025835589E+02  0.00000000000E+00 0.  1.
         21   -1    0    0  503  504 -0.00000000000E+00 -0.00000000000E+00 -0.67466573998E+03  0.67466573998E+03  0.00000000000E+00 0.  1.
         25    2    1    2    0    0 -0.26998008215E+02 -0.24607918434E+02 -0.41655018465E+03  0.43643356106E+03  0.12500301914E+03 0.  0.
         25    2    1    2    0    0  0.26998008215E+02  0.24607918434E+02 -0.23108971974E+03  0.26525801450E+03  0.12499965437E+03 0.  0.
          5    1    3    3  501    0  0.31074450652E+02  0.25967902015E+02 -0.24451576361E+03  0.24789110931E+03  0.47000000000E+01 0.  1.
         -5    1    3    3    0  501 -0.58072458866E+02 -0.50575820449E+02 -0.17203442104E+03  0.18854245176E+03  0.47000000000E+01 0.  1.
          5    1    4    4  502    0  0.45453427738E+02  0.31986882979E+02 -0.30387008848E+02  0.63518777402E+02  0.47000000000E+01 0.  1.
         -5    1    4    4    0  502 -0.18455419523E+02 -0.73789645449E+01 -0.20070271089E+03  0.20173923710E+03  0.47000000000E+01 0.  1.
<mgrwt>
<rscale>  0 0.27006225E+03</rscale>
<asrwt>0</asrwt>
<pdfrwt beam="1">  1       21 0.41578213E-02 0.27006225E+03</pdfrwt>
<pdfrwt beam="2">  1       21 0.10379472E+00 0.27006225E+03</pdfrwt>
<totfact> 0.26968908E+05</totfact>
</mgrwt>
</event>
<event>
 8    1  0.9373234E-006  0.2636014E+03  0.7546771E-02  0.1104999E+00
         21   -1    0    0  504  503  0.00000000000E+00  0.00000000000E+00  0.70829829957E+03  0.70829829957E+03  0.00000000000E+00 0.  1.
         21   -1    0    0  503  504 -0.00000000000E+00 -0.00000000000E+00 -0.24525585267E+02  0.24525585267E+02  0.00000000000E+00 0.  1.
         25    2    1    2    0    0 -0.36727574615E+02 -0.12012201078E+02  0.38600956143E+03  0.40758114616E+03  0.12500320589E+03 0.  0.
         25    2    1    2    0    0  0.36727574615E+02  0.12012201078E+02  0.29776315287E+03  0.32524273867E+03  0.12500694436E+03 0.  0.
          5    1    3    3  501    0  0.32258309631E+02 -0.43057322375E+02  0.13585020946E+03  0.14619131630E+03  0.47000000000E+01 0. -1.
         -5    1    3    3    0  501 -0.68985884246E+02  0.31045121297E+02  0.25015935196E+03  0.26138982986E+03  0.47000000000E+01 0. -1.
          5    1    4    4  502    0  0.30779088011E+02  0.37570516744E+02  0.32465092270E+02  0.58608601786E+02  0.47000000000E+01 0.  1.
         -5    1    4    4    0  502  0.59484866042E+01 -0.25558315666E+02  0.26529806060E+03  0.26663413688E+03  0.47000000000E+01 0.  1.
<mgrwt>
<rscale>  0 0.26360144E+03</rscale>
<asrwt>0</asrwt>
<pdfrwt beam="1">  1       21 0.10896895E+00 0.26360144E+03</pdfrwt>
<pdfrwt beam="2">  1       21 0.37731675E-02 0.26360144E+03</pdfrwt>
<totfact> 0.28273308E+05</totfact>
</mgrwt>
</event>
<event>
 8    1  0.9373234E-006  0.2919177E+03  0.7546771E-02  0.1089352E+00
         21   -1    0    0  504  503  0.00000000000E+00  0.00000000000E+00  0.77378605561E+02  0.77378605561E+02  0.00000000000E+00 0. -1.
         21   -1    0    0  503  504 -0.00000000000E+00 -0.00000000000E+00 -0.27532148767E+03  0.27532148767E+03  0.00000000000E+00 0. -1.
         25    2    1    2    0    0  0.13233691051E+02  0.73951372588E+02 -0.10580057031E+03  0.18017523446E+03  0.12500167338E+03 0.  0.
         25    2    1    2    0    0 -0.13233691051E+02 -0.73951372588E+02 -0.92142311793E+02  0.17252485877E+03  0.12502273867E+03 0.  0.
          5    1    3    3  501    0  0.50939754533E+02 -0.86274144477E+00 -0.87955293229E+01  0.51913911919E+02  0.47000000000E+01 0. -1.
         -5    1    3    3    0  501 -0.37706063483E+02  0.74814114032E+02 -0.97005040992E+02  0.12826132254E+03  0.47000000000E+01 0. -1.
          5    1    4    4  502    0  0.18639207811E+02 -0.85787407368E+01  0.26158611302E+02  0.33576447187E+02  0.47000000000E+01 0.  1.
         -5    1    4    4    0  502 -0.31872898862E+02 -0.65372631851E+02 -0.11830092310E+03  0.13894841159E+03  0.47000000000E+01 0.  1.
<mgrwt>
<rscale>  0 0.29191775E+03</rscale>
<asrwt>0</asrwt>
<pdfrwt beam="1">  1       21 0.11904401E-01 0.29191775E+03</pdfrwt>
<pdfrwt beam="2">  1       21 0.42357153E-01 0.29191775E+03</pdfrwt>
<totfact> 0.31197374E+05</totfact>
</mgrwt>
</event>
<event>
 8    1  0.9373234E-006  0.4778677E+03  0.7546771E-02  0.1019723E+00
         21   -1    0    0  504  503  0.00000000000E+00  0.00000000000E+00  0.38548032228E+03  0.38548032228E+03  0.00000000000E+00 0. -1.
         21   -1    0    0  503  504 -0.00000000000E+00 -0.00000000000E+00 -0.14809934498E+03  0.14809934498E+03  0.00000000000E+00 0. -1.
         25    2    1    2    0    0  0.70152281551E+02  0.10676518256E+03  0.29574611646E+03  0.34555835009E+03  0.12499864441E+03 0.  0.
         25    2    1    2    0    0 -0.70152281551E+02 -0.10676518256E+03 -0.58365139156E+02  0.18802131717E+03  0.12500151770E+03 0.  0.
          5    1    3    3  501    0  0.61435870772E+02  0.12281501167E+02  0.20412394973E+03  0.21357405822E+03  0.47000000000E+01 0.  1.
         -5    1    3    3    0  501  0.87164107787E+01  0.94483681392E+02  0.91622166726E+02  0.13198429188E+03  0.47000000000E+01 0.  1.
          5    1    4    4  502    0 -0.17808850814E+02  0.19174179767E+02 -0.43187004337E+02  0.50715004492E+02  0.47000000000E+01 0.  1.
         -5    1    4    4    0  502 -0.52343430737E+02 -0.12593936233E+03 -0.15178134819E+02  0.13730631268E+03  0.47000000000E+01 0.  1.
<mgrwt>
<rscale>  0 0.47786769E+03</rscale>
<asrwt>0</asrwt>
<pdfrwt beam="1">  1       21 0.59304665E-01 0.47786769E+03</pdfrwt>
<pdfrwt beam="2">  1       21 0.22784515E-01 0.47786769E+03</pdfrwt>
<totfact> 0.43812975E+04</totfact>
</mgrwt>
</event>
<event>
 8    1  0.9373234E-006  0.4472690E+03  0.7546771E-02  0.1028540E+00
         21   -1    0    0  504  503  0.00000000000E+00  0.00000000000E+00  0.10028179869E+03  0.10028179869E+03  0.00000000000E+00 0.  1.
         21   -1    0    0  503  504 -0.00000000000E+00 -0.00000000000E+00 -0.49871850125E+03  0.49871850125E+03  0.00000000000E+00 0.  1.
         25    2    1    2    0    0  0.17820961647E+03  0.43103400267E+02 -0.23641641688E+03  0.32424226016E+03  0.12499500225E+03 0.  0.
         25    2    1    2    0    0 -0.17820961647E+03 -0.43103400267E+02 -0.16202028567E+03  0.27475803978E+03  0.12499934775E+03 0.  0.
          5    1    3    3  501    0  0.11201980181E+03  0.81141379747E+02 -0.18898617854E+03  0.23424394375E+03  0.47000000000E+01 0. -1.
         -5    1    3    3    0  501  0.66189814663E+02 -0.38037979480E+02 -0.47430238347E+02  0.89998316415E+02  0.47000000000E+01 0. -1.
          5    1    4    4  502    0 -0.17483875643E+03 -0.19139854448E+02 -0.87970181320E+02  0.19671239813E+03  0.47000000000E+01 0.  1.
         -5    1    4    4    0  502 -0.33708600432E+01 -0.23963545819E+02 -0.74050104352E+02  0.78045641648E+02  0.47000000000E+01 0.  1.
<mgrwt>
<rscale>  0 0.44726899E+03</rscale>
<asrwt>0</asrwt>
<pdfrwt beam="1">  1       21 0.15427969E-01 0.44726899E+03</pdfrwt>
<pdfrwt beam="2">  1       21 0.76725921E-01 0.44726899E+03</pdfrwt>
<totfact> 0.51832809E+04</totfact>
</mgrwt>
</event>
<event>
 8    1  0.9373234E-006  0.3031501E+03  0.7546771E-02  0.1083676E+00
         21   -1    0    0  504  503  0.00000000000E+00  0.00000000000E+00  0.12935956700E+03  0.12935956700E+03  0.00000000000E+00 0. -1.
         21   -1    0    0  503  504 -0.00000000000E+00 -0.00000000000E+00 -0.17760574823E+03  0.17760574823E+03  0.00000000000E+00 0. -1.
         25    2    1    2    0    0  0.34823425413E+02 -0.75881448977E+02 -0.43828921155E+02  0.15658083094E+03  0.12500366808E+03 0.  0.
         25    2    1    2    0    0 -0.34823425413E+02  0.75881448977E+02 -0.44172600801E+01  0.15038448428E+03  0.12500126268E+03 0.  0.
          5    1    3    3  501    0 -0.26181140969E+02 -0.39333947948E+02  0.28221054410E+02  0.55237030293E+02  0.47000000000E+01 0.  1.
         -5    1    3    3    0  501  0.61004566382E+02 -0.36547501030E+02 -0.72049975565E+02  0.10134380065E+03  0.47000000000E+01 0.  1.
          5    1    4    4  502    0 -0.40283933809E+02  0.98154834094E+02 -0.35043544830E+02  0.11183607116E+03  0.47000000000E+01 0.  1.
         -5    1    4    4    0  502  0.54605083953E+01 -0.22273385117E+02  0.30626284749E+02  0.38548413120E+02  0.47000000000E+01 0.  1.
<mgrwt>
<rscale>  0 0.30315015E+03</rscale>
<asrwt>0</asrwt>
<pdfrwt beam="1">  1       21 0.19901472E-01 0.30315015E+03</pdfrwt>
<pdfrwt beam="2">  1       21 0.27323961E-01 0.30315015E+03</pdfrwt>
<totfact> 0.29004153E+05</totfact>
</mgrwt>
</event>
<event>
 8    1  0.9373234E-006  0.3574250E+03  0.7546771E-02  0.1059608E+00
         21   -1    0    0  504  503  0.00000000000E+00  0.00000000000E+00  0.16417547766E+03  0.16417547766E+03  0.00000000000E+00 0.  1.
         21   -1    0    0  503  504 -0.00000000000E+00 -0.00000000000E+00 -0.19453666400E+03  0.19453666400E+03  0.00000000000E+00 0.  1.
         25    2    1    2    0    0 -0.34950809770E+02 -0.10405891742E+03  0.50356428360E+02  0.17381000536E+03  0.12499732272E+03 0.  0.
         25    2    1    2    0    0  0.34950809770E+02  0.10405891742E+03 -0.80717614699E+02  0.18490213630E+03  0.12499459703E+03 0.  0.
          5    1    3    3  501    0 -0.50836071686E+02 -0.11886579003E+01 -0.11896273067E+02  0.52434057681E+02  0.47000000000E+01 0.  1.
         -5    1    3    3    0  501  0.15885261916E+02 -0.10287025952E+03  0.62252701427E+02  0.12137594768E+03  0.47000000000E+01 0.  1.
          5    1    4    4  502    0  0.17929926035E+02  0.12130223742E+03 -0.96063477360E+02  0.15583965071E+03  0.47000000000E+01 0. -1.
         -5    1    4    4    0  502  0.17020883735E+02 -0.17243320000E+02  0.15345862661E+02  0.29062485588E+02  0.47000000000E+01 0. -1.
<mgrwt>
<rscale>  0 0.35742496E+03</rscale>
<asrwt>0</asrwt>
<pdfrwt beam="1">  1       21 0.25257766E-01 0.35742496E+03</pdfrwt>
<pdfrwt beam="2">  1       21 0.29928718E-01 0.35742496E+03</pdfrwt>
<totfact> 0.15212928E+05</totfact>
</mgrwt>
</event>
<event>
 8    1  0.9373234E-006  0.2821217E+03  0.7546771E-02  0.1094536E+00
         21   -1    0    0  504  503  0.00000000000E+00  0.00000000000E+00  0.96058683826E+03  0.96058683826E+03  0.00000000000E+00 0.  1.
         21   -1    0    0  503  504 -0.00000000000E+00 -0.00000000000E+00 -0.20714587988E+02  0.20714587988E+02  0.00000000000E+00 0.  1.
         25    2    1    2    0    0 -0.16516426870E+02  0.59941448272E+02  0.39934481098E+03  0.42303242234E+03  0.12495752364E+03 0.  0.
         25    2    1    2    0    0  0.16516426870E+02 -0.59941448272E+02  0.54052743929E+03  0.55826900391E+03  0.12501439326E+03 0.  0.
          5    1    3    3  501    0 -0.85503581140E+01 -0.38659424820E+02  0.96746766068E+02  0.10464074969E+03  0.47000000000E+01 0. -1.
         -5    1    3    3    0  501 -0.79660687555E+01  0.98600873092E+02  0.30259804491E+03  0.31839167264E+03  0.47000000000E+01 0. -1.
          5    1    4    4  502    0  0.54352774855E+02 -0.36579126238E+02  0.47130575685E+03  0.47586076015E+03  0.47000000000E+01 0.  1.
         -5    1    4    4    0  502 -0.37836347986E+02 -0.23362322034E+02  0.69221682449E+02  0.82408243767E+02  0.47000000000E+01 0.  1.
<mgrwt>
<rscale>  0 0.28212168E+03</rscale>
<asrwt>0</asrwt>
<pdfrwt beam="1">  1       21 0.14778256E+00 0.28212168E+03</pdfrwt>
<pdfrwt beam="2">  1       21 0.31868604E-02 0.28212168E+03</pdfrwt>
<totfact> 0.17211963E+05</totfact>
</mgrwt>
</event>
<event>
 8    1  0.9373234E-006  0.3252812E+03  0.7546771E-02  0.1073244E+00
         21   -1    0    0  504  503  0.00000000000E+00  0.00000000000E+00  0.21541854753E+03  0.21541854753E+03  0.00000000000E+00 0.  1.
         21   -1    0    0  503  504 -0.00000000000E+00 -0.00000000000E+00 -0.12279331306E+03  0.12279331306E+03  0.00000000000E+00 0.  1.
         25    2    1    2    0    0 -0.58433555084E+01 -0.10195785128E+03  0.67014090213E+02  0.17477131380E+03  0.12499830239E+03 0.  0.
         25    2    1    2    0    0  0.58433555084E+01  0.10195785128E+03  0.25611144264E+02  0.16344054679E+03  0.12500933319E+03 0.  0.
          5    1    3    3  501    0  0.34527299972E+02 -0.11270988234E+03  0.59259788829E+02  0.13202069759E+03  0.47000000000E+01 0. -1.
         -5    1    3    3    0  501 -0.40370655481E+02  0.10752031067E+02  0.77543013843E+01  0.42750616206E+02  0.47000000000E+01 0. -1.
          5    1    4    4  502    0  0.62203148652E+02  0.30223971884E+02  0.32312019839E+01  0.69392008509E+02  0.47000000000E+01 0. -1.
         -5    1    4    4    0  502 -0.56359793144E+02  0.71733879392E+02  0.22379942280E+02  0.94048538279E+02  0.47000000000E+01 0. -1.
<mgrwt>
<rscale>  0 0.32528115E+03</rscale>
<asrwt>0</asrwt>
<pdfrwt beam="1">  1       21 0.33141315E-01 0.32528115E+03</pdfrwt>
<pdfrwt beam="2">  1       21 0.18891279E-01 0.32528115E+03</pdfrwt>
<totfact> 0.21769532E+05</totfact>
</mgrwt>
</event>
<event>
 8    1  0.9373234E-006  0.9176571E+03  0.7546771E-02  0.9403774E-01
         21   -1    0    0  504  503  0.00000000000E+00  0.00000000000E+00  0.16423551051E+03  0.16423551051E+03  0.00000000000E+00 0. -1.
         21   -1    0    0  503  504 -0.00000000000E+00 -0.00000000000E+00 -0.12818398874E+04  0.12818398874E+04  0.00000000000E+00 0. -1.
         25    2    1    2    0    0  0.36631943124E+03 -0.10707455708E+03 -0.20910923997E+03  0.45277607827E+03  0.12499846535E+03 0.  0.
         25    2    1    2    0    0 -0.36631943124E+03  0.10707455708E+03 -0.90849513690E+03  0.99329931962E+03  0.12500095243E+03 0.  0.
          5    1    3    3  501    0  0.90782770900E+02 -0.11641683248E+01  0.14208814446E+00  0.90911918741E+02  0.47000000000E+01 0.  1.
         -5    1    3    3    0  501  0.27553666034E+03 -0.10591038875E+03 -0.20925132812E+03  0.36186415953E+03  0.47000000000E+01 0.  1.
          5    1    4    4  502    0 -0.18343729958E+03  0.76814877699E+01 -0.31865075188E+03  0.36778885220E+03  0.47000000000E+01 0. -1.
         -5    1    4    4    0  502 -0.18288213166E+03  0.99393069306E+02 -0.58984438502E+03  0.62551046742E+03  0.47000000000E+01 0. -1.
<mgrwt>
<rscale>  0 0.91765708E+03</rscale>
<asrwt>0</asrwt>
<pdfrwt beam="1">  1       21 0.25267001E-01 0.91765708E+03</pdfrwt>
<pdfrwt beam="2">  1       21 0.19720614E+00 0.91765708E+03</pdfrwt>
<totfact> 0.15319935E+03</totfact>
</mgrwt>
</event>
<event>
 8    1  0.9373234E-006  0.3689548E+03  0.7546771E-02  0.1055093E+00
         21   -1    0    0  504  503  0.00000000000E+00  0.00000000000E+00  0.88186127189E+02  0.88186127189E+02  0.00000000000E+00 0. -1.
         21   -1    0    0  503  504 -0.00000000000E+00 -0.00000000000E+00 -0.38590996304E+03  0.38590996304E+03  0.00000000000E+00 0. -1.
         25    2    1    2    0    0 -0.12853967981E+02  0.81884318193E+02 -0.28687426419E+03  0.32371423562E+03  0.12499518722E+03 0.  0.
         25    2    1    2    0    0  0.12853967981E+02 -0.81884318193E+02 -0.10849571657E+02  0.15038185461E+03  0.12500689154E+03 0.  0.
          5    1    3    3  501    0 -0.84146250094E+01  0.42097509027E+02 -0.27940061144E+03  0.28271858420E+03  0.47000000000E+01 0.  1.
         -5    1    3    3    0  501 -0.44393429718E+01  0.39786809166E+02 -0.74736527534E+01  0.40995651417E+02  0.47000000000E+01 0.  1.
          5    1    4    4  502    0 -0.42245600820E+02 -0.79587160798E+02 -0.24263090000E+02  0.93432298960E+02  0.47000000000E+01 0. -1.
         -5    1    4    4    0  502  0.55099568801E+02 -0.22971573951E+01  0.13413518343E+02  0.56949555648E+02  0.47000000000E+01 0. -1.
<mgrwt>
<rscale>  0 0.36895477E+03</rscale>
<asrwt>0</asrwt>
<pdfrwt beam="1">  1       21 0.13567097E-01 0.36895477E+03</pdfrwt>
<pdfrwt beam="2">  1       21 0.59370763E-01 0.36895477E+03</pdfrwt>
<totfact> 0.11851751E+05</totfact>
</mgrwt>
</event>
<event>
 8    1  0.9373234E-006  0.3104945E+03  0.7546771E-02  0.1080109E+00
         21   -1    0    0  504  503  0.00000000000E+00  0.00000000000E+00  0.20343986775E+03  0.20343986775E+03  0.00000000000E+00 0.  1.
         21   -1    0    0  503  504 -0.00000000000E+00 -0.00000000000E+00 -0.11847095186E+03  0.11847095186E+03  0.00000000000E+00 0.  1.
         25    2    1    2    0    0 -0.53442481581E+02 -0.76351077767E+01 -0.34835083980E+02  0.14054568185E+03  0.12500084760E+03 0.  0.
         25    2    1    2    0    0  0.53442481581E+02  0.76351077767E+01  0.11980399987E+03  0.18136513777E+03  0.12500368437E+03 0.  0.
          5    1    3    3  501    0 -0.41551445744E+02 -0.38684372120E+02  0.32296786061E+02  0.65484163579E+02  0.47000000000E+01 0.  1.
         -5    1    3    3    0  501 -0.11891035837E+02  0.31049264344E+02 -0.67131870041E+02  0.75061518269E+02  0.47000000000E+01 0.  1.
          5    1    4    4  502    0  0.15477052446E+02  0.30361897935E+02  0.13103267273E+03  0.13547337495E+03  0.47000000000E+01 0. -1.
         -5    1    4    4    0  502  0.37965429135E+02 -0.22726790158E+02 -0.11228672859E+02  0.45891762817E+02  0.47000000000E+01 0. -1.
<mgrwt>
<rscale>  0 0.31049454E+03</rscale>
<asrwt>0</asrwt>
<pdfrwt beam="1">  1       21 0.31298441E-01 0.31049454E+03</pdfrwt>
<pdfrwt beam="2">  1       21 0.18226300E-01 0.31049454E+03</pdfrwt>
<totfact> 0.26164666E+05</totfact>
</mgrwt>
</event>
<event>
 8    1  0.9373234E-006  0.2756982E+03  0.7546771E-02  0.1098062E+00
         21   -1    0    0  504  503  0.00000000000E+00  0.00000000000E+00  0.17535159137E+03  0.17535159137E+03  0.00000000000E+00 0. -1.
         21   -1    0    0  503  504 -0.00000000000E+00 -0.00000000000E+00 -0.10836725986E+03  0.10836725986E+03  0.00000000000E+00 0. -1.
         25    2    1    2    0    0 -0.45520879371E+02  0.11712827291E+02  0.68645834020E+02  0.15016214264E+03  0.12500831082E+03 0.  0.
         25    2    1    2    0    0  0.45520879371E+02 -0.11712827291E+02 -0.16615025148E+01  0.13355670858E+03  0.12500117214E+03 0.  0.
          5    1    3    3  501    0 -0.87492101460E+02 -0.55688676173E+01  0.48235550604E+02  0.10017304251E+03  0.47000000000E+01 0. -1.
         -5    1    3    3    0  501  0.41971222089E+02  0.17281694908E+02  0.20410283415E+02  0.49989100129E+02  0.47000000000E+01 0. -1.
          5    1    4    4  502    0  0.97961023310E+01 -0.65782994796E+02  0.10369719913E+02  0.67475826162E+02  0.47000000000E+01 0.  1.
         -5    1    4    4    0  502  0.35724777040E+02  0.54070167505E+02 -0.12031222427E+02  0.66080882422E+02  0.47000000000E+01 0.  1.
<mgrwt>
<rscale>  0 0.27569818E+03</rscale>
<asrwt>0</asrwt>
<pdfrwt beam="1">  1       21 0.26977168E-01 0.27569818E+03</pdfrwt>
<pdfrwt beam="2">  1       21 0.16671886E-01 0.27569818E+03</pdfrwt>
<totfact> 0.41609928E+05</totfact>
</mgrwt>
</event>
<event>
 8    1  0.9373234E-006  0.4506483E+03  0.7546771E-02  0.1027529E+00
         21   -1    0    0  504  503  0.00000000000E+00  0.00000000000E+00  0.40245662021E+03  0.40245662021E+03  0.00000000000E+00 0.  1.
         21   -1    0    0  503  504 -0.00000000000E+00 -0.00000000000E+00 -0.12615265178E+03  0.12615265178E+03  0.00000000000E+00 0.  1.
         25    2    1    2    0    0  0.97220375702E+02  0.42524230166E+02  0.31943664466E+03  0.35906046493E+03  0.12499814368E+03 0.  0.
         25    2    1    2    0    0 -0.97220375702E+02 -0.42524230166E+02 -0.43132676226E+02  0.16954880707E+03  0.12500503437E+03 0.  0.
          5    1    3    3  501    0 -0.15744483778E+02 -0.25730379875E+02  0.79810912791E+02  0.85450646683E+02  0.47000000000E+01 0. -1.
         -5    1    3    3    0  501  0.11296485948E+03  0.68254610041E+02  0.23962573187E+03  0.27360981825E+03  0.47000000000E+01 0. -1.
          5    1    4    4  502    0  0.21062282393E+02  0.16350069939E+02  0.73103592889E+01  0.28044177284E+02  0.47000000000E+01 0. -1.
         -5    1    4    4    0  502 -0.11828265809E+03 -0.58874300105E+02 -0.50443035515E+02  0.14150462979E+03  0.47000000000E+01 0. -1.
<mgrwt>
<rscale>  0 0.45064829E+03</rscale>
<asrwt>0</asrwt>
<pdfrwt beam="1">  1       21 0.61916402E-01 0.45064829E+03</pdfrwt>
<pdfrwt beam="2">  1       21 0.19408100E-01 0.45064829E+03</pdfrwt>
<totfact> 0.54489833E+04</totfact>
</mgrwt>
</event>
<event>
 8    1  0.9373234E-006  0.2860061E+03  0.7546771E-02  0.1092453E+00
         21   -1    0    0  504  503  0.00000000000E+00  0.00000000000E+00  0.17427349377E+03  0.17427349377E+03  0.00000000000E+00 0.  1.
         21   -1    0    0  503  504 -0.00000000000E+00 -0.00000000000E+00 -0.11734352039E+03  0.11734352039E+03  0.00000000000E+00 0.  1.
         25    2    1    2    0    0  0.41444130234E+02 -0.28493574841E+02  0.77325875210E+02  0.15534150281E+03  0.12498876661E+03 0.  0.
         25    2    1    2    0    0 -0.41444130234E+02  0.28493574841E+02 -0.20395901833E+02  0.13627551134E+03  0.12500208975E+03 0.  0.
          5    1    3    3  501    0 -0.16033436294E+02  0.39840840166E+02  0.12749852347E+02  0.45044559709E+02  0.47000000000E+01 0.  1.
         -5    1    3    3    0  501  0.57477566528E+02 -0.68334415007E+02  0.64576022863E+02  0.11029694310E+03  0.47000000000E+01 0.  1.
          5    1    4    4  502    0 -0.55268981381E+02  0.96450957474E+01 -0.64820316783E+02  0.85857158366E+02  0.47000000000E+01 0. -1.
         -5    1    4    4    0  502  0.13824851147E+02  0.18848479094E+02  0.44424414950E+02  0.50418352978E+02  0.47000000000E+01 0. -1.
<mgrwt>
<rscale>  0 0.28600605E+03</rscale>
<asrwt>0</asrwt>
<pdfrwt beam="1">  1       21 0.26811307E-01 0.28600605E+03</pdfrwt>
<pdfrwt beam="2">  1       21 0.18052849E-01 0.28600605E+03</pdfrwt>
<totfact> 0.36251492E+05</totfact>
</mgrwt>
</event>
<event>
 8    1  0.9373234E-006  0.2841747E+03  0.7546771E-02  0.1093430E+00
         21   -1    0    0  504  503  0.00000000000E+00  0.00000000000E+00  0.70645527771E+02  0.70645527771E+02  0.00000000000E+00 0. -1.
         21   -1    0    0  503  504 -0.00000000000E+00 -0.00000000000E+00 -0.28577616908E+03  0.28577616908E+03  0.00000000000E+00 0. -1.
         25    2    1    2    0    0  0.45562149541E+02 -0.20095147854E+02 -0.16482224027E+03  0.21277025950E+03  0.12500035201E+03 0.  0.
         25    2    1    2    0    0 -0.45562149541E+02  0.20095147854E+02 -0.50308401039E+02  0.14365143735E+03  0.12500030319E+03 0.  0.
          5    1    3    3  501    0  0.26376723322E+02  0.51113506053E+02 -0.50731381207E+02  0.76838044441E+02  0.47000000000E+01 0. -1.
         -5    1    3    3    0  501  0.19185426219E+02 -0.71208653907E+02 -0.11409085906E+03  0.13593221506E+03  0.47000000000E+01 0. -1.
          5    1    4    4  502    0  0.38979848079E+02 -0.89870186297E+00 -0.39580566464E+02  0.55757936323E+02  0.47000000000E+01 0. -1.
         -5    1    4    4    0  502 -0.84541997620E+02  0.20993849717E+02 -0.10727834575E+02  0.87893501024E+02  0.47000000000E+01 0. -1.
<mgrwt>
<rscale>  0 0.28417465E+03</rscale>
<asrwt>0</asrwt>
<pdfrwt beam="1">  1       21 0.10868543E-01 0.28417465E+03</pdfrwt>
<pdfrwt beam="2">  1       21 0.43965564E-01 0.28417465E+03</pdfrwt>
<totfact> 0.34081220E+05</totfact>
</mgrwt>
</event>
<event>
 8    1  0.9373234E-006  0.3191738E+03  0.7546771E-02  0.1076030E+00
         21   -1    0    0  504  503  0.00000000000E+00  0.00000000000E+00  0.10101011846E+03  0.10101011846E+03  0.00000000000E+00 0.  1.
         21   -1    0    0  503  504 -0.00000000000E+00 -0.00000000000E+00 -0.25213298874E+03  0.25213298874E+03  0.00000000000E+00 0.  1.
         25    2    1    2    0    0  0.51499191465E+02  0.53164563290E+02 -0.24653619156E+01  0.14529057002E+03  0.12499853685E+03 0.  0.
         25    2    1    2    0    0 -0.51499191465E+02 -0.53164563290E+02 -0.14865750836E+03  0.20785253718E+03  0.12499993963E+03 0.  0.
          5    1    3    3  501    0  0.43278970517E+02 -0.34729288206E+02 -0.99530275735E+01  0.56571596285E+02  0.47000000000E+01 0. -1.
         -5    1    3    3    0  501  0.82202209484E+01  0.87893851496E+02  0.74876656579E+01  0.88718973733E+02  0.47000000000E+01 0. -1.
          5    1    4    4  502    0  0.14060842100E+01  0.12200963872E+02  0.17309162490E+02  0.21737932245E+02  0.47000000000E+01 0. -1.
         -5    1    4    4    0  502 -0.52905275675E+02 -0.65365527162E+02 -0.16596667085E+03  0.18611460493E+03  0.47000000000E+01 0. -1.
<mgrwt>
<rscale>  0 0.31917383E+03</rscale>
<asrwt>0</asrwt>
<pdfrwt beam="1">  1       21 0.15540018E-01 0.31917383E+03</pdfrwt>
<pdfrwt beam="2">  1       21 0.38789690E-01 0.31917383E+03</pdfrwt>
<totfact> 0.22836812E+05</totfact>
</mgrwt>
</event>
<event>
 8    1  0.9373234E-006  0.2788867E+03  0.7546771E-02  0.1096299E+00
         21   -1    0    0  504  503  0.00000000000E+00  0.00000000000E+00  0.42963691992E+02  0.42963691992E+02  0.00000000000E+00 0.  1.
         21   -1    0    0  503  504 -0.00000000000E+00 -0.00000000000E+00 -0.45257873893E+03  0.45257873893E+03  0.00000000000E+00 0.  1.
         25    2    1    2    0    0  0.43301467582E+02  0.21684454308E+02 -0.27302335651E+03  0.30415847122E+03  0.12500155905E+03 0.  0.
         25    2    1    2    0    0 -0.43301467582E+02 -0.21684454308E+02 -0.13659169043E+03  0.19138395970E+03  0.12500118992E+03 0.  0.
          5    1    3    3  501    0  0.71471383210E+02 -0.28989644600E+01 -0.79691928186E+02  0.10718888016E+03  0.47000000000E+01 0. -1.
         -5    1    3    3    0  501 -0.28169915628E+02  0.24583418768E+02 -0.19333142832E+03  0.19696959106E+03  0.47000000000E+01 0. -1.
          5    1    4    4  502    0 -0.23601679400E+02  0.48726369381E+02 -0.88137203591E+02  0.10354494194E+03  0.47000000000E+01 0.  1.
         -5    1    4    4    0  502 -0.19699788182E+02 -0.70410823689E+02 -0.48454486839E+02  0.87839017764E+02  0.47000000000E+01 0.  1.
<mgrwt>
<rscale>  0 0.27888674E+03</rscale>
<asrwt>0</asrwt>
<pdfrwt beam="1">  1       21 0.66097990E-02 0.27888674E+03</pdfrwt>
<pdfrwt beam="2">  1       21 0.69627496E-01 0.27888674E+03</pdfrwt>
<totfact> 0.30638525E+05</totfact>
</mgrwt>
</event>
<event>
 8    1  0.9373234E-006  0.3701281E+03  0.7546771E-02  0.1054644E+00
         21   -1    0    0  504  503  0.00000000000E+00  0.00000000000E+00  0.24704030891E+03  0.24704030891E+03  0.00000000000E+00 0. -1.
         21   -1    0    0  503  504 -0.00000000000E+00 -0.00000000000E+00 -0.13863611273E+03  0.13863611273E+03  0.00000000000E+00 0. -1.
         25    2    1    2    0    0 -0.22044935721E+02 -0.12872081994E+03  0.12961242899E+02  0.18123830669E+03  0.12499720524E+03 0.  0.
         25    2    1    2    0    0  0.22044935721E+02  0.12872081994E+03  0.95442953287E+02  0.20443811495E+03  0.12502222538E+03 0.  0.
          5    1    3    3  501    0  0.24803554417E+02 -0.11505537635E+03 -0.23532846919E+02  0.12012010998E+03  0.47000000000E+01 0.  1.
         -5    1    3    3    0  501 -0.46848490138E+02 -0.13665443590E+02  0.36494089818E+02  0.61118196704E+02  0.47000000000E+01 0.  1.
          5    1    4    4  502    0  0.20097080306E+01  0.28091442727E+02  0.97612834433E+02  0.10170311464E+03  0.47000000000E+01 0. -1.
         -5    1    4    4    0  502  0.20035227690E+02  0.10062937721E+03 -0.21698811462E+01  0.10273500032E+03  0.47000000000E+01 0. -1.
<mgrwt>
<rscale>  0 0.37012813E+03</rscale>
<asrwt>0</asrwt>
<pdfrwt beam="1">  1       21 0.38006201E-01 0.37012813E+03</pdfrwt>
<pdfrwt beam="2">  1       21 0.21328633E-01 0.37012813E+03</pdfrwt>
<totfact> 0.13005567E+05</totfact>
</mgrwt>
</event>
<event>
 8    1  0.9373234E-006  0.3785658E+03  0.7546771E-02  0.1051465E+00
         21   -1    0    0  504  503  0.00000000000E+00  0.00000000000E+00  0.75971533313E+02  0.75971533313E+02  0.00000000000E+00 0. -1.
         21   -1    0    0  503  504 -0.00000000000E+00 -0.00000000000E+00 -0.47159793340E+03  0.47159793340E+03  0.00000000000E+00 0. -1.
         25    2    1    2    0    0  0.12707782306E+02 -0.54717780624E+02 -0.89331874753E+01  0.13730786015E+03  0.12497249046E+03 0.  0.
         25    2    1    2    0    0 -0.12707782306E+02  0.54717780624E+02 -0.38669321261E+03  0.41026160656E+03  0.12500968719E+03 0.  0.
          5    1    3    3  501    0  0.47159996962E+02 -0.31375356794E+02  0.42507419094E+02  0.70974988591E+02  0.47000000000E+01 0. -1.
         -5    1    3    3    0  501 -0.34452214655E+02 -0.23342423830E+02 -0.51440606569E+02  0.66332871558E+02  0.47000000000E+01 0. -1.
          5    1    4    4  502    0  0.51413361143E+01  0.57947758709E+02 -0.38714339790E+03  0.39151816895E+03  0.47000000000E+01 0.  1.
         -5    1    4    4    0  502 -0.17849118421E+02 -0.32299780848E+01  0.45018529186E+00  0.18743437615E+02  0.47000000000E+01 0.  1.
<mgrwt>
<rscale>  0 0.37856581E+03</rscale>
<asrwt>0</asrwt>
<pdfrwt beam="1">  1       21 0.11687928E-01 0.37856581E+03</pdfrwt>
<pdfrwt beam="2">  1       21 0.72553528E-01 0.37856581E+03</pdfrwt>
<totfact> 0.99492437E+04</totfact>
</mgrwt>
</event>
<event>
 8    1  0.9373234E-006  0.2640586E+03  0.7546771E-02  0.1104729E+00
         21   -1    0    0  504  503  0.00000000000E+00  0.00000000000E+00  0.32052704632E+03  0.32052704632E+03  0.00000000000E+00 0.  1.
         21   -1    0    0  503  504 -0.00000000000E+00 -0.00000000000E+00 -0.54384614291E+02  0.54384614291E+02  0.00000000000E+00 0.  1.
         25    2    1    2    0    0 -0.23119901165E+02  0.28090227250E+01  0.82752675312E+02  0.15175341205E+03  0.12505467747E+03 0.  0.
         25    2    1    2    0    0  0.23119901165E+02 -0.28090227250E+01  0.18338975672E+03  0.22315824856E+03  0.12500152237E+03 0.  0.
          5    1    3    3  501    0 -0.11538832932E+02 -0.60882949492E+02  0.36753490369E+02  0.72199634754E+02  0.47000000000E+01 0. -1.
         -5    1    3    3    0  501 -0.11581068232E+02  0.63691972217E+02  0.45999184943E+02  0.79553777294E+02  0.47000000000E+01 0. -1.
          5    1    4    4  502    0 -0.48475063401E+01  0.12316290458E+02  0.18985470445E+03  0.19037354892E+03  0.47000000000E+01 0. -1.
         -5    1    4    4    0  502  0.27967407505E+02 -0.15125313183E+02 -0.64649477308E+01  0.32784699642E+02  0.47000000000E+01 0. -1.
<mgrwt>
<rscale>  0 0.26405863E+03</rscale>
<asrwt>0</asrwt>
<pdfrwt beam="1">  1       21 0.49311852E-01 0.26405863E+03</pdfrwt>
<pdfrwt beam="2">  1       21 0.83668639E-02 0.26405863E+03</pdfrwt>
<totfact> 0.42865029E+05</totfact>
</mgrwt>
</event>
<event>
 8    1  0.9373234E-006  0.4979732E+03  0.7546771E-02  0.1014309E+00
         21   -1    0    0  504  503  0.00000000000E+00  0.00000000000E+00  0.14700878008E+03  0.14700878008E+03  0.00000000000E+00 0.  1.
         21   -1    0    0  503  504 -0.00000000000E+00 -0.00000000000E+00 -0.42170492810E+03  0.42170492810E+03  0.00000000000E+00 0.  1.
         25    2    1    2    0    0 -0.20416174747E+03 -0.63527893344E+02 -0.16651259426E+03  0.29844379251E+03  0.12499776349E+03 0.  0.
         25    2    1    2    0    0  0.20416174747E+03  0.63527893344E+02 -0.10818355376E+03  0.27026991568E+03  0.12499733458E+03 0.  0.
          5    1    3    3  501    0 -0.19388748399E+03 -0.81957263391E+02 -0.17639454597E+03  0.27467521788E+03  0.47000000000E+01 0. -1.
         -5    1    3    3    0  501 -0.10274263481E+02  0.18429370047E+02  0.98819517085E+01  0.23768574631E+02  0.47000000000E+01 0. -1.
          5    1    4    4  502    0  0.21282437129E+03  0.76977106022E+02 -0.11287648137E+03  0.25294837006E+03  0.47000000000E+01 0.  1.
         -5    1    4    4    0  502 -0.86626238236E+01 -0.13449212678E+02  0.46929276079E+01  0.17321545621E+02  0.47000000000E+01 0.  1.
<mgrwt>
<rscale>  0 0.49797320E+03</rscale>
<asrwt>0</asrwt>
<pdfrwt beam="1">  1       21 0.22616736E-01 0.49797320E+03</pdfrwt>
<pdfrwt beam="2">  1       21 0.64877680E-01 0.49797320E+03</pdfrwt>
<totfact> 0.36292122E+04</totfact>
</mgrwt>
</event>
<event>
 8    1  0.9373234E-006  0.2947785E+03  0.7546771E-02  0.1087880E+00
         21   -1    0    0  504  503  0.00000000000E+00  0.00000000000E+00  0.25658402158E+03  0.25658402158E+03  0.00000000000E+00 0.  1.
         21   -1    0    0  503  504 -0.00000000000E+00 -0.00000000000E+00 -0.84664642631E+02  0.84664642631E+02  0.00000000000E+00 0.  1.
         25    2    1    2    0    0  0.14852673594E+02  0.49835755603E+02  0.18525563207E+02  0.13665186046E+03  0.12500531999E+03 0.  0.
         25    2    1    2    0    0 -0.14852673594E+02 -0.49835755603E+02  0.15339381574E+03  0.20459680376E+03  0.12500393974E+03 0.  0.
          5    1    3    3  501    0 -0.86345507430E+00 -0.39643555839E+02 -0.10274724455E+02  0.41231262858E+02  0.47000000000E+01 0. -1.
         -5    1    3    3    0  501  0.15716128668E+02  0.89479311443E+02  0.28800287662E+02  0.95420597598E+02  0.47000000000E+01 0. -1.
          5    1    4    4  502    0 -0.43308410462E+02 -0.29092031261E+02  0.16009214975E+03  0.16844450454E+03  0.47000000000E+01 0.  1.
         -5    1    4    4    0  502  0.28455736868E+02 -0.20743724342E+02 -0.66983340014E+01  0.36152299217E+02  0.47000000000E+01 0.  1.
<mgrwt>
<rscale>  0 0.29477852E+03</rscale>
<asrwt>0</asrwt>
<pdfrwt beam="1">  1       21 0.39474465E-01 0.29477852E+03</pdfrwt>
<pdfrwt beam="2">  1       21 0.13025330E-01 0.29477852E+03</pdfrwt>
<totfact> 0.30603049E+05</totfact>
</mgrwt>
</event>
<event>
 8    1  0.9373234E-006  0.2779693E+03  0.7546771E-02  0.1096803E+00
         21   -1    0    0  504  503  0.00000000000E+00  0.00000000000E+00  0.81098644886E+03  0.81098644886E+03  0.00000000000E+00 0. -1.
         21   -1    0    0  503  504 -0.00000000000E+00 -0.00000000000E+00 -0.23818811511E+02  0.23818811511E+02  0.00000000000E+00 0. -1.
         25    2    1    2    0    0 -0.38508121191E+02 -0.46973520712E+02  0.39244014248E+03  0.41632054068E+03  0.12499656040E+03 0.  0.
         25    2    1    2    0    0  0.38508121191E+02  0.46973520712E+02  0.39472749486E+03  0.41848471969E+03  0.12502111169E+03 0.  0.
          5    1    3    3  501    0  0.29883899485E+02 -0.54572877948E+01  0.25784760592E+03  0.25967346287E+03  0.47000000000E+01 0.  1.
         -5    1    3    3    0  501 -0.68392020676E+02 -0.41516232917E+02  0.13459253656E+03  0.15664707781E+03  0.47000000000E+01 0.  1.
          5    1    4    4  502    0 -0.28396413423E+02 -0.10862994608E+02  0.29321359163E+02  0.42499329998E+02  0.47000000000E+01 0.  1.
         -5    1    4    4    0  502  0.66904534614E+02  0.57836515320E+02  0.36540613570E+03  0.37598538969E+03  0.47000000000E+01 0.  1.
<mgrwt>
<rscale>  0 0.27796930E+03</rscale>
<asrwt>0</asrwt>
<pdfrwt beam="1">  1       21 0.12476713E+00 0.27796930E+03</pdfrwt>
<pdfrwt beam="2">  1       21 0.36644332E-02 0.27796930E+03</pdfrwt>
<totfact> 0.21143649E+05</totfact>
</mgrwt>
</event>
<event>
 8    1  0.9373234E-006  0.2640503E+03  0.7546771E-02  0.1104734E+00
         21   -1    0    0  504  503  0.00000000000E+00  0.00000000000E+00  0.12857539616E+03  0.12857539616E+03  0.00000000000E+00 0.  1.
         21   -1    0    0  503  504 -0.00000000000E+00 -0.00000000000E+00 -0.13556750568E+03  0.13556750568E+03  0.00000000000E+00 0.  1.
         25    2    1    2    0    0  0.16436744828E+02 -0.31374590571E+02  0.20132740902E+02  0.13147124750E+03  0.12499932059E+03 0.  0.
         25    2    1    2    0    0 -0.16436744828E+02  0.31374590571E+02 -0.27124850423E+02  0.13267165434E+03  0.12494590365E+03 0.  0.
          5    1    3    3  501    0  0.13577178188E+02 -0.78964760557E+02  0.21184842297E+01  0.80289172077E+02  0.47000000000E+01 0.  1.
         -5    1    3    3    0  501  0.28595666392E+01  0.47590169986E+02  0.18014256672E+02  0.51182075418E+02  0.47000000000E+01 0.  1.
          5    1    4    4  502    0 -0.15622958697E+02 -0.38549380851E+02 -0.43844825333E+02  0.60618399112E+02  0.47000000000E+01 0. -1.
         -5    1    4    4    0  502 -0.81378613057E+00  0.69923971422E+02  0.16719974910E+02  0.72053255223E+02  0.47000000000E+01 0. -1.
<mgrwt>
<rscale>  0 0.26405034E+03</rscale>
<asrwt>0</asrwt>
<pdfrwt beam="1">  1       21 0.19780830E-01 0.26405034E+03</pdfrwt>
<pdfrwt beam="2">  1       21 0.20856539E-01 0.26405034E+03</pdfrwt>
<totfact> 0.49601185E+05</totfact>
</mgrwt>
</event>
<event>
 8    1  0.9373234E-006  0.2581044E+03  0.7546771E-02  0.1108288E+00
         21   -1    0    0  504  503  0.00000000000E+00  0.00000000000E+00  0.16054228770E+02  0.16054228770E+02  0.00000000000E+00 0. -1.
         21   -1    0    0  503  504 -0.00000000000E+00 -0.00000000000E+00 -0.10373881552E+04  0.10373881552E+04  0.00000000000E+00 0. -1.
         25    2    1    2    0    0  0.22853027373E+02 -0.45857977184E+01 -0.60048331692E+03  0.61379800923E+03  0.12499796732E+03 0.  0.
         25    2    1    2    0    0 -0.22853027373E+02  0.45857977184E+01 -0.42085060951E+03  0.43964437474E+03  0.12501460040E+03 0.  0.
          5    1    3    3  501    0 -0.40415459030E+02 -0.37784116031E+02 -0.25653604978E+03  0.26247644387E+03  0.47000000000E+01 0. -1.
         -5    1    3    3    0  501  0.63268486403E+02  0.33198318312E+02 -0.34394726714E+03  0.35132156535E+03  0.47000000000E+01 0. -1.
          5    1    4    4  502    0 -0.64790832442E+02 -0.27659464877E+02 -0.18817979652E+03  0.20098911360E+03  0.47000000000E+01 0. -1.
         -5    1    4    4    0  502  0.41937805069E+02  0.32245262596E+02 -0.23267081299E+03  0.23865526114E+03  0.47000000000E+01 0. -1.
<mgrwt>
<rscale>  0 0.25810437E+03</rscale>
<asrwt>0</asrwt>
<pdfrwt beam="1">  1       21 0.24698806E-02 0.25810437E+03</pdfrwt>
<pdfrwt beam="2">  1       21 0.15959822E+00 0.25810437E+03</pdfrwt>
<totfact> 0.21544292E+05</totfact>
</mgrwt>
</event>
<event>
 8    1  0.9373234E-006  0.2618149E+03  0.7546771E-02  0.1106058E+00
         21   -1    0    0  504  503  0.00000000000E+00  0.00000000000E+00  0.13029848283E+03  0.13029848283E+03  0.00000000000E+00 0. -1.
         21   -1    0    0  503  504 -0.00000000000E+00 -0.00000000000E+00 -0.13151930872E+03  0.13151930872E+03  0.00000000000E+00 0. -1.
         25    2    1    2    0    0 -0.32186958475E+02  0.14911953777E+02  0.15430707374E+02  0.13081969378E+03  0.12496927178E+03 0.  0.
         25    2    1    2    0    0  0.32186958475E+02 -0.14911953777E+02 -0.16651533264E+02  0.13099809778E+03  0.12499944560E+03 0.  0.
          5    1    3    3  501    0  0.11139985132E+02  0.61092708571E+02  0.24008360850E+02  0.66745109933E+02  0.47000000000E+01 0.  1.
         -5    1    3    3    0  501 -0.43326943607E+02 -0.46180754793E+02 -0.85776534765E+01  0.64074583844E+02  0.47000000000E+01 0.  1.
          5    1    4    4  502    0  0.75476244754E+02  0.89121786992E+01  0.61147513649E+01  0.76390906760E+02  0.47000000000E+01 0. -1.
         -5    1    4    4    0  502 -0.43289286279E+02 -0.23824132476E+02 -0.22766284629E+02  0.54607191016E+02  0.47000000000E+01 0. -1.
<mgrwt>
<rscale>  0 0.26181495E+03</rscale>
<asrwt>0</asrwt>
<pdfrwt beam="1">  1       21 0.20045921E-01 0.26181495E+03</pdfrwt>
<pdfrwt beam="2">  1       21 0.20233740E-01 0.26181495E+03</pdfrwt>
<totfact> 0.51241061E+05</totfact>
</mgrwt>
</event>
<event>
 8    1  0.9373234E-006  0.3683807E+03  0.7546771E-02  0.1055314E+00
         21   -1    0    0  504  503  0.00000000000E+00  0.00000000000E+00  0.18667601145E+03  0.18667601145E+03  0.00000000000E+00 0. -1.
         21   -1    0    0  503  504 -0.00000000000E+00 -0.00000000000E+00 -0.18173777270E+03  0.18173777270E+03  0.00000000000E+00 0. -1.
         25    2    1    2    0    0 -0.86207020841E+02 -0.73286626815E+02  0.76622961888E+02  0.18520036535E+03  0.12500206768E+03 0.  0.
         25    2    1    2    0    0  0.86207020841E+02  0.73286626815E+02 -0.71684723134E+02  0.18321341880E+03  0.12500350870E+03 0.  0.
          5    1    3    3  501    0 -0.29736444832E+02 -0.51102783510E+02  0.10301571728E+03  0.11887000732E+03  0.47000000000E+01 0. -1.
         -5    1    3    3    0  501 -0.56470576009E+02 -0.22183843306E+02 -0.26392755395E+02  0.66330358027E+02  0.47000000000E+01 0. -1.
          5    1    4    4  502    0  0.75380318667E+02 -0.14190710590E+02 -0.14967431446E+02  0.78292290256E+02  0.47000000000E+01 0.  1.
         -5    1    4    4    0  502  0.10826702174E+02  0.87477337405E+02 -0.56717291688E+02  0.10492112855E+03  0.47000000000E+01 0.  1.
<mgrwt>
<rscale>  0 0.36838069E+03</rscale>
<asrwt>0</asrwt>
<pdfrwt beam="1">  1       21 0.28719386E-01 0.36838069E+03</pdfrwt>
<pdfrwt beam="2">  1       21 0.27959657E-01 0.36838069E+03</pdfrwt>
<totfact> 0.13505210E+05</totfact>
</mgrwt>
</event>
<event>
 8    1  0.9373234E-006  0.3314678E+03  0.7546771E-02  0.1070489E+00
         21   -1    0    0  504  503  0.00000000000E+00  0.00000000000E+00  0.78242129833E+03  0.78242129833E+03  0.00000000000E+00 0.  1.
         21   -1    0    0  503  504 -0.00000000000E+00 -0.00000000000E+00 -0.35106065085E+02  0.35106065085E+02  0.00000000000E+00 0.  1.
         25    2    1    2    0    0 -0.10050937302E+03  0.36457504448E+02  0.32362185527E+03  0.36302471744E+03  0.12499822626E+03 0.  0.
         25    2    1    2    0    0  0.10050937302E+03 -0.36457504448E+02  0.42369337797E+03  0.45450264597E+03  0.12500117185E+03 0.  0.
          5    1    3    3  501    0 -0.18742665384E+02 -0.36176372208E+02  0.16684082413E+03  0.17180793930E+03  0.47000000000E+01 0. -1.
         -5    1    3    3    0  501 -0.81766707633E+02  0.72633876656E+02  0.15678103115E+03  0.19121677814E+03  0.47000000000E+01 0. -1.
          5    1    4    4  502    0  0.46516183222E+01 -0.35747885234E+02  0.24272192529E+02  0.43712448821E+02  0.47000000000E+01 0. -1.
         -5    1    4    4    0  502  0.95857754695E+02 -0.70961921345E+00  0.39942118545E+03  0.41079019715E+03  0.47000000000E+01 0. -1.
<mgrwt>
<rscale>  0 0.33146784E+03</rscale>
<asrwt>0</asrwt>
<pdfrwt beam="1">  1       21 0.12037249E+00 0.33146784E+03</pdfrwt>
<pdfrwt beam="2">  1       21 0.54009337E-02 0.33146784E+03</pdfrwt>
<totfact> 0.11788534E+05</totfact>
</mgrwt>
</event>
<event>
 8    1  0.9373234E-006  0.4397085E+03  0.7546771E-02  0.1030836E+00
         21   -1    0    0  504  503  0.00000000000E+00  0.00000000000E+00  0.23701197520E+03  0.23701197520E+03  0.00000000000E+00 0. -1.
         21   -1    0    0  503  504 -0.00000000000E+00 -0.00000000000E+00 -0.20393860830E+03  0.20393860830E+03  0.00000000000E+00 0. -1.
         25    2    1    2    0    0  0.71162773184E+02 -0.16604320903E+03  0.25326634050E+02  0.22113217470E+03  0.12499405083E+03 0.  0.
         25    2    1    2    0    0 -0.71162773184E+02  0.16604320903E+03  0.77467328545E+01  0.21981840879E+03  0.12500253366E+03 0.  0.
          5    1    3    3  501    0  0.68054192262E+02 -0.11649922476E+03  0.71853744362E+02  0.15293296909E+03  0.47000000000E+01 0. -1.
         -5    1    3    3    0  501  0.31085809222E+01 -0.49543984269E+02 -0.46527110313E+02  0.68199205616E+02  0.47000000000E+01 0. -1.
          5    1    4    4  502    0 -0.49767570739E+02  0.13415607494E+02  0.36017441611E+02  0.63056607281E+02  0.47000000000E+01 0. -1.
         -5    1    4    4    0  502 -0.21395202446E+02  0.15262760154E+03 -0.28270708756E+02  0.15676180151E+03  0.47000000000E+01 0. -1.
<mgrwt>
<rscale>  0 0.43970851E+03</rscale>
<asrwt>0</asrwt>
<pdfrwt beam="1">  1       21 0.36463381E-01 0.43970851E+03</pdfrwt>
<pdfrwt beam="2">  1       21 0.31375171E-01 0.43970851E+03</pdfrwt>
<totfact> 0.65705994E+04</totfact>
</mgrwt>
</event>
<event>
 8    1  0.9373234E-006  0.4958210E+03  0.7546771E-02  0.1014875E+00
         21   -1    0    0  504  503  0.00000000000E+00  0.00000000000E+00  0.61542255149E+02  0.61542255149E+02  0.00000000000E+00 0.  1.
         21   -1    0    0  503  504 -0.00000000000E+00 -0.00000000000E+00 -0.99865714000E+03  0.99865714000E+03  0.00000000000E+00 0.  1.
         25    2    1    2    0    0  0.80263514940E+02  0.18158075586E+03 -0.29709350015E+03  0.37855115120E+03  0.12499049370E+03 0.  0.
         25    2    1    2    0    0 -0.80263514940E+02 -0.18158075586E+03 -0.64002138470E+03  0.68164824395E+03  0.12491258094E+03 0.  0.
          5    1    3    3  501    0  0.14270605363E+01  0.12605795070E+03 -0.22539783115E+03  0.25830004979E+03  0.47000000000E+01 0.  1.
         -5    1    3    3    0  501  0.78836454404E+02  0.55522805159E+02 -0.71695668996E+02  0.12025110140E+03  0.47000000000E+01 0.  1.
          5    1    4    4  502    0 -0.69066587051E+02 -0.19531072940E+03 -0.51234126654E+03  0.55265915161E+03  0.47000000000E+01 0.  1.
         -5    1    4    4    0  502 -0.11196927889E+02  0.13729973541E+02 -0.12768011817E+03  0.12898909234E+03  0.47000000000E+01 0.  1.
<mgrwt>
<rscale>  0 0.49582099E+03</rscale>
<asrwt>0</asrwt>
<pdfrwt beam="1">  1       21 0.94680396E-02 0.49582099E+03</pdfrwt>
<pdfrwt beam="2">  1       21 0.15363955E+00 0.49582099E+03</pdfrwt>
<totfact> 0.22152508E+04</totfact>
</mgrwt>
</event>
<event>
 8    1  0.9373234E-006  0.2696900E+03  0.7546771E-02  0.1101457E+00
         21   -1    0    0  504  503  0.00000000000E+00  0.00000000000E+00  0.30895995731E+03  0.30895995731E+03  0.00000000000E+00 0.  1.
         21   -1    0    0  503  504 -0.00000000000E+00 -0.00000000000E+00 -0.58852859012E+02  0.58852859012E+02  0.00000000000E+00 0.  1.
         25    2    1    2    0    0  0.14093866112E+02  0.23290996524E+02  0.66893477920E+02  0.14435443346E+03  0.12498942951E+03 0.  0.
         25    2    1    2    0    0 -0.14093866112E+02 -0.23290996524E+02  0.18321362037E+03  0.22345838286E+03  0.12500124239E+03 0.  0.
          5    1    3    3  501    0  0.11693259435E+02  0.57080901160E+02 -0.10820120991E+02  0.59448520686E+02  0.47000000000E+01 0. -1.
         -5    1    3    3    0  501  0.24006066767E+01 -0.33789904636E+02  0.77713598911E+02  0.84905912771E+02  0.47000000000E+01 0. -1.
          5    1    4    4  502    0 -0.44478460109E+02  0.52762365643E+01  0.17498844178E+03  0.18069094289E+03  0.47000000000E+01 0.  1.
         -5    1    4    4    0  502  0.30384593997E+02 -0.28567233088E+02  0.82251785927E+01  0.42767439969E+02  0.47000000000E+01 0.  1.
<mgrwt>
<rscale>  0 0.26969002E+03</rscale>
<asrwt>0</asrwt>
<pdfrwt beam="1">  1       21 0.47532300E-01 0.26969002E+03</pdfrwt>
<pdfrwt beam="2">  1       21 0.90542862E-02 0.26969002E+03</pdfrwt>
<totfact> 0.40232827E+05</totfact>
</mgrwt>
</event>
<event>
 8    1  0.9373234E-006  0.2617186E+03  0.7546771E-02  0.1106115E+00
         21   -1    0    0  504  503  0.00000000000E+00  0.00000000000E+00  0.66351756798E+02  0.66351756798E+02  0.00000000000E+00 0. -1.
         21   -1    0    0  503  504 -0.00000000000E+00 -0.00000000000E+00 -0.25808153028E+03  0.25808153028E+03  0.00000000000E+00 0. -1.
         25    2    1    2    0    0  0.21153788506E+02 -0.48182453202E+00 -0.13605381592E+03  0.18596246073E+03  0.12499472410E+03 0.  0.
         25    2    1    2    0    0 -0.21153788506E+02  0.48182453202E+00 -0.55675957567E+02  0.13847082635E+03  0.12500657013E+03 0.  0.
          5    1    3    3  501    0  0.50708685759E+02  0.43217698843E+02 -0.10535810561E+03  0.12474598479E+03  0.47000000000E+01 0.  1.
         -5    1    3    3    0  501 -0.29554897252E+02 -0.43699523375E+02 -0.30695710313E+02  0.61216475939E+02  0.47000000000E+01 0.  1.
          5    1    4    4  502    0  0.44980933621E+02  0.28963809284E+02 -0.15583292634E+02  0.55920619158E+02  0.47000000000E+01 0.  1.
         -5    1    4    4    0  502 -0.66134722127E+02 -0.28481984752E+02 -0.40092664932E+02  0.82550207193E+02  0.47000000000E+01 0.  1.
<mgrwt>
<rscale>  0 0.26171865E+03</rscale>
<asrwt>0</asrwt>
<pdfrwt beam="1">  1       21 0.10207963E-01 0.26171865E+03</pdfrwt>
<pdfrwt beam="2">  1       21 0.39704851E-01 0.26171865E+03</pdfrwt>
<totfact> 0.47179113E+05</totfact>
</mgrwt>
</event>
<event>
 8    1  0.9373234E-006  0.3697180E+03  0.7546771E-02  0.1054801E+00
         21   -1    0    0  504  503  0.00000000000E+00  0.00000000000E+00  0.21113088731E+03  0.21113088731E+03  0.00000000000E+00 0. -1.
         21   -1    0    0  503  504 -0.00000000000E+00 -0.00000000000E+00 -0.16185620823E+03  0.16185620823E+03  0.00000000000E+00 0. -1.
         25    2    1    2    0    0  0.77271137368E+02  0.40639907235E+02 -0.80806561946E+02  0.17256124226E+03  0.12500100459E+03 0.  0.
         25    2    1    2    0    0 -0.77271137368E+02 -0.40639907235E+02  0.13008124103E+03  0.20042585328E+03  0.12500785041E+03 0.  0.
          5    1    3    3  501    0  0.36716487420E+02  0.74970825824E+02 -0.84777436785E+02  0.11907152876E+03  0.47000000000E+01 0. -1.
         -5    1    3    3    0  501  0.40554649948E+02 -0.34330918590E+02  0.39708748397E+01  0.53489713503E+02  0.47000000000E+01 0. -1.
          5    1    4    4  502    0 -0.64983401654E+02  0.13004521227E+02  0.86194836283E+01  0.66995115948E+02  0.47000000000E+01 0.  1.
         -5    1    4    4    0  502 -0.12287735713E+02 -0.53644428462E+02  0.12146175740E+03  0.13343073733E+03  0.47000000000E+01 0.  1.
<mgrwt>
<rscale>  0 0.36971797E+03</rscale>
<asrwt>0</asrwt>
<pdfrwt beam="1">  1       21 0.32481675E-01 0.36971797E+03</pdfrwt>
<pdfrwt beam="2">  1       21 0.24900955E-01 0.36971797E+03</pdfrwt>
<totfact> 0.13257334E+05</totfact>
</mgrwt>
</event>
<event>
 8    1  0.9373234E-006  0.3164652E+03  0.7546771E-02  0.1077288E+00
         21   -1    0    0  504  503  0.00000000000E+00  0.00000000000E+00  0.60011805728E+03  0.60011805728E+03  0.00000000000E+00 0. -1.
         21   -1    0    0  503  504 -0.00000000000E+00 -0.00000000000E+00 -0.41721039927E+02  0.41721039927E+02  0.00000000000E+00 0. -1.
         25    2    1    2    0    0 -0.70230667246E+02 -0.27798866919E+02  0.40266563695E+03  0.42833282061E+03  0.12499706562E+03 0.  0.
         25    2    1    2    0    0  0.70230667246E+02  0.27798866919E+02  0.15573138041E+03  0.21350627659E+03  0.12501017429E+03 0.  0.
          5    1    3    3  501    0 -0.81512533435E+02  0.24410887904E+02  0.30761040625E+03  0.31919654852E+03  0.47000000000E+01 0.  1.
         -5    1    3    3    0  501  0.11281866189E+02 -0.52209754824E+02  0.95055230694E+02  0.10913627209E+03  0.47000000000E+01 0.  1.
          5    1    4    4  502    0  0.81541320791E+02  0.66409468691E+02  0.10637513769E+03  0.14965615405E+03  0.47000000000E+01 0.  1.
         -5    1    4    4    0  502 -0.11310653545E+02 -0.38610601771E+02  0.49356242720E+02  0.63850122539E+02  0.47000000000E+01 0.  1.
<mgrwt>
<rscale>  0 0.31646516E+03</rscale>
<asrwt>0</asrwt>
<pdfrwt beam="1">  1       21 0.92325849E-01 0.31646516E+03</pdfrwt>
<pdfrwt beam="2">  1       21 0.64186220E-02 0.31646516E+03</pdfrwt>
<totfact> 0.16755164E+05</totfact>
</mgrwt>
</event>
<event>
 8    1  0.9373234E-006  0.2885438E+03  0.7546771E-02  0.1091112E+00
         21   -1    0    0  504  503  0.00000000000E+00  0.00000000000E+00  0.13318003576E+03  0.13318003576E+03  0.00000000000E+00 0. -1.
         21   -1    0    0  503  504 -0.00000000000E+00 -0.00000000000E+00 -0.15628759107E+03  0.15628759107E+03  0.00000000000E+00 0. -1.
         25    2    1    2    0    0  0.70834273304E+02 -0.11102929636E+02 -0.45467802644E+01  0.14417323541E+03  0.12499791709E+03 0.  0.
         25    2    1    2    0    0 -0.70834273304E+02  0.11102929636E+02 -0.18560775044E+02  0.14529439141E+03  0.12500075394E+03 0.  0.
          5    1    3    3  501    0  0.15740764385E+02 -0.37791082601E+02 -0.52162885084E+02  0.66475515551E+02  0.47000000000E+01 0. -1.
         -5    1    3    3    0  501  0.55093508919E+02  0.26688152965E+02  0.47616104819E+02  0.77697719862E+02  0.47000000000E+01 0. -1.
          5    1    4    4  502    0  0.67329562777E+01 -0.52518734374E+01 -0.56465083924E+02  0.57300179558E+02  0.47000000000E+01 0. -1.
         -5    1    4    4    0  502 -0.77567229582E+02  0.16354803074E+02  0.37904308879E+02  0.87994211856E+02  0.47000000000E+01 0. -1.
<mgrwt>
<rscale>  0 0.28854384E+03</rscale>
<asrwt>0</asrwt>
<pdfrwt beam="1">  1       21 0.20489236E-01 0.28854384E+03</pdfrwt>
<pdfrwt beam="2">  1       21 0.24044245E-01 0.28854384E+03</pdfrwt>
<totfact> 0.35250918E+05</totfact>
</mgrwt>
</event>
<event>
 8    1  0.9373234E-006  0.2545072E+03  0.7546771E-02  0.1110489E+00
         21   -1    0    0  504  503  0.00000000000E+00  0.00000000000E+00  0.59071161528E+03  0.59071161528E+03  0.00000000000E+00 0. -1.
         21   -1    0    0  503  504 -0.00000000000E+00 -0.00000000000E+00 -0.27413519271E+02  0.27413519271E+02  0.00000000000E+00 0. -1.
         25    2    1    2    0    0 -0.10330408400E+02 -0.99186586878E+01  0.23529008302E+03  0.26681199799E+03  0.12498848737E+03 0.  0.
         25    2    1    2    0    0  0.10330408400E+02  0.99186586878E+01  0.32800801299E+03  0.35131313656E+03  0.12500626468E+03 0.  0.
          5    1    3    3  501    0 -0.27465711901E+02 -0.23054575155E+02  0.62420336584E+01  0.36700568797E+02  0.47000000000E+01 0. -1.
         -5    1    3    3    0  501  0.17135303500E+02  0.13135916467E+02  0.22904804937E+03  0.23011142919E+03  0.47000000000E+01 0. -1.
          5    1    4    4  502    0  0.44696555561E+02 -0.15303158498E+02  0.29045252456E+03  0.29430719965E+03  0.47000000000E+01 0.  1.
         -5    1    4    4    0  502 -0.34366147160E+02  0.25221817186E+02  0.37555488426E+02  0.57005936917E+02  0.47000000000E+01 0.  1.
<mgrwt>
<rscale>  0 0.25450724E+03</rscale>
<asrwt>0</asrwt>
<pdfrwt beam="1">  1       21 0.90878700E-01 0.25450724E+03</pdfrwt>
<pdfrwt beam="2">  1       21 0.42174649E-02 0.25450724E+03</pdfrwt>
<totfact> 0.36242584E+05</totfact>
</mgrwt>
</event>
<event>
 8    1  0.9373234E-006  0.2940648E+03  0.7546771E-02  0.1088246E+00
         21   -1    0    0  504  503  0.00000000000E+00  0.00000000000E+00  0.71984990254E+02  0.71984990254E+02  0.00000000000E+00 0. -1.
         21   -1    0    0  503  504 -0.00000000000E+00 -0.00000000000E+00 -0.30031994527E+03  0.30031994527E+03  0.00000000000E+00 0. -1.
         25    2    1    2    0    0 -0.55068444646E+01  0.71557812501E+02 -0.77394311103E+02  0.16359980291E+03  0.12499668098E+03 0.  0.
         25    2    1    2    0    0  0.55068444646E+01 -0.71557812501E+02 -0.15094064392E+03  0.20870513262E+03  0.12499563404E+03 0.  0.
          5    1    3    3  501    0  0.21699278090E+02  0.16425234828E+02  0.29366322544E+02  0.40312751190E+02  0.47000000000E+01 0. -1.
         -5    1    3    3    0  501 -0.27206122554E+02  0.55132577673E+02 -0.10676063365E+03  0.12328705172E+03  0.47000000000E+01 0. -1.
          5    1    4    4  502    0 -0.38527039631E+01 -0.91270741661E+02 -0.47863373266E+02  0.10323848174E+03  0.47000000000E+01 0. -1.
         -5    1    4    4    0  502  0.93595484277E+01  0.19712929159E+02 -0.10307727065E+03  0.10546665088E+03  0.47000000000E+01 0. -1.
<mgrwt>
<rscale>  0 0.29406481E+03</rscale>
<asrwt>0</asrwt>
<pdfrwt beam="1">  1       21 0.11074614E-01 0.29406481E+03</pdfrwt>
<pdfrwt beam="2">  1       21 0.46203068E-01 0.29406481E+03</pdfrwt>
<totfact> 0.29669186E+05</totfact>
</mgrwt>
</event>
<event>
 8    1  0.9373234E-006  0.3014199E+03  0.7546771E-02  0.1084533E+00
         21   -1    0    0  504  503  0.00000000000E+00  0.00000000000E+00  0.48310928924E+03  0.48310928924E+03  0.00000000000E+00 0.  1.
         21   -1    0    0  503  504 -0.00000000000E+00 -0.00000000000E+00 -0.47015227952E+02  0.47015227952E+02  0.00000000000E+00 0.  1.
         25    2    1    2    0    0  0.17788141168E+02  0.52828232544E+02  0.32894947034E+03  0.35628864540E+03  0.12500641857E+03 0.  0.
         25    2    1    2    0    0 -0.17788141168E+02 -0.52828232544E+02  0.10714459095E+03  0.17383587180E+03  0.12502682446E+03 0.  0.
          5    1    3    3  501    0 -0.35706669185E+02 -0.19672365258E+02  0.60678694409E+02  0.73252727828E+02  0.47000000000E+01 0. -1.
         -5    1    3    3    0  501  0.53494810353E+02  0.72500597801E+02  0.26827077593E+03  0.28303591757E+03  0.47000000000E+01 0. -1.
          5    1    4    4  502    0  0.35724187043E+02  0.10710139341E+02 -0.73575083912E+00  0.37597286523E+02  0.47000000000E+01 0. -1.
         -5    1    4    4    0  502 -0.53512328211E+02 -0.63538371885E+02  0.10788034179E+03  0.13623858528E+03  0.47000000000E+01 0. -1.
<mgrwt>
<rscale>  0 0.30141993E+03</rscale>
<asrwt>0</asrwt>
<pdfrwt beam="1">  1       21 0.74324502E-01 0.30141993E+03</pdfrwt>
<pdfrwt beam="2">  1       21 0.72331123E-02 0.30141993E+03</pdfrwt>
<totfact> 0.22514432E+05</totfact>
</mgrwt>
</event>
<event>
 8    1  0.9373234E-006  0.2642563E+03  0.7546771E-02  0.1104613E+00
         21   -1    0    0  504  503  0.00000000000E+00  0.00000000000E+00  0.71167535488E+03  0.71167535488E+03  0.00000000000E+00 0. -1.
         21   -1    0    0  503  504 -0.00000000000E+00 -0.00000000000E+00 -0.24530633263E+02  0.24530633263E+02  0.00000000000E+00 0. -1.
         25    2    1    2    0    0  0.37575528264E+02 -0.12584039392E+02  0.38866959132E+03  0.41019463642E+03  0.12500124064E+03 0.  0.
         25    2    1    2    0    0 -0.37575528264E+02  0.12584039392E+02  0.29847513030E+03  0.32601135173E+03  0.12500287866E+03 0.  0.
          5    1    3    3  501    0  0.50815935196E+02  0.35036789219E+02  0.31712254002E+03  0.32310777034E+03  0.47000000000E+01 0. -1.
         -5    1    3    3    0  501 -0.13240406932E+02 -0.47620828611E+02  0.71547051298E+02  0.87086866075E+02  0.47000000000E+01 0. -1.
          5    1    4    4  502    0 -0.31869157521E+02 -0.54524479028E+02  0.13366905090E+03  0.14791236318E+03  0.47000000000E+01 0.  1.
         -5    1    4    4    0  502 -0.57063707425E+01  0.67108518420E+02  0.16480607940E+03  0.17809898854E+03  0.47000000000E+01 0.  1.
<mgrwt>
<rscale>  0 0.26425629E+03</rscale>
<asrwt>0</asrwt>
<pdfrwt beam="1">  1       21 0.10948850E+00 0.26425629E+03</pdfrwt>
<pdfrwt beam="2">  1       21 0.37739441E-02 0.26425629E+03</pdfrwt>
<totfact> 0.27932536E+05</totfact>
</mgrwt>
</event>
<event>
 8    1  0.9373234E-006  0.2845644E+03  0.7546771E-02  0.1093222E+00
         21   -1    0    0  504  503  0.00000000000E+00  0.00000000000E+00  0.30491007646E+03  0.30491007646E+03  0.00000000000E+00 0.  1.
         21   -1    0    0  503  504 -0.00000000000E+00 -0.00000000000E+00 -0.66394081995E+02  0.66394081995E+02  0.00000000000E+00 0.  1.
         25    2    1    2    0    0 -0.61794405504E+02 -0.28127668275E+02  0.11598773265E+03  0.18355177951E+03  0.12501354871E+03 0.  0.
         25    2    1    2    0    0  0.61794405504E+02  0.28127668275E+02  0.12252826182E+03  0.18775237895E+03  0.12501226573E+03 0.  0.
          5    1    3    3  501    0 -0.26833048878E+02 -0.14848582719E+02 -0.23589351544E+02  0.38974869174E+02  0.47000000000E+01 0. -1.
         -5    1    3    3    0  501 -0.34961356626E+02 -0.13279085556E+02  0.13957708419E+03  0.14457691033E+03  0.47000000000E+01 0. -1.
          5    1    4    4  502    0  0.88420408614E+02  0.84781861269E+01  0.12590741284E+03  0.15415840848E+03  0.47000000000E+01 0.  1.
         -5    1    4    4    0  502 -0.26626003110E+02  0.19649482148E+02 -0.33791510120E+01  0.33593970469E+02  0.47000000000E+01 0.  1.
<mgrwt>
<rscale>  0 0.28456440E+03</rscale>
<asrwt>0</asrwt>
<pdfrwt beam="1">  1       21 0.46909242E-01 0.28456440E+03</pdfrwt>
<pdfrwt beam="2">  1       21 0.10214474E-01 0.28456440E+03</pdfrwt>
<totfact> 0.33285949E+05</totfact>
</mgrwt>
</event>
<event>
 8    1  0.9373234E-006  0.3049521E+03  0.7546771E-02  0.1082791E+00
         21   -1    0    0  504  503  0.00000000000E+00  0.00000000000E+00  0.24651022795E+04  0.24651022795E+04  0.00000000000E+00 0. -1.
         21   -1    0    0  503  504 -0.00000000000E+00 -0.00000000000E+00 -0.94312289186E+01  0.94312289186E+01  0.00000000000E+00 0. -1.
         25    2    1    2    0    0  0.26772230431E+02 -0.82354691476E+02  0.11377406392E+04  0.11478592230E+04  0.12501194430E+03 0.  0.
         25    2    1    2    0    0 -0.26772230431E+02  0.82354691476E+02  0.13179304114E+04  0.13266742854E+04  0.12500017123E+03 0.  0.
          5    1    3    3  501    0  0.10719983655E+01 -0.73386341919E+02  0.27463757245E+03  0.28431424614E+03  0.47000000000E+01 0. -1.
         -5    1    3    3    0  501  0.25700232065E+02 -0.89683495572E+01  0.86310306674E+03  0.86354497685E+03  0.47000000000E+01 0. -1.
          5    1    4    4  502    0 -0.16771466138E+02  0.15096988279E+02  0.34838797952E+02  0.41773591828E+02  0.47000000000E+01 0. -1.
         -5    1    4    4    0  502 -0.10000764293E+02  0.67257703198E+02  0.12830916135E+04  0.12849006936E+04  0.47000000000E+01 0. -1.
<mgrwt>
<rscale>  0 0.30495209E+03</rscale>
<asrwt>0</asrwt>
<pdfrwt beam="1">  1       21 0.37924599E+00 0.30495209E+03</pdfrwt>
<pdfrwt beam="2">  1       21 0.14509603E-02 0.30495209E+03</pdfrwt>
<totfact> 0.21826559E+04</totfact>
</mgrwt>
</event>
<event>
 8    1  0.9373234E-006  0.2936303E+03  0.7546771E-02  0.1088469E+00
         21   -1    0    0  504  503  0.00000000000E+00  0.00000000000E+00  0.64117897513E+03  0.64117897513E+03  0.00000000000E+00 0. -1.
         21   -1    0    0  503  504 -0.00000000000E+00 -0.00000000000E+00 -0.33617261780E+02  0.33617261780E+02  0.00000000000E+00 0. -1.
         25    2    1    2    0    0 -0.18555184529E+02  0.63903786734E+02  0.21464848074E+03  0.25714738961E+03  0.12499128317E+03 0.  0.
         25    2    1    2    0    0  0.18555184529E+02 -0.63903786734E+02  0.39291323262E+03  0.41764884731E+03  0.12498704916E+03 0.  0.
          5    1    3    3  501    0 -0.47616072826E+02  0.86403598091E+02  0.11946167717E+03  0.15500340146E+03  0.47000000000E+01 0.  1.
         -5    1    3    3    0  501  0.29060888297E+02 -0.22499811357E+02  0.95186803570E+02  0.10214398814E+03  0.47000000000E+01 0.  1.
          5    1    4    4  502    0 -0.21208244289E+02  0.29777179089E+02  0.14515907090E+03  0.14976553637E+03  0.47000000000E+01 0.  1.
         -5    1    4    4    0  502  0.39763428818E+02 -0.93680965823E+02  0.24775416172E+03  0.26788331094E+03  0.47000000000E+01 0.  1.
<mgrwt>
<rscale>  0 0.29363025E+03</rscale>
<asrwt>0</asrwt>
<pdfrwt beam="1">  1       21 0.98642910E-01 0.29363025E+03</pdfrwt>
<pdfrwt beam="2">  1       21 0.51718869E-02 0.29363025E+03</pdfrwt>
<totfact> 0.20899332E+05</totfact>
</mgrwt>
</event>
<event>
 8    1  0.9373234E-006  0.2625433E+03  0.7546771E-02  0.1105625E+00
         21   -1    0    0  504  503  0.00000000000E+00  0.00000000000E+00  0.27526318038E+03  0.27526318038E+03  0.00000000000E+00 0.  1.
         21   -1    0    0  503  504 -0.00000000000E+00 -0.00000000000E+00 -0.62602799517E+02  0.62602799517E+02  0.00000000000E+00 0.  1.
         25    2    1    2    0    0 -0.70476811313E+01 -0.39344062078E+02  0.10847669004E+03  0.17026893013E+03  0.12500676483E+03 0.  0.
         25    2    1    2    0    0  0.70476811313E+01  0.39344062078E+02  0.10418369082E+03  0.16759704977E+03  0.12504760945E+03 0.  0.
          5    1    3    3  501    0 -0.23489908992E+02 -0.66618905477E+02  0.16320776458E+02  0.72651993335E+02  0.47000000000E+01 0. -1.
         -5    1    3    3    0  501  0.16442227860E+02  0.27274843398E+02  0.92155913586E+02  0.97616936790E+02  0.47000000000E+01 0. -1.
          5    1    4    4  502    0  0.12466502923E+02  0.21088077086E+02 -0.25949301170E+02  0.35994123430E+02  0.47000000000E+01 0. -1.
         -5    1    4    4    0  502 -0.54188217918E+01  0.18255984993E+02  0.13013299199E+03  0.13160292634E+03  0.47000000000E+01 0. -1.
<mgrwt>
<rscale>  0 0.26254330E+03</rscale>
<asrwt>0</asrwt>
<pdfrwt beam="1">  1       21 0.42348181E-01 0.26254330E+03</pdfrwt>
<pdfrwt beam="2">  1       21 0.96312001E-02 0.26254330E+03</pdfrwt>
<totfact> 0.45857968E+05</totfact>
</mgrwt>
</event>
<event>
 8    1  0.9373234E-006  0.3144855E+03  0.7546771E-02  0.1078216E+00
         21   -1    0    0  504  503  0.00000000000E+00  0.00000000000E+00  0.95015269816E+03  0.95015269816E+03  0.00000000000E+00 0.  1.
         21   -1    0    0  503  504 -0.00000000000E+00 -0.00000000000E+00 -0.26022437865E+02  0.26022437865E+02  0.00000000000E+00 0.  1.
         25    2    1    2    0    0  0.24564277824E+02 -0.32541756698E+02  0.19439414343E+03  0.23468827375E+03  0.12500853235E+03 0.  0.
         25    2    1    2    0    0 -0.24564277824E+02  0.32541756698E+02  0.72973611687E+03  0.74148686228E+03  0.12500238799E+03 0.  0.
          5    1    3    3  501    0 -0.15363915317E+02  0.26789265099E+02  0.14331319155E+03  0.14667813570E+03  0.47000000000E+01 0.  1.
         -5    1    3    3    0  501  0.39928193141E+02 -0.59331021797E+02  0.51080951882E+02  0.88010138053E+02  0.47000000000E+01 0.  1.
          5    1    4    4  502    0 -0.70733065877E+02 -0.13205379554E+01  0.48135316402E+03  0.48654688257E+03  0.47000000000E+01 0.  1.
         -5    1    4    4    0  502  0.46168788053E+02  0.33862294654E+02  0.24838295285E+03  0.25493997971E+03  0.47000000000E+01 0.  1.
<mgrwt>
<rscale>  0 0.31448555E+03</rscale>
<asrwt>0</asrwt>
<pdfrwt beam="1">  1       21 0.14617731E+00 0.31448555E+03</pdfrwt>
<pdfrwt beam="2">  1       21 0.40034527E-02 0.31448555E+03</pdfrwt>
<totfact> 0.11950383E+05</totfact>
</mgrwt>
</event>
<event>
 8    1  0.9373234E-006  0.2564187E+03  0.7546771E-02  0.1109314E+00
         21   -1    0    0  504  503  0.00000000000E+00  0.00000000000E+00  0.17284344918E+03  0.17284344918E+03  0.00000000000E+00 0.  1.
         21   -1    0    0  503  504 -0.00000000000E+00 -0.00000000000E+00 -0.95101304814E+02  0.95101304814E+02  0.00000000000E+00 0.  1.
         25    2    1    2    0    0  0.30791238231E+01  0.24877765942E+02  0.53137726941E+02  0.13811867521E+03  0.12499906470E+03 0.  0.
         25    2    1    2    0    0 -0.30791238231E+01 -0.24877765942E+02  0.24604417426E+02  0.12982607879E+03  0.12498419554E+03 0.  0.
          5    1    3    3  501    0  0.15713717041E+02  0.74388172324E+02  0.31862093560E+02  0.82569995101E+02  0.47000000000E+01 0.  1.
         -5    1    3    3    0  501 -0.12634593218E+02 -0.49510406382E+02  0.21275633380E+02  0.55548680107E+02  0.47000000000E+01 0.  1.
          5    1    4    4  502    0 -0.52017629591E+02 -0.40859409906E+02  0.37991361035E+02  0.76424856424E+02  0.47000000000E+01 0.  1.
         -5    1    4    4    0  502  0.48938505768E+02  0.15981643964E+02 -0.13386943609E+02  0.53401222362E+02  0.47000000000E+01 0.  1.
<mgrwt>
<rscale>  0 0.25641870E+03</rscale>
<asrwt>0</asrwt>
<pdfrwt beam="1">  1       21 0.26591300E-01 0.25641870E+03</pdfrwt>
<pdfrwt beam="2">  1       21 0.14630970E-01 0.25641870E+03</pdfrwt>
<totfact> 0.54594630E+05</totfact>
</mgrwt>
</event>
<event>
 8    1  0.9373234E-006  0.2537304E+03  0.7546771E-02  0.1110970E+00
         21   -1    0    0  504  503  0.00000000000E+00  0.00000000000E+00  0.39725403657E+03  0.39725403657E+03  0.00000000000E+00 0.  1.
         21   -1    0    0  503  504 -0.00000000000E+00 -0.00000000000E+00 -0.40515084786E+02  0.40515084786E+02  0.00000000000E+00 0.  1.
         25    2    1    2    0    0 -0.85248468179E+01  0.15800339894E+02  0.19897140460E+03  0.23568743779E+03  0.12504649027E+03 0.  0.
         25    2    1    2    0    0  0.85248468179E+01 -0.15800339894E+02  0.15776754718E+03  0.20208168357E+03  0.12499633649E+03 0.  0.
          5    1    3    3  501    0 -0.65270264612E+01  0.50565350549E+02  0.19345871460E+03  0.20011951681E+03  0.47000000000E+01 0.  1.
         -5    1    3    3    0  501 -0.19978203568E+01 -0.34765010655E+02  0.55126899987E+01  0.35567920982E+02  0.47000000000E+01 0.  1.
          5    1    4    4  502    0  0.44475708516E+02  0.18405932189E+02  0.14167517690E+03  0.14970241393E+03  0.47000000000E+01 0. -1.
         -5    1    4    4    0  502 -0.35950861698E+02 -0.34206272083E+02  0.16092370290E+02  0.52379269641E+02  0.47000000000E+01 0. -1.
<mgrwt>
<rscale>  0 0.25373042E+03</rscale>
<asrwt>0</asrwt>
<pdfrwt beam="1">  1       21 0.61116003E-01 0.25373042E+03</pdfrwt>
<pdfrwt beam="2">  1       21 0.62330902E-02 0.25373042E+03</pdfrwt>
<totfact> 0.45393810E+05</totfact>
</mgrwt>
</event>
<event>
 8    1  0.9373234E-006  0.2683133E+03  0.7546771E-02  0.1102249E+00
         21   -1    0    0  504  503  0.00000000000E+00  0.00000000000E+00  0.17563749413E+02  0.17563749413E+02  0.00000000000E+00 0.  1.
         21   -1    0    0  503  504 -0.00000000000E+00 -0.00000000000E+00 -0.10247243163E+04  0.10247243163E+04  0.00000000000E+00 0.  1.
         25    2    1    2    0    0  0.37133121397E+02  0.16067116335E+02 -0.39844529489E+03  0.41955645752E+03  0.12502778528E+03 0.  0.
         25    2    1    2    0    0 -0.37133121397E+02 -0.16067116335E+02 -0.60871527198E+03  0.62273160818E+03  0.12499341002E+03 0.  0.
          5    1    3    3  501    0  0.72536623900E+02  0.42559402041E+02 -0.29867720056E+03  0.31032728634E+03  0.47000000000E+01 0.  1.
         -5    1    3    3    0  501 -0.35403502503E+02 -0.26492285705E+02 -0.99768094326E+02  0.10922917118E+03  0.47000000000E+01 0.  1.
          5    1    4    4  502    0 -0.13162797595E+02  0.49082949199E+02 -0.14271077941E+03  0.15156137932E+03  0.47000000000E+01 0. -1.
         -5    1    4    4    0  502 -0.23970323802E+02 -0.65150065534E+02 -0.46600449257E+03  0.47117022886E+03  0.47000000000E+01 0. -1.
<mgrwt>
<rscale>  0 0.26831326E+03</rscale>
<asrwt>0</asrwt>
<pdfrwt beam="1">  1       21 0.27021149E-02 0.26831326E+03</pdfrwt>
<pdfrwt beam="2">  1       21 0.15764992E+00 0.26831326E+03</pdfrwt>
<totfact> 0.19132487E+05</totfact>
</mgrwt>
</event>
<event>
 8    1  0.9373234E-006  0.3331635E+03  0.7546771E-02  0.1069746E+00
         21   -1    0    0  504  503  0.00000000000E+00  0.00000000000E+00  0.95298184464E+02  0.95298184464E+02  0.00000000000E+00 0.  1.
         21   -1    0    0  503  504 -0.00000000000E+00 -0.00000000000E+00 -0.29118583968E+03  0.29118583968E+03  0.00000000000E+00 0.  1.
         25    2    1    2    0    0 -0.42038850247E+02 -0.48243045491E+02 -0.20190638255E+03  0.24592693525E+03  0.12497685307E+03 0.  0.
         25    2    1    2    0    0  0.42038850247E+02  0.48243045491E+02  0.60187273333E+01  0.14055708889E+03  0.12500165515E+03 0.  0.
          5    1    3    3  501    0  0.10992218414E+02  0.36367185186E+02 -0.37990900718E+02  0.53933288063E+02  0.47000000000E+01 0. -1.
         -5    1    3    3    0  501 -0.53031068661E+02 -0.84610230676E+02 -0.16391548183E+03  0.19199364719E+03  0.47000000000E+01 0. -1.
          5    1    4    4  502    0  0.34584549112E+02 -0.22993792635E+02 -0.37888641072E+02  0.56413160338E+02  0.47000000000E+01 0.  1.
         -5    1    4    4    0  502  0.74543011355E+01  0.71236838125E+02  0.43907368406E+02  0.84143928550E+02  0.47000000000E+01 0.  1.
<mgrwt>
<rscale>  0 0.33316351E+03</rscale>
<asrwt>0</asrwt>
<pdfrwt beam="1">  1       21 0.14661259E-01 0.33316351E+03</pdfrwt>
<pdfrwt beam="2">  1       21 0.44797821E-01 0.33316351E+03</pdfrwt>
<totfact> 0.18850145E+05</totfact>
</mgrwt>
</event>
<event>
 8    1  0.9373234E-006  0.2895967E+03  0.7546771E-02  0.1090560E+00
         21   -1    0    0  504  503  0.00000000000E+00  0.00000000000E+00  0.63259078158E+03  0.63259078158E+03  0.00000000000E+00 0. -1.
         21   -1    0    0  503  504 -0.00000000000E+00 -0.00000000000E+00 -0.33143949288E+02  0.33143949288E+02  0.00000000000E+00 0. -1.
         25    2    1    2    0    0  0.11820632433E+02 -0.68562716786E+02  0.24796632327E+03  0.28627387888E+03  0.12499945108E+03 0.  0.
         25    2    1    2    0    0 -0.11820632433E+02  0.68562716786E+02  0.35148050902E+03  0.37946085198E+03  0.12494565411E+03 0.  0.
          5    1    3    3  501    0  0.12942793772E+02  0.13934454035E+02 -0.49443142833E+01  0.20204483750E+02  0.47000000000E+01 0.  1.
         -5    1    3    3    0  501 -0.11221613386E+01 -0.82497170820E+02  0.25291063755E+03  0.26606939513E+03  0.47000000000E+01 0.  1.
          5    1    4    4  502    0  0.51093199904E+02  0.60538243249E+01  0.96565951371E+02  0.10951820319E+03  0.47000000000E+01 0. -1.
         -5    1    4    4    0  502 -0.62913832337E+02  0.62508892461E+02  0.25491455765E+03  0.26994264880E+03  0.47000000000E+01 0. -1.
<mgrwt>
<rscale>  0 0.28959666E+03</rscale>
<asrwt>0</asrwt>
<pdfrwt beam="1">  1       21 0.97321650E-01 0.28959666E+03</pdfrwt>
<pdfrwt beam="2">  1       21 0.50990696E-02 0.28959666E+03</pdfrwt>
<totfact> 0.22135194E+05</totfact>
</mgrwt>
</event>
<event>
 8    1  0.9373234E-006  0.3231717E+03  0.7546771E-02  0.1074199E+00
         21   -1    0    0  504  503  0.00000000000E+00  0.00000000000E+00  0.37641866373E+03  0.37641866373E+03  0.00000000000E+00 0. -1.
         21   -1    0    0  503  504 -0.00000000000E+00 -0.00000000000E+00 -0.69364212279E+02  0.69364212279E+02  0.00000000000E+00 0. -1.
         25    2    1    2    0    0 -0.34154909376E+02  0.12776189030E+02  0.21544382114E+02  0.13198351756E+03  0.12500279864E+03 0.  0.
         25    2    1    2    0    0  0.34154909376E+02 -0.12776189030E+02  0.28551006933E+03  0.31379935844E+03  0.12499699528E+03 0.  0.
          5    1    3    3  501    0 -0.29482281413E+02  0.66089193227E+02 -0.37226701560E+01  0.72614975396E+02  0.47000000000E+01 0. -1.
         -5    1    3    3    0  501 -0.46726279631E+01 -0.53313004197E+02  0.25267052270E+02  0.59368542167E+02  0.47000000000E+01 0. -1.
          5    1    4    4  502    0  0.57797058401E+02 -0.15925898445E+02  0.53408456252E+02  0.80428150547E+02  0.47000000000E+01 0. -1.
         -5    1    4    4    0  502 -0.23642149025E+02  0.31497094154E+01  0.23210161308E+03  0.23337120790E+03  0.47000000000E+01 0. -1.
<mgrwt>
<rscale>  0 0.32317168E+03</rscale>
<asrwt>0</asrwt>
<pdfrwt beam="1">  1       21 0.57910562E-01 0.32317168E+03</pdfrwt>
<pdfrwt beam="2">  1       21 0.10671418E-01 0.32317168E+03</pdfrwt>
<totfact> 0.19525416E+05</totfact>
</mgrwt>
</event>
<event>
 8    1  0.9373234E-006  0.3736741E+03  0.7546771E-02  0.1053297E+00
         21   -1    0    0  504  503  0.00000000000E+00  0.00000000000E+00  0.12202120177E+02  0.12202120177E+02  0.00000000000E+00 0. -1.
         21   -1    0    0  503  504 -0.00000000000E+00 -0.00000000000E+00 -0.28608217726E+04  0.28608217726E+04  0.00000000000E+00 0. -1.
         25    2    1    2    0    0  0.10862426386E+03  0.43403336458E+01 -0.20886499781E+04  0.20952090068E+04  0.12499592740E+03 0.  0.
         25    2    1    2    0    0 -0.10862426386E+03 -0.43403336458E+01 -0.75996967437E+03  0.77781488604E+03  0.12499608713E+03 0.  0.
          5    1    3    3  501    0  0.62963125689E+02 -0.59457536728E+02 -0.11618858291E+04  0.11651181587E+04  0.47000000000E+01 0. -1.
         -5    1    3    3    0  501  0.45661138170E+02  0.63797870374E+02 -0.92676414895E+03  0.93009084802E+03  0.47000000000E+01 0. -1.
          5    1    4    4  502    0 -0.60418810679E+02 -0.22065097952E+02 -0.67738531958E+03  0.68044857441E+03  0.47000000000E+01 0.  1.
         -5    1    4    4    0  502 -0.48205453180E+02  0.17724764306E+02 -0.82584354789E+02  0.97366311637E+02  0.47000000000E+01 0.  1.
<mgrwt>
<rscale>  0 0.37367414E+03</rscale>
<asrwt>0</asrwt>
<pdfrwt beam="1">  1       21 0.18772495E-02 0.37367414E+03</pdfrwt>
<pdfrwt beam="2">  1       21 0.44012636E+00 0.37367414E+03</pdfrwt>
<totfact> 0.55484480E+03</totfact>
</mgrwt>
</event>
<event>
 8    1  0.9373234E-006  0.2741571E+03  0.7546771E-02  0.1098924E+00
         21   -1    0    0  504  503  0.00000000000E+00  0.00000000000E+00  0.63244115532E+01  0.63244115532E+01  0.00000000000E+00 0.  1.
         21   -1    0    0  503  504 -0.00000000000E+00 -0.00000000000E+00 -0.29711120740E+04  0.29711120740E+04  0.00000000000E+00 0.  1.
         25    2    1    2    0    0  0.49433097775E+02  0.29632192154E+01 -0.17724758816E+04  0.17775679648E+04  0.12499882703E+03 0.  0.
         25    2    1    2    0    0 -0.49433097775E+02 -0.29632192154E+01 -0.11923117808E+04  0.11998685207E+04  0.12499869022E+03 0.  0.
          5    1    3    3  501    0 -0.17599155355E+02 -0.42678217570E+02 -0.93817424681E+03  0.93932112076E+03  0.47000000000E+01 0. -1.
         -5    1    3    3    0  501  0.67032253130E+02  0.45641436785E+02 -0.83430163482E+03  0.83824684406E+03  0.47000000000E+01 0. -1.
          5    1    4    4  502    0 -0.36060620847E+02  0.52930235217E+02 -0.87548574086E+03  0.87783788402E+03  0.47000000000E+01 0.  1.
         -5    1    4    4    0  502 -0.13372476929E+02 -0.55893454432E+02 -0.31682603994E+03  0.32203063670E+03  0.47000000000E+01 0.  1.
<mgrwt>
<rscale>  0 0.27415715E+03</rscale>
<asrwt>0</asrwt>
<pdfrwt beam="1">  1       21 0.97298567E-03 0.27415715E+03</pdfrwt>
<pdfrwt beam="2">  1       21 0.45709451E+00 0.27415715E+03</pdfrwt>
<totfact> 0.13380462E+04</totfact>
</mgrwt>
</event>
<event>
 8    1  0.9373234E-006  0.3330940E+03  0.7546771E-02  0.1069776E+00
         21   -1    0    0  504  503  0.00000000000E+00  0.00000000000E+00  0.18571598444E+03  0.18571598444E+03  0.00000000000E+00 0. -1.
         21   -1    0    0  503  504 -0.00000000000E+00 -0.00000000000E+00 -0.14935659635E+03  0.14935659635E+03  0.00000000000E+00 0. -1.
         25    2    1    2    0    0  0.30366581753E+02  0.90051829517E+02 -0.37663060536E+02  0.16147758529E+03  0.12500017255E+03 0.  0.
         25    2    1    2    0    0 -0.30366581753E+02 -0.90051829517E+02  0.74022448621E+02  0.17359499550E+03  0.12499775309E+03 0.  0.
          5    1    3    3  501    0  0.34534914755E+02  0.48418209984E+02  0.40907755469E+02  0.72336144857E+02  0.47000000000E+01 0. -1.
         -5    1    3    3    0  501 -0.41683330017E+01  0.41633619532E+02 -0.78570816005E+02  0.89141440436E+02  0.47000000000E+01 0. -1.
          5    1    4    4  502    0 -0.41168281491E+01  0.64950759674E+01  0.72871087145E+02  0.73426287034E+02  0.47000000000E+01 0. -1.
         -5    1    4    4    0  502 -0.26249753604E+02 -0.96546905484E+02  0.11513614758E+01  0.10016870847E+03  0.47000000000E+01 0. -1.
<mgrwt>
<rscale>  0 0.33309402E+03</rscale>
<asrwt>0</asrwt>
<pdfrwt beam="1">  1       21 0.28571690E-01 0.33309402E+03</pdfrwt>
<pdfrwt beam="2">  1       21 0.22977938E-01 0.33309402E+03</pdfrwt>
<totfact> 0.20102577E+05</totfact>
</mgrwt>
</event>
<event>
 8    1  0.9373234E-006  0.3525397E+03  0.7546771E-02  0.1061577E+00
         21   -1    0    0  504  503  0.00000000000E+00  0.00000000000E+00  0.28787079280E+03  0.28787079280E+03  0.00000000000E+00 0. -1.
         21   -1    0    0  503  504 -0.00000000000E+00 -0.00000000000E+00 -0.10793406063E+03  0.10793406063E+03  0.00000000000E+00 0. -1.
         25    2    1    2    0    0  0.31722228344E+02  0.10776972906E+03  0.30297163106E+02  0.17077728164E+03  0.12500539012E+03 0.  0.
         25    2    1    2    0    0 -0.31722228344E+02 -0.10776972906E+03  0.14963956906E+03  0.22502757179E+03  0.12499917266E+03 0.  0.
          5    1    3    3  501    0 -0.27557244014E+00 -0.96305668989E+01  0.46690524815E+02  0.47905311464E+02  0.47000000000E+01 0.  1.
         -5    1    3    3    0  501  0.31997800784E+02  0.11740029596E+03 -0.16393361709E+02  0.12287197017E+03  0.47000000000E+01 0.  1.
          5    1    4    4  502    0  0.29426434420E+02 -0.71200014361E+01 -0.45244410549E+01  0.30970470290E+02  0.47000000000E+01 0.  1.
         -5    1    4    4    0  502 -0.61148662764E+02 -0.10064972762E+03  0.15416401012E+03  0.19405710150E+03  0.47000000000E+01 0.  1.
<mgrwt>
<rscale>  0 0.35253972E+03</rscale>
<asrwt>0</asrwt>
<pdfrwt beam="1">  1       21 0.44287814E-01 0.35253972E+03</pdfrwt>
<pdfrwt beam="2">  1       21 0.16605240E-01 0.35253972E+03</pdfrwt>
<totfact> 0.15269665E+05</totfact>
</mgrwt>
</event>
<event>
 8    1  0.9373234E-006  0.3267871E+03  0.7546771E-02  0.1072567E+00
         21   -1    0    0  504  503  0.00000000000E+00  0.00000000000E+00  0.22781606290E+02  0.22781606290E+02  0.00000000000E+00 0. -1.
         21   -1    0    0  503  504 -0.00000000000E+00 -0.00000000000E+00 -0.11718864961E+04  0.11718864961E+04  0.00000000000E+00 0. -1.
         25    2    1    2    0    0 -0.71803607241E+02  0.64967700237E+02 -0.72509737027E+03  0.74213724930E+03  0.12499976133E+03 0.  0.
         25    2    1    2    0    0  0.71803607241E+02 -0.64967700237E+02 -0.42400751957E+03  0.45253085313E+03  0.12500094516E+03 0.  0.
          5    1    3    3  501    0 -0.38953413081E+02  0.42323342196E+01 -0.50946808787E+02  0.64443373354E+02  0.47000000000E+01 0.  1.
         -5    1    3    3    0  501 -0.32850194160E+02  0.60735366018E+02 -0.67415056149E+03  0.67769387594E+03  0.47000000000E+01 0.  1.
          5    1    4    4  502    0  0.76908618727E+02  0.13432759206E+02 -0.23915256240E+03  0.25161759230E+03  0.47000000000E+01 0. -1.
         -5    1    4    4    0  502 -0.51050114859E+01 -0.78400459444E+02 -0.18485495718E+03  0.20091326083E+03  0.47000000000E+01 0. -1.
<mgrwt>
<rscale>  0 0.32678713E+03</rscale>
<asrwt>0</asrwt>
<pdfrwt beam="1">  1       21 0.35048630E-02 0.32678713E+03</pdfrwt>
<pdfrwt beam="2">  1       21 0.18029021E+00 0.32678713E+03</pdfrwt>
<totfact> 0.83405431E+04</totfact>
</mgrwt>
</event>
<event>
 8    1  0.9373234E-006  0.2993350E+03  0.7546771E-02  0.1085574E+00
         21   -1    0    0  504  503  0.00000000000E+00  0.00000000000E+00  0.29798588904E+02  0.29798588904E+02  0.00000000000E+00 0.  1.
         21   -1    0    0  503  504 -0.00000000000E+00 -0.00000000000E+00 -0.75172558505E+03  0.75172558505E+03  0.00000000000E+00 0.  1.
         25    2    1    2    0    0  0.64005302445E+02  0.10556769882E+02 -0.22865596265E+03  0.26854296486E+03  0.12499460222E+03 0.  0.
         25    2    1    2    0    0 -0.64005302445E+02 -0.10556769882E+02 -0.49327103349E+03  0.51298120910E+03  0.12500113709E+03 0.  0.
          5    1    3    3  501    0  0.42429683669E+02  0.65261352385E+02 -0.98431590331E+02  0.12557941769E+03  0.47000000000E+01 0.  1.
         -5    1    3    3    0  501  0.21575618776E+02 -0.54704582503E+02 -0.13022437232E+03  0.14296354717E+03  0.47000000000E+01 0.  1.
          5    1    4    4  502    0 -0.21717595864E+02 -0.80083640615E+01 -0.67063127144E+01  0.24553054703E+02  0.47000000000E+01 0.  1.
         -5    1    4    4    0  502 -0.42287706581E+02 -0.25484058205E+01 -0.48656472078E+03  0.48842815439E+03  0.47000000000E+01 0.  1.
<mgrwt>
<rscale>  0 0.29933501E+03</rscale>
<asrwt>0</asrwt>
<pdfrwt beam="1">  1       21 0.45843984E-02 0.29933501E+03</pdfrwt>
<pdfrwt beam="2">  1       21 0.11565009E+00 0.29933501E+03</pdfrwt>
<totfact> 0.17400786E+05</totfact>
</mgrwt>
</event>
<event>
 8    1  0.9373234E-006  0.2973483E+03  0.7546771E-02  0.1086574E+00
         21   -1    0    0  504  503  0.00000000000E+00  0.00000000000E+00  0.72703547300E+02  0.72703547300E+02  0.00000000000E+00 0.  1.
         21   -1    0    0  503  504 -0.00000000000E+00 -0.00000000000E+00 -0.30402926788E+03  0.30402926788E+03  0.00000000000E+00 0.  1.
         25    2    1    2    0    0  0.17834754644E+02 -0.61464465826E+02 -0.53821815064E+02  0.15039415235E+03  0.12500261698E+03 0.  0.
         25    2    1    2    0    0 -0.17834754644E+02  0.61464465826E+02 -0.17750390551E+03  0.22633866283E+03  0.12500237912E+03 0.  0.
          5    1    3    3  501    0 -0.10164332909E+02  0.36252369271E+02 -0.79089329840E+01  0.38758085120E+02  0.47000000000E+01 0. -1.
         -5    1    3    3    0  501  0.27999087553E+02 -0.97716835097E+02 -0.45912882080E+02  0.11163606723E+03  0.47000000000E+01 0. -1.
          5    1    4    4  502    0 -0.46736597073E+02  0.35666613809E+02 -0.17319784945E+02  0.61469356570E+02  0.47000000000E+01 0. -1.
         -5    1    4    4    0  502  0.28901842429E+02  0.25797852017E+02 -0.16018412057E+03  0.16486930626E+03  0.47000000000E+01 0. -1.
<mgrwt>
<rscale>  0 0.29734832E+03</rscale>
<asrwt>0</asrwt>
<pdfrwt beam="1">  1       21 0.11185161E-01 0.29734832E+03</pdfrwt>
<pdfrwt beam="2">  1       21 0.46773732E-01 0.29734832E+03</pdfrwt>
<totfact> 0.28389255E+05</totfact>
</mgrwt>
</event>
<event>
 8    1  0.9373234E-006  0.3458085E+03  0.7546771E-02  0.1064349E+00
         21   -1    0    0  504  503  0.00000000000E+00  0.00000000000E+00  0.92610224082E+02  0.92610224082E+02  0.00000000000E+00 0. -1.
         21   -1    0    0  503  504 -0.00000000000E+00 -0.00000000000E+00 -0.32281404713E+03  0.32281404713E+03  0.00000000000E+00 0. -1.
         25    2    1    2    0    0 -0.48102107014E+02  0.85730226149E+02 -0.19664750310E+03  0.25290248476E+03  0.12500376774E+03 0.  0.
         25    2    1    2    0    0  0.48102107014E+02 -0.85730226149E+02 -0.33556319948E+02  0.16252178645E+03  0.12499528026E+03 0.  0.
          5    1    3    3  501    0 -0.60498965920E+02  0.57027008981E+02 -0.38707632028E+02  0.91829055357E+02  0.47000000000E+01 0.  1.
         -5    1    3    3    0  501  0.12396858905E+02  0.28703217168E+02 -0.15793987107E+03  0.16107342941E+03  0.47000000000E+01 0.  1.
          5    1    4    4  502    0  0.76360043630E+01 -0.91432071062E+02 -0.63467146578E+02  0.11166154609E+03  0.47000000000E+01 0. -1.
         -5    1    4    4    0  502  0.40466102651E+02  0.57018449128E+01  0.29910826631E+02  0.50860240355E+02  0.47000000000E+01 0. -1.
<mgrwt>
<rscale>  0 0.34580851E+03</rscale>
<asrwt>0</asrwt>
<pdfrwt beam="1">  1       21 0.14247727E-01 0.34580851E+03</pdfrwt>
<pdfrwt beam="2">  1       21 0.49663700E-01 0.34580851E+03</pdfrwt>
<totfact> 0.15964473E+05</totfact>
</mgrwt>
</event>
<event>
 8    1  0.9373234E-006  0.2541754E+03  0.7546771E-02  0.1110694E+00
         21   -1    0    0  504  503  0.00000000000E+00  0.00000000000E+00  0.66549950037E+02  0.66549950037E+02  0.00000000000E+00 0. -1.
         21   -1    0    0  503  504 -0.00000000000E+00 -0.00000000000E+00 -0.24269406874E+03  0.24269406874E+03  0.00000000000E+00 0. -1.
         25    2    1    2    0    0  0.18737165469E+02 -0.10589994155E+02 -0.97766514195E+02  0.16014334738E+03  0.12499748423E+03 0.  0.
         25    2    1    2    0    0 -0.18737165469E+02  0.10589994155E+02 -0.78377604509E+02  0.14910067140E+03  0.12499892791E+03 0.  0.
          5    1    3    3  501    0 -0.21128879496E+02 -0.46450149983E+02 -0.32183996596E+01  0.51346802029E+02  0.47000000000E+01 0. -1.
         -5    1    3    3    0  501  0.39866044966E+02  0.35860155828E+02 -0.94548114535E+02  0.10879654535E+03  0.47000000000E+01 0. -1.
          5    1    4    4  502    0  0.27134315283E+02  0.54509848231E+02 -0.24932299364E+02  0.65964415950E+02  0.47000000000E+01 0.  1.
         -5    1    4    4    0  502 -0.45871480753E+02 -0.43919854076E+02 -0.53445305145E+02  0.83136255452E+02  0.47000000000E+01 0.  1.
<mgrwt>
<rscale>  0 0.25417536E+03</rscale>
<asrwt>0</asrwt>
<pdfrwt beam="1">  1       21 0.10238454E-01 0.25417536E+03</pdfrwt>
<pdfrwt beam="2">  1       21 0.37337549E-01 0.25417536E+03</pdfrwt>
<totfact> 0.53215820E+05</totfact>
</mgrwt>
</event>
<event>
 8    1  0.9373234E-006  0.2712224E+03  0.7546771E-02  0.1100582E+00
         21   -1    0    0  504  503  0.00000000000E+00  0.00000000000E+00  0.12378283384E+04  0.12378283384E+04  0.00000000000E+00 0. -1.
         21   -1    0    0  503  504 -0.00000000000E+00 -0.00000000000E+00 -0.14856988465E+02  0.14856988465E+02  0.00000000000E+00 0. -1.
         25    2    1    2    0    0  0.39878595547E+02  0.76875351699E+01  0.76575559190E+03  0.77695383495E+03  0.12500493803E+03 0.  0.
         25    2    1    2    0    0 -0.39878595547E+02 -0.76875351699E+01  0.45721575806E+03  0.47573149194E+03  0.12499920971E+03 0.  0.
          5    1    3    3  501    0  0.52277891672E+02  0.22718781931E+02  0.14496687265E+03  0.15584160284E+03  0.47000000000E+01 0. -1.
         -5    1    3    3    0  501 -0.12399296125E+02 -0.15031246762E+02  0.62078871925E+03  0.62111223210E+03  0.47000000000E+01 0. -1.
          5    1    4    4  502    0  0.24654238872E+02  0.38469121335E+02  0.10412615174E+03  0.11380707476E+03  0.47000000000E+01 0.  1.
         -5    1    4    4    0  502 -0.64532834419E+02 -0.46156656504E+02  0.35308960632E+03  0.36192441718E+03  0.47000000000E+01 0.  1.
<mgrwt>
<rscale>  0 0.27122243E+03</rscale>
<asrwt>0</asrwt>
<pdfrwt beam="1">  1       21 0.19043505E+00 0.27122243E+03</pdfrwt>
<pdfrwt beam="2">  1       21 0.22856915E-02 0.27122243E+03</pdfrwt>
<totfact> 0.14797946E+05</totfact>
</mgrwt>
</event>
<event>
 8    1  0.9373234E-006  0.4456866E+03  0.7546771E-02  0.1029016E+00
         21   -1    0    0  504  503  0.00000000000E+00  0.00000000000E+00  0.53300697572E+03  0.53300697572E+03  0.00000000000E+00 0. -1.
         21   -1    0    0  503  504 -0.00000000000E+00 -0.00000000000E+00 -0.93167889023E+02  0.93167889023E+02  0.00000000000E+00 0. -1.
         25    2    1    2    0    0  0.60838519998E+02  0.17010060251E+03  0.27245212221E+03  0.34998816820E+03  0.12500407390E+03 0.  0.
         25    2    1    2    0    0 -0.60838519998E+02 -0.17010060251E+03  0.16738696449E+03  0.27618669655E+03  0.12500061992E+03 0.  0.
          5    1    3    3  501    0 -0.12501209917E+02 -0.15264642443E+02  0.25434785206E+02  0.32531643930E+02  0.47000000000E+01 0. -1.
         -5    1    3    3    0  501  0.73339729915E+02  0.18536524495E+03  0.24701733700E+03  0.31745652427E+03  0.47000000000E+01 0. -1.
          5    1    4    4  502    0  0.26448801834E+02  0.70608350786E+00  0.12694634641E+02  0.29720050825E+02  0.47000000000E+01 0.  1.
         -5    1    4    4    0  502 -0.87287321832E+02 -0.17080668602E+03  0.15469232985E+03  0.24646664573E+03  0.47000000000E+01 0.  1.
<mgrwt>
<rscale>  0 0.44568659E+03</rscale>
<asrwt>0</asrwt>
<pdfrwt beam="1">  1       21 0.82001071E-01 0.44568659E+03</pdfrwt>
<pdfrwt beam="2">  1       21 0.14333522E-01 0.44568659E+03</pdfrwt>
<totfact> 0.50980238E+04</totfact>
</mgrwt>
</event>
<event>
 8    1  0.9373234E-006  0.3397932E+03  0.7546771E-02  0.1066884E+00
         21   -1    0    0  504  503  0.00000000000E+00  0.00000000000E+00  0.20346225615E+03  0.20346225615E+03  0.00000000000E+00 0.  1.
         21   -1    0    0  503  504 -0.00000000000E+00 -0.00000000000E+00 -0.14186833090E+03  0.14186833090E+03  0.00000000000E+00 0.  1.
         25    2    1    2    0    0  0.29550073831E+02 -0.78149134647E+02 -0.49606364816E+02  0.15832430061E+03  0.12500119449E+03 0.  0.
         25    2    1    2    0    0 -0.29550073831E+02  0.78149134647E+02  0.11120029006E+03  0.18700628644E+03  0.12500141019E+03 0.  0.
          5    1    3    3  501    0 -0.49028850851E+02 -0.27199289181E+02 -0.13642105134E+02  0.57894961613E+02  0.47000000000E+01 0. -1.
         -5    1    3    3    0  501  0.78578924682E+02 -0.50949845466E+02 -0.35964259681E+02  0.10042933900E+03  0.47000000000E+01 0. -1.
          5    1    4    4  502    0 -0.20417819074E+02 -0.28843028962E+02  0.51649933855E+01  0.36021865750E+02  0.47000000000E+01 0. -1.
         -5    1    4    4    0  502 -0.91322547573E+01  0.10699216361E+03  0.10603529667E+03  0.15098442069E+03  0.47000000000E+01 0. -1.
<mgrwt>
<rscale>  0 0.33979318E+03</rscale>
<asrwt>0</asrwt>
<pdfrwt beam="1">  1       21 0.31301886E-01 0.33979318E+03</pdfrwt>
<pdfrwt beam="2">  1       21 0.21825897E-01 0.33979318E+03</pdfrwt>
<totfact> 0.18499340E+05</totfact>
</mgrwt>
</event>
<event>
 8    1  0.9373234E-006  0.4547849E+03  0.7546771E-02  0.1026305E+00
         21   -1    0    0  504  503  0.00000000000E+00  0.00000000000E+00  0.34352275095E+03  0.34352275095E+03  0.00000000000E+00 0.  1.
         21   -1    0    0  503  504 -0.00000000000E+00 -0.00000000000E+00 -0.15052081165E+03  0.15052081165E+03  0.00000000000E+00 0.  1.
         25    2    1    2    0    0  0.63932420874E+02 -0.99683917974E+02  0.25784896685E+03  0.31004658587E+03  0.12497422838E+03 0.  0.
         25    2    1    2    0    0 -0.63932420874E+02  0.99683917974E+02 -0.64847027550E+02  0.18399697673E+03  0.12500205007E+03 0.  0.
          5    1    3    3  501    0  0.83313262130E+02 -0.87777954232E+02  0.12085168704E+03  0.17109438669E+03  0.47000000000E+01 0. -1.
         -5    1    3    3    0  501 -0.19380841255E+02 -0.11905963743E+02  0.13699727981E+03  0.13895219918E+03  0.47000000000E+01 0. -1.
          5    1    4    4  502    0 -0.33253502057E+02  0.29455603748E+02 -0.92230469302E+02  0.10247915622E+03  0.47000000000E+01 0. -1.
         -5    1    4    4    0  502 -0.30678918817E+02  0.70228314226E+02  0.27383441751E+02  0.81517820512E+02  0.47000000000E+01 0. -1.
<mgrwt>
<rscale>  0 0.45478489E+03</rscale>
<asrwt>0</asrwt>
<pdfrwt beam="1">  1       21 0.52849654E-01 0.45478489E+03</pdfrwt>
<pdfrwt beam="2">  1       21 0.23157048E-01 0.45478489E+03</pdfrwt>
<totfact> 0.54775874E+04</totfact>
</mgrwt>
</event>
<event>
 8    1  0.9373234E-006  0.3425111E+03  0.7546771E-02  0.1065731E+00
         21   -1    0    0  504  503  0.00000000000E+00  0.00000000000E+00  0.28983445245E+03  0.28983445245E+03  0.00000000000E+00 0. -1.
         21   -1    0    0  503  504 -0.00000000000E+00 -0.00000000000E+00 -0.10119041318E+03  0.10119041318E+03  0.00000000000E+00 0. -1.
         25    2    1    2    0    0  0.65533229446E+02  0.50482099439E+02 -0.21960222366E+00  0.14990814554E+03  0.12501742818E+03 0.  0.
         25    2    1    2    0    0 -0.65533229446E+02 -0.50482099439E+02  0.18886364149E+03  0.24111672008E+03  0.12499900439E+03 0.  0.
          5    1    3    3  501    0  0.21620266026E+02  0.83831772575E+02  0.23296952712E+02  0.89777725532E+02  0.47000000000E+01 0. -1.
         -5    1    3    3    0  501  0.43912963420E+02 -0.33349673136E+02 -0.23516554936E+02  0.60130420011E+02  0.47000000000E+01 0. -1.
          5    1    4    4  502    0 -0.73422393651E+02  0.21314238178E+02  0.11035657342E+03  0.13433468627E+03  0.47000000000E+01 0. -1.
         -5    1    4    4    0  502  0.78891642049E+01 -0.71796337617E+02  0.78507068069E+02  0.10678203381E+03  0.47000000000E+01 0. -1.
<mgrwt>
<rscale>  0 0.34251113E+03</rscale>
<asrwt>0</asrwt>
<pdfrwt beam="1">  1       21 0.44589916E-01 0.34251113E+03</pdfrwt>
<pdfrwt beam="2">  1       21 0.15567756E-01 0.34251113E+03</pdfrwt>
<totfact> 0.17005792E+05</totfact>
</mgrwt>
</event>
<event>
 8    1  0.9373234E-006  0.2860713E+03  0.7546771E-02  0.1092418E+00
         21   -1    0    0  504  503  0.00000000000E+00  0.00000000000E+00  0.17303451662E+03  0.17303451662E+03  0.00000000000E+00 0. -1.
         21   -1    0    0  503  504 -0.00000000000E+00 -0.00000000000E+00 -0.11823765688E+03  0.11823765688E+03  0.00000000000E+00 0. -1.
         25    2    1    2    0    0 -0.44550824521E+02  0.43264070371E+02 -0.44428441860E+01  0.13964329220E+03  0.12499581770E+03 0.  0.
         25    2    1    2    0    0  0.44550824521E+02 -0.43264070371E+02  0.59239703926E+02  0.15162888130E+03  0.12500167748E+03 0.  0.
          5    1    3    3  501    0  0.52357913790E+01  0.58705106337E+02  0.39665494998E+02  0.71197924934E+02  0.47000000000E+01 0. -1.
         -5    1    3    3    0  501 -0.49786615900E+02 -0.15441035966E+02 -0.44108339184E+02  0.68445367265E+02  0.47000000000E+01 0. -1.
          5    1    4    4  502    0  0.76124454989E+02  0.74781349562E+01  0.17576503196E+02  0.78624923621E+02  0.47000000000E+01 0. -1.
         -5    1    4    4    0  502 -0.31573630468E+02 -0.50742205327E+02  0.41663200729E+02  0.73003957683E+02  0.47000000000E+01 0. -1.
<mgrwt>
<rscale>  0 0.28607129E+03</rscale>
<asrwt>0</asrwt>
<pdfrwt beam="1">  1       21 0.26620695E-01 0.28607129E+03</pdfrwt>
<pdfrwt beam="2">  1       21 0.18190409E-01 0.28607129E+03</pdfrwt>
<totfact> 0.36239194E+05</totfact>
</mgrwt>
</event>
<event>
 8    1  0.9373234E-006  0.2808008E+03  0.7546771E-02  0.1095252E+00
         21   -1    0    0  504  503  0.00000000000E+00  0.00000000000E+00  0.20813788289E+03  0.20813788289E+03  0.00000000000E+00 0.  1.
         21   -1    0    0  503  504 -0.00000000000E+00 -0.00000000000E+00 -0.94707772011E+02  0.94707772011E+02  0.00000000000E+00 0.  1.
         25    2    1    2    0    0 -0.50004493180E+01 -0.33676794780E+02 -0.16438032867E+01  0.12956697561E+03  0.12500307228E+03 0.  0.
         25    2    1    2    0    0  0.50004493180E+01  0.33676794780E+02  0.11507391416E+03  0.17327867929E+03  0.12499745588E+03 0.  0.
          5    1    3    3  501    0 -0.58964573981E+02 -0.44485442312E+02 -0.53558244301E+01  0.74206134637E+02  0.47000000000E+01 0.  1.
         -5    1    3    3    0  501  0.53964124663E+02  0.10808647533E+02  0.37120211435E+01  0.55360840971E+02  0.47000000000E+01 0.  1.
          5    1    4    4  502    0 -0.29229417301E+02  0.71786057192E+02  0.61993462075E+02  0.99362347914E+02  0.47000000000E+01 0. -1.
         -5    1    4    4    0  502  0.34229866619E+02 -0.38109262412E+02  0.53080452086E+02  0.73916331375E+02  0.47000000000E+01 0. -1.
<mgrwt>
<rscale>  0 0.28080082E+03</rscale>
<asrwt>0</asrwt>
<pdfrwt beam="1">  1       21 0.32021213E-01 0.28080082E+03</pdfrwt>
<pdfrwt beam="2">  1       21 0.14570426E-01 0.28080082E+03</pdfrwt>
<totfact> 0.38067978E+05</totfact>
</mgrwt>
</event>
<event>
 8    1  0.9373234E-006  0.2780477E+03  0.7546771E-02  0.1096760E+00
         21   -1    0    0  504  503  0.00000000000E+00  0.00000000000E+00  0.15121727608E+03  0.15121727608E+03  0.00000000000E+00 0.  1.
         21   -1    0    0  503  504 -0.00000000000E+00 -0.00000000000E+00 -0.12781364772E+03  0.12781364772E+03  0.00000000000E+00 0.  1.
         25    2    1    2    0    0 -0.60316988442E+02  0.68258260123E+01  0.75868775470E+01  0.13917007968E+03  0.12500407742E+03 0.  0.
         25    2    1    2    0    0  0.60316988442E+02 -0.68258260123E+01  0.15816750808E+02  0.13986084412E+03  0.12500462038E+03 0.  0.
          5    1    3    3  501    0 -0.11617175470E+02 -0.44237424158E+02  0.40402965003E+02  0.61207826649E+02  0.47000000000E+01 0.  1.
         -5    1    3    3    0  501 -0.48699812972E+02  0.51063250171E+02 -0.32816087456E+02  0.77962253030E+02  0.47000000000E+01 0.  1.
          5    1    4    4  502    0  0.24315544965E+02  0.37424238538E+02  0.54633428022E+02  0.70701632333E+02  0.47000000000E+01 0. -1.
         -5    1    4    4    0  502  0.36001443478E+02 -0.44250064550E+02 -0.38816677214E+02  0.69159211788E+02  0.47000000000E+01 0. -1.
<mgrwt>
<rscale>  0 0.27804771E+03</rscale>
<asrwt>0</asrwt>
<pdfrwt beam="1">  1       21 0.23264196E-01 0.27804771E+03</pdfrwt>
<pdfrwt beam="2">  1       21 0.19663638E-01 0.27804771E+03</pdfrwt>
<totfact> 0.40655869E+05</totfact>
</mgrwt>
</event>
<event>
 8    1  0.9373234E-006  0.4906620E+03  0.7546771E-02  0.1016245E+00
         21   -1    0    0  504  503  0.00000000000E+00  0.00000000000E+00  0.24722487922E+03  0.24722487922E+03  0.00000000000E+00 0.  1.
         21   -1    0    0  503  504 -0.00000000000E+00 -0.00000000000E+00 -0.24345166410E+03  0.24345166410E+03  0.00000000000E+00 0.  1.
         25    2    1    2    0    0  0.15891924250E+03 -0.71654992433E+02 -0.11716975683E+03  0.24442466404E+03  0.12499960359E+03 0.  0.
         25    2    1    2    0    0 -0.15891924250E+03  0.71654992433E+02  0.12094297194E+03  0.24625187929E+03  0.12499208779E+03 0.  0.
          5    1    3    3  501    0  0.11945340075E+03 -0.10467267516E+03 -0.10753768760E+03  0.19186434825E+03  0.47000000000E+01 0. -1.
         -5    1    3    3    0  501  0.39465841754E+02  0.33017682728E+02 -0.96320692282E+01  0.52560315788E+02  0.47000000000E+01 0. -1.
          5    1    4    4  502    0 -0.16042343452E+03  0.34773811005E+02  0.59974354614E+02  0.17482536855E+03  0.47000000000E+01 0. -1.
         -5    1    4    4    0  502  0.15041920213E+01  0.36881181429E+02  0.60968617330E+02  0.71426510739E+02  0.47000000000E+01 0. -1.
<mgrwt>
<rscale>  0 0.49066204E+03</rscale>
<asrwt>0</asrwt>
<pdfrwt beam="1">  1       21 0.38034597E-01 0.49066204E+03</pdfrwt>
<pdfrwt beam="2">  1       21 0.37454102E-01 0.49066204E+03</pdfrwt>
<totfact> 0.41710904E+04</totfact>
</mgrwt>
</event>
<event>
 8    1  0.9373234E-006  0.2760494E+03  0.7546771E-02  0.1097866E+00
         21   -1    0    0  504  503  0.00000000000E+00  0.00000000000E+00  0.36721163193E+02  0.36721163193E+02  0.00000000000E+00 0. -1.
         21   -1    0    0  503  504 -0.00000000000E+00 -0.00000000000E+00 -0.51879677095E+03  0.51879677095E+03  0.00000000000E+00 0. -1.
         25    2    1    2    0    0 -0.58386419215E+02 -0.26097940700E+01 -0.24716468652E+03  0.28307452628E+03  0.12500008077E+03 0.  0.
         25    2    1    2    0    0  0.58386419215E+02  0.26097940700E+01 -0.23491092123E+03  0.27244340786E+03  0.12500593825E+03 0.  0.
          5    1    3    3  501    0 -0.88712594804E+02 -0.15302708080E+02 -0.11138589995E+03  0.14329342643E+03  0.47000000000E+01 0.  1.
         -5    1    3    3    0  501  0.30326175589E+02  0.12692914010E+02 -0.13577878657E+03  0.13978109985E+03  0.47000000000E+01 0.  1.
          5    1    4    4  502    0  0.15882806246E+02 -0.24638941040E+02  0.23905079813E+01  0.29784987464E+02  0.47000000000E+01 0.  1.
         -5    1    4    4    0  502  0.42503612969E+02  0.27248735110E+02 -0.23730142921E+03  0.24265842039E+03  0.47000000000E+01 0.  1.
<mgrwt>
<rscale>  0 0.27604942E+03</rscale>
<asrwt>0</asrwt>
<pdfrwt beam="1">  1       21 0.56494102E-02 0.27604942E+03</pdfrwt>
<pdfrwt beam="2">  1       21 0.79814881E-01 0.27604942E+03</pdfrwt>
<totfact> 0.29564645E+05</totfact>
</mgrwt>
</event>
<event>
 8    1  0.9373234E-006  0.2702410E+03  0.7546771E-02  0.1101142E+00
         21   -1    0    0  504  503  0.00000000000E+00  0.00000000000E+00  0.55009052954E+03  0.55009052954E+03  0.00000000000E+00 0.  1.
         21   -1    0    0  503  504 -0.00000000000E+00 -0.00000000000E+00 -0.33190082139E+02  0.33190082139E+02  0.00000000000E+00 0.  1.
         25    2    1    2    0    0  0.16092610359E+02 -0.31851584407E+02  0.33798104015E+03  0.36212299626E+03  0.12501354080E+03 0.  0.
         25    2    1    2    0    0 -0.16092610359E+02  0.31851584407E+02  0.17891940725E+03  0.22115761542E+03  0.12500016411E+03 0.  0.
          5    1    3    3  501    0 -0.31888261356E+02  0.11771605054E+02  0.25200715216E+03  0.25433270855E+03  0.47000000000E+01 0. -1.
         -5    1    3    3    0  501  0.47980871715E+02 -0.43623189461E+02  0.85973887991E+02  0.10779028771E+03  0.47000000000E+01 0. -1.
          5    1    4    4  502    0 -0.38759897035E+02 -0.32793501116E+02  0.35443840752E+02  0.62097497381E+02  0.47000000000E+01 0. -1.
         -5    1    4    4    0  502  0.22667286676E+02  0.64645085524E+02  0.14347556650E+03  0.15906011804E+03  0.47000000000E+01 0. -1.
<mgrwt>
<rscale>  0 0.27024100E+03</rscale>
<asrwt>0</asrwt>
<pdfrwt beam="1">  1       21 0.84629306E-01 0.27024100E+03</pdfrwt>
<pdfrwt beam="2">  1       21 0.51061669E-02 0.27024100E+03</pdfrwt>
<totfact> 0.30780793E+05</totfact>
</mgrwt>
</event>
<event>
 8    1  0.9373234E-006  0.2776175E+03  0.7546771E-02  0.1096997E+00
         21   -1    0    0  504  503  0.00000000000E+00  0.00000000000E+00  0.10941224062E+02  0.10941224062E+02  0.00000000000E+00 0.  1.
         21   -1    0    0  503  504 -0.00000000000E+00 -0.00000000000E+00 -0.17610336650E+04  0.17610336650E+04  0.00000000000E+00 0.  1.
         25    2    1    2    0    0  0.30792477424E+02 -0.32875961076E+02 -0.61858664502E+03  0.63269537055E+03  0.12499995616E+03 0.  0.
         25    2    1    2    0    0 -0.30792477424E+02  0.32875961076E+02 -0.11315057959E+04  0.11392795185E+04  0.12499379831E+03 0.  0.
          5    1    3    3  501    0  0.23852398369E+02  0.19479016048E+02 -0.51847220215E+03  0.51940724232E+03  0.47000000000E+01 0.  1.
         -5    1    3    3    0  501  0.69400790557E+01 -0.52354977124E+02 -0.10011444287E+03  0.11328812823E+03  0.47000000000E+01 0.  1.
          5    1    4    4  502    0 -0.37045729256E+02  0.41568877339E+02 -0.19889548826E+03  0.20659589267E+03  0.47000000000E+01 0. -1.
         -5    1    4    4    0  502  0.62532518313E+01 -0.86929162635E+01 -0.93261030763E+03  0.93268362580E+03  0.47000000000E+01 0. -1.
<mgrwt>
<rscale>  0 0.27761746E+03</rscale>
<asrwt>0</asrwt>
<pdfrwt beam="1">  1       21 0.16832656E-02 0.27761746E+03</pdfrwt>
<pdfrwt beam="2">  1       21 0.27092819E+00 0.27761746E+03</pdfrwt>
<totfact> 0.77289855E+04</totfact>
</mgrwt>
</event>
<event>
 8    1  0.9373234E-006  0.3061624E+03  0.7546771E-02  0.1082200E+00
         21   -1    0    0  504  503  0.00000000000E+00  0.00000000000E+00  0.92936330928E+03  0.92936330928E+03  0.00000000000E+00 0.  1.
         21   -1    0    0  503  504 -0.00000000000E+00 -0.00000000000E+00 -0.25214953068E+02  0.25214953068E+02  0.00000000000E+00 0.  1.
         25    2    1    2    0    0  0.29367334909E+02  0.82461660473E+01  0.71067869431E+03  0.72223261945E+03  0.12500124172E+03 0.  0.
         25    2    1    2    0    0 -0.29367334909E+02 -0.82461660473E+01  0.19346966190E+03  0.23234564291E+03  0.12499419221E+03 0.  0.
          5    1    3    3  501    0 -0.37451052400E+02 -0.20907456994E+02  0.43158275926E+03  0.43373433248E+03  0.47000000000E+01 0.  1.
         -5    1    3    3    0  501  0.66818387308E+02  0.29153623041E+02  0.27909593505E+03  0.28849828696E+03  0.47000000000E+01 0.  1.
          5    1    4    4  502    0 -0.29803782131E+02 -0.54875546119E+02  0.46263936930E+02  0.77859057607E+02  0.47000000000E+01 0. -1.
         -5    1    4    4    0  502  0.43644722265E+00  0.46629380072E+02  0.14720572497E+03  0.15448658530E+03  0.47000000000E+01 0. -1.
<mgrwt>
<rscale>  0 0.30616239E+03</rscale>
<asrwt>0</asrwt>
<pdfrwt beam="1">  1       21 0.14297894E+00 0.30616239E+03</pdfrwt>
<pdfrwt beam="2">  1       21 0.38792243E-02 0.30616239E+03</pdfrwt>
<totfact> 0.13400654E+05</totfact>
</mgrwt>
</event>
<event>
 8    1  0.9373234E-006  0.2774643E+03  0.7546771E-02  0.1097082E+00
         21   -1    0    0  504  503  0.00000000000E+00  0.00000000000E+00  0.19645853739E+03  0.19645853739E+03  0.00000000000E+00 0. -1.
         21   -1    0    0  503  504 -0.00000000000E+00 -0.00000000000E+00 -0.97967796943E+02  0.97967796943E+02  0.00000000000E+00 0. -1.
         25    2    1    2    0    0 -0.90632914184E+01 -0.46972206215E+02  0.87994024103E+02  0.16017720350E+03  0.12500102733E+03 0.  0.
         25    2    1    2    0    0  0.90632914184E+01  0.46972206215E+02  0.10496716342E+02  0.13424913084E+03  0.12499646662E+03 0.  0.
          5    1    3    3  501    0 -0.41733734653E+02 -0.77920464854E+02  0.55622978624E+02  0.10454333648E+03  0.47000000000E+01 0.  1.
         -5    1    3    3    0  501  0.32670443234E+02  0.30948258639E+02  0.32371045478E+02  0.55633867017E+02  0.47000000000E+01 0.  1.
          5    1    4    4  502    0 -0.25832939607E+02  0.13907690416E+02 -0.49189279830E+02  0.57466858898E+02  0.47000000000E+01 0.  1.
         -5    1    4    4    0  502  0.34896231025E+02  0.33064515799E+02  0.59685996172E+02  0.76782271937E+02  0.47000000000E+01 0.  1.
<mgrwt>
<rscale>  0 0.27746430E+03</rscale>
<asrwt>0</asrwt>
<pdfrwt beam="1">  1       21 0.30224390E-01 0.27746430E+03</pdfrwt>
<pdfrwt beam="2">  1       21 0.15071969E-01 0.27746430E+03</pdfrwt>
<totfact> 0.40121728E+05</totfact>
</mgrwt>
</event>
<event>
 8    1  0.9373234E-006  0.3064834E+03  0.7546771E-02  0.1082044E+00
         21   -1    0    0  504  503  0.00000000000E+00  0.00000000000E+00  0.88774213410E+02  0.88774213410E+02  0.00000000000E+00 0.  1.
         21   -1    0    0  503  504 -0.00000000000E+00 -0.00000000000E+00 -0.26452524926E+03  0.26452524926E+03  0.00000000000E+00 0.  1.
         25    2    1    2    0    0 -0.27006823582E+02  0.82319855613E+02 -0.10952637789E+03  0.18742311103E+03  0.12500187177E+03 0.  0.
         25    2    1    2    0    0  0.27006823582E+02 -0.82319855613E+02 -0.66224657952E+02  0.16587635163E+03  0.12499332607E+03 0.  0.
          5    1    3    3  501    0  0.20725651771E+02  0.77778043535E+01  0.20180640042E+02  0.30321528893E+02  0.47000000000E+01 0.  1.
         -5    1    3    3    0  501 -0.47732475353E+02  0.74542051259E+02 -0.12970701794E+03  0.15710158214E+03  0.47000000000E+01 0.  1.
          5    1    4    4  502    0  0.46255639578E+02 -0.10593855874E+03 -0.32471003520E+02  0.12016246706E+03  0.47000000000E+01 0. -1.
         -5    1    4    4    0  502 -0.19248815996E+02  0.23618703131E+02 -0.33753654431E+02  0.45713884568E+02  0.47000000000E+01 0. -1.
<mgrwt>
<rscale>  0 0.30648342E+03</rscale>
<asrwt>0</asrwt>
<pdfrwt beam="1">  1       21 0.13657572E-01 0.30648342E+03</pdfrwt>
<pdfrwt beam="2">  1       21 0.40696192E-01 0.30648342E+03</pdfrwt>
<totfact> 0.26314704E+05</totfact>
</mgrwt>
</event>
<event>
 8    1  0.9373234E-006  0.3137653E+03  0.7546771E-02  0.1078555E+00
         21   -1    0    0  504  503  0.00000000000E+00  0.00000000000E+00  0.91523873343E+03  0.91523873343E+03  0.00000000000E+00 0. -1.
         21   -1    0    0  503  504 -0.00000000000E+00 -0.00000000000E+00 -0.26891525049E+02  0.26891525049E+02  0.00000000000E+00 0. -1.
         25    2    1    2    0    0 -0.90911008878E+02 -0.13566736992E+02  0.51376357190E+03  0.53668457272E+03  0.12501381885E+03 0.  0.
         25    2    1    2    0    0  0.90911008878E+02  0.13566736992E+02  0.37458363649E+03  0.40544568576E+03  0.12499774193E+03 0.  0.
          5    1    3    3  501    0  0.12410651999E+02 -0.22320938917E+02  0.21845665006E+02  0.33934815113E+02  0.47000000000E+01 0.  1.
         -5    1    3    3    0  501 -0.10332166088E+03  0.87542019254E+01  0.49191790689E+03  0.50274975761E+03  0.47000000000E+01 0.  1.
          5    1    4    4  502    0 -0.29814621880E+02  0.20177516273E+00  0.11362825848E+03  0.11756880333E+03  0.47000000000E+01 0. -1.
         -5    1    4    4    0  502  0.12072563076E+03  0.13364961829E+02  0.26095537801E+03  0.28787688243E+03  0.47000000000E+01 0. -1.
<mgrwt>
<rscale>  0 0.31376530E+03</rscale>
<asrwt>0</asrwt>
<pdfrwt beam="1">  1       21 0.14080593E+00 0.31376530E+03</pdfrwt>
<pdfrwt beam="2">  1       21 0.41371584E-02 0.31376530E+03</pdfrwt>
<totfact> 0.12483787E+05</totfact>
</mgrwt>
</event>
<event>
 8    1  0.9373234E-006  0.2652208E+03  0.7546771E-02  0.1104046E+00
         21   -1    0    0  504  503  0.00000000000E+00  0.00000000000E+00  0.15048330258E+02  0.15048330258E+02  0.00000000000E+00 0.  1.
         21   -1    0    0  503  504 -0.00000000000E+00 -0.00000000000E+00 -0.11686029586E+04  0.11686029586E+04  0.00000000000E+00 0.  1.
         25    2    1    2    0    0 -0.29521082241E+02  0.12524460220E+02 -0.44036926301E+03  0.45888552036E+03  0.12498990596E+03 0.  0.
         25    2    1    2    0    0  0.29521082241E+02 -0.12524460220E+02 -0.71318536535E+03  0.72476576851E+03  0.12499478975E+03 0.  0.
          5    1    3    3  501    0  0.40646848041E+02  0.36343954345E+02 -0.17993452636E+03  0.18807331828E+03  0.47000000000E+01 0. -1.
         -5    1    3    3    0  501 -0.70167930282E+02 -0.23819494124E+02 -0.26043473665E+03  0.27081220208E+03  0.47000000000E+01 0. -1.
          5    1    4    4  502    0  0.69679515934E+02 -0.10056957847E+02 -0.60749170685E+03  0.61157554009E+03  0.47000000000E+01 0.  1.
         -5    1    4    4    0  502 -0.40158433694E+02 -0.24675023727E+01 -0.10569365850E+03  0.11319022843E+03  0.47000000000E+01 0.  1.
<mgrwt>
<rscale>  0 0.26522084E+03</rscale>
<asrwt>0</asrwt>
<pdfrwt beam="1">  1       21 0.23151273E-02 0.26522084E+03</pdfrwt>
<pdfrwt beam="2">  1       21 0.17978511E+00 0.26522084E+03</pdfrwt>
<totfact> 0.17154283E+05</totfact>
</mgrwt>
</event>
<event>
 8    1  0.9373234E-006  0.3624130E+03  0.7546771E-02  0.1057632E+00
         21   -1    0    0  504  503  0.00000000000E+00  0.00000000000E+00  0.73808061346E+02  0.73808061346E+02  0.00000000000E+00 0.  1.
         21   -1    0    0  503  504 -0.00000000000E+00 -0.00000000000E+00 -0.44488093231E+03  0.44488093231E+03  0.00000000000E+00 0.  1.
         25    2    1    2    0    0  0.85694867711E+02 -0.71526582019E+02 -0.28418500153E+03  0.32991775182E+03  0.12499978234E+03 0.  0.
         25    2    1    2    0    0 -0.85694867711E+02  0.71526582019E+02 -0.86887869433E+02  0.18877124183E+03  0.12500167039E+03 0.  0.
          5    1    3    3  501    0  0.21636895452E+01 -0.39062729159E+02 -0.20947420353E+03  0.21314809478E+03  0.47000000000E+01 0.  1.
         -5    1    3    3    0  501  0.83531178166E+02 -0.32463852860E+02 -0.74710797994E+02  0.11676965704E+03  0.47000000000E+01 0.  1.
          5    1    4    4  502    0 -0.42613008184E+01  0.72593604927E+01 -0.84345899241E+02  0.84895098316E+02  0.47000000000E+01 0. -1.
         -5    1    4    4    0  502 -0.81433566893E+02  0.64267221526E+02 -0.25419701924E+01  0.10387614352E+03  0.47000000000E+01 0. -1.
<mgrwt>
<rscale>  0 0.36241302E+03</rscale>
<asrwt>0</asrwt>
<pdfrwt beam="1">  1       21 0.11355086E-01 0.36241302E+03</pdfrwt>
<pdfrwt beam="2">  1       21 0.68443223E-01 0.36241302E+03</pdfrwt>
<totfact> 0.11992614E+05</totfact>
</mgrwt>
</event>
<event>
 8    1  0.9373234E-006  0.4116290E+03  0.7546771E-02  0.1039826E+00
         21   -1    0    0  504  503  0.00000000000E+00  0.00000000000E+00  0.48217193408E+03  0.48217193408E+03  0.00000000000E+00 0.  1.
         21   -1    0    0  503  504 -0.00000000000E+00 -0.00000000000E+00 -0.87851667764E+02  0.87851667764E+02  0.00000000000E+00 0.  1.
         25    2    1    2    0    0 -0.10854336054E+03  0.10865558064E+03  0.27492219349E+03  0.33879072827E+03  0.12493697918E+03 0.  0.
         25    2    1    2    0    0  0.10854336054E+03 -0.10865558064E+03  0.11939807283E+03  0.23123287357E+03  0.12500018283E+03 0.  0.
          5    1    3    3  501    0 -0.75340288953E+02 -0.75883928872E+01  0.88712165824E+02  0.11672909325E+03  0.47000000000E+01 0.  1.
         -5    1    3    3    0  501 -0.33203071584E+02  0.11624397352E+03  0.18621002767E+03  0.22206163502E+03  0.47000000000E+01 0.  1.
          5    1    4    4  502    0  0.29891201480E+02  0.18890101449E+02  0.60348583040E+02  0.70102505901E+02  0.47000000000E+01 0.  1.
         -5    1    4    4    0  502  0.78652159057E+02 -0.12754568208E+03  0.59049489785E+02  0.16113036767E+03  0.47000000000E+01 0.  1.
<mgrwt>
<rscale>  0 0.41162900E+03</rscale>
<asrwt>0</asrwt>
<pdfrwt beam="1">  1       21 0.74180296E-01 0.41162900E+03</pdfrwt>
<pdfrwt beam="2">  1       21 0.13515641E-01 0.41162900E+03</pdfrwt>
<totfact> 0.72053641E+04</totfact>
</mgrwt>
</event>
<event>
 8    1  0.9373234E-006  0.3579487E+03  0.7546771E-02  0.1059399E+00
         21   -1    0    0  504  503  0.00000000000E+00  0.00000000000E+00  0.84599642447E+02  0.84599642447E+02  0.00000000000E+00 0. -1.
         21   -1    0    0  503  504 -0.00000000000E+00 -0.00000000000E+00 -0.37862820815E+03  0.37862820815E+03  0.00000000000E+00 0. -1.
         25    2    1    2    0    0 -0.47397742210E+02 -0.99396652814E+02 -0.23167290075E+03  0.28535410125E+03  0.12501355767E+03 0.  0.
         25    2    1    2    0    0  0.47397742210E+02  0.99396652814E+02 -0.62355664953E+02  0.17787374935E+03  0.12499840478E+03 0.  0.
          5    1    3    3  501    0 -0.54982351105E+02 -0.26517683274E+02 -0.25186184677E+02  0.66201815366E+02  0.47000000000E+01 0.  1.
         -5    1    3    3    0  501  0.75846088944E+01 -0.72878969539E+02 -0.20648671607E+03  0.21915228588E+03  0.47000000000E+01 0.  1.
          5    1    4    4  502    0  0.45648020759E+02  0.27448829716E+02  0.29513687139E+02  0.61076409362E+02  0.47000000000E+01 0.  1.
         -5    1    4    4    0  502  0.17497214512E+01  0.71947823098E+02 -0.91869352092E+02  0.11679733998E+03  0.47000000000E+01 0.  1.
<mgrwt>
<rscale>  0 0.35794866E+03</rscale>
<asrwt>0</asrwt>
<pdfrwt beam="1">  1       21 0.13015329E-01 0.35794866E+03</pdfrwt>
<pdfrwt beam="2">  1       21 0.58250495E-01 0.35794866E+03</pdfrwt>
<totfact> 0.13359513E+05</totfact>
</mgrwt>
</event>
<event>
 8    1  0.9373234E-006  0.2540903E+03  0.7546771E-02  0.1110747E+00
         21   -1    0    0  504  503  0.00000000000E+00  0.00000000000E+00  0.33834512348E+03  0.33834512348E+03  0.00000000000E+00 0.  1.
         21   -1    0    0  503  504 -0.00000000000E+00 -0.00000000000E+00 -0.47704148562E+02  0.47704148562E+02  0.00000000000E+00 0.  1.
         25    2    1    2    0    0  0.22912754355E+01  0.22680857600E+02  0.14452884754E+03  0.19244267732E+03  0.12500370009E+03 0.  0.
         25    2    1    2    0    0 -0.22912754355E+01 -0.22680857600E+02  0.14611212737E+03  0.19360659472E+03  0.12496034775E+03 0.  0.
          5    1    3    3  501    0  0.30772913880E+02  0.34703412557E+02  0.21487351123E+01  0.46669113281E+02  0.47000000000E+01 0.  1.
         -5    1    3    3    0  501 -0.28481638445E+02 -0.12022554957E+02  0.14238011243E+03  0.14577356404E+03  0.47000000000E+01 0.  1.
          5    1    4    4  502    0  0.45326726580E+02 -0.53291673349E+02  0.84548888279E+02  0.10984133603E+03  0.47000000000E+01 0. -1.
         -5    1    4    4    0  502 -0.47618002015E+02  0.30610815749E+02  0.61563239091E+02  0.83765258694E+02  0.47000000000E+01 0. -1.
<mgrwt>
<rscale>  0 0.25409027E+03</rscale>
<asrwt>0</asrwt>
<pdfrwt beam="1">  1       21 0.52053094E-01 0.25409027E+03</pdfrwt>
<pdfrwt beam="2">  1       21 0.73391000E-02 0.25409027E+03</pdfrwt>
<totfact> 0.48205005E+05</totfact>
</mgrwt>
</event>
<event>
 8    1  0.9373234E-006  0.3425104E+03  0.7546771E-02  0.1065732E+00
         21   -1    0    0  504  503  0.00000000000E+00  0.00000000000E+00  0.42980000886E+02  0.42980000886E+02  0.00000000000E+00 0. -1.
         21   -1    0    0  503  504 -0.00000000000E+00 -0.00000000000E+00 -0.68237184282E+03  0.68237184282E+03  0.00000000000E+00 0. -1.
         25    2    1    2    0    0 -0.14536712131E+02 -0.14983746746E+02 -0.75773901899E+02  0.14765833357E+03  0.12500188238E+03 0.  0.
         25    2    1    2    0    0  0.14536712131E+02  0.14983746746E+02 -0.56361794003E+03  0.57769351014E+03  0.12501512172E+03 0.  0.
          5    1    3    3  501    0  0.44426258029E+02  0.10833434313E+02 -0.68799723675E+02  0.82743867926E+02  0.47000000000E+01 0.  1.
         -5    1    3    3    0  501 -0.58962970160E+02 -0.25817181059E+02 -0.69741782241E+01  0.64914465644E+02  0.47000000000E+01 0.  1.
          5    1    4    4  502    0  0.26275665966E+01  0.60529929268E+02 -0.15729754477E+03  0.16862794559E+03  0.47000000000E+01 0. -1.
         -5    1    4    4    0  502  0.11909145534E+02 -0.45546182522E+02 -0.40632039527E+03  0.40906556455E+03  0.47000000000E+01 0. -1.
<mgrwt>
<rscale>  0 0.34251039E+03</rscale>
<asrwt>0</asrwt>
<pdfrwt beam="1">  1       21 0.66123087E-02 0.34251039E+03</pdfrwt>
<pdfrwt beam="2">  1       21 0.10498027E+00 0.34251039E+03</pdfrwt>
<totfact> 0.11613666E+05</totfact>
</mgrwt>
</event>
<event>
 8    1  0.9373234E-006  0.4088735E+03  0.7546771E-02  0.1040750E+00
         21   -1    0    0  504  503  0.00000000000E+00  0.00000000000E+00  0.41632959257E+03  0.41632959257E+03  0.00000000000E+00 0.  1.
         21   -1    0    0  503  504 -0.00000000000E+00 -0.00000000000E+00 -0.10038774467E+03  0.10038774467E+03  0.00000000000E+00 0.  1.
         25    2    1    2    0    0  0.27466714553E+02  0.23447517485E+02 -0.41310248594E+02  0.13650932168E+03  0.12499620707E+03 0.  0.
         25    2    1    2    0    0 -0.27466714553E+02 -0.23447517485E+02  0.35725209649E+03  0.38020801557E+03  0.12499947268E+03 0.  0.
          5    1    3    3  501    0 -0.49256911063E+02 -0.83883997188E+00 -0.16451115157E+02  0.52150514186E+02  0.47000000000E+01 0.  1.
         -5    1    3    3    0  501  0.76723625616E+02  0.24286357457E+02 -0.24859133437E+02  0.84358807492E+02  0.47000000000E+01 0.  1.
          5    1    4    4  502    0 -0.28757502407E+02 -0.52178622997E+02  0.34225529307E+03  0.34743399125E+03  0.47000000000E+01 0.  1.
         -5    1    4    4    0  502  0.12907878540E+01  0.28731105512E+02  0.14996803427E+02  0.32774024322E+02  0.47000000000E+01 0.  1.
<mgrwt>
<rscale>  0 0.40887352E+03</rscale>
<asrwt>0</asrwt>
<pdfrwt beam="1">  1       21 0.64050706E-01 0.40887352E+03</pdfrwt>
<pdfrwt beam="2">  1       21 0.15444269E-01 0.40887352E+03</pdfrwt>
<totfact> 0.78320564E+04</totfact>
</mgrwt>
</event>
<event>
 8    1  0.9373234E-006  0.4279884E+03  0.7546771E-02  0.1034497E+00
         21   -1    0    0  504  503  0.00000000000E+00  0.00000000000E+00  0.14018390875E+03  0.14018390875E+03  0.00000000000E+00 0. -1.
         21   -1    0    0  503  504 -0.00000000000E+00 -0.00000000000E+00 -0.32666739639E+03  0.32666739639E+03  0.00000000000E+00 0. -1.
         25    2    1    2    0    0 -0.15853367220E+03 -0.30604645400E+02 -0.23403768072E+02  0.20552677981E+03  0.12499580521E+03 0.  0.
         25    2    1    2    0    0  0.15853367220E+03  0.30604645400E+02 -0.16307971957E+03  0.26132452533E+03  0.12500377219E+03 0.  0.
          5    1    3    3  501    0 -0.45535123820E+02 -0.22719108072E+02 -0.66823817990E+02  0.84125608608E+02  0.47000000000E+01 0.  1.
         -5    1    3    3    0  501 -0.11299854838E+03 -0.78855373278E+01  0.43420049918E+02  0.12140117120E+03  0.47000000000E+01 0.  1.
          5    1    4    4  502    0  0.84984253677E+02 -0.22440106085E+00 -0.16017399363E+03  0.18138404551E+03  0.47000000000E+01 0. -1.
         -5    1    4    4    0  502  0.73549418523E+02  0.30829046460E+02 -0.29057259417E+01  0.79940479821E+02  0.47000000000E+01 0. -1.
<mgrwt>
<rscale>  0 0.42798838E+03</rscale>
<asrwt>0</asrwt>
<pdfrwt beam="1">  1       21 0.21566756E-01 0.42798838E+03</pdfrwt>
<pdfrwt beam="2">  1       21 0.50256521E-01 0.42798838E+03</pdfrwt>
<totfact> 0.70329915E+04</totfact>
</mgrwt>
</event>
<event>
 8    1  0.9373234E-006  0.3797171E+03  0.7546771E-02  0.1051038E+00
         21   -1    0    0  504  503  0.00000000000E+00  0.00000000000E+00  0.44061342145E+02  0.44061342145E+02  0.00000000000E+00 0.  1.
         21   -1    0    0  503  504 -0.00000000000E+00 -0.00000000000E+00 -0.81809269281E+03  0.81809269281E+03  0.00000000000E+00 0.  1.
         25    2    1    2    0    0 -0.17475942394E+01  0.12649634579E+03 -0.23613265140E+03  0.29561421398E+03  0.12499901946E+03 0.  0.
         25    2    1    2    0    0  0.17475942394E+01 -0.12649634579E+03 -0.53789869926E+03  0.56653982097E+03  0.12501191343E+03 0.  0.
          5    1    3    3  501    0 -0.32264483537E+02  0.22289864679E+02 -0.15509067799E+03  0.16004075533E+03  0.47000000000E+01 0.  1.
         -5    1    3    3    0  501  0.30516889297E+02  0.10420648111E+03 -0.81041973410E+02  0.13557345865E+03  0.47000000000E+01 0.  1.
          5    1    4    4  502    0 -0.33530563418E+02 -0.13168354778E+03 -0.47508040033E+03  0.49415415835E+03  0.47000000000E+01 0. -1.
         -5    1    4    4    0  502  0.35278157657E+02  0.51872019984E+01 -0.62818298927E+02  0.72385662616E+02  0.47000000000E+01 0. -1.
<mgrwt>
<rscale>  0 0.37971706E+03</rscale>
<asrwt>0</asrwt>
<pdfrwt beam="1">  1       21 0.67786678E-02 0.37971706E+03</pdfrwt>
<pdfrwt beam="2">  1       21 0.12586042E+00 0.37971706E+03</pdfrwt>
<totfact> 0.70042298E+04</totfact>
</mgrwt>
</event>
<event>
 8    1  0.9373234E-006  0.2697534E+03  0.7546771E-02  0.1101421E+00
         21   -1    0    0  504  503  0.00000000000E+00  0.00000000000E+00  0.55252219314E+02  0.55252219314E+02  0.00000000000E+00 0. -1.
         21   -1    0    0  503  504 -0.00000000000E+00 -0.00000000000E+00 -0.32924867497E+03  0.32924867497E+03  0.00000000000E+00 0. -1.
         25    2    1    2    0    0  0.41364521905E+02 -0.36513858340E+01 -0.95633231655E+02  0.16277219606E+03  0.12499886609E+03 0.  0.
         25    2    1    2    0    0 -0.41364521905E+02  0.36513858340E+01 -0.17836322400E+03  0.22172869822E+03  0.12500327855E+03 0.  0.
          5    1    3    3  501    0  0.77020039097E+02 -0.49922354498E+01 -0.10012135314E+03  0.12650448289E+03  0.47000000000E+01 0. -1.
         -5    1    3    3    0  501 -0.35655517193E+02  0.13408496159E+01  0.44881214853E+01  0.36267713168E+02  0.47000000000E+01 0. -1.
          5    1    4    4  502    0  0.92985060720E+01  0.55496575366E+02 -0.10025253166E+03  0.11506081956E+03  0.47000000000E+01 0.  1.
         -5    1    4    4    0  502 -0.50663027977E+02 -0.51845189532E+02 -0.78110692338E+02  0.10666787867E+03  0.47000000000E+01 0.  1.
<mgrwt>
<rscale>  0 0.26975337E+03</rscale>
<asrwt>0</asrwt>
<pdfrwt beam="1">  1       21 0.85003414E-02 0.26975337E+03</pdfrwt>
<pdfrwt beam="2">  1       21 0.50653642E-01 0.26975337E+03</pdfrwt>
<totfact> 0.39357809E+05</totfact>
</mgrwt>
</event>
<event>
 8    1  0.9373234E-006  0.2650327E+03  0.7546771E-02  0.1104157E+00
         21   -1    0    0  504  503  0.00000000000E+00  0.00000000000E+00  0.10812393507E+03  0.10812393507E+03  0.00000000000E+00 0.  1.
         21   -1    0    0  503  504 -0.00000000000E+00 -0.00000000000E+00 -0.16241156008E+03  0.16241156008E+03  0.00000000000E+00 0.  1.
         25    2    1    2    0    0  0.19593920171E+01 -0.33339387083E+02  0.21088304839E+01  0.12939986088E+03  0.12499809151E+03 0.  0.
         25    2    1    2    0    0 -0.19593920171E+01  0.33339387083E+02 -0.56396455485E+02  0.14113563427E+03  0.12499341231E+03 0.  0.
          5    1    3    3  501    0  0.29712200797E+02  0.40363802177E+02  0.38304531738E+01  0.50485777937E+02  0.47000000000E+01 0. -1.
         -5    1    3    3    0  501 -0.27752808780E+02 -0.73703189260E+02 -0.17216226900E+01  0.78914082945E+02  0.47000000000E+01 0. -1.
          5    1    4    4  502    0 -0.58082922724E+02  0.42661935376E+02 -0.29163301312E+02  0.77886165560E+02  0.47000000000E+01 0.  1.
         -5    1    4    4    0  502  0.56123530707E+02 -0.93225482934E+01 -0.27233154174E+02  0.63249468709E+02  0.47000000000E+01 0.  1.
<mgrwt>
<rscale>  0 0.26503265E+03</rscale>
<asrwt>0</asrwt>
<pdfrwt beam="1">  1       21 0.16634452E-01 0.26503265E+03</pdfrwt>
<pdfrwt beam="2">  1       21 0.24986394E-01 0.26503265E+03</pdfrwt>
<totfact> 0.48544321E+05</totfact>
</mgrwt>
</event>
<event>
 8    1  0.9373234E-006  0.3999753E+03  0.7546771E-02  0.1043788E+00
         21   -1    0    0  504  503  0.00000000000E+00  0.00000000000E+00  0.86947875557E+01  0.86947875557E+01  0.00000000000E+00 0.  1.
         21   -1    0    0  503  504 -0.00000000000E+00 -0.00000000000E+00 -0.45998899348E+04  0.45998899348E+04  0.00000000000E+00 0.  1.
         25    2    1    2    0    0  0.95030117899E+02  0.23611578533E+02 -0.36964404253E+04  0.36998494732E+04  0.12500430795E+03 0.  0.
         25    2    1    2    0    0 -0.95030117899E+02 -0.23611578533E+02 -0.89475472200E+03  0.90873524916E+03  0.12500204226E+03 0.  0.
          5    1    3    3  501    0 -0.29648204310E+02 -0.58421510495E+01 -0.69406386017E+03  0.69473727318E+03  0.47000000000E+01 0. -1.
         -5    1    3    3    0  501  0.12467832221E+03  0.29453729583E+02 -0.30023765651E+04  0.30051122001E+04  0.47000000000E+01 0. -1.
          5    1    4    4  502    0 -0.41659074109E+01 -0.64037485825E+01  0.23046597419E+00  0.89725077336E+01  0.47000000000E+01 0. -1.
         -5    1    4    4    0  502 -0.90864210488E+02 -0.17207829951E+02 -0.89498518798E+03  0.89976274142E+03  0.47000000000E+01 0. -1.
<mgrwt>
<rscale>  0 0.39997533E+03</rscale>
<asrwt>0</asrwt>
<pdfrwt beam="1">  1       21 0.13376572E-02 0.39997533E+03</pdfrwt>
<pdfrwt beam="2">  1       21 0.70767664E+00 0.39997533E+03</pdfrwt>
<totfact> 0.79504890E+01</totfact>
</mgrwt>
</event>
<event>
 8    1  0.9373234E-006  0.3020989E+03  0.7546771E-02  0.1084196E+00
         21   -1    0    0  504  503  0.00000000000E+00  0.00000000000E+00  0.20417001074E+03  0.20417001074E+03  0.00000000000E+00 0.  1.
         21   -1    0    0  503  504 -0.00000000000E+00 -0.00000000000E+00 -0.11174966246E+03  0.11174966246E+03  0.00000000000E+00 0.  1.
         25    2    1    2    0    0 -0.65096894746E+01  0.23457980150E+02  0.13115733627E+03  0.18280764494E+03  0.12499494111E+03 0.  0.
         25    2    1    2    0    0  0.65096894746E+01 -0.23457980150E+02 -0.38736987984E+02  0.13311202826E+03  0.12500241974E+03 0.  0.
          5    1    3    3  501    0  0.49994368085E+02  0.36831018395E+02  0.38052222423E+02  0.72979602545E+02  0.47000000000E+01 0. -1.
         -5    1    3    3    0  501 -0.56504057560E+02 -0.13373038245E+02  0.93105113843E+02  0.10982804239E+03  0.47000000000E+01 0. -1.
          5    1    4    4  502    0 -0.14942048732E+02 -0.72199166839E+02 -0.21566076174E+02  0.76962134548E+02  0.47000000000E+01 0.  1.
         -5    1    4    4    0  502  0.21451738207E+02  0.48741186689E+02 -0.17170911810E+02  0.56149893717E+02  0.47000000000E+01 0.  1.
<mgrwt>
<rscale>  0 0.30209886E+03</rscale>
<asrwt>0</asrwt>
<pdfrwt beam="1">  1       21 0.31410771E-01 0.30209886E+03</pdfrwt>
<pdfrwt beam="2">  1       21 0.17192256E-01 0.30209886E+03</pdfrwt>
<totfact> 0.29018450E+05</totfact>
</mgrwt>
</event>
<event>
 8    1  0.9373234E-006  0.4134171E+03  0.7546771E-02  0.1039230E+00
         21   -1    0    0  504  503  0.00000000000E+00  0.00000000000E+00  0.98631307331E+03  0.98631307331E+03  0.00000000000E+00 0. -1.
         21   -1    0    0  503  504 -0.00000000000E+00 -0.00000000000E+00 -0.43321355764E+02  0.43321355764E+02  0.00000000000E+00 0. -1.
         25    2    1    2    0    0  0.78549656570E+01  0.12747254690E+03  0.73021246596E+03  0.75175948002E+03  0.12498447766E+03 0.  0.
         25    2    1    2    0    0 -0.78549656570E+01 -0.12747254690E+03  0.21277925158E+03  0.27787494905E+03  0.12501410604E+03 0.  0.
          5    1    3    3  501    0  0.13083117217E+02  0.10737988533E+03  0.72009591487E+03  0.72819078842E+03  0.47000000000E+01 0. -1.
         -5    1    3    3    0  501 -0.52281515604E+01  0.20092661571E+02  0.10116551093E+02  0.23568691601E+02  0.47000000000E+01 0. -1.
          5    1    4    4  502    0 -0.37621653605E+02 -0.98886851458E+02  0.21124968308E+03  0.23631021310E+03  0.47000000000E+01 0. -1.
         -5    1    4    4    0  502  0.29766687948E+02 -0.28585695440E+02  0.15295684988E+01  0.41564735954E+02  0.47000000000E+01 0. -1.
<mgrwt>
<rscale>  0 0.41341708E+03</rscale>
<asrwt>0</asrwt>
<pdfrwt beam="1">  1       21 0.15174046E+00 0.41341708E+03</pdfrwt>
<pdfrwt beam="2">  1       21 0.66648247E-02 0.41341708E+03</pdfrwt>
<totfact> 0.43663239E+04</totfact>
</mgrwt>
</event>
<event>
 8    1  0.9373234E-006  0.3856341E+03  0.7546771E-02  0.1048871E+00
         21   -1    0    0  504  503  0.00000000000E+00  0.00000000000E+00  0.85865732400E+02  0.85865732400E+02  0.00000000000E+00 0.  1.
         21   -1    0    0  503  504 -0.00000000000E+00 -0.00000000000E+00 -0.43298307032E+03  0.43298307032E+03  0.00000000000E+00 0.  1.
         25    2    1    2    0    0 -0.12556321578E+03 -0.63796801735E+02 -0.11779902797E+03  0.22212165096E+03  0.12500105506E+03 0.  0.
         25    2    1    2    0    0  0.12556321578E+03  0.63796801735E+02 -0.22931830994E+03  0.29672715175E+03  0.12499584890E+03 0.  0.
          5    1    3    3  501    0 -0.34708628323E+02  0.37957444768E+02 -0.36596175916E+02  0.63299499090E+02  0.47000000000E+01 0.  1.
         -5    1    3    3    0  501 -0.90854587460E+02 -0.10175424650E+03 -0.81202852057E+02  0.15882215187E+03  0.47000000000E+01 0.  1.
          5    1    4    4  502    0  0.34186296370E+02 -0.80003547228E+01  0.43749545031E+01  0.35692278746E+02  0.47000000000E+01 0. -1.
         -5    1    4    4    0  502  0.91376919413E+02  0.71797156458E+02 -0.23369326445E+03  0.26103487301E+03  0.47000000000E+01 0. -1.
<mgrwt>
<rscale>  0 0.38563407E+03</rscale>
<asrwt>0</asrwt>
<pdfrwt beam="1">  1       21 0.13210112E-01 0.38563407E+03</pdfrwt>
<pdfrwt beam="2">  1       21 0.66612781E-01 0.38563407E+03</pdfrwt>
<totfact> 0.96251307E+04</totfact>
</mgrwt>
</event>
<event>
 8    1  0.9373234E-006  0.2554750E+03  0.7546771E-02  0.1109893E+00
         21   -1    0    0  504  503  0.00000000000E+00  0.00000000000E+00  0.12915745283E+03  0.12915745283E+03  0.00000000000E+00 0.  1.
         21   -1    0    0  503  504 -0.00000000000E+00 -0.00000000000E+00 -0.12633319850E+03  0.12633319850E+03  0.00000000000E+00 0.  1.
         25    2    1    2    0    0  0.32864583647E+01 -0.23405623166E+02 -0.10083975573E+02  0.12761267696E+03  0.12499873901E+03 0.  0.
         25    2    1    2    0    0 -0.32864583647E+01  0.23405623166E+02  0.12908229906E+02  0.12787797437E+03  0.12501011929E+03 0.  0.
          5    1    3    3  501    0  0.37991999484E+02  0.15207940014E+02 -0.47925933275E+02  0.63195399710E+02  0.47000000000E+01 0.  1.
         -5    1    3    3    0  501 -0.34705541119E+02 -0.38613563180E+02  0.37841957703E+02  0.64417277252E+02  0.47000000000E+01 0.  1.
          5    1    4    4  502    0 -0.70609296496E+01  0.41190792530E+02 -0.48189278140E+02  0.63959632929E+02  0.47000000000E+01 0.  1.
         -5    1    4    4    0  502  0.37744712849E+01 -0.17785169363E+02  0.61097508046E+02  0.63918341438E+02  0.47000000000E+01 0.  1.
<mgrwt>
<rscale>  0 0.25547504E+03</rscale>
<asrwt>0</asrwt>
<pdfrwt beam="1">  1       21 0.19870377E-01 0.25547504E+03</pdfrwt>
<pdfrwt beam="2">  1       21 0.19435877E-01 0.25547504E+03</pdfrwt>
<totfact> 0.56246694E+05</totfact>
</mgrwt>
</event>
<event>
 8    1  0.9373234E-006  0.2790655E+03  0.7546771E-02  0.1096200E+00
         21   -1    0    0  504  503  0.00000000000E+00  0.00000000000E+00  0.24908463735E+03  0.24908463735E+03  0.00000000000E+00 0.  1.
         21   -1    0    0  503  504 -0.00000000000E+00 -0.00000000000E+00 -0.78163733902E+02  0.78163733902E+02  0.00000000000E+00 0.  1.
         25    2    1    2    0    0 -0.43005359893E+01 -0.58895284948E+02  0.63332232013E+02  0.15206624019E+03  0.12500408232E+03 0.  0.
         25    2    1    2    0    0  0.43005359893E+01  0.58895284948E+02  0.10758867143E+03  0.17518213105E+03  0.12500523038E+03 0.  0.
          5    1    3    3  501    0  0.28162227622E+02  0.21924261899E+02 -0.10814036963E+02  0.37587467591E+02  0.47000000000E+01 0. -1.
         -5    1    3    3    0  501 -0.32462763611E+02 -0.80819546847E+02  0.74146268976E+02  0.11447877260E+03  0.47000000000E+01 0. -1.
          5    1    4    4  502    0 -0.34867342746E+02 -0.73701801270E+01 -0.74263668328E+01  0.36705477379E+02  0.47000000000E+01 0.  1.
         -5    1    4    4    0  502  0.39167878735E+02  0.66265465075E+02  0.11501503826E+03  0.13847665368E+03  0.47000000000E+01 0.  1.
<mgrwt>
<rscale>  0 0.27906548E+03</rscale>
<asrwt>0</asrwt>
<pdfrwt beam="1">  1       21 0.38320713E-01 0.27906548E+03</pdfrwt>
<pdfrwt beam="2">  1       21 0.12025190E-01 0.27906548E+03</pdfrwt>
<totfact> 0.37677106E+05</totfact>
</mgrwt>
</event>
